 Gaussian 16, Revision C.01,

 ----------------------------------------------------------------------
 #t hf aug-cc-pvdz symm=none int=(grid=ultrafine) guess=(read,tcheck) s
 table=(opt,rrhf)
 ----------------------------------------------------------------------
 -----
 title
 -----
 Symbolic Z-matrix:
 Charge =  0 Multiplicity = 1

 SCF Done:  E(RHF) =  -343.603190788     A.U. after   15 cycles
 Normal termination of Gaussian 16 at Wed Apr  9 18:19:23 2025.
 Gaussian 16:  ES64L-G16RevC.01  3-Jul-2019

 ----------------------------------------------------------------------
 #t hf aug-cc-pvdz iop(5/13=1,5/36=2,99/5=2) pseudo=read geom=check gue
 ss=(read,tcheck) scf=(maxcycle=1)
 ----------------------------------------------------------------------
 -----
 title
 -----
 Structure from the checkpoint file:  "Grambow2020_wb97xd3_006878_reverse_mol1.chk"
 Charge =  0 Multiplicity = 1

                         Standard orientation:
 ---------------------------------------------------------------------
 Center     Atomic      Atomic             Coordinates (Angstroms)
 Number     Number       Type             X           Y           Z
 ---------------------------------------------------------------------
      1          6           0        0.764435    1.636451    0.018472
      2          6           0        0.683151    0.142788   -0.164600
      3          6           0        1.056687   -0.757694    0.984666
      4          6           0        1.945338   -0.654640   -0.233051
      5          8           0       -0.355996   -0.241857   -1.006329
      6          6           0       -1.989796   -0.543578   -0.179004
      7          8           0       -2.466271    0.227705    0.510193
      8          1           0       -0.142432    2.016216    0.492823
      9          1           0        0.872270    2.123515   -0.952382
     10          1           0        1.618344    1.910999    0.640139
     11          1           0        1.391259   -0.302945    1.908449
     12          1           0        0.509811   -1.683177    1.116077
     13          1           0        2.890600   -0.135283   -0.137341
     14          1           0        1.951889   -1.496785   -0.912135
     15          1           0       -1.272494   -1.259292   -0.745439
 ---------------------------------------------------------------------

 SCF Done:  E(RHF) =  -345.190968770     A.U. after    2 cycles

 The electronic state is 1-A.
 Alpha  occ. eigenvalues --  -21.18283 -21.00740 -11.58128 -11.43308 -11.40846
 Alpha  occ. eigenvalues --  -11.37187 -11.35187  -1.82216  -1.68028  -1.26657
 Alpha  occ. eigenvalues --   -1.04072  -0.91049  -0.86198  -0.75317  -0.65770
 Alpha  occ. eigenvalues --   -0.64804  -0.59242  -0.58979  -0.55415  -0.55043
 Alpha  occ. eigenvalues --   -0.52863  -0.50460  -0.44014  -0.41978  -0.38084
 Alpha  occ. eigenvalues --   -0.30848  -0.24110
 Alpha virt. eigenvalues --    0.03979   0.05420   0.05749   0.05928   0.06069
 Alpha virt. eigenvalues --    0.06371   0.07413   0.07667   0.09796   0.10285
 Alpha virt. eigenvalues --    0.11566   0.11957   0.13607   0.13913   0.14840

 Mulliken charges:
               1
     1  C   -4.170762
     2  C    3.827404
     3  C   -2.755119
     4  C   -3.140361
     5  O   -3.297089
     6  C    0.642524
     7  O   -1.983173
     8  H    1.203937
     9  H    1.198213
    10  H    1.220926
    11  H    1.362947
    12  H    1.282713
    13  H    1.437617
    14  H    1.189923
    15  H    1.980301
 Sum of Mulliken charges =  -0.00000

 Dipole moment (field-independent basis, Debye):
    X=             -0.4169    Y=              0.1943    Z=              0.8195  Tot=              0.9397

 Test job not archived.
 1\1\GINC-SE112\SP\RHF\Aug-CC-pVDZ\C5H8O2\OHZDE\09-Apr-2025\0\\#t hf au
 g-cc-pvdz iop(5/13=1,5/36=2,99/5=2) pseudo=read geom=check guess=(read
 ,tcheck) scf=(maxcycle=1)\\title\\0,1\C,0,-0.38648059,1.53206222,-0.21
 536277\C,0,-0.08662075,0.14046303,0.27929689\C,0,-0.75826226,-1.033854
 4,-0.38484653\C,0,-1.14409693,-0.61696276,1.0153283\O,0,1.22312405,-0.
 002466,0.72698488\C,0,2.4618408,-0.50383584,-0.56104243\O,0,2.56820369
 ,0.06012766,-1.54467394\H,0,0.23780053,1.7775079,-1.07656411\H,0,-0.18
 159092,2.25801422,0.5735804\H,0,-1.43269779,1.62798253,-0.51071885\H,0

 Normal termination of Gaussian 16 at Wed Apr  9 18:19:28 2025.
