 Gaussian 16, Revision C.01,

 ----------------------------------------------------------------------
 #t hf aug-cc-pvdz symm=none int=(grid=ultrafine) guess=(read,tcheck) s
 table=(opt,rrhf)
 ----------------------------------------------------------------------
 -----
 title
 -----
 Symbolic Z-matrix:
 Charge =  0 Multiplicity = 1

 SCF Done:  E(RHF) =  -309.048708819     A.U. after   13 cycles

 1\1\GINC-SE232\Stability\RHF\Aug-CC-pVDZ\C6H12O1\OHZDE\09-Apr-2025\0\\
 #t hf aug-cc-pvdz symm=none int=(grid=ultrafine) guess=(read,tcheck) s
 table=(opt,rrhf)\\title\\0,1\C,0,1.45739263,-0.5923332,-0.23207447\C,0
 ,0.01720523,-0.98356984,-0.1276746\O,0,-0.84978022,0.03363953,0.154909
 7\C,0,0.35059486,3.15564511,-0.25434568\C,0,0.59141139,2.96271891,1.03
 344055\C,0,-1.87032538,-2.63322434,-0.18479647\C,0,-0.43544385,-2.2234
 4093,-0.28705235\H,0,1.60199854,0.15677575,-1.01648817\H,0,2.07808848,
 -1.45519431,-0.46590011\H,0,1.81156544,-0.15911959,0.70826886\H,0,-0.3

 Normal termination of Gaussian 16 at Wed Apr  9 19:21:20 2025.
 Gaussian 16:  ES64L-G16RevC.01  3-Jul-2019

 ----------------------------------------------------------------------
 #t hf aug-cc-pvdz iop(5/13=1,5/36=2,99/5=2) pseudo=read geom=check gue
 ss=(read,tcheck) scf=(maxcycle=1)
 ----------------------------------------------------------------------
 -----
 title
 -----
 Structure from the checkpoint file:  "Grambow2020_wb97xd3_008673_reverse_mol2.chk"
 Charge =  0 Multiplicity = 1

                         Standard orientation:
 ---------------------------------------------------------------------
 Center     Atomic      Atomic             Coordinates (Angstroms)
 Number     Number       Type             X           Y           Z
 ---------------------------------------------------------------------
      1          6           0       -0.118203    1.672676    0.015825
      2          6           0       -0.896821    0.395391   -0.004276
      3          8           0       -0.150642   -0.747732   -0.056422
      4          6           0        3.122242   -0.411102    0.671740
      5          6           0        3.147423   -0.298513   -0.647463
      6          6           0       -3.019262   -0.939756    0.000335
      7          6           0       -2.224316    0.327083    0.021444
      8          1           0        0.551555    1.707410    0.880462
      9          1           0       -0.783813    2.532319    0.065250
     10          1           0        0.497824    1.766487   -0.883657
     11          1           0        0.787980   -0.532993   -0.052400
     12          1           0        3.108471    0.460664    1.316288
     13          1           0        3.119496   -1.378663    1.160523
     14          1           0        3.155624    0.670022   -1.134816
     15          1           0        3.167555   -1.169623   -1.292531
     16          1           0       -3.633734   -1.037184    0.899764
     17          1           0       -2.369065   -1.811516   -0.059113
     18          1           0       -2.763354    1.266351    0.061190
     19          1           0       -3.699784   -0.966091   -0.855210
 ---------------------------------------------------------------------

 SCF Done:  E(RHF) =  -310.549062628     A.U. after    2 cycles

 The electronic state is 1-A.
 Alpha  occ. eigenvalues --  -21.07444 -11.45149 -11.42305 -11.39062 -11.38872
 Alpha  occ. eigenvalues --  -11.37469 -11.34485  -1.73594  -1.18109  -1.15663
 Alpha  occ. eigenvalues --   -1.07023  -0.92243  -0.83957  -0.74413  -0.66125
 Alpha  occ. eigenvalues --   -0.63667  -0.59115  -0.58993  -0.57660  -0.55197
 Alpha  occ. eigenvalues --   -0.54157  -0.50894  -0.48334  -0.47015  -0.43429
 Alpha  occ. eigenvalues --   -0.39965  -0.37437  -0.25771
 Alpha virt. eigenvalues --    0.03578   0.04976   0.05242   0.05441   0.05521
 Alpha virt. eigenvalues --    0.05628   0.06859   0.07193   0.07327   0.08074
 Alpha virt. eigenvalues --    0.08552   0.10287   0.10595   0.11258   0.12788

 Mulliken charges:
               1
     1  C   -5.000018
     2  C    4.210238
     3  O   -4.431190
     4  C   -2.973309
     5  C   -2.999548
     6  C   -4.290890
     7  C   -0.869073
     8  H    1.227369
     9  H    1.288398
    10  H    1.241086
    11  H    1.758514
    12  H    1.483440
    13  H    1.375098
    14  H    1.490888
    15  H    1.377014
    16  H    1.195162
    17  H    1.327248
    18  H    1.401245
    19  H    1.188328
 Sum of Mulliken charges =  -0.00000

 Dipole moment (field-independent basis, Debye):
    X=              1.7419    Y=              0.3666    Z=              0.0193  Tot=              1.7802

 Test job not archived.
 1\1\GINC-SE232\SP\RHF\Aug-CC-pVDZ\C6H12O1\OHZDE\09-Apr-2025\0\\#t hf a
 ug-cc-pvdz iop(5/13=1,5/36=2,99/5=2) pseudo=read geom=check guess=(rea
 d,tcheck) scf=(maxcycle=1)\\title\\0,1\C,0,1.45739263,-0.5923332,-0.23
 207447\C,0,0.01720523,-0.98356984,-0.1276746\O,0,-0.84978022,0.0336395
 3,0.1549097\C,0,0.35059486,3.15564511,-0.25434568\C,0,0.59141139,2.962
 71891,1.03344055\C,0,-1.87032538,-2.63322434,-0.18479647\C,0,-0.435443
 85,-2.22344093,-0.28705235\H,0,1.60199854,0.15677575,-1.01648817\H,0,2
 .07808848,-1.45519431,-0.46590011\H,0,1.81156544,-0.15911959,0.7082688

 Normal termination of Gaussian 16 at Wed Apr  9 19:21:27 2025.
