 Gaussian 16, Revision C.01,

 ----------------------------------------------------------------------
 #t hf aug-cc-pvdz symm=none int=(grid=ultrafine) guess=(read,tcheck) s
 table=(opt,rrhf)
 ----------------------------------------------------------------------
 -----
 title
 -----
 Symbolic Z-matrix:
 Charge =  0 Multiplicity = 1

 SCF Done:  E(RHF) =  -283.482288820     A.U. after   15 cycles
 Normal termination of Gaussian 16 at Wed Apr  9 16:07:43 2025.
 Gaussian 16:  ES64L-G16RevC.01  3-Jul-2019

 ----------------------------------------------------------------------
 #t hf aug-cc-pvdz iop(5/13=1,5/36=2,99/5=2) pseudo=read geom=check gue
 ss=(read,tcheck) scf=(maxcycle=1)
 ----------------------------------------------------------------------
 -----
 title
 -----
 Structure from the checkpoint file:  "Grambow2020_b97d3_006733_forward_mol1.chk"
 Charge =  0 Multiplicity = 1

                         Standard orientation:
 ---------------------------------------------------------------------
 Center     Atomic      Atomic             Coordinates (Angstroms)
 Number     Number       Type             X           Y           Z
 ---------------------------------------------------------------------
      1          6           0       -0.731286    1.127502    0.281510
      2          6           0        0.615923    0.799895   -0.373318
      3          8           0        1.741154   -0.037509   -0.035638
      4          6           0        0.592701   -0.697791    0.346186
      5          7           0       -0.661468   -1.231735   -0.226873
      6          6           0       -1.457222   -0.218086   -0.096874
      7          1           0       -0.714176    1.252327    1.375742
      8          1           0       -1.206139    2.017549   -0.161519
      9          1           0        0.478899    0.728080   -1.457433
     10          1           0        0.556754   -0.820913    1.435364
     11          1           0       -2.534999   -0.323946   -0.263963
 ---------------------------------------------------------------------

 SCF Done:  E(RHF) =  -284.781304359     A.U. after    2 cycles

 The electronic state is 1-A.
 Alpha  occ. eigenvalues --  -21.12445 -15.76400 -11.48132 -11.46697 -11.43950
 Alpha  occ. eigenvalues --  -11.40217  -1.81926  -1.42485  -1.12363  -0.95878
 Alpha  occ. eigenvalues --   -0.88196  -0.76581  -0.67975  -0.66129  -0.61247
 Alpha  occ. eigenvalues --   -0.59640  -0.52344  -0.50412  -0.41670  -0.40199
 Alpha  occ. eigenvalues --   -0.33375  -0.27715
 Alpha virt. eigenvalues --    0.03500   0.05073   0.05425   0.06064   0.06674
 Alpha virt. eigenvalues --    0.09280   0.09820   0.10184   0.11023   0.12416
 Alpha virt. eigenvalues --    0.13329   0.13782   0.14573   0.14737   0.15597

 Mulliken charges:
               1
     1  C   -3.065998
     2  C    0.170553
     3  O   -2.764753
     4  C    0.531022
     5  N   -2.294037
     6  C    0.716234
     7  H    1.192805
     8  H    1.289926
     9  H    1.288612
    10  H    1.477174
    11  H    1.458463
 Sum of Mulliken charges =   0.00000

 Dipole moment (field-independent basis, Debye):
    X=             -1.0245    Y=              1.2182    Z=              0.7211  Tot=              1.7475

 Test job not archived.
 1\1\GINC-SE174\SP\RHF\Aug-CC-pVDZ\C4H5N1O1\OHZDE\09-Apr-2025\0\\#t hf
 aug-cc-pvdz iop(5/13=1,5/36=2,99/5=2) pseudo=read geom=check guess=(re
 ad,tcheck) scf=(maxcycle=1)\\title\\0,1\C,0,-0.94990268,0.34710554,-0.
 05119669\C,0,-0.03867733,-0.24032123,-1.13549175\O,0,1.30536927,0.0168
 5918,-1.59245481\C,0,1.29127949,0.15429287,-0.22073332\N,0,0.99429887,
 -0.62293277,1.00162292\C,0,-0.26166523,-0.35935828,1.17681049\H,0,-0.9
 0661246,1.44104243,0.06982006\H,0,-2.00350728,0.05479812,-0.1869152\H,
 0,-0.18909684,-1.32408596,-1.1809316\H,0,1.51272607,1.18817303,0.07049

 Normal termination of Gaussian 16 at Wed Apr  9 16:07:46 2025.
