 Gaussian 16, Revision C.01,

 ----------------------------------------------------------------------
 #t hf aug-cc-pvdz symm=none int=(grid=ultrafine) guess=(read,tcheck) s
 table=(opt,rrhf)
 ----------------------------------------------------------------------
 -----
 title
 -----
 Symbolic Z-matrix:
 Charge =  0 Multiplicity = 1

 SCF Done:  E(RHF) =  -343.743792547     A.U. after   15 cycles
 Normal termination of Gaussian 16 at Wed Apr  9 03:28:07 2025.
 Gaussian 16:  ES64L-G16RevC.01  3-Jul-2019

 ----------------------------------------------------------------------
 #t hf aug-cc-pvdz iop(5/13=1,5/36=2,99/5=2) pseudo=read geom=check gue
 ss=(read,tcheck) scf=(maxcycle=1)
 ----------------------------------------------------------------------
 -----
 title
 -----
 Structure from the checkpoint file:  "Grambow2020_wb97xd3_006683_reverse_mol2.chk"
 Charge =  0 Multiplicity = 1

                         Standard orientation:
 ---------------------------------------------------------------------
 Center     Atomic      Atomic             Coordinates (Angstroms)
 Number     Number       Type             X           Y           Z
 ---------------------------------------------------------------------
      1          6           0        1.790518    1.311239   -0.118451
      2          6           0        1.376678   -0.114674    0.024668
      3          8           0        2.418994   -0.934387   -0.283284
      4          6           0        0.185702   -0.583329    0.400557
      5          6           0       -1.032757    0.223993    0.740948
      6          6           0       -2.023416    0.188135   -0.399912
      7          8           0       -3.143379   -0.233265   -0.322169
      8          1           0        2.656361    1.507102    0.516592
      9          1           0        2.090711    1.505170   -1.149868
     10          1           0        0.994685    2.002152    0.146379
     11          1           0        2.145234   -1.850662   -0.190882
     12          1           0        0.056907   -1.662754    0.444218
     13          1           0       -1.627121    0.572331   -1.364816
     14          1           0       -1.527414   -0.155648    1.636437
     15          1           0       -0.774634    1.271342    0.918697
 ---------------------------------------------------------------------

 SCF Done:  E(RHF) =  -345.303044281     A.U. after    2 cycles

 The electronic state is 1-A.
 Alpha  occ. eigenvalues --  -21.10775 -21.06238 -11.49183 -11.47904 -11.42970
 Alpha  occ. eigenvalues --  -11.40633 -11.37943  -1.76782  -1.71022  -1.22945
 Alpha  occ. eigenvalues --   -1.10535  -0.98612  -0.82594  -0.77872  -0.68946
 Alpha  occ. eigenvalues --   -0.63361  -0.60879  -0.59234  -0.56433  -0.54423
 Alpha  occ. eigenvalues --   -0.50981  -0.49414  -0.46167  -0.44810  -0.41445
 Alpha  occ. eigenvalues --   -0.30877  -0.27438
 Alpha virt. eigenvalues --    0.03209   0.05006   0.05517   0.05903   0.06193
 Alpha virt. eigenvalues --    0.06296   0.06543   0.08404   0.09560   0.10618
 Alpha virt. eigenvalues --    0.12889   0.13105   0.13901   0.13964   0.14637

 Mulliken charges:
               1
     1  C   -4.388697
     2  C    4.575394
     3  O   -3.887907
     4  C   -1.356654
     5  C   -4.192058
     6  C    1.789612
     7  O   -2.785130
     8  H    1.181740
     9  H    1.190151
    10  H    1.370059
    11  H    0.929631
    12  H    1.553507
    13  H    1.481078
    14  H    1.038890
    15  H    1.500383
 Sum of Mulliken charges =  -0.00000

 Dipole moment (field-independent basis, Debye):
    X=              2.0100    Y=              0.3000    Z=              0.1884  Tot=              2.0410

 Test job not archived.
 1\1\GINC-SE092\SP\RHF\Aug-CC-pVDZ\C5H8O2\OHZDE\09-Apr-2025\0\\#t hf au
 g-cc-pvdz iop(5/13=1,5/36=2,99/5=2) pseudo=read geom=check guess=(read
 ,tcheck) scf=(maxcycle=1)\\title\\0,1\C,0,-1.76385102,-0.36122308,0.62
 311271\C,0,-0.83519208,0.76816866,0.32808533\O,0,-1.52593028,1.9406717
 7,0.29195817\C,0,0.48223869,0.70829282,0.12772728\C,0,1.33702894,-0.52
 523824,0.1239216\C,0,1.68649189,-0.91897013,-1.29280145\O,0,2.80141484
 ,-0.9969639,-1.72731499\H,0,-2.28335198,-0.17228519,1.56425408\H,0,-2.
 52075776,-0.42909358,-0.16048962\H,0,-1.24784708,-1.31523544,0.6897870

 Normal termination of Gaussian 16 at Wed Apr  9 03:28:15 2025.
