 Gaussian 16, Revision C.01,

 ----------------------------------------------------------------------
 #t hf aug-cc-pvdz symm=none int=(grid=ultrafine) guess=(read,tcheck) s
 table=(opt,rrhf)
 ----------------------------------------------------------------------
 -----
 title
 -----
 Symbolic Z-matrix:
 Charge =  0 Multiplicity = 1

 SCF Done:  E(RHF) =  -305.675511260     A.U. after   14 cycles
 Normal termination of Gaussian 16 at Wed Apr  9 03:05:49 2025.
 Gaussian 16:  ES64L-G16RevC.01  3-Jul-2019

 ----------------------------------------------------------------------
 #t hf aug-cc-pvdz iop(5/13=1,5/36=2,99/5=2) pseudo=read geom=check gue
 ss=(read,tcheck) scf=(maxcycle=1)
 ----------------------------------------------------------------------
 -----
 title
 -----
 Structure from the checkpoint file:  "Grambow2020_b97d3_006522_forward_mol1.chk"
 Charge =  0 Multiplicity = 1

                         Standard orientation:
 ---------------------------------------------------------------------
 Center     Atomic      Atomic             Coordinates (Angstroms)
 Number     Number       Type             X           Y           Z
 ---------------------------------------------------------------------
      1          8           0        1.954536    0.402355   -0.624868
      2          6           0        1.484335   -0.388316    0.444676
      3          6           0       -0.014281   -0.287130    0.634010
      4          6           0       -0.724184    0.999116    0.286544
      5          6           0       -1.922585    0.159305   -0.075871
      6          8           0       -0.865632   -0.853597   -0.611776
      7          1           0        1.279334    1.119121   -0.713454
      8          1           0        1.781146   -1.433390    0.268748
      9          1           0        1.921553   -0.080896    1.419132
     10          1           0       -0.384969   -0.924700    1.457337
     11          1           0       -0.760259    1.858044    0.965449
     12          1           0       -0.429965    0.122666   -1.081561
     13          1           0       -2.613417    0.464181   -0.870883
     14          1           0       -2.444358   -0.412944    0.712227
 ---------------------------------------------------------------------

 SCF Done:  E(RHF) =  -307.110957130     A.U. after    2 cycles

 The electronic state is 1-A.
 Alpha  occ. eigenvalues --  -21.10855 -21.05960 -11.49637 -11.47413 -11.42938
 Alpha  occ. eigenvalues --  -11.35434  -1.81061  -1.69936  -1.14159  -1.05795
 Alpha  occ. eigenvalues --   -0.91681  -0.81476  -0.70694  -0.66697  -0.63353
 Alpha  occ. eigenvalues --   -0.60902  -0.55299  -0.49058  -0.47442  -0.45102
 Alpha  occ. eigenvalues --   -0.40686  -0.38883  -0.31761  -0.27786
 Alpha virt. eigenvalues --    0.04090   0.04950   0.05043   0.05352   0.06007
 Alpha virt. eigenvalues --    0.06595   0.07605   0.08288   0.10079   0.11951
 Alpha virt. eigenvalues --    0.12825   0.13456   0.13738   0.14150   0.15448

 Mulliken charges:
               1
     1  O   -2.621594
     2  C   -0.927963
     3  C    0.003299
     4  C   -2.036396
     5  C   -2.052325
     6  O   -2.125089
     7  H    0.958267
     8  H    1.299454
     9  H    1.168370
    10  H    1.443609
    11  H    1.234365
    12  H    1.061420
    13  H    1.226862
    14  H    1.367719
 Sum of Mulliken charges =  -0.00000

 Dipole moment (field-independent basis, Debye):
    X=             -1.3269    Y=             -2.0435    Z=              0.4487  Tot=              2.4775

 Test job not archived.
 1\1\GINC-SE455\SP\RHF\Aug-CC-pVDZ\C4H8O2\OHZDE\09-Apr-2025\0\\#t hf au
 g-cc-pvdz iop(5/13=1,5/36=2,99/5=2) pseudo=read geom=check guess=(read
 ,tcheck) scf=(maxcycle=1)\\title\\0,1\O,0,-2.11684955,0.17989396,-0.72
 48138\C,0,-1.52940724,-0.7013331,0.20713331\C,0,-0.0410162,-0.47669844
 ,0.36889902\C,0,0.76943884,0.02038598,-0.80378739\C,0,1.65935105,0.716
 27915,0.19450217\O,0,0.33507099,0.96742463,0.97777758\H,0,-1.37244598,
 0.43221437,-1.32456241\H,0,-2.04380409,-0.58807519,1.17346396\H,0,-1.6
 3105452,-1.76522829,-0.09786847\H,0,0.41430399,-1.15198145,1.11619367\

 Normal termination of Gaussian 16 at Wed Apr  9 03:05:52 2025.
