 Gaussian 16, Revision C.01,

 ----------------------------------------------------------------------
 #t hf aug-cc-pvdz symm=none int=(grid=ultrafine) guess=(read,tcheck) s
 table=(opt,rrhf)
 ----------------------------------------------------------------------
 -----
 title
 -----
 Symbolic Z-matrix:
 Charge =  0 Multiplicity = 1

 SCF Done:  E(RHF) =  -358.541664290     A.U. after   15 cycles
 Normal termination of Gaussian 16 at Wed Apr  9 04:04:04 2025.
 Gaussian 16:  ES64L-G16RevC.01  3-Jul-2019

 ----------------------------------------------------------------------
 #t hf aug-cc-pvdz iop(5/13=1,5/36=2,99/5=2) pseudo=read geom=check gue
 ss=(read,tcheck) scf=(maxcycle=1)
 ----------------------------------------------------------------------
 -----
 title
 -----
 Structure from the checkpoint file:  "Grambow2020_wb97xd3_009139_reverse_mol2.chk"
 Charge =  0 Multiplicity = 1

                         Standard orientation:
 ---------------------------------------------------------------------
 Center     Atomic      Atomic             Coordinates (Angstroms)
 Number     Number       Type             X           Y           Z
 ---------------------------------------------------------------------
      1          6           0       -2.140743   -0.956562    0.036443
      2          6           0       -1.117752    0.143711   -0.018834
      3          6           0        0.167078   -0.195533    0.665705
      4          8           0        1.223776    0.858264    0.696576
      5          6           0        1.435303   -0.209705   -0.041854
      6          8           0        2.248830   -0.665871   -0.764306
      7          7           0       -1.229082    1.267512   -0.579777
      8          1           0       -3.029089   -0.692269   -0.535481
      9          1           0       -1.726198   -1.883582   -0.367090
     10          1           0       -2.433757   -1.155313    1.070152
     11          1           0        0.090207   -0.741046    1.602591
     12          1           0       -2.141751    1.369003   -1.018646
 ---------------------------------------------------------------------

 SCF Done:  E(RHF) =  -360.104896312     A.U. after    2 cycles

 The electronic state is 1-A.
 Alpha  occ. eigenvalues --  -21.12673 -21.08565 -15.75843 -11.56754 -11.51683
 Alpha  occ. eigenvalues --  -11.46874 -11.41336  -1.87823  -1.70483  -1.38618
 Alpha  occ. eigenvalues --   -1.12560  -1.03887  -0.85663  -0.78525  -0.68754
 Alpha  occ. eigenvalues --   -0.64382  -0.62462  -0.60902  -0.57233  -0.56138
 Alpha  occ. eigenvalues --   -0.49283  -0.47527  -0.42061  -0.39862  -0.34355
 Alpha  occ. eigenvalues --   -0.29042
 Alpha virt. eigenvalues --    0.02447   0.04723   0.05070   0.05629   0.06769
 Alpha virt. eigenvalues --    0.08983   0.09511   0.10942   0.11599   0.12527
 Alpha virt. eigenvalues --    0.13126   0.13528   0.14484   0.14665   0.15467

 Mulliken charges:
               1
     1  C   -4.061800
     2  C    2.215504
     3  C    0.145070
     4  O   -2.676357
     5  C    4.675424
     6  O   -2.984496
     7  N   -3.325818
     8  H    1.270928
     9  H    1.290406
    10  H    1.172134
    11  H    1.601353
    12  H    0.677652
 Sum of Mulliken charges =   0.00000

 Dipole moment (field-independent basis, Debye):
    X=             -2.8034    Y=             -1.0233    Z=              1.3020  Tot=              3.2560

 Test job not archived.
 1\1\GINC-SE099\SP\RHF\Aug-CC-pVDZ\C4H5N1O2\OHZDE\09-Apr-2025\0\\#t hf
 aug-cc-pvdz iop(5/13=1,5/36=2,99/5=2) pseudo=read geom=check guess=(re
 ad,tcheck) scf=(maxcycle=1)\\title\\0,1\C,0,-1.4588236,-0.41406764,-0.
 47521778\C,0,0.04126005,-0.31645934,-0.45553051\C,0,0.55608965,0.87631
 958,0.2838576\O,0,2.03519075,1.07461155,0.31538702\C,0,1.42982624,0.74
 850526,1.43688955\O,0,1.6759146,0.53127505,2.57007207\N,0,0.86925098,-
 1.12006719,-0.96408297\H,0,-1.7835201,-1.33342253,-0.96046596\H,0,-1.8
 5579116,-0.39510208,0.54267731\H,0,-1.89088334,0.43664247,-1.00769401\

 Normal termination of Gaussian 16 at Wed Apr  9 04:04:10 2025.
