 Gaussian 16, Revision C.01,

 ----------------------------------------------------------------------
 #t hf aug-cc-pvdz symm=none int=(grid=ultrafine) guess=(read,tcheck) s
 table=(opt,rrhf)
 ----------------------------------------------------------------------
 -----
 title
 -----
 Symbolic Z-matrix:
 Charge =  0 Multiplicity = 1

 SCF Done:  E(RHF) =  -338.664509317     A.U. after   15 cycles
 Normal termination of Gaussian 16 at Wed Apr  9 19:22:01 2025.
 Gaussian 16:  ES64L-G16RevC.01  3-Jul-2019

 ----------------------------------------------------------------------
 #t hf aug-cc-pvdz iop(5/13=1,5/36=2,99/5=2) pseudo=read geom=check gue
 ss=(read,tcheck) scf=(maxcycle=1)
 ----------------------------------------------------------------------
 -----
 title
 -----
 Structure from the checkpoint file:  "Grambow2020_wb97xd3_008809_forward_mol1.chk"
 Charge =  0 Multiplicity = 1

                         Standard orientation:
 ---------------------------------------------------------------------
 Center     Atomic      Atomic             Coordinates (Angstroms)
 Number     Number       Type             X           Y           Z
 ---------------------------------------------------------------------
      1          7           0       -1.760663   -1.075374    0.029277
      2          6           0       -0.415297   -0.624128   -0.032435
      3          6           0       -0.114998    0.738553   -0.049874
      4          8           0       -1.011387    1.736627    0.027422
      5          7           0        1.193811    0.988188   -0.097823
      6          6           0        1.799376   -0.335208   -0.000436
      7          6           0        0.797277   -1.303408    0.011758
      8          1           0       -1.878785   -1.852217    0.662434
      9          1           0       -2.115393   -1.345289   -0.877939
     10          1           0       -1.868401    1.315228    0.173655
     11          1           0        1.734565    0.549909    0.940394
     12          1           0        2.842839   -0.432384   -0.255806
     13          1           0        0.946086   -2.372826    0.043634
 ---------------------------------------------------------------------

 SCF Done:  E(RHF) =  -340.211051603     A.U. after    2 cycles

 The electronic state is 1-A.
 Alpha  occ. eigenvalues --  -21.09593 -15.76278 -15.74724 -11.48792 -11.44631
 Alpha  occ. eigenvalues --  -11.42408 -11.37541  -1.76443  -1.48757  -1.33808
 Alpha  occ. eigenvalues --   -1.10324  -1.02294  -0.82901  -0.76111  -0.69982
 Alpha  occ. eigenvalues --   -0.67537  -0.64158  -0.60696  -0.54916  -0.53270
 Alpha  occ. eigenvalues --   -0.45603  -0.44269  -0.42287  -0.37585  -0.34469
 Alpha  occ. eigenvalues --   -0.25385
 Alpha virt. eigenvalues --    0.03160   0.04893   0.05157   0.05655   0.06691
 Alpha virt. eigenvalues --    0.07051   0.10091   0.11439   0.11571   0.12809
 Alpha virt. eigenvalues --    0.13296   0.13551   0.14211   0.14328   0.15796

 Mulliken charges:
               1
     1  N   -3.440229
     2  C    2.480276
     3  C    4.498651
     4  O   -3.633606
     5  N   -3.248074
     6  C   -1.067357
     7  C   -1.083932
     8  H    0.524669
     9  H    0.437576
    10  H    0.701655
    11  H    1.194888
    12  H    1.161848
    13  H    1.473635
 Sum of Mulliken charges =   0.00000

 Dipole moment (field-independent basis, Debye):
    X=             -0.6902    Y=             -2.4481    Z=              0.1048  Tot=              2.5457

 Test job not archived.
 1\1\GINC-SE016\SP\RHF\Aug-CC-pVDZ\C4H6N2O1\OHZDE\09-Apr-2025\0\\#t hf
 aug-cc-pvdz iop(5/13=1,5/36=2,99/5=2) pseudo=read geom=check guess=(re
 ad,tcheck) scf=(maxcycle=1)\\title\\0,1\N,0,-1.83041981,0.58919582,-0.
 13169043\C,0,-0.45472782,0.27641281,0.03287164\C,0,-0.02825583,-1.0471
 1176,0.15029082\O,0,-0.81949972,-2.13116059,0.08387433\N,0,1.29285065,
 -1.16392231,0.28677829\C,0,1.77508775,0.20513843,0.14293035\C,0,0.6883
 9511,1.06804125,0.01542694\H,0,-1.98231617,1.31444728,-0.81671947\H,0,
 -2.26449802,0.87273885,0.73601246\H,0,-1.70192505,-1.80473501,-0.13568

 Normal termination of Gaussian 16 at Wed Apr  9 19:22:05 2025.
