 Gaussian 16, Revision C.01,

 ----------------------------------------------------------------------
 #t hf aug-cc-pvdz symm=none int=(grid=ultrafine) guess=(read,tcheck) s
 table=(opt,rrhf)
 ----------------------------------------------------------------------
 -----
 title
 -----
 Symbolic Z-matrix:
 Charge =  0 Multiplicity = 1

 SCF Done:  E(RHF) =  -306.575583639     A.U. after   15 cycles
 Normal termination of Gaussian 16 at Wed Apr  9 19:08:59 2025.
 Gaussian 16:  ES64L-G16RevC.01  3-Jul-2019

 ----------------------------------------------------------------------
 #t hf aug-cc-pvdz iop(5/13=1,5/36=2,99/5=2) pseudo=read geom=check gue
 ss=(read,tcheck) scf=(maxcycle=1)
 ----------------------------------------------------------------------
 -----
 title
 -----
 Structure from the checkpoint file:  "Grambow2020_wb97xd3_008166_reverse_mol2.chk"
 Charge =  0 Multiplicity = 1

                         Standard orientation:
 ---------------------------------------------------------------------
 Center     Atomic      Atomic             Coordinates (Angstroms)
 Number     Number       Type             X           Y           Z
 ---------------------------------------------------------------------
      1          8           0        2.216928   -0.281145    0.000994
      2          6           0        0.884169   -0.102735   -0.355269
      3          6           0        0.350844    1.316460   -0.176410
      4          6           0       -0.894535    0.764003    0.518947
      5          6           0       -1.808340   -0.052767   -0.418777
      6          6           0       -1.047543   -1.350968   -0.208990
      7          6           0       -0.194208   -0.608110    0.734436
      8          1           0        2.506175   -1.150172   -0.284343
      9          1           0        0.233430    1.931953   -1.069609
     10          1           0        0.989265    1.832540    0.541678
     11          1           0       -1.359008    1.365203    1.298214
     12          1           0       -2.753419   -0.284559    0.094658
     13          1           0       -2.061672    0.283118   -1.427425
     14          1           0        0.686137   -0.515575   -1.350742
     15          1           0        0.281360   -1.008644    1.625982
 ---------------------------------------------------------------------

 SCF Done:  E(RHF) =  -308.012769123     A.U. after    2 cycles

 The electronic state is 1-A.
 Alpha  occ. eigenvalues --  -21.08736 -11.54874 -11.45827 -11.41618 -11.40799
 Alpha  occ. eigenvalues --  -11.39121 -11.35437  -1.74052  -1.40997  -1.10074
 Alpha  occ. eigenvalues --   -0.98914  -0.90212  -0.81275  -0.74463  -0.68424
 Alpha  occ. eigenvalues --   -0.67372  -0.60223  -0.57739  -0.51863  -0.50861
 Alpha  occ. eigenvalues --   -0.46343  -0.43761  -0.41113  -0.40563  -0.31678
 Alpha  occ. eigenvalues --   -0.29948
 Alpha virt. eigenvalues --    0.03933   0.04728   0.05604   0.05895   0.05963
 Alpha virt. eigenvalues --    0.06214   0.06566   0.06854   0.09144   0.10643
 Alpha virt. eigenvalues --    0.12072   0.12355   0.13358   0.14045   0.14251

 Mulliken charges:
               1
     1  O   -3.317629
     2  C    2.161026
     3  C   -3.485467
     4  C   -1.294128
     5  C   -2.640553
     6  C   -0.873957
     7  C   -0.918826
     8  H    0.604398
     9  H    1.274444
    10  H    1.314061
    11  H    1.395663
    12  H    1.410682
    13  H    1.329643
    14  H    1.688666
    15  H    1.351978
 Sum of Mulliken charges =  -0.00000

 Dipole moment (field-independent basis, Debye):
    X=              0.6564    Y=              2.1724    Z=              0.4953  Tot=              2.3229

 Test job not archived.
 1\1\GINC-SE104\SP\RHF\Aug-CC-pVDZ\C6H8O1\OHZDE\09-Apr-2025\0\\#t hf au
 g-cc-pvdz iop(5/13=1,5/36=2,99/5=2) pseudo=read geom=check guess=(read
 ,tcheck) scf=(maxcycle=1)\\title\\0,1\O,0,2.25109824,0.59209841,-0.594
 96635\C,0,1.02275673,0.42045591,0.03488778\C,0,0.6988472,-1.01495343,0
 .44136316\C,0,-0.69961298,-0.8733688,-0.16193077\C,0,-1.59553853,0.128
 43367,0.59648051\C,0,-1.08233976,1.335672,-0.16990735\C,0,-0.25791162,
 0.3944874,-0.94744159\H,0,2.43653882,1.52995192,-0.67454763\H,0,0.8002
 434,-1.28040066,1.49477667\H,0,1.30778534,-1.68659366,-0.16498982\H,0,

 Normal termination of Gaussian 16 at Wed Apr  9 19:09:04 2025.
