 Gaussian 16, Revision C.01,

 ----------------------------------------------------------------------
 #t hf aug-cc-pvdz symm=none int=(grid=ultrafine) guess=(read,tcheck) s
 table=(opt,rrhf)
 ----------------------------------------------------------------------
 -----
 title
 -----
 Symbolic Z-matrix:
 Charge =  0 Multiplicity = 1

 SCF Done:  E(RHF) =  -352.360261180     A.U. after   17 cycles
 Normal termination of Gaussian 16 at Wed Apr  9 03:51:14 2025.
 Gaussian 16:  ES64L-G16RevC.01  3-Jul-2019

 ----------------------------------------------------------------------
 #t hf aug-cc-pvdz iop(5/13=1,5/36=2,99/5=2) pseudo=read geom=check gue
 ss=(read,tcheck) scf=(maxcycle=1)
 ----------------------------------------------------------------------
 -----
 title
 -----
 Structure from the checkpoint file:  "Grambow2020_wb97xd3_008228_forward_mol2.chk"
 Charge =  0 Multiplicity = 1

                         Standard orientation:
 ---------------------------------------------------------------------
 Center     Atomic      Atomic             Coordinates (Angstroms)
 Number     Number       Type             X           Y           Z
 ---------------------------------------------------------------------
      1          7           0       -2.730891   -0.262505    0.000084
      2          6           0       -1.584825   -0.165541   -0.000324
      3          6           0       -0.172810   -0.095321   -0.000856
      4          6           0        0.739937   -1.237862    0.000762
      5          8           0        1.938459   -1.133395   -0.000684
      6          7           0        0.957938    2.057514    0.000683
      7          7           0        0.398463    1.100840   -0.000228
      8          1           0        0.219959   -2.211441    0.004199
 ---------------------------------------------------------------------

 SCF Done:  E(RHF) =  -353.868592696     A.U. after    2 cycles

 The electronic state is 1-A.
 Alpha  occ. eigenvalues --  -21.08337 -16.00154 -15.94677 -15.78414 -11.53679
 Alpha  occ. eigenvalues --  -11.49915 -11.46153  -1.74927  -1.68589  -1.35234
 Alpha  occ. eigenvalues --   -1.25426  -0.97837  -0.87042  -0.75313  -0.71701
 Alpha  occ. eigenvalues --   -0.70125  -0.63005  -0.56684  -0.54582  -0.53123
 Alpha  occ. eigenvalues --   -0.48216  -0.47367  -0.33361  -0.33042
 Alpha virt. eigenvalues --    0.03506   0.07453   0.07808   0.08145   0.09204
 Alpha virt. eigenvalues --    0.09842   0.10112   0.10743   0.12183   0.12604
 Alpha virt. eigenvalues --    0.13551   0.13846   0.14657   0.15473   0.17499

 Mulliken charges:
               1
     1  N   -2.572206
     2  C    2.100077
     3  C    1.160402
     4  C    1.975889
     5  O   -2.870425
     6  N   -1.743677
     7  N    0.334528
     8  H    1.615413
 Sum of Mulliken charges =  -0.00000

 Dipole moment (field-independent basis, Debye):
    X=              2.1719    Y=              1.0199    Z=              0.0024  Tot=              2.3995

 Test job not archived.
 1\1\GINC-SE419\SP\RHF\Aug-CC-pVDZ\C3H1N3O1\OHZDE\09-Apr-2025\0\\#t hf
 aug-cc-pvdz iop(5/13=1,5/36=2,99/5=2) pseudo=read geom=check guess=(re
 ad,tcheck) scf=(maxcycle=1)\\title\\0,1\N,0,2.68110009,-0.31870002,0.0
 3184735\C,0,1.53294746,-0.27142265,0.0806325\C,0,0.12433629,-0.1644952
 5,0.13629448\C,0,-0.64196568,1.07912434,0.06772896\O,0,-1.84308876,1.1
 2545002,0.11800781\N,0,-1.25801592,-2.15130325,0.37078589\N,0,-0.58722
 645,-1.27554749,0.26434277\H,0,-0.00808704,1.97689429,-0.03450577\\Ver
 sion=ES64L-G16RevC.01\State=1-A\HF=-353.8685927\RMSD=3.838e-01\Dipole=

 Normal termination of Gaussian 16 at Wed Apr  9 03:51:16 2025.
