 Gaussian 16, Revision C.01,

 ----------------------------------------------------------------------
 #t hf aug-cc-pvdz symm=none int=(grid=ultrafine) guess=(read,tcheck) s
 table=(opt,rrhf)
 ----------------------------------------------------------------------
 -----
 title
 -----
 Symbolic Z-matrix:
 Charge =  0 Multiplicity = 1

 SCF Done:  E(RHF) =  -343.553693182     A.U. after   14 cycles
 Normal termination of Gaussian 16 at Wed Apr  9 03:28:17 2025.
 Gaussian 16:  ES64L-G16RevC.01  3-Jul-2019

 ----------------------------------------------------------------------
 #t hf aug-cc-pvdz iop(5/13=1,5/36=2,99/5=2) pseudo=read geom=check gue
 ss=(read,tcheck) scf=(maxcycle=1)
 ----------------------------------------------------------------------
 -----
 title
 -----
 Structure from the checkpoint file:  "Grambow2020_wb97xd3_006712_reverse_mol2.chk"
 Charge =  0 Multiplicity = 1

                         Standard orientation:
 ---------------------------------------------------------------------
 Center     Atomic      Atomic             Coordinates (Angstroms)
 Number     Number       Type             X           Y           Z
 ---------------------------------------------------------------------
      1          8           0       -2.299537   -0.210943    0.401330
      2          6           0       -1.519221    0.109098   -0.720597
      3          6           0       -0.062647   -0.069798   -0.441907
      4          8           0        0.338821   -1.176062    0.157963
      5          6           0        1.255059   -0.211669    0.941963
      6          6           0        2.255126    0.083118   -0.090080
      7          6           0        0.974320    0.828399   -0.448463
      8          1           0       -1.887871   -0.958161    0.847081
      9          1           0       -1.769625   -0.526372   -1.582579
     10          1           0       -1.721907    1.144956   -0.994515
     11          1           0       -1.533416    2.170610    1.496594
     12          1           0       -1.291497    2.873459    1.431964
     13          1           0        2.554843   -0.682980   -0.803854
     14          1           0        3.048627    0.743417    0.241278
     15          1           0        0.870751    1.896230   -0.555816
 ---------------------------------------------------------------------

 SCF Done:  E(RHF) =  -345.125506175     A.U. after    2 cycles

 The electronic state is 1-A.
 Alpha  occ. eigenvalues --  -21.09071 -21.08665 -11.51972 -11.47212 -11.45440
 Alpha  occ. eigenvalues --  -11.44475 -11.40093  -1.84668  -1.72639  -1.27104
 Alpha  occ. eigenvalues --   -1.10518  -0.95575  -0.81960  -0.76953  -0.70884
 Alpha  occ. eigenvalues --   -0.67080  -0.62788  -0.60625  -0.57983  -0.56208
 Alpha  occ. eigenvalues --   -0.53001  -0.47941  -0.42634  -0.40619  -0.35378
 Alpha  occ. eigenvalues --   -0.33686  -0.30126
 Alpha virt. eigenvalues --    0.03883   0.04964   0.05014   0.05607   0.06163
 Alpha virt. eigenvalues --    0.06604   0.07322   0.09098   0.09790   0.10429
 Alpha virt. eigenvalues --    0.11680   0.12286   0.13178   0.13617   0.13992

 Mulliken charges:
               1
     1  O   -2.537500
     2  C   -1.127561
     3  C    4.537115
     4  O   -3.066817
     5  C    0.012337
     6  C   -3.255094
     7  C   -1.752802
     8  H    0.827921
     9  H    1.175981
    10  H    1.362588
    11  H   -0.319036
    12  H    0.198792
    13  H    1.262841
    14  H    1.411999
    15  H    1.269234
 Sum of Mulliken charges =   0.00000

 Dipole moment (field-independent basis, Debye):
    X=             -0.1059    Y=             -0.0135    Z=             -2.3930  Tot=              2.3954

 Test job not archived.
 1\1\GINC-SE340\SP\RHF\Aug-CC-pVDZ\C5H8O2\OHZDE\09-Apr-2025\0\\#t hf au
 g-cc-pvdz iop(5/13=1,5/36=2,99/5=2) pseudo=read geom=check guess=(read
 ,tcheck) scf=(maxcycle=1)\\title\\0,1\O,0,1.95452066,0.4832045,1.25138
 736\C,0,1.654204,-0.09953702,0.01031443\C,0,0.29217921,0.29206321,-0.4
 617183\O,0,-0.06199726,1.56300545,-0.39764233\C,0,-1.40940621,0.983235
 38,0.08459833\C,0,-1.93525093,0.47297252,-1.18633264\C,0,-0.82237688,-
 0.4624957,-0.72724979\H,0,1.57443831,1.36742705,1.26499059\H,0,2.37162
 65,0.20666196,-0.76498213\H,0,1.71449067,-1.18307622,0.11719329\H,0,0.

 Normal termination of Gaussian 16 at Wed Apr  9 03:28:21 2025.
