 Gaussian 16, Revision C.01,

 ----------------------------------------------------------------------
 #t hf aug-cc-pvdz symm=none int=(grid=ultrafine) guess=(read,tcheck) s
 table=(opt,rrhf)
 ----------------------------------------------------------------------
 -----
 title
 -----
 Symbolic Z-matrix:
 Charge =  0 Multiplicity = 1

 SCF Done:  E(RHF) =  -344.702255239     A.U. after   15 cycles

 1\1\GINC-SE424\Stability\RHF\Aug-CC-pVDZ\C5H10O2\OHZDE\09-Apr-2025\0\\
 #t hf aug-cc-pvdz symm=none int=(grid=ultrafine) guess=(read,tcheck) s
 table=(opt,rrhf)\\title\\0,1\C,0,1.25541519,0.4387932,1.19664881\O,0,1
 .01909902,0.82738881,-0.98276087\C,0,0.20079297,-0.16662141,-1.3351614
 \C,0,0.64273445,-1.46318862,-0.61605336\O,0,-0.00683687,-0.93436527,0.
 59381304\C,0,-0.97781541,-0.25573351,-0.30856455\C,0,-1.61599936,0.974
 31505,0.25501669\H,0,0.95508131,0.01987247,2.14948627\H,0,2.23230566,0
 .14847927,0.8459932\H,0,1.03746386,1.48492951,1.06521017\H,0,-0.055521

 Normal termination of Gaussian 16 at Wed Apr  9 03:27:34 2025.
 Gaussian 16:  ES64L-G16RevC.01  3-Jul-2019

 ----------------------------------------------------------------------
 #t hf aug-cc-pvdz iop(5/13=1,5/36=2,99/5=2) pseudo=read geom=check gue
 ss=(read,tcheck) scf=(maxcycle=1)
 ----------------------------------------------------------------------
 -----
 title
 -----
 Structure from the checkpoint file:  "Grambow2020_wb97xd3_006662_reverse_mol1.chk"
 Charge =  0 Multiplicity = 1

                         Standard orientation:
 ---------------------------------------------------------------------
 Center     Atomic      Atomic             Coordinates (Angstroms)
 Number     Number       Type             X           Y           Z
 ---------------------------------------------------------------------
      1          6           0       -0.639616    1.717665   -0.202187
      2          8           0       -0.555023    0.213933    1.437421
      3          6           0       -0.325902   -0.906441    0.748849
      4          6           0       -1.198999   -0.901404   -0.528332
      5          8           0       -0.222537    0.032143   -1.111758
      6          6           0        0.815854   -0.650672   -0.291311
      7          6           0        2.008081    0.186330    0.049198
      8          1           0       -0.431635    2.082590   -1.200770
      9          1           0       -1.680709    1.680625    0.074053
     10          1           0        0.003812    2.101722    0.570911
     11          1           0       -0.274758   -1.836185    1.333830
     12          1           0       -2.193703   -0.464748   -0.471723
     13          1           0       -1.189358   -1.814146   -1.126502
     14          1           0        1.083673   -1.541735   -0.864783
     15          1           0        2.822098   -0.465690    0.370092
     16          1           0        2.356033    0.753490   -0.816937
     17          1           0        1.768516    0.862605    0.869220
 ---------------------------------------------------------------------

 SCF Done:  E(RHF) =  -346.317307010     A.U. after    2 cycles

 The electronic state is 1-A.
 Alpha  occ. eigenvalues --  -21.08327 -20.91587 -11.49398 -11.46033 -11.44730
 Alpha  occ. eigenvalues --  -11.39372 -11.36473  -1.81642  -1.56422  -1.13405
 Alpha  occ. eigenvalues --   -1.07388  -1.00218  -0.91689  -0.76948  -0.69465
 Alpha  occ. eigenvalues --   -0.65635  -0.63587  -0.60057  -0.59817  -0.58035
 Alpha  occ. eigenvalues --   -0.51086  -0.48584  -0.43794  -0.42634  -0.38991
 Alpha  occ. eigenvalues --   -0.34131  -0.20843  -0.20615
 Alpha virt. eigenvalues --    0.03153   0.04642   0.04707   0.04872   0.05525
 Alpha virt. eigenvalues --    0.06315   0.06550   0.06886   0.08964   0.09331
 Alpha virt. eigenvalues --    0.10884   0.12055   0.12906   0.13368   0.13963

 Mulliken charges:
               1
     1  C   -3.828307
     2  O   -3.220950
     3  C    1.502816
     4  C   -2.183271
     5  O   -2.360411
     6  C    0.777415
     7  C   -4.070705
     8  H    1.233109
     9  H    1.387578
    10  H    1.522472
    11  H    1.401496
    12  H    1.460016
    13  H    1.401112
    14  H    1.236334
    15  H    1.101703
    16  H    1.282663
    17  H    1.356928
 Sum of Mulliken charges =   0.00000

 Dipole moment (field-independent basis, Debye):
    X=              0.2737    Y=              0.9353    Z=             -3.1317  Tot=              3.2798

 Test job not archived.
 1\1\GINC-SE424\SP\RHF\Aug-CC-pVDZ\C5H10O2\OHZDE\09-Apr-2025\0\\#t hf a
 ug-cc-pvdz iop(5/13=1,5/36=2,99/5=2) pseudo=read geom=check guess=(rea
 d,tcheck) scf=(maxcycle=1)\\title\\0,1\C,0,1.25541519,0.4387932,1.1966
 4881\O,0,1.01909902,0.82738881,-0.98276087\C,0,0.20079297,-0.16662141,
 -1.3351614\C,0,0.64273445,-1.46318862,-0.61605336\O,0,-0.00683687,-0.9
 3436527,0.59381304\C,0,-0.97781541,-0.25573351,-0.30856455\C,0,-1.6159
 9936,0.97431505,0.25501669\H,0,0.95508131,0.01987247,2.14948627\H,0,2.
 23230566,0.14847927,0.8459932\H,0,1.03746386,1.48492951,1.06521017\H,0

 Normal termination of Gaussian 16 at Wed Apr  9 03:27:40 2025.
