 Gaussian 16, Revision C.01,

 ----------------------------------------------------------------------
 #t hf aug-cc-pvdz symm=none int=(grid=ultrafine) guess=(read,tcheck) s
 table=(opt,rrhf)
 ----------------------------------------------------------------------
 -----
 title
 -----
 Symbolic Z-matrix:
 Charge =  0 Multiplicity = 1

 SCF Done:  E(RHF) =  -268.679385514     A.U. after   18 cycles
 Normal termination of Gaussian 16 at Wed Apr  9 17:16:26 2025.
 Gaussian 16:  ES64L-G16RevC.01  3-Jul-2019

 ----------------------------------------------------------------------
 #t hf aug-cc-pvdz iop(5/13=1,5/36=2,99/5=2) pseudo=read geom=check gue
 ss=(read,tcheck) scf=(maxcycle=1)
 ----------------------------------------------------------------------
 -----
 title
 -----
 Structure from the checkpoint file:  "Grambow2020_b97d3_007088_forward_mol1.chk"
 Charge =  0 Multiplicity = 1

                         Standard orientation:
 ---------------------------------------------------------------------
 Center     Atomic      Atomic             Coordinates (Angstroms)
 Number     Number       Type             X           Y           Z
 ---------------------------------------------------------------------
      1          6           0        1.974580   -0.841955   -0.278324
      2          6           0        0.858425   -0.354468    0.646537
      3          6           0       -1.155281   -0.171112   -0.595034
      4          8           0       -2.110027   -0.672398    0.208145
      5          6           0       -0.121515    0.691481   -0.098865
      6          6           0        0.207718    1.997970   -0.102995
      7          1           0        1.578268   -1.426977   -1.119525
      8          1           0        2.676300   -1.481149    0.279578
      9          1           0        2.532187    0.010286   -0.687064
     10          1           0        1.277139    0.183832    1.503795
     11          1           0        0.299549   -1.212141    1.052361
     12          1           0       -1.075508   -0.764752   -1.507970
     13          1           0       -2.162842   -0.080652    0.992684
     14          1           0        1.171560    2.219236    0.393058
 ---------------------------------------------------------------------

 SCF Done:  E(RHF) =  -269.935655395     A.U. after    2 cycles

 The electronic state is 1-A.
 Alpha  occ. eigenvalues --  -21.19997 -11.58266 -11.42960 -11.37660 -11.36768
 Alpha  occ. eigenvalues --  -11.31923  -1.83913  -1.24233  -1.07555  -0.96106
 Alpha  occ. eigenvalues --   -0.88109  -0.79579  -0.67202  -0.62135  -0.61879
 Alpha  occ. eigenvalues --   -0.57168  -0.54626  -0.51291  -0.49308  -0.47158
 Alpha  occ. eigenvalues --   -0.44698  -0.31547  -0.24803
 Alpha virt. eigenvalues --    0.03068   0.03904   0.04435   0.05055   0.05638
 Alpha virt. eigenvalues --    0.06146   0.07116   0.07385   0.08350   0.10232
 Alpha virt. eigenvalues --    0.11402   0.12337   0.12882   0.13154   0.14096

 Mulliken charges:
               1
     1  C   -3.666775
     2  C   -3.422758
     3  C    0.674285
     4  O   -2.744836
     5  C    2.670057
     6  C   -3.729925
     7  H    1.317141
     8  H    1.152568
     9  H    1.317465
    10  H    1.365096
    11  H    1.329718
    12  H    1.550869
    13  H    0.965592
    14  H    1.221502
 Sum of Mulliken charges =  -0.00000

 Dipole moment (field-independent basis, Debye):
    X=             -2.5076    Y=             -6.1432    Z=              0.8998  Tot=              6.6960

 Test job not archived.
 1\1\GINC-SE114\SP\RHF\Aug-CC-pVDZ\C5H8O1\OHZDE\09-Apr-2025\0\\#t hf au
 g-cc-pvdz iop(5/13=1,5/36=2,99/5=2) pseudo=read geom=check guess=(read
 ,tcheck) scf=(maxcycle=1)\\title\\0,1\C,0,-1.29954967,1.09609952,-0.43
 957474\C,0,-0.56605605,-0.23989782,-0.56570849\C,0,0.98863772,-0.44422
 034,1.21510876\O,0,0.87606068,-1.71645043,1.63544358\C,0,0.99640959,-0
 .10294268,-0.1785885\C,0,1.87067581,0.26845922,-1.13412208\H,0,-1.3298
 8695,1.44586159,0.60142461\H,0,-2.33687003,0.99331967,-0.79402876\H,0,
 -0.80131993,1.86455649,-1.04418175\H,0,-0.58947128,-0.59499398,-1.6017

 Normal termination of Gaussian 16 at Wed Apr  9 17:16:30 2025.
