 Gaussian 16, Revision C.01,

 ----------------------------------------------------------------------
 #t hf aug-cc-pvdz symm=none int=(grid=ultrafine) guess=(read,tcheck) s
 table=(opt,rrhf)
 ----------------------------------------------------------------------
 -----
 title
 -----
 Symbolic Z-matrix:
 Charge =  0 Multiplicity = 1

 SCF Done:  E(RHF) =  -324.913696936     A.U. after   16 cycles
 Normal termination of Gaussian 16 at Wed Apr  9 19:07:15 2025.
 Gaussian 16:  ES64L-G16RevC.01  3-Jul-2019

 ----------------------------------------------------------------------
 #t hf aug-cc-pvdz iop(5/13=1,5/36=2,99/5=2) pseudo=read geom=check gue
 ss=(read,tcheck) scf=(maxcycle=1)
 ----------------------------------------------------------------------
 -----
 title
 -----
 Structure from the checkpoint file:  "Grambow2020_wb97xd3_008107_reverse_mol1.chk"
 Charge =  0 Multiplicity = 1

                         Standard orientation:
 ---------------------------------------------------------------------
 Center     Atomic      Atomic             Coordinates (Angstroms)
 Number     Number       Type             X           Y           Z
 ---------------------------------------------------------------------
      1          6           0        2.422888   -0.007881    0.953232
      2          6           0        0.968292   -0.936438   -0.743066
      3          7           0        0.070443    0.044810   -0.615429
      4          6           0        0.610051    1.339538   -0.593308
      5          6           0       -1.162818   -0.270783    0.040843
      6          8           0       -1.477895   -1.415340    0.207662
      7          6           0       -2.028808    0.880962    0.466375
      8          1           0        3.114331   -0.754628    0.569001
      9          1           0        1.883543   -0.428177    1.802500
     10          1           0        3.027529    0.831985    1.311081
     11          1           0        0.650595   -1.941674   -0.510418
     12          1           0        1.785518   -0.774470   -1.426345
     13          1           0        1.228145    1.550085   -1.462876
     14          1           0       -0.099398    2.130695   -0.390451
     15          1           0        1.616369    0.882866    0.282126
     16          1           0       -2.937999    0.468638    0.894231
     17          1           0       -2.278129    1.521158   -0.379737
     18          1           0       -1.518082    1.490185    1.213140
 ---------------------------------------------------------------------

 SCF Done:  E(RHF) =  -326.493191008     A.U. after    2 cycles

 The electronic state is 1-A.
 Alpha  occ. eigenvalues --  -21.06510 -15.80134 -11.53372 -11.44126 -11.40783
 Alpha  occ. eigenvalues --  -11.37589 -11.33784  -1.75052  -1.48107  -1.13672
 Alpha  occ. eigenvalues --   -1.02479  -1.00348  -0.93278  -0.75246  -0.70313
 Alpha  occ. eigenvalues --   -0.66067  -0.64091  -0.59849  -0.59209  -0.55605
 Alpha  occ. eigenvalues --   -0.54261  -0.53222  -0.51095  -0.49588  -0.46405
 Alpha  occ. eigenvalues --   -0.34857  -0.31829  -0.25774
 Alpha virt. eigenvalues --    0.03346   0.04830   0.05231   0.05372   0.05863
 Alpha virt. eigenvalues --    0.06016   0.06835   0.07147   0.07454   0.08824
 Alpha virt. eigenvalues --    0.09204   0.09615   0.11045   0.12064   0.12871

 Mulliken charges:
               1
     1  C   -5.112536
     2  C   -2.335696
     3  N   -2.985998
     4  C   -3.425577
     5  C    5.442293
     6  O   -3.321784
     7  C   -4.388306
     8  H    1.158797
     9  H    1.141753
    10  H    0.439408
    11  H    1.586008
    12  H    1.541736
    13  H    1.030784
    14  H    1.418796
    15  H    4.082110
    16  H    1.085849
    17  H    1.320845
    18  H    1.321516
 Sum of Mulliken charges =  -0.00000

 Dipole moment (field-independent basis, Debye):
    X=             -1.2429    Y=              0.4688    Z=             -0.9976  Tot=              1.6613

 Test job not archived.
 1\1\GINC-SE097\SP\RHF\Aug-CC-pVDZ\C5H11N1O1\OHZDE\09-Apr-2025\0\\#t hf
  aug-cc-pvdz iop(5/13=1,5/36=2,99/5=2) pseudo=read geom=check guess=(r
 ead,tcheck) scf=(maxcycle=1)\\title\\0,1\C,0,-1.93678528,1.2133615,-0.
 17550745\C,0,-1.17262715,-1.062436,0.12830479\N,0,0.09397906,-0.688442
 01,0.33105817\C,0,0.25851438,0.37638412,1.22942248\C,0,1.03285675,-0.9
 4142174,-0.72048145\O,0,0.75162779,-1.69819214,-1.60666424\C,0,2.36373
 629,-0.24942987,-0.63422772\H,0,-2.91603169,0.74412208,-0.11033023\H,0
 ,-1.64832816,1.28699504,-1.22439719\H,0,-2.04207689,2.22726192,0.22441

 Normal termination of Gaussian 16 at Wed Apr  9 19:07:22 2025.
