 Gaussian 16, Revision C.01,

 ----------------------------------------------------------------------
 #t hf aug-cc-pvdz symm=none int=(grid=ultrafine) guess=(read,tcheck) s
 table=(opt,rrhf)
 ----------------------------------------------------------------------
 -----
 title
 -----
 Symbolic Z-matrix:
 Charge =  0 Multiplicity = 1

 SCF Done:  E(RHF) =  -295.856812757     A.U. after   15 cycles
 Normal termination of Gaussian 16 at Wed Apr  9 16:18:39 2025.
 Gaussian 16:  ES64L-G16RevC.01  3-Jul-2019

 ----------------------------------------------------------------------
 #t hf aug-cc-pvdz iop(5/13=1,5/36=2,99/5=2) pseudo=read geom=check gue
 ss=(read,tcheck) scf=(maxcycle=1)
 ----------------------------------------------------------------------
 -----
 title
 -----
 Structure from the checkpoint file:  "Grambow2020_b97d3_006783_reverse_mol2.chk"
 Charge =  0 Multiplicity = 1

                         Standard orientation:
 ---------------------------------------------------------------------
 Center     Atomic      Atomic             Coordinates (Angstroms)
 Number     Number       Type             X           Y           Z
 ---------------------------------------------------------------------
      1          7           0       -2.013883   -0.023878   -0.063140
      2          6           0       -0.659106   -0.106371   -0.000622
      3          7           0        0.083021    1.165053   -0.000330
      4          7           0        1.307312    0.880194    0.001852
      5          6           0        1.426308   -0.605392    0.001800
      6          7           0        0.098844   -1.156817    0.006412
      7          1           0       -2.539449   -0.858630    0.166610
      8          1           0       -2.416162    0.865090    0.211666
      9          1           0        2.010907   -0.893711   -0.888062
     10          1           0        2.014440   -0.894029    0.889164
 ---------------------------------------------------------------------

 SCF Done:  E(RHF) =  -297.189710221     A.U. after    2 cycles

 The electronic state is 1-A.
 Alpha  occ. eigenvalues --  -15.81051 -15.80005 -15.79343 -15.72619 -11.49089
 Alpha  occ. eigenvalues --  -11.42210  -1.63178  -1.39543  -1.30220  -1.10263
 Alpha  occ. eigenvalues --   -0.88061  -0.80441  -0.71034  -0.67933  -0.67626
 Alpha  occ. eigenvalues --   -0.56275  -0.53189  -0.51654  -0.45592  -0.39890
 Alpha  occ. eigenvalues --   -0.37639  -0.33822
 Alpha virt. eigenvalues --    0.03548   0.05006   0.06125   0.06457   0.10045
 Alpha virt. eigenvalues --    0.10475   0.10513   0.12201   0.13189   0.13857
 Alpha virt. eigenvalues --    0.15496   0.15645   0.17413   0.17758   0.17924

 Mulliken charges:
               1
     1  N   -2.827309
     2  C    4.661098
     3  N   -1.056981
     4  N   -0.834189
     5  C   -1.780370
     6  N   -2.530665
     7  H    0.671876
     8  H    0.654109
     9  H    1.523292
    10  H    1.519137
 Sum of Mulliken charges =  -0.00000

 Dipole moment (field-independent basis, Debye):
    X=             -1.6859    Y=             -0.5309    Z=              0.6057  Tot=              1.8684

 Test job not archived.
 1\1\GINC-SE141\SP\RHF\Aug-CC-pVDZ\C2H4N4\OHZDE\09-Apr-2025\0\\#t hf au
 g-cc-pvdz iop(5/13=1,5/36=2,99/5=2) pseudo=read geom=check guess=(read
 ,tcheck) scf=(maxcycle=1)\\title\\0,1\N,0,1.92823248,-0.01786845,-0.29
 763456\C,0,0.58497866,-0.01027271,-0.0933148\N,0,-0.04330529,-1.301347
 78,0.23173129\N,0,-1.28050827,-1.09925003,0.32406304\C,0,-1.52372466,0
 .34722976,0.06011619\N,0,-0.2540884,0.97145348,-0.19408642\H,0,2.40237
 949,0.87709508,-0.29126201\H,0,2.43018008,-0.80893063,0.08950993\H,0,-
 2.2190231,0.41884622,-0.79321285\H,0,-2.03964099,0.76592907,0.94054119

 Normal termination of Gaussian 16 at Wed Apr  9 16:18:42 2025.
