 Gaussian 16, Revision C.01,

 ----------------------------------------------------------------------
 #t hf aug-cc-pvdz symm=none int=(grid=ultrafine) guess=(read,tcheck) s
 table=(opt,rrhf)
 ----------------------------------------------------------------------
 -----
 title
 -----
 Symbolic Z-matrix:
 Charge =  0 Multiplicity = 1

 SCF Done:  E(RHF) =  -320.225325840     A.U. after   16 cycles
 Normal termination of Gaussian 16 at Wed Apr  9 18:46:20 2025.
 Gaussian 16:  ES64L-G16RevC.01  3-Jul-2019

 ----------------------------------------------------------------------
 #t hf aug-cc-pvdz iop(5/13=1,5/36=2,99/5=2) pseudo=read geom=check gue
 ss=(read,tcheck) scf=(maxcycle=1)
 ----------------------------------------------------------------------
 -----
 title
 -----
 Structure from the checkpoint file:  "Grambow2020_wb97xd3_007646_forward_mol1.chk"
 Charge =  0 Multiplicity = 1

                         Standard orientation:
 ---------------------------------------------------------------------
 Center     Atomic      Atomic             Coordinates (Angstroms)
 Number     Number       Type             X           Y           Z
 ---------------------------------------------------------------------
      1          7           0       -2.936922   -0.069265    0.129081
      2          6           0       -1.808193   -0.073223   -0.107823
      3          6           0       -0.442922   -0.096446   -0.456053
      4          6           0        0.584130   -0.657637    0.385516
      5          8           0        1.807060   -0.775386   -0.255931
      6          6           0        1.737584    0.589051    0.054346
      7          6           0        0.416415    1.010632   -0.083583
      8          1           0        0.543217   -0.943222    1.434566
      9          1           0        2.556651    1.068335    0.568194
     10          1           0        0.080032    1.928564    0.386699
 ---------------------------------------------------------------------

 SCF Done:  E(RHF) =  -321.637203809     A.U. after    2 cycles

 The electronic state is 1-A.
 Alpha  occ. eigenvalues --  -21.13970 -15.73551 -11.59257 -11.54601 -11.49525
 Alpha  occ. eigenvalues --  -11.44105 -11.40678  -1.90149  -1.35599  -1.26591
 Alpha  occ. eigenvalues --   -1.06439  -0.93091  -0.85675  -0.81338  -0.66738
 Alpha  occ. eigenvalues --   -0.64168  -0.58220  -0.55098  -0.51111  -0.49802
 Alpha  occ. eigenvalues --   -0.46129  -0.42417  -0.35628  -0.27735
 Alpha virt. eigenvalues --    0.02529   0.04177   0.04724   0.07629   0.07949
 Alpha virt. eigenvalues --    0.09195   0.09600   0.09678   0.10967   0.12185
 Alpha virt. eigenvalues --    0.12619   0.13500   0.13960   0.14470   0.15254

 Mulliken charges:
               1
     1  N   -2.532048
     2  C    2.393237
     3  C   -1.404273
     4  C    1.131782
     5  O   -3.160363
     6  C   -0.287106
     7  C   -0.305180
     8  H    1.377368
     9  H    1.262439
    10  H    1.524143
 Sum of Mulliken charges =   0.00000

 Dipole moment (field-independent basis, Debye):
    X=              5.9497    Y=              1.1140    Z=              2.0069  Tot=              6.3771

 Test job not archived.
 1\1\GINC-SE220\SP\RHF\Aug-CC-pVDZ\C5H3N1O1\OHZDE\09-Apr-2025\0\\#t hf
 aug-cc-pvdz iop(5/13=1,5/36=2,99/5=2) pseudo=read geom=check guess=(re
 ad,tcheck) scf=(maxcycle=1)\\title\\0,1\N,0,2.96210991,-1.12148034,0.4
 5594415\C,0,1.94839965,-0.78306413,0.02231571\C,0,0.72843318,-0.390912
 45,-0.56391664\C,0,0.09295195,0.87729079,-0.3073336\O,0,-0.96748542,1.
 13557107,-1.1615239\C,0,-1.50852326,0.22482383,-0.24467915\C,0,-0.5236
 9882,-0.69931665,0.09930878\H,0,0.29376914,1.60966668,0.4717909\H,0,-2
 .43753248,0.4502104,0.25608657\H,0,-0.62023685,-1.2964342,0.99989118\\

 Normal termination of Gaussian 16 at Wed Apr  9 18:46:23 2025.
