 Gaussian 16, Revision C.01,

 ----------------------------------------------------------------------
 #t hf aug-cc-pvdz symm=none int=(grid=ultrafine) guess=(read,tcheck) s
 table=(opt,rrhf)
 ----------------------------------------------------------------------
 -----
 title
 -----
 Symbolic Z-matrix:
 Charge =  0 Multiplicity = 1

 SCF Done:  E(RHF) =  -375.762789421     A.U. after   14 cycles
 Normal termination of Gaussian 16 at Wed Apr  9 03:46:25 2025.
 Gaussian 16:  ES64L-G16RevC.01  3-Jul-2019

 ----------------------------------------------------------------------
 #t hf aug-cc-pvdz iop(5/13=1,5/36=2,99/5=2) pseudo=read geom=check gue
 ss=(read,tcheck) scf=(maxcycle=1)
 ----------------------------------------------------------------------
 -----
 title
 -----
 Structure from the checkpoint file:  "Grambow2020_wb97xd3_007917_reverse_mol2.chk"
 Charge =  0 Multiplicity = 1

                         Standard orientation:
 ---------------------------------------------------------------------
 Center     Atomic      Atomic             Coordinates (Angstroms)
 Number     Number       Type             X           Y           Z
 ---------------------------------------------------------------------
      1          6           0        2.693061   -0.291448    0.065758
      2          8           0        1.396491   -0.655237   -0.335366
      3          6           0        0.381421    0.074662    0.303657
      4          7           0        0.283292    1.455216   -0.071732
      5          7           0       -0.826197   -0.626405   -0.022159
      6          6           0       -1.978790   -0.283604    0.004584
      7          8           0       -3.119974   -0.066906   -0.006397
      8          1           0        3.376928   -1.007808   -0.384996
      9          1           0        2.803853   -0.335708    1.157288
     10          1           0        2.967605    0.713352   -0.276864
     11          1           0        1.016152    2.013761    0.340622
     12          1           0        0.544891    0.036772    1.390065
     13          1           0        0.304617    1.557439   -1.078770
 ---------------------------------------------------------------------

 SCF Done:  E(RHF) =  -377.409771777     A.U. after    2 cycles

 The electronic state is 1-A.
 Alpha  occ. eigenvalues --  -21.11883 -21.06017 -15.75606 -15.75389 -11.58061
 Alpha  occ. eigenvalues --  -11.49100 -11.41719  -1.79390  -1.76910  -1.42220
 Alpha  occ. eigenvalues --   -1.29986  -1.03652  -0.92436  -0.77154  -0.69265
 Alpha  occ. eigenvalues --   -0.66119  -0.63686  -0.61326  -0.60285  -0.58017
 Alpha  occ. eigenvalues --   -0.55561  -0.53299  -0.45280  -0.37422  -0.36196
 Alpha  occ. eigenvalues --   -0.33039  -0.31417
 Alpha virt. eigenvalues --    0.03256   0.04965   0.05326   0.05734   0.06222
 Alpha virt. eigenvalues --    0.06558   0.09061   0.10949   0.11442   0.12331
 Alpha virt. eigenvalues --    0.13251   0.13735   0.14616   0.15609   0.16463

 Mulliken charges:
               1
     1  C   -2.989225
     2  O   -3.225640
     3  C    2.548547
     4  N   -2.137781
     5  N   -2.399550
     6  C    4.040157
     7  O   -2.675093
     8  H    1.278691
     9  H    1.253243
    10  H    1.322688
    11  H    0.575306
    12  H    1.996991
    13  H    0.411666
 Sum of Mulliken charges =  -0.00000

 Dipole moment (field-independent basis, Debye):
    X=              1.7653    Y=              1.2556    Z=              0.2102  Tot=              2.1765

 Test job not archived.
 1\1\GINC-SE331\SP\RHF\Aug-CC-pVDZ\C3H6N2O2\OHZDE\09-Apr-2025\0\\#t hf
 aug-cc-pvdz iop(5/13=1,5/36=2,99/5=2) pseudo=read geom=check guess=(re
 ad,tcheck) scf=(maxcycle=1)\\title\\0,1\C,0,-1.7842457,-0.09388917,-0.
 76256056\O,0,-1.1091148,0.05908464,0.46019573\C,0,0.24725451,-0.299755
 99,0.4057443\N,0,1.08892733,0.57950837,-0.35251281\N,0,0.66388801,-0.3
 4285739,1.77707617\C,0,1.75548048,-0.2984267,2.2802176\O,0,2.75286756,
 -0.26802042,2.87492181\H,0,-2.84033094,0.07860106,-0.56518802\H,0,-1.6
 6112171,-1.10762674,-1.16610479\H,0,-1.4493069,0.62935195,-1.51563803\

 Normal termination of Gaussian 16 at Wed Apr  9 03:46:29 2025.
