 Gaussian 16, Revision C.01,

 ----------------------------------------------------------------------
 #t hf aug-cc-pvdz symm=none int=(grid=ultrafine) guess=(read,tcheck) s
 table=(opt,rrhf)
 ----------------------------------------------------------------------
 -----
 title
 -----
 Symbolic Z-matrix:
 Charge =  0 Multiplicity = 1

 SCF Done:  E(RHF) =  -318.838555893     A.U. after   15 cycles
 Normal termination of Gaussian 16 at Wed Apr  9 18:22:19 2025.
 Gaussian 16:  ES64L-G16RevC.01  3-Jul-2019

 ----------------------------------------------------------------------
 #t hf aug-cc-pvdz iop(5/13=1,5/36=2,99/5=2) pseudo=read geom=check gue
 ss=(read,tcheck) scf=(maxcycle=1)
 ----------------------------------------------------------------------
 -----
 title
 -----
 Structure from the checkpoint file:  "Grambow2020_wb97xd3_006933_reverse_mol1.chk"
 Charge =  0 Multiplicity = 1

                         Standard orientation:
 ---------------------------------------------------------------------
 Center     Atomic      Atomic             Coordinates (Angstroms)
 Number     Number       Type             X           Y           Z
 ---------------------------------------------------------------------
      1          7           0       -2.433048   -0.511777    0.109790
      2          6           0       -1.107715   -0.126194   -0.030165
      3          6           0        0.014802   -0.951658   -0.033499
      4          6           0        1.136247   -0.122016   -0.013828
      5          7           0        2.461411   -0.524927   -0.065072
      6          6           0        0.675655    1.198343   -0.003383
      7          7           0       -0.797932    1.179177   -0.078334
      8          1           0       -3.080303    0.179084   -0.234310
      9          1           0       -2.638898   -1.433265   -0.237673
     10          1           0        0.015074   -2.032401   -0.005792
     11          1           0        2.642665   -1.434198    0.325102
     12          1           0        3.124306    0.159885    0.255434
     13          1           0        1.185343    2.095201   -0.318892
     14          1           0       -0.175142    1.477537    0.936686
 ---------------------------------------------------------------------

 SCF Done:  E(RHF) =  -320.347059523     A.U. after    2 cycles

 The electronic state is 1-A.
 Alpha  occ. eigenvalues --  -15.76172 -15.75377 -15.72078 -11.48681 -11.45136
 Alpha  occ. eigenvalues --  -11.40251 -11.35686  -1.51730  -1.35259  -1.29924
 Alpha  occ. eigenvalues --   -1.09083  -0.99942  -0.80505  -0.78474  -0.69491
 Alpha  occ. eigenvalues --   -0.66076  -0.65600  -0.64371  -0.52847  -0.51730
 Alpha  occ. eigenvalues --   -0.50026  -0.47229  -0.43681  -0.38864  -0.30798
 Alpha  occ. eigenvalues --   -0.24544
 Alpha virt. eigenvalues --    0.03446   0.05081   0.05213   0.05681   0.06575
 Alpha virt. eigenvalues --    0.07430   0.08658   0.10222   0.12551   0.12912
 Alpha virt. eigenvalues --    0.13033   0.13311   0.13948   0.14969   0.15441

 Mulliken charges:
               1
     1  N   -3.464423
     2  C    4.078788
     3  C   -2.694119
     4  C    4.252843
     5  N   -3.592521
     6  C   -1.680827
     7  N   -3.441380
     8  H    0.743750
     9  H    0.500183
    10  H    1.587513
    11  H    0.610170
    12  H    0.712765
    13  H    1.259265
    14  H    1.127991
 Sum of Mulliken charges =   0.00000

 Dipole moment (field-independent basis, Debye):
    X=              0.8269    Y=             -1.2763    Z=              0.2276  Tot=              1.5377

 Test job not archived.
 1\1\GINC-SE135\SP\RHF\Aug-CC-pVDZ\C4H7N3\OHZDE\09-Apr-2025\0\\#t hf au
 g-cc-pvdz iop(5/13=1,5/36=2,99/5=2) pseudo=read geom=check guess=(read
 ,tcheck) scf=(maxcycle=1)\\title\\0,1\N,0,-2.47745212,-0.53864393,0.04
 388161\C,0,-1.16361518,-0.11409165,-0.09161379\C,0,-0.01314926,-0.8972
 3631,-0.02409875\C,0,1.07791366,-0.02782584,-0.03032095\N,0,2.41715546
 ,-0.38483041,-0.03122174\C,0,0.57135677,1.27341629,-0.10630425\N,0,-0.
 89863104,1.19667835,-0.20969534\H,0,-3.14064001,0.1073666,-0.3529619\H
 ,0,-2.64321167,-1.48547401,-0.25324106\H,0,0.0242622,-1.97386587,0.066

 Normal termination of Gaussian 16 at Wed Apr  9 18:22:23 2025.
