 Gaussian 16, Revision C.01,

 ----------------------------------------------------------------------
 #t hf aug-cc-pvdz symm=none int=(grid=ultrafine) guess=(read,tcheck) s
 table=(opt,rrhf)
 ----------------------------------------------------------------------
 -----
 title
 -----
 Symbolic Z-matrix:
 Charge =  0 Multiplicity = 1

 SCF Done:  E(RHF) =  -333.504722962     A.U. after   20 cycles
 Normal termination of Gaussian 16 at Wed Apr  9 18:25:28 2025.
 Gaussian 16:  ES64L-G16RevC.01  3-Jul-2019

 ----------------------------------------------------------------------
 #t hf aug-cc-pvdz iop(5/13=1,5/36=2,99/5=2) pseudo=read geom=check gue
 ss=(read,tcheck) scf=(maxcycle=1)
 ----------------------------------------------------------------------
 -----
 title
 -----
 Structure from the checkpoint file:  "Grambow2020_wb97xd3_006989_forward_mol1.chk"
 Charge =  0 Multiplicity = 1

                         Standard orientation:
 ---------------------------------------------------------------------
 Center     Atomic      Atomic             Coordinates (Angstroms)
 Number     Number       Type             X           Y           Z
 ---------------------------------------------------------------------
      1          7           0       -2.024770   -0.230750   -0.304212
      2          6           0       -0.875298    0.225275    0.238082
      3          6           0       -0.089819    1.355165    0.003463
      4          7           0        1.202152    0.957634    0.103632
      5          6           0        1.490300   -0.361681   -0.436434
      6          7           0        0.706383   -1.322760   -0.145728
      7          7           0        0.048268   -0.575080    0.887251
      8          1           0       -2.340019    0.113687   -1.193207
      9          1           0       -2.338148   -1.147234   -0.038204
     10          1           0       -0.339164    2.369944   -0.281956
     11          1           0        2.342014   -0.452260   -1.103902
 ---------------------------------------------------------------------

 SCF Done:  E(RHF) =  -335.010864533     A.U. after    2 cycles

 The electronic state is 1-A.
 Alpha  occ. eigenvalues --  -15.80624 -15.78501 -15.76467 -15.76093 -11.49851
 Alpha  occ. eigenvalues --  -11.44992 -11.42287  -1.62907  -1.39153  -1.31407
 Alpha  occ. eigenvalues --   -1.18149  -0.95457  -0.88465  -0.74454  -0.73025
 Alpha  occ. eigenvalues --   -0.70400  -0.64189  -0.62112  -0.55778  -0.50301
 Alpha  occ. eigenvalues --   -0.47136  -0.40919  -0.35675  -0.34581  -0.26472
 Alpha virt. eigenvalues --    0.02981   0.04423   0.05441   0.05673   0.06005
 Alpha virt. eigenvalues --    0.09943   0.10548   0.10654   0.11855   0.12190
 Alpha virt. eigenvalues --    0.13032   0.13993   0.14612   0.15691   0.15846

 Mulliken charges:
               1
     1  N   -3.369441
     2  C    3.493080
     3  C    0.394726
     4  N   -2.346360
     5  C    1.064334
     6  N   -1.627940
     7  N   -1.700990
     8  H    0.610242
     9  H    0.725353
    10  H    1.262825
    11  H    1.494173
 Sum of Mulliken charges =  -0.00000

 Dipole moment (field-independent basis, Debye):
    X=             -2.5735    Y=              0.1989    Z=             -2.1841  Tot=              3.3812

 Test job not archived.
 1\1\GINC-SE035\SP\RHF\Aug-CC-pVDZ\C3H4N4\OHZDE\09-Apr-2025\0\\#t hf au
 g-cc-pvdz iop(5/13=1,5/36=2,99/5=2) pseudo=read geom=check guess=(read
 ,tcheck) scf=(maxcycle=1)\\title\\0,1\N,0,1.72672461,-0.44021315,-0.50
 221648\C,0,0.60695386,0.31248677,-0.4485247\C,0,0.08572785,1.1837745,0
 .50952295\N,0,-1.25595222,0.99134679,0.52047218\C,0,-1.68766256,-0.387
 23912,0.35188844\N,0,-1.14642842,-1.08663009,-0.56496743\N,0,-0.537209
 18,0.05598342,-1.18341212\H,0,2.2363715,-0.65504797,0.33589768\H,0,1.8
 2321782,-1.08428762,-1.26691676\H,0,0.55624969,1.86211689,1.21086053\H

 Normal termination of Gaussian 16 at Wed Apr  9 18:25:32 2025.
