 Gaussian 16, Revision C.01,

 ----------------------------------------------------------------------
 #t hf aug-cc-pvdz symm=none int=(grid=ultrafine) guess=(read,tcheck) s
 table=(opt,rrhf)
 ----------------------------------------------------------------------
 -----
 title
 -----
 Symbolic Z-matrix:
 Charge =  0 Multiplicity = 1

 SCF Done:  E(RHF) =  -308.838413670     A.U. after   15 cycles

 1\1\GINC-SE138\Stability\RHF\Aug-CC-pVDZ\C6H12O1\OHZDE\09-Apr-2025\0\\
 #t hf aug-cc-pvdz symm=none int=(grid=ultrafine) guess=(read,tcheck) s
 table=(opt,rrhf)\\title\\0,1\C,0,2.39022966,-0.84135598,0.30045942\C,0
 ,1.25626508,1.19794637,-0.40290742\O,0,0.38117665,1.14221492,0.5487750
 6\C,0,-0.17976667,-0.09274866,0.73953662\C,0,-1.50141988,-0.23051289,1
 .37877286\C,0,-1.31220764,-0.59553011,-0.08725242\C,0,-1.95378719,0.26
 376327,-1.14647446\H,0,2.38409601,-1.84211089,0.74492284\H,0,3.1007330
 5,-0.23629797,0.85935206\H,0,2.72065268,-0.94485183,-0.73053623\H,0,1.

 Normal termination of Gaussian 16 at Wed Apr  9 19:34:41 2025.
 Gaussian 16:  ES64L-G16RevC.01  3-Jul-2019

 ----------------------------------------------------------------------
 #t hf aug-cc-pvdz iop(5/13=1,5/36=2,99/5=2) pseudo=read geom=check gue
 ss=(read,tcheck) scf=(maxcycle=1)
 ----------------------------------------------------------------------
 -----
 title
 -----
 Structure from the checkpoint file:  "Grambow2020_wb97xd3_009435_forward_mol1.chk"
 Charge =  0 Multiplicity = 1

                         Standard orientation:
 ---------------------------------------------------------------------
 Center     Atomic      Atomic             Coordinates (Angstroms)
 Number     Number       Type             X           Y           Z
 ---------------------------------------------------------------------
      1          6           0       -2.465215   -0.610948    0.715139
      2          6           0       -1.276897    1.214513   -0.377998
      3          8           0       -0.476836    0.424636   -1.018765
      4          6           0        0.065462   -0.579263   -0.260951
      5          6           0        1.334389   -1.219610   -0.653570
      6          6           0        1.256478   -0.372962    0.609516
      7          6           0        1.978503    0.949454    0.652607
      8          1           0       -2.494937   -1.612427    1.157011
      9          1           0       -3.214934   -0.575158   -0.072206
     10          1           0       -2.716481    0.098914    1.499871
     11          1           0       -1.025458    1.525886    0.627811
     12          1           0       -1.928038    1.812119   -1.001955
     13          1           0       -1.225930   -0.813022    0.331903
     14          1           0        1.894018   -0.795162   -1.480573
     15          1           0        1.414342   -2.296244   -0.563384
     16          1           0        1.246043   -0.915776    1.550456
     17          1           0        1.530132    1.629575    1.381930
     18          1           0        3.025645    0.812237    0.930770
     19          1           0        1.953959    1.444871   -0.319975
 ---------------------------------------------------------------------

 SCF Done:  E(RHF) =  -310.375131542     A.U. after    2 cycles

 The electronic state is 1-A.
 Alpha  occ. eigenvalues --  -21.13655 -11.47526 -11.42853 -11.41312 -11.37957
 Alpha  occ. eigenvalues --  -11.35530 -11.34438  -1.85334  -1.28645  -1.04632
 Alpha  occ. eigenvalues --   -1.01158  -0.96030  -0.83774  -0.77469  -0.69555
 Alpha  occ. eigenvalues --   -0.67400  -0.61834  -0.59407  -0.56586  -0.53778
 Alpha  occ. eigenvalues --   -0.53333  -0.51794  -0.48025  -0.46447  -0.41237
 Alpha  occ. eigenvalues --   -0.39907  -0.33151  -0.25567
 Alpha virt. eigenvalues --    0.03720   0.04610   0.04879   0.05301   0.05642
 Alpha virt. eigenvalues --    0.05902   0.06126   0.06531   0.07316   0.08616
 Alpha virt. eigenvalues --    0.08962   0.09433   0.10143   0.11921   0.13046

 Mulliken charges:
               1
     1  C   -5.438328
     2  C   -1.932742
     3  O   -3.517502
     4  C    2.562215
     5  C   -3.839420
     6  C   -1.032010
     7  C   -4.686280
     8  H    0.557544
     9  H    1.029526
    10  H    1.085140
    11  H    1.668235
    12  H    1.453123
    13  H    4.305307
    14  H    1.390628
    15  H    1.241409
    16  H    1.390429
    17  H    1.341797
    18  H    1.134465
    19  H    1.286464
 Sum of Mulliken charges =  -0.00000

 Dipole moment (field-independent basis, Debye):
    X=              0.8996    Y=              1.2717    Z=             -0.3241  Tot=              1.5910

 Test job not archived.
 1\1\GINC-SE138\SP\RHF\Aug-CC-pVDZ\C6H12O1\OHZDE\09-Apr-2025\0\\#t hf a
 ug-cc-pvdz iop(5/13=1,5/36=2,99/5=2) pseudo=read geom=check guess=(rea
 d,tcheck) scf=(maxcycle=1)\\title\\0,1\C,0,2.39022966,-0.84135598,0.30
 045942\C,0,1.25626508,1.19794637,-0.40290742\O,0,0.38117665,1.14221492
 ,0.54877506\C,0,-0.17976667,-0.09274866,0.73953662\C,0,-1.50141988,-0.
 23051289,1.37877286\C,0,-1.31220764,-0.59553011,-0.08725242\C,0,-1.953
 78719,0.26376327,-1.14647446\H,0,2.38409601,-1.84211089,0.74492284\H,0
 ,3.10073305,-0.23629797,0.85935206\H,0,2.72065268,-0.94485183,-0.73053

 Normal termination of Gaussian 16 at Wed Apr  9 19:34:48 2025.
