 Gaussian 16, Revision C.01,

 ----------------------------------------------------------------------
 #t hf aug-cc-pvdz symm=none int=(grid=ultrafine) guess=(read,tcheck) s
 table=(opt,rrhf)
 ----------------------------------------------------------------------
 -----
 title
 -----
 Symbolic Z-matrix:
 Charge =  0 Multiplicity = 1

 SCF Done:  E(RHF) =  -306.632376690     A.U. after   16 cycles
 Normal termination of Gaussian 16 at Wed Apr  9 03:59:42 2025.
 Gaussian 16:  ES64L-G16RevC.01  3-Jul-2019

 ----------------------------------------------------------------------
 #t hf aug-cc-pvdz iop(5/13=1,5/36=2,99/5=2) pseudo=read geom=check gue
 ss=(read,tcheck) scf=(maxcycle=1)
 ----------------------------------------------------------------------
 -----
 title
 -----
 Structure from the checkpoint file:  "Grambow2020_wb97xd3_008795_reverse_mol1.chk"
 Charge =  0 Multiplicity = 1

                         Standard orientation:
 ---------------------------------------------------------------------
 Center     Atomic      Atomic             Coordinates (Angstroms)
 Number     Number       Type             X           Y           Z
 ---------------------------------------------------------------------
      1          8           0        2.325882   -0.024202    0.051824
      2          6           0        1.125216   -0.026939   -0.030185
      3          6           0        0.296928   -1.265890   -0.238226
      4          6           0       -1.098971   -1.113978    0.359248
      5          6           0       -1.792038    0.142726   -0.168752
      6          6           0       -1.026390    1.433536   -0.110457
      7          6           0        0.353877    1.282049    0.029318
      8          1           0        0.222169   -1.403598   -1.324464
      9          1           0        0.843538   -2.123358    0.155326
     10          1           0       -1.697858   -2.002452    0.148189
     11          1           0       -1.021408   -1.050184    1.450504
     12          1           0       -2.000906    0.033964   -1.243588
     13          1           0       -2.774231    0.270723    0.290031
     14          1           0       -0.333095    1.600608    1.031692
     15          1           0        1.003005    2.158880    0.032049
 ---------------------------------------------------------------------

 SCF Done:  E(RHF) =  -308.059493865     A.U. after    2 cycles

 The electronic state is 1-A.
 Alpha  occ. eigenvalues --  -21.07215 -11.51615 -11.45412 -11.44241 -11.42268
 Alpha  occ. eigenvalues --  -11.40033 -11.37282  -1.72893  -1.32794  -1.15797
 Alpha  occ. eigenvalues --   -1.07349  -0.90518  -0.85279  -0.73610  -0.67102
 Alpha  occ. eigenvalues --   -0.61080  -0.60055  -0.58238  -0.56895  -0.53009
 Alpha  occ. eigenvalues --   -0.50742  -0.47905  -0.44597  -0.41660  -0.34436
 Alpha  occ. eigenvalues --   -0.26753
 Alpha virt. eigenvalues --    0.03047   0.04882   0.05467   0.05706   0.06157
 Alpha virt. eigenvalues --    0.06254   0.06420   0.07258   0.09623   0.09960
 Alpha virt. eigenvalues --    0.10806   0.11893   0.12634   0.13543   0.13687

 Mulliken charges:
               1
     1  O   -3.521812
     2  C    4.308868
     3  C   -3.601910
     4  C   -3.174802
     5  C   -2.483923
     6  C   -1.097650
     7  C   -1.544993
     8  H    1.396773
     9  H    1.326780
    10  H    1.279411
    11  H    1.400367
    12  H    1.427935
    13  H    1.250067
    14  H    1.591285
    15  H    1.443602
 Sum of Mulliken charges =   0.00000

 Dipole moment (field-independent basis, Debye):
    X=              0.0243    Y=             -2.0874    Z=              0.3568  Tot=              2.1178

 Test job not archived.
 1\1\GINC-SE368\SP\RHF\Aug-CC-pVDZ\C6H8O1\OHZDE\09-Apr-2025\0\\#t hf au
 g-cc-pvdz iop(5/13=1,5/36=2,99/5=2) pseudo=read geom=check guess=(read
 ,tcheck) scf=(maxcycle=1)\\title\\0,1\O,0,0.86998313,-2.53420422,0.504
 34737\C,0,0.52984102,-1.41889097,0.20650248\C,0,-0.88730437,-1.0263352
 ,-0.11277919\C,0,-1.15093589,0.43992129,0.2176373\C,0,-0.12901646,1.35
 179203,-0.46251071\C,0,1.32379497,1.00569798,-0.30324912\C,0,1.5654326
 9,-0.3118576,0.08826498\H,0,-1.01399647,-1.1920265,-1.1902586\H,0,-1.5
 6454146,-1.71191532,0.39736436\H,0,-2.16707492,0.71481859,-0.07303497\

 Normal termination of Gaussian 16 at Wed Apr  9 03:59:46 2025.
