 Gaussian 16, Revision C.01,

 ----------------------------------------------------------------------
 #t hf aug-cc-pvdz symm=none int=(grid=ultrafine) guess=(read,tcheck) s
 table=(opt,rrhf)
 ----------------------------------------------------------------------
 -----
 title
 -----
 Symbolic Z-matrix:
 Charge =  0 Multiplicity = 1

 SCF Done:  E(RHF) =  -354.522041564     A.U. after   17 cycles
 Normal termination of Gaussian 16 at Wed Apr  9 18:36:15 2025.
 Gaussian 16:  ES64L-G16RevC.01  3-Jul-2019

 ----------------------------------------------------------------------
 #t hf aug-cc-pvdz iop(5/13=1,5/36=2,99/5=2) pseudo=read geom=check gue
 ss=(read,tcheck) scf=(maxcycle=1)
 ----------------------------------------------------------------------
 -----
 title
 -----
 Structure from the checkpoint file:  "Grambow2020_wb97xd3_007323_reverse_mol1.chk"
 Charge =  0 Multiplicity = 1

                         Standard orientation:
 ---------------------------------------------------------------------
 Center     Atomic      Atomic             Coordinates (Angstroms)
 Number     Number       Type             X           Y           Z
 ---------------------------------------------------------------------
      1          8           0       -2.363685   -0.360736    0.691120
      2          6           0       -1.775719   -0.023514   -0.481331
      3          6           0       -0.053696    0.076460   -0.273912
      4          7           0        0.686764   -0.963085   -0.259122
      5          7           0        1.994629   -0.510348    0.085548
      6          6           0        2.310250    0.709884    0.306028
      7          7           0       -0.323538    1.263849   -0.186330
      8          1           0       -2.578818    0.435033    1.185301
      9          1           0       -2.222560    0.798987   -1.031319
     10          1           0       -1.667141   -0.898921   -1.124806
     11          1           0        2.606447   -1.316332    0.117627
     12          1           0        3.381560    0.757225    0.538856
 ---------------------------------------------------------------------

 SCF Done:  E(RHF) =  -356.099609607     A.U. after    2 cycles

 The electronic state is 1-A.
 Alpha  occ. eigenvalues --  -21.12812 -15.81758 -15.81105 -15.73625 -11.51407
 Alpha  occ. eigenvalues --  -11.48345 -11.37640  -1.78815  -1.54670  -1.37935
 Alpha  occ. eigenvalues --   -1.18726  -1.00615  -0.88846  -0.74744  -0.71240
 Alpha  occ. eigenvalues --   -0.65106  -0.64325  -0.59683  -0.57254  -0.56882
 Alpha  occ. eigenvalues --   -0.48684  -0.45485  -0.43684  -0.36634  -0.32467
 Alpha  occ. eigenvalues --   -0.30108
 Alpha virt. eigenvalues --    0.03507   0.04830   0.05684   0.05964   0.06411
 Alpha virt. eigenvalues --    0.09549   0.11034   0.11675   0.12109   0.12539
 Alpha virt. eigenvalues --    0.13284   0.13809   0.14319   0.15519   0.16270

 Mulliken charges:
               1
     1  O   -2.513011
     2  C   -0.801755
     3  C    5.005636
     4  N   -2.123006
     5  N   -1.284581
     6  C   -1.726092
     7  N   -1.917703
     8  H    0.668836
     9  H    1.360204
    10  H    1.083543
    11  H    0.828998
    12  H    1.418931
 Sum of Mulliken charges =  -0.00000

 Dipole moment (field-independent basis, Debye):
    X=             -1.9133    Y=             -1.6275    Z=             -0.1955  Tot=              2.5194

 Test job not archived.
 1\1\GINC-SE117\SP\RHF\Aug-CC-pVDZ\C3H5N3O1\OHZDE\09-Apr-2025\0\\#t hf
 aug-cc-pvdz iop(5/13=1,5/36=2,99/5=2) pseudo=read geom=check guess=(re
 ad,tcheck) scf=(maxcycle=1)\\title\\0,1\O,0,-2.19397474,0.74723654,-1.
 08938694\C,0,-1.81688777,0.09585239,0.03647693\C,0,-0.09370093,-0.1253
 7519,0.04457835\N,0,0.70641807,0.81136066,0.37848017\N,0,2.01941121,0.
 32077174,0.1145669\C,0,2.28494562,-0.84275623,-0.34683156\N,0,-0.42370
 939,-1.22895962,-0.35986434\H,0,-2.38186786,0.10990039,-1.78382475\H,0
 ,-2.39580535,-0.78133633,0.30861195\H,0,-1.75185003,0.78706092,0.87920

 Normal termination of Gaussian 16 at Wed Apr  9 18:36:19 2025.
