 Gaussian 16, Revision C.01,

 ----------------------------------------------------------------------
 #t hf aug-cc-pvdz symm=none int=(grid=ultrafine) guess=(read,tcheck) s
 table=(opt,rrhf)
 ----------------------------------------------------------------------
 -----
 title
 -----
 Symbolic Z-matrix:
 Charge =  0 Multiplicity = 1

 SCF Done:  E(RHF) =  -271.022411119     A.U. after   15 cycles

 1\1\GINC-SE114\Stability\RHF\Aug-CC-pVDZ\C5H12O1\OHZDE\09-Apr-2025\0\\
 #t hf aug-cc-pvdz symm=none int=(grid=ultrafine) guess=(read,tcheck) s
 table=(opt,rrhf)\\title\\0,1\C,0,-1.86539338,0.85530581,0.56595858\C,0
 ,-1.20240942,-0.28749221,-0.17623838\C,0,-0.32733951,-1.13710142,0.491
 73779\O,0,0.0519233,-2.36899305,0.00858564\C,0,1.7745966,0.10623094,0.
 46527892\C,0,1.83984139,0.91944315,-0.65415214\H,0,-2.18014736,1.64853
 553,-0.12594815\H,0,-2.75528447,0.5168578,1.11890111\H,0,-1.16633001,1
 .30056094,1.28696338\H,0,-1.7888219,-0.73187815,-0.99022164\H,0,-0.333

 Normal termination of Gaussian 16 at Wed Apr  9 16:24:12 2025.
 Gaussian 16:  ES64L-G16RevC.01  3-Jul-2019

 ----------------------------------------------------------------------
 #t hf aug-cc-pvdz iop(5/13=1,5/36=2,99/5=2) pseudo=read geom=check gue
 ss=(read,tcheck) scf=(maxcycle=1)
 ----------------------------------------------------------------------
 -----
 title
 -----
 Structure from the checkpoint file:  "Grambow2020_b97d3_006801_reverse_mol1.chk"
 Charge =  0 Multiplicity = 1

                         Standard orientation:
 ---------------------------------------------------------------------
 Center     Atomic      Atomic             Coordinates (Angstroms)
 Number     Number       Type             X           Y           Z
 ---------------------------------------------------------------------
      1          6           0        1.705654   -1.458355    0.247691
      2          6           0        1.161592   -0.214736   -0.425956
      3          6           0        0.572100    0.788452    0.335547
      4          8           0        0.359495    2.067281   -0.127302
      5          6           0       -1.703473   -0.035260    0.664145
      6          6           0       -2.088743   -0.827324   -0.404919
      7          1           0        1.758119   -2.300390   -0.456043
      8          1           0        2.716680   -1.291334    0.650345
      9          1           0        1.054192   -1.759661    1.079317
     10          1           0        1.689374    0.106524   -1.332689
     11          1           0        0.022158   -0.826908   -1.239885
     12          1           0        0.536705    0.754093    1.418991
     13          1           0        0.507840    2.065474   -1.092367
     14          1           0       -1.438123   -0.493614    1.616143
     15          1           0       -1.916317    1.030757    0.675965
     16          1           0       -2.667790   -0.396527   -1.224390
     17          1           0       -0.828214   -1.036802   -1.298538
     18          1           0       -2.193363   -1.906526   -0.277484
 ---------------------------------------------------------------------

 SCF Done:  E(RHF) =  -272.400749128     A.U. after    2 cycles

 The electronic state is 1-A.
 Alpha  occ. eigenvalues --  -21.09582 -11.47375 -11.41202 -11.40464 -11.36819
 Alpha  occ. eigenvalues --  -11.35962  -1.73775  -1.18932  -1.12012  -0.96244
 Alpha  occ. eigenvalues --   -0.85205  -0.80784  -0.65120  -0.63794  -0.62381
 Alpha  occ. eigenvalues --   -0.59445  -0.54862  -0.54100  -0.53511  -0.49898
 Alpha  occ. eigenvalues --   -0.48603  -0.44551  -0.41903  -0.31891  -0.25163
 Alpha virt. eigenvalues --    0.04152   0.04900   0.05211   0.05522   0.05799
 Alpha virt. eigenvalues --    0.06068   0.06637   0.06751   0.06866   0.09013
 Alpha virt. eigenvalues --    0.09810   0.10434   0.12080   0.13152   0.13853

 Mulliken charges:
               1
     1  C   -3.940768
     2  C   -2.427240
     3  C    1.581129
     4  O   -3.509791
     5  C   -3.043684
     6  C   -3.289941
     7  H    1.115994
     8  H    1.204219
     9  H    1.357713
    10  H    1.396901
    11  H    0.691592
    12  H    1.655027
    13  H    0.820372
    14  H    1.359750
    15  H    1.471377
    16  H    1.298929
    17  H    0.932621
    18  H    1.325800
 Sum of Mulliken charges =   0.00000

 Dipole moment (field-independent basis, Debye):
    X=              0.8291    Y=              0.4145    Z=             -0.1167  Tot=              0.9343

 Test job not archived.
 1\1\GINC-SE114\SP\RHF\Aug-CC-pVDZ\C5H12O1\OHZDE\09-Apr-2025\0\\#t hf a
 ug-cc-pvdz iop(5/13=1,5/36=2,99/5=2) pseudo=read geom=check guess=(rea
 d,tcheck) scf=(maxcycle=1)\\title\\0,1\C,0,-1.86539338,0.85530581,0.56
 595858\C,0,-1.20240942,-0.28749221,-0.17623838\C,0,-0.32733951,-1.1371
 0142,0.49173779\O,0,0.0519233,-2.36899305,0.00858564\C,0,1.7745966,0.1
 0623094,0.46527892\C,0,1.83984139,0.91944315,-0.65415214\H,0,-2.180147
 36,1.64853553,-0.12594815\H,0,-2.75528447,0.5168578,1.11890111\H,0,-1.
 16633001,1.30056094,1.28696338\H,0,-1.7888219,-0.73187815,-0.99022164\

 Normal termination of Gaussian 16 at Wed Apr  9 16:24:18 2025.
