 Gaussian 16, Revision C.01,

 ----------------------------------------------------------------------
 #t hf aug-cc-pvdz symm=none int=(grid=ultrafine) guess=(read,tcheck) s
 table=(opt,rrhf)
 ----------------------------------------------------------------------
 -----
 title
 -----
 Symbolic Z-matrix:
 Charge =  0 Multiplicity = 1

 SCF Done:  E(RHF) =  -344.694172954     A.U. after   16 cycles

 1\1\GINC-SE132\Stability\RHF\Aug-CC-pVDZ\C5H10O2\OHZDE\09-Apr-2025\0\\
 #t hf aug-cc-pvdz symm=none int=(grid=ultrafine) guess=(read,tcheck) s
 table=(opt,rrhf)\\title\\0,1\C,0,1.72772856,-0.35048826,-1.06500862\C,
 0,0.67999527,0.48781766,0.91171465\O,0,0.06376389,1.66653839,0.4825086
 6\C,0,-1.13368984,1.26991532,-0.16632596\C,0,-1.56183861,-0.02039869,0
 .53343892\C,0,-0.21398423,-0.59748295,0.91939803\O,0,0.38487782,-1.454
 45728,-0.39529049\H,0,1.45578321,0.66489117,-1.32520553\H,0,1.74348557
 ,-1.00765165,-1.93160889\H,0,2.63173461,-0.42879427,-0.47880853\H,0,1.

 Normal termination of Gaussian 16 at Wed Apr  9 03:39:46 2025.
 Gaussian 16:  ES64L-G16RevC.01  3-Jul-2019

 ----------------------------------------------------------------------
 #t hf aug-cc-pvdz iop(5/13=1,5/36=2,99/5=2) pseudo=read geom=check gue
 ss=(read,tcheck) scf=(maxcycle=1)
 ----------------------------------------------------------------------
 -----
 title
 -----
 Structure from the checkpoint file:  "Grambow2020_wb97xd3_007404_forward_mol1.chk"
 Charge =  0 Multiplicity = 1

                         Standard orientation:
 ---------------------------------------------------------------------
 Center     Atomic      Atomic             Coordinates (Angstroms)
 Number     Number       Type             X           Y           Z
 ---------------------------------------------------------------------
      1          6           0       -1.926088   -0.800981   -0.425359
      2          6           0        0.024256   -0.597900    0.939506
      3          8           0        1.016429   -1.238943    0.192514
      4          6           0        1.426620   -0.308164   -0.796216
      5          6           0        1.223869    1.068104   -0.161654
      6          6           0        0.038372    0.794333    0.742972
      7          8           0       -1.363838    0.956267   -0.167539
      8          1           0       -1.221393   -1.489841   -0.874279
      9          1           0       -2.628873   -0.399009   -1.151732
     10          1           0       -2.424425   -1.188374    0.451326
     11          1           0       -0.227378   -1.108936    1.856669
     12          1           0        0.792375   -0.406504   -1.687262
     13          1           0        2.458250   -0.528420   -1.068784
     14          1           0        2.082022    1.346221    0.457136
     15          1           0        1.063251    1.853318   -0.899072
     16          1           0       -0.178687    1.477280    1.555671
     17          1           0       -1.658047    1.773320   -0.634970
 ---------------------------------------------------------------------

 SCF Done:  E(RHF) =  -346.321595720     A.U. after    2 cycles

 The electronic state is 1-A.
 Alpha  occ. eigenvalues --  -21.05842 -21.02645 -11.48881 -11.44245 -11.43525
 Alpha  occ. eigenvalues --  -11.38534 -11.34783  -1.76029  -1.65840  -1.17115
 Alpha  occ. eigenvalues --   -1.04241  -1.00632  -0.84447  -0.77894  -0.70287
 Alpha  occ. eigenvalues --   -0.66121  -0.60529  -0.59027  -0.58487  -0.53077
 Alpha  occ. eigenvalues --   -0.49032  -0.48088  -0.47707  -0.39951  -0.38061
 Alpha  occ. eigenvalues --   -0.35589  -0.33380  -0.17623
 Alpha virt. eigenvalues --    0.03693   0.04546   0.04854   0.05324   0.05619
 Alpha virt. eigenvalues --    0.05924   0.06476   0.06853   0.07813   0.08985
 Alpha virt. eigenvalues --    0.12222   0.12614   0.13182   0.13516   0.14105

 Mulliken charges:
               1
     1  C   -3.726488
     2  C    1.494841
     3  O   -3.369087
     4  C   -1.853484
     5  C   -2.734093
     6  C   -1.578366
     7  O   -1.721852
     8  H    1.559090
     9  H    1.154160
    10  H    1.330853
    11  H    1.527780
    12  H    1.698837
    13  H    1.284553
    14  H    1.287254
    15  H    1.367729
    16  H    1.453504
    17  H    0.824768
 Sum of Mulliken charges =   0.00000

 Dipole moment (field-independent basis, Debye):
    X=             -0.7640    Y=              1.0136    Z=             -0.5163  Tot=              1.3702

 Test job not archived.
 1\1\GINC-SE132\SP\RHF\Aug-CC-pVDZ\C5H10O2\OHZDE\09-Apr-2025\0\\#t hf a
 ug-cc-pvdz iop(5/13=1,5/36=2,99/5=2) pseudo=read geom=check guess=(rea
 d,tcheck) scf=(maxcycle=1)\\title\\0,1\C,0,1.72772856,-0.35048826,-1.0
 6500862\C,0,0.67999527,0.48781766,0.91171465\O,0,0.06376389,1.66653839
 ,0.48250866\C,0,-1.13368984,1.26991532,-0.16632596\C,0,-1.56183861,-0.
 02039869,0.53343892\C,0,-0.21398423,-0.59748295,0.91939803\O,0,0.38487
 782,-1.45445728,-0.39529049\H,0,1.45578321,0.66489117,-1.32520553\H,0,
 1.74348557,-1.00765165,-1.93160889\H,0,2.63173461,-0.42879427,-0.47880

 Normal termination of Gaussian 16 at Wed Apr  9 03:39:52 2025.
