 Gaussian 16, Revision C.01,

 ----------------------------------------------------------------------
 #t hf aug-cc-pvdz symm=none int=(grid=ultrafine) guess=(read,tcheck) s
 table=(opt,rrhf)
 ----------------------------------------------------------------------
 -----
 title
 -----
 Symbolic Z-matrix:
 Charge =  0 Multiplicity = 1

 SCF Done:  E(RHF) =  -394.313982750     A.U. after   15 cycles
 Normal termination of Gaussian 16 at Wed Apr  9 18:30:06 2025.
 Gaussian 16:  ES64L-G16RevC.01  3-Jul-2019

 ----------------------------------------------------------------------
 #t hf aug-cc-pvdz iop(5/13=1,5/36=2,99/5=2) pseudo=read geom=check gue
 ss=(read,tcheck) scf=(maxcycle=1)
 ----------------------------------------------------------------------
 -----
 title
 -----
 Structure from the checkpoint file:  "Grambow2020_wb97xd3_007198_forward_mol1.chk"
 Charge =  0 Multiplicity = 1

                         Standard orientation:
 ---------------------------------------------------------------------
 Center     Atomic      Atomic             Coordinates (Angstroms)
 Number     Number       Type             X           Y           Z
 ---------------------------------------------------------------------
      1          7           0       -1.033801    1.668798   -0.000303
      2          6           0       -0.340381    0.606356   -0.000081
      3          8           0        1.004992    0.671733    0.001003
      4          6           0        1.653254   -0.540313    0.000123
      5          8           0        2.832614   -0.599975   -0.000613
      6          6           0       -2.013403   -0.409134   -0.000159
      7          8           0       -2.179372   -1.545924    0.000125
      8          1           0       -0.634764    2.597066   -0.000692
      9          1           0        0.951584   -1.386979    0.000244
     10          1           0       -2.142892    0.960192   -0.000848
 ---------------------------------------------------------------------

 SCF Done:  E(RHF) =  -396.001088538     A.U. after    2 cycles

 The electronic state is 1-A.
 Alpha  occ. eigenvalues --  -21.14445 -21.14429 -21.08790 -15.77711 -11.53301
 Alpha  occ. eigenvalues --  -11.52587 -11.45846  -1.88949  -1.78188  -1.70822
 Alpha  occ. eigenvalues --   -1.38189  -0.92772  -0.90623  -0.81649  -0.70029
 Alpha  occ. eigenvalues --   -0.63322  -0.60423  -0.60303  -0.53850  -0.52320
 Alpha  occ. eigenvalues --   -0.52095  -0.48293  -0.44608  -0.35618  -0.33760
 Alpha  occ. eigenvalues --   -0.30581
 Alpha virt. eigenvalues --    0.03475   0.05356   0.06307   0.09724   0.09828
 Alpha virt. eigenvalues --    0.10184   0.10845   0.11233   0.12664   0.13259
 Alpha virt. eigenvalues --    0.13590   0.14000   0.15092   0.16026   0.16620

 Mulliken charges:
               1
     1  N   -3.271445
     2  C    3.841628
     3  O   -3.080992
     4  C    2.546740
     5  O   -2.606032
     6  C    0.897220
     7  O   -2.211347
     8  H    0.848095
     9  H    1.401392
    10  H    1.634743
 Sum of Mulliken charges =   0.00000

 Dipole moment (field-independent basis, Debye):
    X=             -0.8242    Y=              0.6098    Z=              0.0002  Tot=              1.0253

 Test job not archived.
 1\1\GINC-SE135\SP\RHF\Aug-CC-pVDZ\C3H3N1O3\OHZDE\09-Apr-2025\0\\#t hf
 aug-cc-pvdz iop(5/13=1,5/36=2,99/5=2) pseudo=read geom=check guess=(re
 ad,tcheck) scf=(maxcycle=1)\\title\\0,1\N,0,-1.10735017,1.09513814,-0.
 66243205\C,0,-0.22567505,0.31816961,-0.18432824\O,0,1.07875641,0.64786
 518,-0.24806321\C,0,1.94487619,-0.26798063,0.29999035\O,0,3.11080821,-
 0.08077539,0.29718606\C,0,-1.66947312,-0.89810164,0.33176885\O,0,-1.61
 486684,-1.91346836,0.86645017\H,0,-0.89397457,1.9776022,-1.10587427\H,
 0,1.4196877,-1.14143598,0.71282936\H,0,-2.05768375,0.25802787,-0.30421

 Normal termination of Gaussian 16 at Wed Apr  9 18:30:09 2025.
