 Gaussian 16, Revision C.01,

 ----------------------------------------------------------------------
 #t hf aug-cc-pvdz symm=none int=(grid=ultrafine) guess=(read,tcheck) s
 table=(opt,rrhf)
 ----------------------------------------------------------------------
 -----
 title
 -----
 Symbolic Z-matrix:
 Charge =  0 Multiplicity = 1

 SCF Done:  E(RHF) =  -309.073838628     A.U. after   14 cycles

 1\1\GINC-SE029\Stability\RHF\Aug-CC-pVDZ\C6H12O1\OHZDE\09-Apr-2025\0\\
 #t hf aug-cc-pvdz symm=none int=(grid=ultrafine) guess=(read,tcheck) s
 table=(opt,rrhf)\\title\\0,1\C,0,-1.36084335,-1.20195508,-1.03009819\C
 ,0,-0.24171024,-0.64628632,-0.1930298\C,0,-0.67524861,0.17520481,0.994
 8535\C,0,-1.01636697,1.61293197,0.59996726\O,0,0.08999852,2.29959361,0
 .05760157\C,0,1.03251913,-0.86129472,-0.5225292\C,0,2.2628853,-0.40434
 452,0.1998207\H,0,-2.04712646,-0.41327061,-1.35147952\H,0,-0.98633636,
 -1.70793412,-1.91991634\H,0,-1.95364637,-1.91674385,-0.45187597\H,0,0.

 Normal termination of Gaussian 16 at Wed Apr  9 03:29:10 2025.
 Gaussian 16:  ES64L-G16RevC.01  3-Jul-2019

 ----------------------------------------------------------------------
 #t hf aug-cc-pvdz iop(5/13=1,5/36=2,99/5=2) pseudo=read geom=check gue
 ss=(read,tcheck) scf=(maxcycle=1)
 ----------------------------------------------------------------------
 -----
 title
 -----
 Structure from the checkpoint file:  "Grambow2020_wb97xd3_006724_reverse_mol2.chk"
 Charge =  0 Multiplicity = 1

                         Standard orientation:
 ---------------------------------------------------------------------
 Center     Atomic      Atomic             Coordinates (Angstroms)
 Number     Number       Type             X           Y           Z
 ---------------------------------------------------------------------
      1          6           0       -0.519639    2.111054   -0.350876
      2          6           0       -0.536846    0.684736    0.125810
      3          6           0        0.642153    0.276539    0.972691
      4          6           0        1.859420   -0.083949    0.119658
      5          8           0        1.615079   -1.182509   -0.730737
      6          6           0       -1.526233   -0.140814   -0.217759
      7          6           0       -1.712742   -1.573676    0.177858
      8          1           0        0.413398    2.345763   -0.871113
      9          1           0       -1.346979    2.319856   -1.029078
     10          1           0       -0.587578    2.799376    0.496636
     11          1           0        0.814680   -0.991458   -1.228838
     12          1           0        0.399197   -0.575460    1.608402
     13          1           0        0.918572    1.104113    1.633948
     14          1           0        2.689610   -0.376004    0.764727
     15          1           0        2.186879    0.790238   -0.459752
     16          1           0       -2.314880    0.267262   -0.847036
     17          1           0       -0.884079   -1.964968    0.765097
     18          1           0       -2.633196   -1.694343    0.755705
     19          1           0       -1.812939   -2.207645   -0.707084
 ---------------------------------------------------------------------

 SCF Done:  E(RHF) =  -310.586678048     A.U. after    2 cycles

 The electronic state is 1-A.
 Alpha  occ. eigenvalues --  -21.05765 -11.44510 -11.43119 -11.39812 -11.39469
 Alpha  occ. eigenvalues --  -11.38202 -11.35517  -1.70530  -1.27614  -1.10685
 Alpha  occ. eigenvalues --   -1.05727  -0.93374  -0.87967  -0.73050  -0.66504
 Alpha  occ. eigenvalues --   -0.63111  -0.59949  -0.58712  -0.56758  -0.55348
 Alpha  occ. eigenvalues --   -0.53876  -0.51345  -0.50528  -0.45678  -0.42759
 Alpha  occ. eigenvalues --   -0.39490  -0.33377  -0.30335
 Alpha virt. eigenvalues --    0.03813   0.04819   0.05023   0.05308   0.05848
 Alpha virt. eigenvalues --    0.06397   0.06480   0.06779   0.07472   0.08441
 Alpha virt. eigenvalues --    0.09026   0.09681   0.11651   0.12565   0.12828

 Mulliken charges:
               1
     1  C   -5.072600
     2  C    2.388505
     3  C   -3.519952
     4  C   -0.939550
     5  O   -2.760415
     6  C   -0.755997
     7  C   -4.583777
     8  H    1.229019
     9  H    1.306071
    10  H    1.104343
    11  H    1.054783
    12  H    1.390591
    13  H    1.208910
    14  H    1.284612
    15  H    1.439320
    16  H    1.596742
    17  H    1.451819
    18  H    1.101534
    19  H    1.076042
 Sum of Mulliken charges =  -0.00000

 Dipole moment (field-independent basis, Debye):
    X=             -0.4646    Y=              0.5678    Z=              0.3358  Tot=              0.8068

 Test job not archived.
 1\1\GINC-SE029\SP\RHF\Aug-CC-pVDZ\C6H12O1\OHZDE\09-Apr-2025\0\\#t hf a
 ug-cc-pvdz iop(5/13=1,5/36=2,99/5=2) pseudo=read geom=check guess=(rea
 d,tcheck) scf=(maxcycle=1)\\title\\0,1\C,0,-1.36084335,-1.20195508,-1.
 03009819\C,0,-0.24171024,-0.64628632,-0.1930298\C,0,-0.67524861,0.1752
 0481,0.9948535\C,0,-1.01636697,1.61293197,0.59996726\O,0,0.08999852,2.
 29959361,0.05760157\C,0,1.03251913,-0.86129472,-0.5225292\C,0,2.262885
 3,-0.40434452,0.1998207\H,0,-2.04712646,-0.41327061,-1.35147952\H,0,-0
 .98633636,-1.70793412,-1.91991634\H,0,-1.95364637,-1.91674385,-0.45187

 Normal termination of Gaussian 16 at Wed Apr  9 03:29:17 2025.
