 Gaussian 16, Revision C.01,

 ----------------------------------------------------------------------
 #t hf aug-cc-pvdz symm=none int=(grid=ultrafine) guess=(read,tcheck) s
 table=(opt,rrhf)
 ----------------------------------------------------------------------
 -----
 title
 -----
 Symbolic Z-matrix:
 Charge =  0 Multiplicity = 1

 SCF Done:  E(RHF) =  -373.374162070     A.U. after   15 cycles
 Normal termination of Gaussian 16 at Wed Apr  9 03:27:58 2025.
 Gaussian 16:  ES64L-G16RevC.01  3-Jul-2019

 ----------------------------------------------------------------------
 #t hf aug-cc-pvdz iop(5/13=1,5/36=2,99/5=2) pseudo=read geom=check gue
 ss=(read,tcheck) scf=(maxcycle=1)
 ----------------------------------------------------------------------
 -----
 title
 -----
 Structure from the checkpoint file:  "Grambow2020_wb97xd3_006699_forward_mol2.chk"
 Charge =  0 Multiplicity = 1

                         Standard orientation:
 ---------------------------------------------------------------------
 Center     Atomic      Atomic             Coordinates (Angstroms)
 Number     Number       Type             X           Y           Z
 ---------------------------------------------------------------------
      1          8           0       -2.473506   -0.397368   -0.002447
      2          6           0       -1.664985    0.482614    0.001563
      3          6           0       -0.194789    0.244189    0.000904
      4          7           0        0.719070    1.158625   -0.000533
      5          6           0        1.857603    0.403238   -0.001192
      6          7           0        1.652111   -0.878286    0.000161
      7          8           0        0.284486   -0.991669    0.001497
      8          1           0       -1.927451    1.554334    0.005919
      9          1           0        2.854369    0.815344   -0.003377
 ---------------------------------------------------------------------

 SCF Done:  E(RHF) =  -374.950430158     A.U. after    2 cycles

 The electronic state is 1-A.
 Alpha  occ. eigenvalues --  -21.17037 -21.11281 -15.81238 -15.78462 -11.54313
 Alpha  occ. eigenvalues --  -11.49957 -11.45877  -1.97226  -1.75337  -1.43710
 Alpha  occ. eigenvalues --   -1.28816  -1.01252  -0.88159  -0.82354  -0.73539
 Alpha  occ. eigenvalues --   -0.68418  -0.65072  -0.55311  -0.52723  -0.51357
 Alpha  occ. eigenvalues --   -0.47479  -0.43045  -0.41725  -0.38910  -0.33562
 Alpha virt. eigenvalues --    0.03447   0.04624   0.08308   0.09018   0.09118
 Alpha virt. eigenvalues --    0.10062   0.10526   0.11593   0.12782   0.13334
 Alpha virt. eigenvalues --    0.13526   0.14004   0.14858   0.17221   0.17948

 Mulliken charges:
               1
     1  O   -2.618420
     2  C    0.422288
     3  C    4.359304
     4  N   -3.134379
     5  C    1.417543
     6  N   -0.437131
     7  O   -3.062610
     8  H    1.461430
     9  H    1.591976
 Sum of Mulliken charges =  -0.00000

 Dipole moment (field-independent basis, Debye):
    X=              0.0754    Y=              0.5204    Z=              0.0022  Tot=              0.5258

 Test job not archived.
 1\1\GINC-SE127\SP\RHF\Aug-CC-pVDZ\C3H2N2O2\OHZDE\09-Apr-2025\0\\#t hf
 aug-cc-pvdz iop(5/13=1,5/36=2,99/5=2) pseudo=read geom=check guess=(re
 ad,tcheck) scf=(maxcycle=1)\\title\\0,1\O,0,-2.57432177,-0.72405703,-0
 .17326724\C,0,-1.79217504,0.17127177,-0.05193227\C,0,-0.31681647,-0.02
 933788,-0.01455984\N,0,0.56976892,0.90341893,0.10899703\C,0,1.7286994,
 0.18016969,0.08335636\N,0,1.5602048,-1.10022257,-0.04601661\O,0,0.1973
 7652,-1.24718566,-0.11203024\H,0,-2.08528819,1.23071356,0.04376611\H,0
 ,2.71255184,0.61522918,0.1616867\\Version=ES64L-G16RevC.01\State=1-A\H

 Normal termination of Gaussian 16 at Wed Apr  9 03:28:01 2025.
