 Gaussian 16, Revision C.01,

 ----------------------------------------------------------------------
 #t hf aug-cc-pvdz symm=none int=(grid=ultrafine) guess=(read,tcheck) s
 table=(opt,rrhf)
 ----------------------------------------------------------------------
 -----
 title
 -----
 Symbolic Z-matrix:
 Charge =  0 Multiplicity = 1

 SCF Done:  E(RHF) =  -373.261012494     A.U. after   19 cycles
 Normal termination of Gaussian 16 at Wed Apr  9 04:04:28 2025.
 Gaussian 16:  ES64L-G16RevC.01  3-Jul-2019

 ----------------------------------------------------------------------
 #t hf aug-cc-pvdz iop(5/13=1,5/36=2,99/5=2) pseudo=read geom=check gue
 ss=(read,tcheck) scf=(maxcycle=1)
 ----------------------------------------------------------------------
 -----
 title
 -----
 Structure from the checkpoint file:  "Grambow2020_wb97xd3_009228_forward_mol1.chk"
 Charge =  0 Multiplicity = 1

                         Standard orientation:
 ---------------------------------------------------------------------
 Center     Atomic      Atomic             Coordinates (Angstroms)
 Number     Number       Type             X           Y           Z
 ---------------------------------------------------------------------
      1          7           0        1.412050    1.170354    0.028415
      2          6           0        0.404484    0.412553    0.433207
      3          8           0       -0.777602    0.540723   -0.164978
      4          6           0       -1.754376   -0.373725    0.231876
      5          8           0       -2.829554   -0.333614   -0.241415
      6          6           0        1.722133   -0.341695    0.078404
      7          7           0        2.403159   -1.240005   -0.223407
      8          1           0        1.291895    1.721130   -0.833005
      9          1           0       -1.374553   -1.073247    0.988166
 ---------------------------------------------------------------------

 SCF Done:  E(RHF) =  -374.826264762     A.U. after    2 cycles

 The electronic state is 1-A.
 Alpha  occ. eigenvalues --  -21.17956 -21.11851 -15.85993 -15.76150 -11.56432
 Alpha  occ. eigenvalues --  -11.55133 -11.49191  -1.92702  -1.74342  -1.51388
 Alpha  occ. eigenvalues --   -1.28127  -0.96443  -0.93083  -0.81887  -0.70476
 Alpha  occ. eigenvalues --   -0.64701  -0.62198  -0.58255  -0.55496  -0.53718
 Alpha  occ. eigenvalues --   -0.50824  -0.43080  -0.41004  -0.35951  -0.31848
 Alpha virt. eigenvalues --    0.03328   0.04565   0.06122   0.07638   0.09068
 Alpha virt. eigenvalues --    0.09239   0.09599   0.11079   0.11813   0.11997
 Alpha virt. eigenvalues --    0.13569   0.13876   0.14245   0.15790   0.16441

 Mulliken charges:
               1
     1  N   -1.990134
     2  C    2.573887
     3  O   -3.056347
     4  C    2.460456
     5  O   -2.504162
     6  C    3.095935
     7  N   -2.696536
     8  H    0.710303
     9  H    1.406598
 Sum of Mulliken charges =   0.00000

 Dipole moment (field-independent basis, Debye):
    X=             -2.4649    Y=              3.0473    Z=             -0.4336  Tot=              3.9434

 Test job not archived.
 1\1\GINC-SE073\SP\RHF\Aug-CC-pVDZ\C3H2N2O2\OHZDE\09-Apr-2025\0\\#t hf
 aug-cc-pvdz iop(5/13=1,5/36=2,99/5=2) pseudo=read geom=check guess=(re
 ad,tcheck) scf=(maxcycle=1)\\title\\0,1\N,0,-1.53075125,-0.81577023,0.
 27449183\C,0,-0.34413658,-0.26009135,0.4654738\O,0,0.67218,-0.63108183
 ,-0.30979775\C,0,1.85720485,0.08400604,-0.13046059\O,0,2.8081652,-0.17
 677301,-0.77021823\C,0,-1.53683302,0.72847675,0.28889287\N,0,-2.077677
 88,1.7351131,0.05221106\H,0,-1.66612886,-1.39980315,-0.56241493\H,0,1.
 75152253,0.8621207,0.63696393\\Version=ES64L-G16RevC.01\State=1-A\HF=-

 Normal termination of Gaussian 16 at Wed Apr  9 04:04:31 2025.
