 Gaussian 16, Revision C.01,

 ----------------------------------------------------------------------
 #t hf aug-cc-pvdz symm=none int=(grid=ultrafine) guess=(read,tcheck) s
 table=(opt,rrhf)
 ----------------------------------------------------------------------
 -----
 title
 -----
 Symbolic Z-matrix:
 Charge =  0 Multiplicity = 1

 SCF Done:  E(RHF) =  -323.722996786     A.U. after   15 cycles
 Normal termination of Gaussian 16 at Wed Apr  9 18:45:40 2025.
 Gaussian 16:  ES64L-G16RevC.01  3-Jul-2019

 ----------------------------------------------------------------------
 #t hf aug-cc-pvdz iop(5/13=1,5/36=2,99/5=2) pseudo=read geom=check gue
 ss=(read,tcheck) scf=(maxcycle=1)
 ----------------------------------------------------------------------
 -----
 title
 -----
 Structure from the checkpoint file:  "Grambow2020_wb97xd3_007622_reverse_mol1.chk"
 Charge =  0 Multiplicity = 1

                         Standard orientation:
 ---------------------------------------------------------------------
 Center     Atomic      Atomic             Coordinates (Angstroms)
 Number     Number       Type             X           Y           Z
 ---------------------------------------------------------------------
      1          6           0       -0.358921    1.445608   -0.486920
      2          6           0       -1.209027    0.575658    0.402956
      3          7           0       -1.908613   -0.509317   -0.284891
      4          6           0       -0.692136   -0.814118    0.471005
      5          6           0        0.505300   -1.062204   -0.400151
      6          6           0        1.765181   -0.548377   -0.104710
      7          8           0        1.886328    0.569176    0.494254
      8          1           0       -0.795882    1.633916   -1.467569
      9          1           0       -0.161538    2.426488   -0.040844
     10          1           0        0.920881    1.162509   -0.059719
     11          1           0       -1.670652    1.006239    1.283464
     12          1           0       -2.728441   -0.788043    0.239735
     13          1           0       -0.782511   -1.381630    1.391207
     14          1           0        0.312864    0.267407   -0.949673
     15          1           0        0.460879   -1.919770   -1.061811
     16          1           0        2.651681   -0.974703   -0.587671
 ---------------------------------------------------------------------

 SCF Done:  E(RHF) =  -325.287663855     A.U. after    2 cycles

 The electronic state is 1-A.
 Alpha  occ. eigenvalues --  -21.04815 -15.73503 -11.51450 -11.48023 -11.43005
 Alpha  occ. eigenvalues --  -11.39794 -11.38235  -1.73668  -1.47541  -1.14442
 Alpha  occ. eigenvalues --   -1.08553  -0.91976  -0.86646  -0.76784  -0.73623
 Alpha  occ. eigenvalues --   -0.69990  -0.64270  -0.57921  -0.56444  -0.52354
 Alpha  occ. eigenvalues --   -0.48094  -0.46934  -0.43376  -0.39913  -0.35940
 Alpha  occ. eigenvalues --   -0.33894  -0.27558
 Alpha virt. eigenvalues --    0.03971   0.04931   0.05146   0.05620   0.05881
 Alpha virt. eigenvalues --    0.06059   0.06728   0.08107   0.09861   0.10712
 Alpha virt. eigenvalues --    0.12289   0.12603   0.12912   0.13541   0.14133

 Mulliken charges:
               1
     1  C   -4.227140
     2  C   -0.231439
     3  N   -1.988808
     4  C   -0.552241
     5  C   -2.490598
     6  C    0.927502
     7  O   -3.457272
     8  H    0.950496
     9  H    0.843744
    10  H    2.192832
    11  H    1.494631
    12  H    0.647147
    13  H    1.440113
    14  H    1.753500
    15  H    1.224545
    16  H    1.472990
 Sum of Mulliken charges =   0.00000

 Dipole moment (field-independent basis, Debye):
    X=             -0.5012    Y=             -0.1916    Z=              0.9550  Tot=              1.0954

 Test job not archived.
 1\1\GINC-SE340\SP\RHF\Aug-CC-pVDZ\C5H9N1O1\OHZDE\09-Apr-2025\0\\#t hf
 aug-cc-pvdz iop(5/13=1,5/36=2,99/5=2) pseudo=read geom=check guess=(re
 ad,tcheck) scf=(maxcycle=1)\\title\\0,1\C,0,-0.89747821,0.01474102,1.1
 1313951\C,0,-1.21312111,0.23352241,-0.34421335\N,0,-0.72668907,1.49813
 043,-0.89546275\C,0,0.01645676,0.26781459,-1.17502439\C,0,1.28831176,0
 .14664473,-0.38634529\C,0,1.68905161,-1.04650182,0.20898219\O,0,0.8265
 0115,-1.87708031,0.64315528\H,0,-0.96380932,0.91810807,1.71943631\H,0,
 -1.56539867,-0.72004813,1.57577771\H,0,-0.00934563,-1.03911393,1.07926

 Normal termination of Gaussian 16 at Wed Apr  9 18:45:44 2025.
