 Gaussian 16, Revision C.01,

 ----------------------------------------------------------------------
 #t hf aug-cc-pvdz symm=none int=(grid=ultrafine) guess=(read,tcheck) s
 table=(opt,rrhf)
 ----------------------------------------------------------------------
 -----
 title
 -----
 Symbolic Z-matrix:
 Charge =  0 Multiplicity = 1

 SCF Done:  E(RHF) =  -375.685222910     A.U. after   14 cycles
 Normal termination of Gaussian 16 at Wed Apr  9 03:46:27 2025.
 Gaussian 16:  ES64L-G16RevC.01  3-Jul-2019

 ----------------------------------------------------------------------
 #t hf aug-cc-pvdz iop(5/13=1,5/36=2,99/5=2) pseudo=read geom=check gue
 ss=(read,tcheck) scf=(maxcycle=1)
 ----------------------------------------------------------------------
 -----
 title
 -----
 Structure from the checkpoint file:  "Grambow2020_wb97xd3_007911_reverse_mol1.chk"
 Charge =  0 Multiplicity = 1

                         Standard orientation:
 ---------------------------------------------------------------------
 Center     Atomic      Atomic             Coordinates (Angstroms)
 Number     Number       Type             X           Y           Z
 ---------------------------------------------------------------------
      1          6           0       -2.482721   -0.791961    0.002982
      2          8           0       -1.056660   -0.802093   -0.004665
      3          6           0       -0.447055    0.359878   -0.002061
      4          7           0       -0.926556    1.574700    0.004329
      5          7           0        0.886172    0.517450   -0.005715
      6          6           0        1.817569   -0.480699    0.001050
      7          8           0        3.008614   -0.303530    0.002848
      8          1           0       -2.789368   -1.833970    0.008715
      9          1           0       -2.865075   -0.300962   -0.893678
     10          1           0       -2.854814   -0.293367    0.899678
     11          1           0       -1.899553    1.827742   -0.005324
     12          1           0        0.371129    1.774243   -0.000965
     13          1           0        1.377992   -1.497060    0.004000
 ---------------------------------------------------------------------

 SCF Done:  E(RHF) =  -377.345396330     A.U. after    2 cycles

 The electronic state is 1-A.
 Alpha  occ. eigenvalues --  -21.13975 -21.02252 -15.75570 -15.72503 -11.54039
 Alpha  occ. eigenvalues --  -11.47167 -11.45849  -1.87107  -1.68919  -1.47627
 Alpha  occ. eigenvalues --   -1.25915  -1.06272  -0.91961  -0.79568  -0.73158
 Alpha  occ. eigenvalues --   -0.69621  -0.68203  -0.62288  -0.59835  -0.56029
 Alpha  occ. eigenvalues --   -0.49245  -0.47250  -0.45793  -0.41046  -0.38051
 Alpha  occ. eigenvalues --   -0.29809  -0.27886
 Alpha virt. eigenvalues --    0.02131   0.04349   0.04897   0.05273   0.06304
 Alpha virt. eigenvalues --    0.07432   0.08867   0.10968   0.12369   0.12524
 Alpha virt. eigenvalues --    0.12979   0.13965   0.14526   0.15160   0.15317

 Mulliken charges:
               1
     1  C   -2.978748
     2  O   -3.130951
     3  C    5.925780
     4  N   -2.813719
     5  N   -2.757627
     6  C    1.712082
     7  O   -2.755119
     8  H    1.408373
     9  H    1.283502
    10  H    1.284850
    11  H    0.797158
    12  H    0.574843
    13  H    1.449575
 Sum of Mulliken charges =  -0.00000

 Dipole moment (field-independent basis, Debye):
    X=             -5.8510    Y=             -0.9539    Z=             -0.0067  Tot=              5.9282

 Test job not archived.
 1\1\GINC-SE252\SP\RHF\Aug-CC-pVDZ\C3H6N2O2\OHZDE\09-Apr-2025\0\\#t hf
 aug-cc-pvdz iop(5/13=1,5/36=2,99/5=2) pseudo=read geom=check guess=(re
 ad,tcheck) scf=(maxcycle=1)\\title\\0,1\C,0,-1.67114459,0.55240284,-0.
 84248724\O,0,-0.87949566,0.20609376,0.29204879\C,0,0.38695947,-0.06507
 349,0.0814293\N,0,1.08419218,-0.07872373,-1.02285125\N,0,1.26060421,-0
 .40391291,1.04281863\C,0,0.99252364,-0.50925432,2.37731607\O,0,1.80308
 457,-0.81109334,3.21508987\H,0,-2.67010249,0.74612509,-0.4624823\H,0,-
 1.70198637,-0.27579172,-1.55270944\H,0,-1.27801101,1.45125066,-1.32063

 Normal termination of Gaussian 16 at Wed Apr  9 03:46:31 2025.
