 Gaussian 16, Revision C.01,

 ----------------------------------------------------------------------
 #t hf aug-cc-pvdz symm=none int=(grid=ultrafine) guess=(read,tcheck) s
 table=(opt,rrhf)
 ----------------------------------------------------------------------
 -----
 title
 -----
 Symbolic Z-matrix:
 Charge =  0 Multiplicity = 1

 SCF Done:  E(RHF) =  -304.721066853     A.U. after   14 cycles
 Normal termination of Gaussian 16 at Wed Apr  9 03:15:51 2025.
 Gaussian 16:  ES64L-G16RevC.01  3-Jul-2019

 ----------------------------------------------------------------------
 #t hf aug-cc-pvdz iop(5/13=1,5/36=2,99/5=2) pseudo=read geom=check gue
 ss=(read,tcheck) scf=(maxcycle=1)
 ----------------------------------------------------------------------
 -----
 title
 -----
 Structure from the checkpoint file:  "Grambow2020_b97d3_006985_forward_mol2.chk"
 Charge =  0 Multiplicity = 1

                         Standard orientation:
 ---------------------------------------------------------------------
 Center     Atomic      Atomic             Coordinates (Angstroms)
 Number     Number       Type             X           Y           Z
 ---------------------------------------------------------------------
      1          6           0        2.090487   -0.175351   -0.441792
      2          6           0        0.913988    0.065889    0.478927
      3          6           0       -0.099948    1.158660    0.090195
      4          6           0       -1.083514   -0.009175   -0.037642
      5          8           0       -2.238817   -0.179643   -0.317999
      6          8           0       -0.144676   -0.969763    0.309822
      7          1           0        1.763202   -0.213133   -1.489482
      8          1           0        2.590367   -1.121735   -0.197459
      9          1           0        2.821243    0.639048   -0.332511
     10          1           0        1.216169    0.086195    1.533453
     11          1           0       -0.356960    1.887548    0.867299
     12          1           0        0.107849    1.677192   -0.854009
 ---------------------------------------------------------------------

 SCF Done:  E(RHF) =  -306.077348106     A.U. after    2 cycles

 The electronic state is 1-A.
 Alpha  occ. eigenvalues --  -21.08656 -21.06190 -11.52818 -11.49735 -11.43064
 Alpha  occ. eigenvalues --  -11.39516  -1.83622  -1.67107  -1.18872  -1.08163
 Alpha  occ. eigenvalues --   -0.88389  -0.75199  -0.69878  -0.64165  -0.62199
 Alpha  occ. eigenvalues --   -0.56699  -0.55046  -0.52741  -0.49320  -0.44850
 Alpha  occ. eigenvalues --   -0.40648  -0.31843  -0.29237
 Alpha virt. eigenvalues --    0.03038   0.04932   0.05250   0.05421   0.05663
 Alpha virt. eigenvalues --    0.06016   0.09535   0.10885   0.11151   0.12522
 Alpha virt. eigenvalues --    0.13173   0.13966   0.14433   0.14714   0.15224

 Mulliken charges:
               1
     1  C   -3.774145
     2  C    0.476181
     3  C   -3.731406
     4  C    4.938565
     5  O   -3.056691
     6  O   -2.651536
     7  H    1.245007
     8  H    1.227148
     9  H    1.188460
    10  H    1.560667
    11  H    1.234575
    12  H    1.343175
 Sum of Mulliken charges =  -0.00000

 Dipole moment (field-independent basis, Debye):
    X=              2.5866    Y=              1.0188    Z=              0.4801  Tot=              2.8211

 Test job not archived.
 1\1\GINC-SE247\SP\RHF\Aug-CC-pVDZ\C4H6O2\OHZDE\09-Apr-2025\0\\#t hf au
 g-cc-pvdz iop(5/13=1,5/36=2,99/5=2) pseudo=read geom=check guess=(read
 ,tcheck) scf=(maxcycle=1)\\title\\0,1\C,0,-1.53247433,-0.11661271,0.32
 220869\C,0,-0.27437181,-0.16698341,-0.51726065\C,0,0.89013368,0.767080
 68,-0.13676353\C,0,1.64000196,-0.53510391,0.16255745\O,0,2.72584255,-0
 .87433996,0.54759526\O,0,0.57004365,-1.34856713,-0.18145407\H,0,-1.286
 09827,-0.11266466,1.39248015\H,0,-2.17560951,-0.9818228,0.1148196\H,0,
 -2.09813668,0.79729919,0.08986486\H,0,-0.49875881,-0.19300898,-1.59091

 Normal termination of Gaussian 16 at Wed Apr  9 03:15:54 2025.
