 Gaussian 16, Revision C.01,

 ----------------------------------------------------------------------
 #t hf aug-cc-pvdz symm=none int=(grid=ultrafine) guess=(read,tcheck) s
 table=(opt,rrhf)
 ----------------------------------------------------------------------
 -----
 title
 -----
 Symbolic Z-matrix:
 Charge =  0 Multiplicity = 1

 SCF Done:  E(RHF) =  -322.664514531     A.U. after   15 cycles
 Normal termination of Gaussian 16 at Wed Apr  9 18:22:37 2025.
 Gaussian 16:  ES64L-G16RevC.01  3-Jul-2019

 ----------------------------------------------------------------------
 #t hf aug-cc-pvdz iop(5/13=1,5/36=2,99/5=2) pseudo=read geom=check gue
 ss=(read,tcheck) scf=(maxcycle=1)
 ----------------------------------------------------------------------
 -----
 title
 -----
 Structure from the checkpoint file:  "Grambow2020_wb97xd3_006947_reverse_mol2.chk"
 Charge =  0 Multiplicity = 1

                         Standard orientation:
 ---------------------------------------------------------------------
 Center     Atomic      Atomic             Coordinates (Angstroms)
 Number     Number       Type             X           Y           Z
 ---------------------------------------------------------------------
      1          8           0        2.891328    0.150948   -0.001313
      2          6           0        2.025785   -0.664986   -0.181628
      3          7           0        0.683707   -0.393127   -0.178044
      4          6           0        0.166802    0.866427    0.048853
      5          6           0       -1.141984    1.137963    0.065243
      6          6           0       -2.126764    0.133819   -0.149282
      7          6           0       -2.929152   -0.742093   -0.328269
      8          1           0        2.232600   -1.731377   -0.370983
      9          1           0        0.035803   -1.150331   -0.331190
     10          1           0        0.916221    1.627738    0.215792
     11          1           0       -0.726577   -1.162409    2.904228
     12          1           0       -1.215843   -1.076292    2.347979
     13          1           0       -1.469158    2.151403    0.250823
     14          1           0       -3.657755   -1.501196   -0.489335
 ---------------------------------------------------------------------

 SCF Done:  E(RHF) =  -324.150814871     A.U. after    2 cycles

 The electronic state is 1-A.
 Alpha  occ. eigenvalues --  -21.05242 -15.79813 -11.50468 -11.48573 -11.44848
 Alpha  occ. eigenvalues --  -11.41256 -11.40574  -1.72708  -1.44191  -1.19992
 Alpha  occ. eigenvalues --   -1.06717  -0.92552  -0.84430  -0.76179  -0.72401
 Alpha  occ. eigenvalues --   -0.66673  -0.61704  -0.59467  -0.58218  -0.56223
 Alpha  occ. eigenvalues --   -0.51522  -0.46849  -0.39018  -0.38913  -0.31461
 Alpha  occ. eigenvalues --   -0.28336
 Alpha virt. eigenvalues --    0.03191   0.04367   0.05274   0.06284   0.06778
 Alpha virt. eigenvalues --    0.07759   0.08879   0.09466   0.09611   0.10572
 Alpha virt. eigenvalues --    0.11697   0.12358   0.12787   0.13729   0.14217

 Mulliken charges:
               1
     1  O   -2.735154
     2  C    2.049996
     3  N   -3.012108
     4  C   -0.760763
     5  C   -1.244264
     6  C    3.088118
     7  C   -3.513729
     8  H    1.669869
     9  H    0.709740
    10  H    1.689522
    11  H    0.056017
    12  H   -0.105638
    13  H    1.374882
    14  H    0.733512
 Sum of Mulliken charges =   0.00000

 Dipole moment (field-independent basis, Debye):
    X=             -0.8403    Y=             -1.0974    Z=             -0.2412  Tot=              1.4030

 Test job not archived.
 1\1\GINC-SE362\SP\RHF\Aug-CC-pVDZ\C5H7N1O1\OHZDE\09-Apr-2025\0\\#t hf
 aug-cc-pvdz iop(5/13=1,5/36=2,99/5=2) pseudo=read geom=check guess=(re
 ad,tcheck) scf=(maxcycle=1)\\title\\0,1\O,0,-3.17587906,-0.30910029,-0
 .10422566\C,0,-2.36485197,0.44879693,0.35972749\N,0,-1.0154462,0.38013
 547,0.13727936\C,0,-0.42572321,-0.59022193,-0.64743864\C,0,0.89149103,
 -0.67096706,-0.86039249\C,0,1.81006683,0.2493142,-0.28296784\C,0,2.555
 55574,1.04115371,0.22724911\H,0,-2.63402764,1.28849095,1.02175175\H,0,
 -0.41642577,1.05950305,0.58025275\H,0,-1.12460743,-1.29134241,-1.08227

 Normal termination of Gaussian 16 at Wed Apr  9 18:22:41 2025.
