 Gaussian 16, Revision C.01,

 ----------------------------------------------------------------------
 #t hf aug-cc-pvdz symm=none int=(grid=ultrafine) guess=(read,tcheck) s
 table=(opt,rrhf)
 ----------------------------------------------------------------------
 -----
 title
 -----
 Symbolic Z-matrix:
 Charge =  0 Multiplicity = 1

 SCF Done:  E(RHF) =  -317.577414143     A.U. after   17 cycles
 Normal termination of Gaussian 16 at Wed Apr  9 18:59:34 2025.
 Gaussian 16:  ES64L-G16RevC.01  3-Jul-2019

 ----------------------------------------------------------------------
 #t hf aug-cc-pvdz iop(5/13=1,5/36=2,99/5=2) pseudo=read geom=check gue
 ss=(read,tcheck) scf=(maxcycle=1)
 ----------------------------------------------------------------------
 -----
 title
 -----
 Structure from the checkpoint file:  "Grambow2020_wb97xd3_007979_reverse_mol1.chk"
 Charge =  0 Multiplicity = 1

                         Standard orientation:
 ---------------------------------------------------------------------
 Center     Atomic      Atomic             Coordinates (Angstroms)
 Number     Number       Type             X           Y           Z
 ---------------------------------------------------------------------
      1          7           0       -2.207672   -0.012877    0.047180
      2          6           0       -0.855225   -0.011986   -0.016066
      3          7           0       -0.247404    1.189144   -0.024085
      4          6           0        1.068871    1.206097    0.008322
      5          6           0        1.965178    0.083497    0.003476
      6          6           0        1.224639   -1.090849   -0.063948
      7          7           0       -0.231756   -1.188976   -0.047291
      8          1           0       -2.696673   -0.868495   -0.138815
      9          1           0       -2.676892    0.863210   -0.090846
     10          1           0        1.489502    2.210479    0.013047
     11          1           0        0.605182   -1.163628    0.997472
     12          1           0        1.665925   -2.073159   -0.202194
 ---------------------------------------------------------------------

 SCF Done:  E(RHF) =  -319.033088275     A.U. after    2 cycles

 The electronic state is 1-A.
 Alpha  occ. eigenvalues --  -15.78918 -15.77936 -15.76495 -11.50169 -11.45330
 Alpha  occ. eigenvalues --  -11.44500 -11.35909  -1.56978  -1.36124  -1.33797
 Alpha  occ. eigenvalues --   -1.12079  -0.94095  -0.89742  -0.74638  -0.72238
 Alpha  occ. eigenvalues --   -0.68193  -0.61406  -0.57966  -0.55531  -0.53849
 Alpha  occ. eigenvalues --   -0.50782  -0.43924  -0.36456  -0.30941  -0.29445
 Alpha virt. eigenvalues --    0.03019   0.04402   0.05645   0.06103   0.06217
 Alpha virt. eigenvalues --    0.07185   0.09343   0.10473   0.10843   0.12227
 Alpha virt. eigenvalues --    0.12561   0.12922   0.14357   0.14802   0.15154

 Mulliken charges:
               1
     1  N   -2.788167
     2  C    4.190077
     3  N   -3.145926
     4  C    0.608563
     5  C   -1.455132
     6  C   -0.470923
     7  N   -2.864278
     8  H    0.654683
     9  H    0.651350
    10  H    1.751487
    11  H    1.316927
    12  H    1.551338
 Sum of Mulliken charges =  -0.00000

 Dipole moment (field-independent basis, Debye):
    X=             -4.8380    Y=             -1.0543    Z=             -0.0228  Tot=              4.9516

 Test job not archived.
 1\1\GINC-SE220\SP\RHF\Aug-CC-pVDZ\C4H5N3\OHZDE\09-Apr-2025\0\\#t hf au
 g-cc-pvdz iop(5/13=1,5/36=2,99/5=2) pseudo=read geom=check guess=(read
 ,tcheck) scf=(maxcycle=1)\\title\\0,1\N,0,2.14070368,-0.11529173,-0.01
 115783\C,0,0.78771868,-0.08626966,-0.05242622\N,0,0.14674204,-1.245128
 61,0.18927553\C,0,-1.16851609,-1.21388526,0.24438001\C,0,-2.03320387,-
 0.08722077,0.02860018\C,0,-1.26192959,1.02617946,-0.28366448\N,0,0.196
 65446,1.07982286,-0.3090692\H,0,2.64923487,0.67019784,-0.3719912\H,0,2
 .5823902,-1.01561063,0.02180704\H,0,-1.61668283,-2.18339426,0.45635996

 Normal termination of Gaussian 16 at Wed Apr  9 18:59:39 2025.
