 Gaussian 16, Revision C.01,

 ----------------------------------------------------------------------
 #t hf aug-cc-pvdz symm=none int=(grid=ultrafine) guess=(read,tcheck) s
 table=(opt,rrhf)
 ----------------------------------------------------------------------
 -----
 title
 -----
 Symbolic Z-matrix:
 Charge =  0 Multiplicity = 1

 SCF Done:  E(RHF) =  -304.523502877     A.U. after   16 cycles
 Normal termination of Gaussian 16 at Wed Apr  9 03:16:21 2025.
 Gaussian 16:  ES64L-G16RevC.01  3-Jul-2019

 ----------------------------------------------------------------------
 #t hf aug-cc-pvdz iop(5/13=1,5/36=2,99/5=2) pseudo=read geom=check gue
 ss=(read,tcheck) scf=(maxcycle=1)
 ----------------------------------------------------------------------
 -----
 title
 -----
 Structure from the checkpoint file:  "Grambow2020_b97d3_007027_reverse_mol1.chk"
 Charge =  0 Multiplicity = 1

                         Standard orientation:
 ---------------------------------------------------------------------
 Center     Atomic      Atomic             Coordinates (Angstroms)
 Number     Number       Type             X           Y           Z
 ---------------------------------------------------------------------
      1          8           0       -1.557800   -1.435188    0.019357
      2          6           0       -1.117246    0.443973   -0.631809
      3          6           0       -0.782729    1.322365    0.500732
      4          6           0        0.326939    0.740529   -0.372037
      5          6           0        1.220709   -0.270583    0.276982
      6          8           0        2.367291   -0.490255   -0.062308
      7          1           0       -2.281662   -1.186010    0.633998
      8          1           0       -1.747331   -0.672783   -0.854205
      9          1           0       -1.053550    2.377773    0.416384
     10          1           0       -0.828304    0.929459    1.520852
     11          1           0        0.816955    1.344891   -1.137867
     12          1           0        0.731922   -0.807485    1.121243
 ---------------------------------------------------------------------

 SCF Done:  E(RHF) =  -305.886462840     A.U. after    2 cycles

 The electronic state is 1-A.
 Alpha  occ. eigenvalues --  -21.08020 -21.06750 -11.50170 -11.47898 -11.46398
 Alpha  occ. eigenvalues --  -11.41590  -1.70787  -1.65240  -1.33542  -0.97273
 Alpha  occ. eigenvalues --   -0.86770  -0.80943  -0.70085  -0.66167  -0.58510
 Alpha  occ. eigenvalues --   -0.55609  -0.51954  -0.51254  -0.45730  -0.41123
 Alpha  occ. eigenvalues --   -0.36566  -0.31621  -0.29160
 Alpha virt. eigenvalues --    0.03447   0.04823   0.05178   0.05827   0.06565
 Alpha virt. eigenvalues --    0.06846   0.07469   0.10672   0.11467   0.12388
 Alpha virt. eigenvalues --    0.12806   0.13690   0.14642   0.15223   0.15558

 Mulliken charges:
               1
     1  O   -1.756657
     2  C   -0.659864
     3  C   -2.132902
     4  C   -1.421995
     5  C    0.989920
     6  O   -2.822796
     7  H    0.816809
     8  H    1.729968
     9  H    1.202546
    10  H    1.364640
    11  H    1.166480
    12  H    1.523852
 Sum of Mulliken charges =   0.00000

 Dipole moment (field-independent basis, Debye):
    X=             -1.4634    Y=              0.4766    Z=              1.5232  Tot=              2.1654

 Test job not archived.
 1\1\GINC-SE162\SP\RHF\Aug-CC-pVDZ\C4H6O2\OHZDE\09-Apr-2025\0\\#t hf au
 g-cc-pvdz iop(5/13=1,5/36=2,99/5=2) pseudo=read geom=check guess=(read
 ,tcheck) scf=(maxcycle=1)\\title\\0,1\O,0,-1.82015583,0.61983762,0.707
 15376\C,0,-0.75636494,-0.62535754,-0.50412206\C,0,0.28227006,0.1198216
 9,-1.23355326\C,0,0.65488184,-0.71952076,-0.01359886\C,0,1.10543348,0.
 03506292,1.19883882\O,0,1.84314386,-0.41706017,2.0528829\H,0,-2.111774
 42,1.24858046,0.01181951\H,0,-1.87685445,-0.39386382,0.11597755\H,0,0.
 53763828,-0.22549536,-2.23848573\H,0,0.36604143,1.20230575,-1.09824914

 Normal termination of Gaussian 16 at Wed Apr  9 03:16:25 2025.
