 Gaussian 16, Revision C.01,

 ----------------------------------------------------------------------
 #t hf aug-cc-pvdz symm=none int=(grid=ultrafine) guess=(read,tcheck) s
 table=(opt,rrhf)
 ----------------------------------------------------------------------
 -----
 title
 -----
 Symbolic Z-matrix:
 Charge =  0 Multiplicity = 1

 SCF Done:  E(RHF) =  -322.507083876     A.U. after   16 cycles
 Normal termination of Gaussian 16 at Wed Apr  9 18:38:32 2025.
 Gaussian 16:  ES64L-G16RevC.01  3-Jul-2019

 ----------------------------------------------------------------------
 #t hf aug-cc-pvdz iop(5/13=1,5/36=2,99/5=2) pseudo=read geom=check gue
 ss=(read,tcheck) scf=(maxcycle=1)
 ----------------------------------------------------------------------
 -----
 title
 -----
 Structure from the checkpoint file:  "Grambow2020_wb97xd3_007347_reverse_mol1.chk"
 Charge =  0 Multiplicity = 1

                         Standard orientation:
 ---------------------------------------------------------------------
 Center     Atomic      Atomic             Coordinates (Angstroms)
 Number     Number       Type             X           Y           Z
 ---------------------------------------------------------------------
      1          8           0       -2.223938   -0.569107    0.097708
      2          6           0       -1.081255   -0.030633    0.245102
      3          6           0       -0.515936    1.360477    0.145613
      4          7           0        0.581182    0.730700   -0.641414
      5          6           0        1.750105    0.329452    0.201073
      6          6           0        1.328710   -1.148584    0.171741
      7          6           0       -0.002818   -0.692819   -0.404409
      8          1           0       -1.134291    2.055974   -0.422175
      9          1           0       -0.179860    1.819753    1.073885
     10          1           0        1.720244    0.765012    1.204416
     11          1           0        2.701802    0.584765   -0.265868
     12          1           0        1.291947   -1.689933    1.115617
     13          1           0        1.892666   -1.735131   -0.552107
     14          1           0       -1.442106   -1.269836   -0.600266
 ---------------------------------------------------------------------

 SCF Done:  E(RHF) =  -324.028037585     A.U. after    2 cycles

 The electronic state is 1-A.
 Alpha  occ. eigenvalues --  -21.08586 -15.72046 -11.52008 -11.46898 -11.44409
 Alpha  occ. eigenvalues --  -11.40288 -11.36932  -1.77421  -1.50675  -1.15971
 Alpha  occ. eigenvalues --   -1.03557  -0.95774  -0.85853  -0.72990  -0.69587
 Alpha  occ. eigenvalues --   -0.67433  -0.62447  -0.58868  -0.53759  -0.52173
 Alpha  occ. eigenvalues --   -0.48934  -0.45926  -0.42484  -0.37341  -0.31986
 Alpha  occ. eigenvalues --   -0.26254
 Alpha virt. eigenvalues --    0.03424   0.04910   0.05446   0.05786   0.06198
 Alpha virt. eigenvalues --    0.07159   0.07391   0.08242   0.09646   0.09856
 Alpha virt. eigenvalues --    0.12014   0.12288   0.13056   0.13656   0.14394

 Mulliken charges:
               1
     1  O   -2.979156
     2  C    4.020203
     3  C   -2.624515
     4  N   -1.496739
     5  C   -2.240758
     6  C   -2.826158
     7  C   -0.547200
     8  H    1.256190
     9  H    1.550172
    10  H    1.491673
    11  H    1.242802
    12  H    1.184712
    13  H    1.258692
    14  H    0.710083
 Sum of Mulliken charges =  -0.00000

 Dipole moment (field-independent basis, Debye):
    X=              0.1998    Y=              1.0696    Z=              1.8978  Tot=              2.1876

 Test job not archived.
 1\1\GINC-SE045\SP\RHF\Aug-CC-pVDZ\C5H7N1O1\OHZDE\09-Apr-2025\0\\#t hf
 aug-cc-pvdz iop(5/13=1,5/36=2,99/5=2) pseudo=read geom=check guess=(re
 ad,tcheck) scf=(maxcycle=1)\\title\\0,1\O,0,1.77705074,1.04936212,-1.6
 3053123\C,0,1.15865123,0.51204538,-0.65776425\C,0,1.41833081,-0.616977
 04,0.30272899\N,0,0.02023591,-1.03586668,0.00345776\C,0,-0.97867357,-0
 .46778896,0.96086638\C,0,-1.42933484,0.59098363,-0.0584122\C,0,-0.2131
 0693,0.21671788,-0.89108992\H,0,2.17986788,-1.32243191,-0.0302215\H,0,
 1.57969257,-0.34570094,1.34481344\H,0,-0.51457312,-0.03570904,1.852617

 Normal termination of Gaussian 16 at Wed Apr  9 18:38:37 2025.
