 Gaussian 16, Revision C.01,

 ----------------------------------------------------------------------
 #t hf aug-cc-pvdz symm=none int=(grid=ultrafine) guess=(read,tcheck) s
 table=(opt,rrhf)
 ----------------------------------------------------------------------
 -----
 title
 -----
 Symbolic Z-matrix:
 Charge =  0 Multiplicity = 1

 SCF Done:  E(RHF) =  -358.388721889     A.U. after   18 cycles
 Normal termination of Gaussian 16 at Wed Apr  9 03:34:11 2025.
 Gaussian 16:  ES64L-G16RevC.01  3-Jul-2019

 ----------------------------------------------------------------------
 #t hf aug-cc-pvdz iop(5/13=1,5/36=2,99/5=2) pseudo=read geom=check gue
 ss=(read,tcheck) scf=(maxcycle=1)
 ----------------------------------------------------------------------
 -----
 title
 -----
 Structure from the checkpoint file:  "Grambow2020_wb97xd3_007073_reverse_mol2.chk"
 Charge =  0 Multiplicity = 1

                         Standard orientation:
 ---------------------------------------------------------------------
 Center     Atomic      Atomic             Coordinates (Angstroms)
 Number     Number       Type             X           Y           Z
 ---------------------------------------------------------------------
      1          8           0        2.170158   -0.352793    0.062563
      2          6           0        0.997073   -0.134255    0.071066
      3          7           0        0.437068    1.107691   -0.404750
      4          6           0       -0.896554    1.101298   -0.366915
      5          6           0       -1.404115   -0.109326    0.165677
      6          8           0       -0.933530   -1.241771   -0.616235
      7          6           0       -0.194001   -0.935042    0.519815
      8          1           0        0.975829    1.746424   -0.975662
      9          1           0       -1.450319    2.003110   -0.597065
     10          1           0       -0.603187    1.312029    3.055691
     11          1           0       -2.377578   -0.203486    0.620482
     12          1           0       -0.511662    0.608539    2.821315
 ---------------------------------------------------------------------

 SCF Done:  E(RHF) =  -359.966279139     A.U. after    2 cycles

 The electronic state is 1-A.
 Alpha  occ. eigenvalues --  -21.09843 -21.07305 -15.84839 -11.55406 -11.51823
 Alpha  occ. eigenvalues --  -11.47970 -11.40269  -1.83330  -1.73073  -1.48683
 Alpha  occ. eigenvalues --   -1.10311  -1.02844  -0.88338  -0.79581  -0.75571
 Alpha  occ. eigenvalues --   -0.67178  -0.62390  -0.61922  -0.58414  -0.54490
 Alpha  occ. eigenvalues --   -0.51186  -0.43870  -0.39720  -0.37304  -0.31484
 Alpha  occ. eigenvalues --   -0.24677
 Alpha virt. eigenvalues --    0.02051   0.04010   0.04664   0.04909   0.06278
 Alpha virt. eigenvalues --    0.08959   0.09573   0.10072   0.11525   0.11988
 Alpha virt. eigenvalues --    0.12421   0.13176   0.13632   0.14175   0.14976

 Mulliken charges:
               1
     1  O   -3.192512
     2  C    4.712308
     3  N   -3.074964
     4  C    0.841623
     5  C    0.056590
     6  O   -2.212978
     7  C   -0.948314
     8  H    0.822702
     9  H    1.533473
    10  H    0.192453
    11  H    1.567573
    12  H   -0.297953
 Sum of Mulliken charges =   0.00000

 Dipole moment (field-independent basis, Debye):
    X=             -1.7868    Y=              4.6353    Z=             -2.7654  Tot=              5.6857

 Test job not archived.
 1\1\GINC-SE125\SP\RHF\Aug-CC-pVDZ\C4H5N1O2\OHZDE\09-Apr-2025\0\\#t hf
 aug-cc-pvdz iop(5/13=1,5/36=2,99/5=2) pseudo=read geom=check guess=(re
 ad,tcheck) scf=(maxcycle=1)\\title\\0,1\O,0,1.06885316,2.26119621,0.74
 075838\C,0,0.5412463,1.2043411,0.57149775\N,0,1.27137923,0.03246278,0.
 15192207\C,0,0.49176026,-1.04884068,0.09719576\C,0,-0.85219961,-0.7484
 5615,0.42949647\O,0,-0.92506755,-0.16212286,1.75846984\C,0,-0.88164908
 ,0.73443384,0.69738706\H,0,2.28092609,-0.01004749,0.20842737\H,0,0.880
 08357,-1.97828875,-0.30057438\H,0,-0.93798995,0.36664192,-2.69510223\H

 Normal termination of Gaussian 16 at Wed Apr  9 03:34:16 2025.
