 Gaussian 16, Revision C.01,

 ----------------------------------------------------------------------
 #t hf aug-cc-pvdz symm=none int=(grid=ultrafine) guess=(read,tcheck) s
 table=(opt,rrhf)
 ----------------------------------------------------------------------
 -----
 title
 -----
 Symbolic Z-matrix:
 Charge =  0 Multiplicity = 1

 SCF Done:  E(RHF) =  -360.780364638     A.U. after   15 cycles
 Normal termination of Gaussian 16 at Wed Apr  9 03:58:23 2025.
 Gaussian 16:  ES64L-G16RevC.01  3-Jul-2019

 ----------------------------------------------------------------------
 #t hf aug-cc-pvdz iop(5/13=1,5/36=2,99/5=2) pseudo=read geom=check gue
 ss=(read,tcheck) scf=(maxcycle=1)
 ----------------------------------------------------------------------
 -----
 title
 -----
 Structure from the checkpoint file:  "Grambow2020_wb97xd3_008685_reverse_mol1.chk"
 Charge =  0 Multiplicity = 1

                         Standard orientation:
 ---------------------------------------------------------------------
 Center     Atomic      Atomic             Coordinates (Angstroms)
 Number     Number       Type             X           Y           Z
 ---------------------------------------------------------------------
      1          6           0        2.331041   -0.435396   -0.733224
      2          7           0        1.877720   -0.030809    0.582843
      3          6           0        0.499082   -0.287196    0.873568
      4          6           0       -0.445122    0.478729   -0.060816
      5          8           0       -0.538978    1.621446   -0.328679
      6          8           0       -2.007728   -0.340851    0.610632
      7          6           0       -1.995148   -0.710874   -0.623062
      8          1           0        2.154946   -1.505921   -0.863132
      9          1           0        3.404872   -0.266015   -0.812892
     10          1           0        1.840785    0.095584   -1.561739
     11          1           0        2.114583    0.932222    0.772896
     12          1           0        0.264042    0.049527    1.882391
     13          1           0        0.278167   -1.351269    0.805859
     14          1           0       -1.968343   -1.785694   -0.867118
     15          1           0       -0.706295   -0.379331   -1.046768
     16          1           0       -2.492266   -0.089771   -1.383824
 ---------------------------------------------------------------------

 SCF Done:  E(RHF) =  -362.458334930     A.U. after    2 cycles

 The electronic state is 1-A.
 Alpha  occ. eigenvalues --  -21.07471 -21.02266 -15.73933 -11.56981 -11.48771
 Alpha  occ. eigenvalues --  -11.44477 -11.39748  -1.76970  -1.68598  -1.40782
 Alpha  occ. eigenvalues --   -1.09557  -0.98773  -0.94830  -0.81672  -0.71277
 Alpha  occ. eigenvalues --   -0.68133  -0.65875  -0.61065  -0.59317  -0.55046
 Alpha  occ. eigenvalues --   -0.54150  -0.51926  -0.49940  -0.49003  -0.37287
 Alpha  occ. eigenvalues --   -0.33329  -0.29602  -0.27493
 Alpha virt. eigenvalues --    0.03392   0.04444   0.05069   0.05444   0.05920
 Alpha virt. eigenvalues --    0.06442   0.06817   0.07793   0.08859   0.10589
 Alpha virt. eigenvalues --    0.11988   0.12804   0.12894   0.12944   0.13981

 Mulliken charges:
               1
     1  C   -3.428859
     2  N   -2.281238
     3  C   -2.101951
     4  C    3.414360
     5  O   -3.438678
     6  O   -2.301650
     7  C   -1.375075
     8  H    1.355389
     9  H    1.256421
    10  H    1.423121
    11  H    0.588397
    12  H    1.346702
    13  H    1.626771
    14  H    1.289275
    15  H    1.524912
    16  H    1.102103
 Sum of Mulliken charges =  -0.00000

 Dipole moment (field-independent basis, Debye):
    X=              1.3901    Y=             -0.5131    Z=             -0.6070  Tot=              1.6013

 Test job not archived.
 1\1\GINC-SE177\SP\RHF\Aug-CC-pVDZ\C4H9N1O2\OHZDE\09-Apr-2025\0\\#t hf
 aug-cc-pvdz iop(5/13=1,5/36=2,99/5=2) pseudo=read geom=check guess=(re
 ad,tcheck) scf=(maxcycle=1)\\title\\0,1\C,0,-1.96801816,0.66964414,-0.
 32862178\N,0,-1.67735468,-0.44112816,0.5562077\C,0,-0.3255263,-0.53148
 167,1.02020617\C,0,0.67071305,-0.7413973,-0.12638836\O,0,0.73276276,-1
 .54560405,-0.98415441\O,0,2.19441875,-0.59693171,0.97893587\C,0,2.3309
 8509,0.39462599,0.16823344\H,0,-1.72386794,1.60752096,0.17604298\H,0,-
 3.03484063,0.68357374,-0.55188481\H,0,-1.42152974,0.64121325,-1.282178

 Normal termination of Gaussian 16 at Wed Apr  9 03:58:28 2025.
