 Gaussian 16, Revision C.01,

 ----------------------------------------------------------------------
 #t hf aug-cc-pvdz symm=none int=(grid=ultrafine) guess=(read,tcheck) s
 table=(opt,rrhf)
 ----------------------------------------------------------------------
 -----
 title
 -----
 Symbolic Z-matrix:
 Charge =  0 Multiplicity = 1

 SCF Done:  E(RHF) =  -343.622117232     A.U. after   17 cycles
 Normal termination of Gaussian 16 at Wed Apr  9 18:31:33 2025.
 Gaussian 16:  ES64L-G16RevC.01  3-Jul-2019

 ----------------------------------------------------------------------
 #t hf aug-cc-pvdz iop(5/13=1,5/36=2,99/5=2) pseudo=read geom=check gue
 ss=(read,tcheck) scf=(maxcycle=1)
 ----------------------------------------------------------------------
 -----
 title
 -----
 Structure from the checkpoint file:  "Grambow2020_wb97xd3_007229_forward_mol1.chk"
 Charge =  0 Multiplicity = 1

                         Standard orientation:
 ---------------------------------------------------------------------
 Center     Atomic      Atomic             Coordinates (Angstroms)
 Number     Number       Type             X           Y           Z
 ---------------------------------------------------------------------
      1          8           0       -2.490090   -0.223367   -0.031376
      2          6           0       -1.206185   -0.647651    0.383171
      3          6           0       -0.181839    0.081232   -0.471330
      4          6           0       -0.169956    1.593773   -0.249879
      5          6           0        1.845218    0.702117    0.719421
      6          6           0        1.218506   -0.319405   -0.072694
      7          8           0        1.792231   -1.373963   -0.258493
      8          1           0       -3.149735   -0.636139    0.527321
      9          1           0       -1.075911   -1.726576    0.247775
     10          1           0       -1.034653   -0.411944    1.441981
     11          1           0       -0.359378   -0.177541   -1.516758
     12          1           0        0.133835    2.152110   -1.132347
     13          1           0       -1.116667    1.979713    0.126184
     14          1           0        0.559957    1.832638    0.582654
     15          1           0        2.590955    1.305978    0.190003
 ---------------------------------------------------------------------

 SCF Done:  E(RHF) =  -345.162531847     A.U. after    2 cycles

 The electronic state is 1-A.
 Alpha  occ. eigenvalues --  -21.08399 -21.04554 -11.50818 -11.46112 -11.43742
 Alpha  occ. eigenvalues --  -11.43099 -11.39292  -1.73540  -1.70161  -1.27455
 Alpha  occ. eigenvalues --   -1.04620  -0.99977  -0.89185  -0.74633  -0.68107
 Alpha  occ. eigenvalues --   -0.65583  -0.62197  -0.59305  -0.57465  -0.53144
 Alpha  occ. eigenvalues --   -0.51104  -0.47239  -0.45023  -0.42452  -0.33766
 Alpha  occ. eigenvalues --   -0.33071  -0.28009
 Alpha virt. eigenvalues --    0.03369   0.04813   0.05244   0.05399   0.05578
 Alpha virt. eigenvalues --    0.06648   0.06770   0.07285   0.08668   0.10261
 Alpha virt. eigenvalues --    0.11243   0.12542   0.14038   0.14248   0.14371

 Mulliken charges:
               1
     1  O   -2.692928
     2  C   -0.636487
     3  C   -3.403355
     4  C   -3.338230
     5  C   -2.998209
     6  C    5.855242
     7  O   -3.429270
     8  H    0.771978
     9  H    1.328966
    10  H    1.585662
    11  H    1.607041
    12  H    1.225680
    13  H    1.330749
    14  H    1.515039
    15  H    1.278122
 Sum of Mulliken charges =  -0.00000

 Dipole moment (field-independent basis, Debye):
    X=             -1.8943    Y=              1.1634    Z=             -1.1213  Tot=              2.4899

 Test job not archived.
 1\1\GINC-SE117\SP\RHF\Aug-CC-pVDZ\C5H8O2\OHZDE\09-Apr-2025\0\\#t hf au
 g-cc-pvdz iop(5/13=1,5/36=2,99/5=2) pseudo=read geom=check guess=(read
 ,tcheck) scf=(maxcycle=1)\\title\\0,1\O,0,2.34390312,0.39792484,0.0208
 3872\C,0,1.32307932,-0.53024768,-0.29011505\C,0,0.05174935,-0.06595717
 ,0.4018973\C,0,-0.47643334,1.26790753,-0.12611032\C,0,-1.97740925,-0.4
 5690277,-0.8795172\C,0,-1.08718615,-1.01118796,0.10231414\O,0,-1.26440
 347,-2.14370912,0.50451283\H,0,3.14325653,0.14898719,-0.44469326\H,0,1
 .57186315,-1.53584037,0.06523337\H,0,1.152594,-0.58212357,-1.37376749\

 Normal termination of Gaussian 16 at Wed Apr  9 18:31:37 2025.
