 Gaussian 16, Revision C.01,

 ----------------------------------------------------------------------
 #t hf aug-cc-pvdz symm=none int=(grid=ultrafine) guess=(read,tcheck) s
 table=(opt,rrhf)
 ----------------------------------------------------------------------
 -----
 title
 -----
 Symbolic Z-matrix:
 Charge =  0 Multiplicity = 1

 SCF Done:  E(RHF) =  -245.683646578     A.U. after   16 cycles
 Normal termination of Gaussian 16 at Wed Apr  9 17:41:26 2025.
 Gaussian 16:  ES64L-G16RevC.01  3-Jul-2019

 ----------------------------------------------------------------------
 #t hf aug-cc-pvdz iop(5/13=1,5/36=2,99/5=2) pseudo=read geom=check gue
 ss=(read,tcheck) scf=(maxcycle=1)
 ----------------------------------------------------------------------
 -----
 title
 -----
 Structure from the checkpoint file:  "Grambow2020_wb97xd3_006118_reverse_mol1.chk"
 Charge =  0 Multiplicity = 1

                         Standard orientation:
 ---------------------------------------------------------------------
 Center     Atomic      Atomic             Coordinates (Angstroms)
 Number     Number       Type             X           Y           Z
 ---------------------------------------------------------------------
      1          6           0       -1.402709    0.382787    0.000538
      2          6           0        0.659440    1.259673   -0.000395
      3          7           0        1.186747    0.037952    0.000201
      4          6           0        1.064750   -1.126316    0.000153
      5          8           0       -1.264368   -0.845705   -0.000604
      6          1           0       -1.640889    0.921621    0.930910
      7          1           0       -1.642583    0.923384   -0.928310
      8          1           0        0.789478    1.811635   -0.923615
      9          1           0        0.790091    1.812281    0.922409
     10          1           0        1.582728   -2.065804    0.000257
 ---------------------------------------------------------------------

 SCF Done:  E(RHF) =  -246.812828840     A.U. after    2 cycles

 The electronic state is 1-A.
 Alpha  occ. eigenvalues --  -21.01100 -15.84231 -11.48617 -11.42263 -11.39371
 Alpha  occ. eigenvalues --   -1.65658  -1.44535  -1.06128  -0.86873  -0.80212
 Alpha  occ. eigenvalues --   -0.66854  -0.65447  -0.60861  -0.60844  -0.48092
 Alpha  occ. eigenvalues --   -0.46728  -0.36895  -0.28303  -0.26099
 Alpha virt. eigenvalues --    0.03255   0.04997   0.05852   0.06285   0.07103
 Alpha virt. eigenvalues --    0.09454   0.09550   0.10209   0.12103   0.13397
 Alpha virt. eigenvalues --    0.14144   0.14995   0.15271   0.17099   0.17893

 Mulliken charges:
               1
     1  C   -0.358430
     2  C   -2.275842
     3  N   -2.376393
     4  C    0.428271
     5  O   -2.289203
     6  H    1.256772
     7  H    1.256997
     8  H    1.412412
     9  H    1.412553
    10  H    1.532865
 Sum of Mulliken charges =   0.00000

 Dipole moment (field-independent basis, Debye):
    X=              2.4125    Y=             -0.3081    Z=              0.0004  Tot=              2.4321

 Test job not archived.
 1\1\GINC-SE232\SP\RHF\Aug-CC-pVDZ\C3H5N1O1\OHZDE\09-Apr-2025\0\\#t hf
 aug-cc-pvdz iop(5/13=1,5/36=2,99/5=2) pseudo=read geom=check guess=(re
 ad,tcheck) scf=(maxcycle=1)\\title\\0,1\C,0,-0.75685538,-1.24978714,-0
 .07412183\C,0,-0.51234458,0.9501637,0.27490876\N,0,0.79541327,0.847560
 41,0.05153034\C,0,1.73881298,0.20583246,-0.21035423\O,0,0.36789412,-1.
 69406349,-0.33081211\H,0,-1.19378732,-1.36934889,0.92960033\H,0,-1.480
 95222,-1.05051941,-0.87942926\H,0,-1.06602973,1.47595096,-0.49378289\H
 ,0,-0.78348569,1.15955554,1.30284345\H,0,2.79894155,0.22498785,-0.3737

 Normal termination of Gaussian 16 at Wed Apr  9 17:41:29 2025.
