 Gaussian 16, Revision C.01,

 ----------------------------------------------------------------------
 #t hf aug-cc-pvdz symm=none int=(grid=ultrafine) guess=(read,tcheck) s
 table=(opt,rrhf)
 ----------------------------------------------------------------------
 -----
 title
 -----
 Symbolic Z-matrix:
 Charge =  0 Multiplicity = 1

 SCF Done:  E(RHF) =  -306.607693919     A.U. after   16 cycles
 Normal termination of Gaussian 16 at Wed Apr  9 18:35:46 2025.
 Gaussian 16:  ES64L-G16RevC.01  3-Jul-2019

 ----------------------------------------------------------------------
 #t hf aug-cc-pvdz iop(5/13=1,5/36=2,99/5=2) pseudo=read geom=check gue
 ss=(read,tcheck) scf=(maxcycle=1)
 ----------------------------------------------------------------------
 -----
 title
 -----
 Structure from the checkpoint file:  "Grambow2020_wb97xd3_007305_reverse_mol2.chk"
 Charge =  0 Multiplicity = 1

                         Standard orientation:
 ---------------------------------------------------------------------
 Center     Atomic      Atomic             Coordinates (Angstroms)
 Number     Number       Type             X           Y           Z
 ---------------------------------------------------------------------
      1          6           0        4.672896    0.657995    0.026502
      2          6           0       -1.315126   -0.352811    0.926152
      3          6           0       -2.215835    0.316695   -0.009552
      4          8           0       -3.087375    1.117760   -0.071554
      5          6           0       -1.405255   -0.576907   -0.931232
      6          6           0       -0.329025   -0.525191   -0.071136
      7          6           0        1.109280   -0.830190   -0.104507
      8          1           0        5.735791    0.884174   -0.037906
      9          1           0        4.528941   -0.212855    0.664897
     10          1           0        4.148684    1.513510    0.450616
     11          1           0       -1.548945   -1.026794    1.748614
     12          1           0        4.287689    0.449498   -0.970660
     13          1           0        1.359275   -1.591120    0.637581
     14          1           0        1.413433   -1.164653   -1.094179
     15          1           0        1.672522    0.068608    0.156111
 ---------------------------------------------------------------------

 SCF Done:  E(RHF) =  -308.040856992     A.U. after    2 cycles

 The electronic state is 1-A.
 Alpha  occ. eigenvalues --  -21.06632 -11.51790 -11.49957 -11.46916 -11.42921
 Alpha  occ. eigenvalues --  -11.41233 -11.37175  -1.72270  -1.40318  -1.12923
 Alpha  occ. eigenvalues --   -1.04421  -0.90631  -0.84649  -0.69166  -0.63804
 Alpha  occ. eigenvalues --   -0.61812  -0.61063  -0.55231  -0.55189  -0.55051
 Alpha  occ. eigenvalues --   -0.54744  -0.51874  -0.50067  -0.37186  -0.36541
 Alpha  occ. eigenvalues --   -0.27868
 Alpha virt. eigenvalues --    0.02082   0.03779   0.04808   0.05282   0.05792
 Alpha virt. eigenvalues --    0.06564   0.07105   0.07654   0.08212   0.09124
 Alpha virt. eigenvalues --    0.10701   0.10993   0.11660   0.12342   0.13526

 Mulliken charges:
               1
     1  C   -5.250430
     2  C   -2.589114
     3  C    4.166241
     4  O   -3.392569
     5  C   -2.605176
     6  C    4.075409
     7  C   -4.712408
     8  H    1.219762
     9  H    1.317680
    10  H    1.316006
    11  H    1.104429
    12  H    1.321638
    13  H    1.225608
    14  H    1.279233
    15  H    1.523689
 Sum of Mulliken charges =  -0.00000

 Dipole moment (field-independent basis, Debye):
    X=              3.3269    Y=             -0.7586    Z=              2.2460  Tot=              4.0851

 Test job not archived.
 1\1\GINC-SE131\SP\RHF\Aug-CC-pVDZ\C6H8O1\OHZDE\09-Apr-2025\0\\#t hf au
 g-cc-pvdz iop(5/13=1,5/36=2,99/5=2) pseudo=read geom=check guess=(read
 ,tcheck) scf=(maxcycle=1)\\title\\0,1\C,0,-2.10273144,-1.75368322,-2.0
 6589717\C,0,1.15188695,1.98777535,1.55300546\C,0,1.20031739,1.61545193
 ,2.965126\O,0,0.90279578,1.98809785,4.05036681\C,0,1.85152967,0.417695
 55,2.29702486\C,0,1.12219251,0.6345376,1.14734789\C,0,0.76809596,-0.10
 285622,-0.07483237\H,0,-2.74480028,-2.33513119,-2.72522854\H,0,-1.4476
 1782,-1.12362818,-2.66632018\H,0,-2.72067028,-1.12983508,-1.42127085\H

 Normal termination of Gaussian 16 at Wed Apr  9 18:35:50 2025.
