 Gaussian 16, Revision C.01,

 ----------------------------------------------------------------------
 #t hf aug-cc-pvdz symm=none int=(grid=ultrafine) guess=(read,tcheck) s
 table=(opt,rrhf)
 ----------------------------------------------------------------------
 -----
 title
 -----
 Symbolic Z-matrix:
 Charge =  0 Multiplicity = 1

 SCF Done:  E(RHF) =  -354.724677004     A.U. after   15 cycles
 Normal termination of Gaussian 16 at Wed Apr  9 18:36:13 2025.
 Gaussian 16:  ES64L-G16RevC.01  3-Jul-2019

 ----------------------------------------------------------------------
 #t hf aug-cc-pvdz iop(5/13=1,5/36=2,99/5=2) pseudo=read geom=check gue
 ss=(read,tcheck) scf=(maxcycle=1)
 ----------------------------------------------------------------------
 -----
 title
 -----
 Structure from the checkpoint file:  "Grambow2020_wb97xd3_007314_reverse_mol2.chk"
 Charge =  0 Multiplicity = 1

                         Standard orientation:
 ---------------------------------------------------------------------
 Center     Atomic      Atomic             Coordinates (Angstroms)
 Number     Number       Type             X           Y           Z
 ---------------------------------------------------------------------
      1          8           0        3.165751    0.198751   -0.216807
      2          6           0        1.965811    0.243378    0.479920
      3          6           0       -0.259999   -0.586501   -0.058015
      4          7           0        0.885976   -0.339766   -0.289208
      5          7           0       -2.407006    1.132339   -0.034610
      6          6           0       -2.514715   -0.125887   -0.014772
      7          7           0       -1.416978   -0.981006    0.087362
      8          1           0        3.075756    0.712508   -1.022721
      9          1           0        1.679528    1.268330    0.738693
     10          1           0        2.117867   -0.332410    1.393476
     11          1           0       -3.321921    1.566861   -0.106871
     12          1           0       -3.457762   -0.672205   -0.055717
 ---------------------------------------------------------------------

 SCF Done:  E(RHF) =  -356.290065430     A.U. after    2 cycles

 The electronic state is 1-A.
 Alpha  occ. eigenvalues --  -21.09074 -15.77011 -15.75472 -15.74128 -11.55054
 Alpha  occ. eigenvalues --  -11.46278 -11.45789  -1.74851  -1.48485  -1.38058
 Alpha  occ. eigenvalues --   -1.26488  -1.00838  -0.90084  -0.73629  -0.71417
 Alpha  occ. eigenvalues --   -0.69176  -0.63618  -0.62658  -0.56437  -0.54342
 Alpha  occ. eigenvalues --   -0.46290  -0.44558  -0.41004  -0.37160  -0.34967
 Alpha  occ. eigenvalues --   -0.33476
 Alpha virt. eigenvalues --    0.03483   0.04778   0.05935   0.05980   0.06574
 Alpha virt. eigenvalues --    0.09478   0.10005   0.10854   0.11311   0.12189
 Alpha virt. eigenvalues --    0.12362   0.12806   0.13740   0.14994   0.16064

 Mulliken charges:
               1
     1  O   -2.522878
     2  C   -0.572734
     3  C    4.253150
     4  N   -3.028089
     5  N   -2.584394
     6  C    1.360847
     7  N   -3.072551
     8  H    0.784604
     9  H    1.475241
    10  H    1.522097
    11  H    0.771169
    12  H    1.613537
 Sum of Mulliken charges =  -0.00000

 Dipole moment (field-independent basis, Debye):
    X=             -0.3875    Y=              0.6747    Z=              0.3676  Tot=              0.8606

 Test job not archived.
 1\1\GINC-SE229\SP\RHF\Aug-CC-pVDZ\C3H5N3O1\OHZDE\09-Apr-2025\0\\#t hf
 aug-cc-pvdz iop(5/13=1,5/36=2,99/5=2) pseudo=read geom=check guess=(re
 ad,tcheck) scf=(maxcycle=1)\\title\\0,1\O,0,-3.03511621,1.07485902,-0.
 26940801\C,0,-2.03335039,0.11968808,-0.37613272\C,0,0.18679172,-0.0275
 9797,0.6146143\N,0,-0.85024177,0.50968168,0.36266179\N,0,2.39213593,-0
 .32871916,-1.00105308\C,0,2.39612179,-0.55437915,0.24160082\N,0,1.2434
 7105,-0.50644537,1.02632028\H,0,-2.71892615,1.89934345,-0.64596033\H,0
 ,-1.7390166,-0.05160436,-1.41703381\H,0,-2.43975422,-0.80173828,0.0422

 Normal termination of Gaussian 16 at Wed Apr  9 18:36:17 2025.
