 Gaussian 16, Revision C.01,

 ----------------------------------------------------------------------
 #t hf aug-cc-pvdz symm=none int=(grid=ultrafine) guess=(read,tcheck) s
 table=(opt,rrhf)
 ----------------------------------------------------------------------
 -----
 title
 -----
 Symbolic Z-matrix:
 Charge =  0 Multiplicity = 1

 SCF Done:  E(RHF) =  -323.686019479     A.U. after   18 cycles
 Normal termination of Gaussian 16 at Wed Apr  9 18:16:29 2025.
 Gaussian 16:  ES64L-G16RevC.01  3-Jul-2019

 ----------------------------------------------------------------------
 #t hf aug-cc-pvdz iop(5/13=1,5/36=2,99/5=2) pseudo=read geom=check gue
 ss=(read,tcheck) scf=(maxcycle=1)
 ----------------------------------------------------------------------
 -----
 title
 -----
 Structure from the checkpoint file:  "Grambow2020_wb97xd3_006824_forward_mol1.chk"
 Charge =  0 Multiplicity = 1

                         Standard orientation:
 ---------------------------------------------------------------------
 Center     Atomic      Atomic             Coordinates (Angstroms)
 Number     Number       Type             X           Y           Z
 ---------------------------------------------------------------------
      1          6           0       -1.869985   -1.334966    0.255914
      2          6           0       -1.043235   -0.246635   -0.398041
      3          6           0       -1.296154    1.218048    0.029911
      4          6           0        0.220010    1.478681    0.086365
      5          6           0        0.399431   -0.087183    0.050828
      6          7           0        1.491988   -0.614014   -0.553869
      7          8           0        2.425803   -0.453195    0.300531
      8          1           0       -2.920065   -1.256453   -0.035192
      9          1           0       -1.812187   -1.261932    1.344426
     10          1           0       -1.512385   -2.325053   -0.033599
     11          1           0       -1.079930   -0.343568   -1.488111
     12          1           0       -1.865626    1.844231   -0.655102
     13          1           0       -1.751389    1.268369    1.020027
     14          1           0        0.608489    2.020960    0.944603
     15          1           0        0.605987    1.923060   -0.831952
     16          1           0        1.416362   -0.113628    1.057872
 ---------------------------------------------------------------------

 SCF Done:  E(RHF) =  -325.241968896     A.U. after    2 cycles

 The electronic state is 1-A.
 Alpha  occ. eigenvalues --  -21.10464 -15.86030 -11.51912 -11.42807 -11.40568
 Alpha  occ. eigenvalues --  -11.38692 -11.35406  -1.86718  -1.35799  -1.13683
 Alpha  occ. eigenvalues --   -1.08074  -0.92267  -0.88261  -0.79623  -0.69377
 Alpha  occ. eigenvalues --   -0.65141  -0.60848  -0.57771  -0.56680  -0.54426
 Alpha  occ. eigenvalues --   -0.51733  -0.48353  -0.44615  -0.43742  -0.40380
 Alpha  occ. eigenvalues --   -0.35682  -0.27260
 Alpha virt. eigenvalues --    0.03955   0.05152   0.05385   0.05516   0.05759
 Alpha virt. eigenvalues --    0.05991   0.06487   0.06762   0.08149   0.08890
 Alpha virt. eigenvalues --    0.11720   0.12538   0.12998   0.13965   0.14310

 Mulliken charges:
               1
     1  C   -4.032226
     2  C   -1.175830
     3  C   -2.632311
     4  C   -3.163068
     5  C    1.393988
     6  N   -0.286269
     7  O   -2.012271
     8  H    1.223193
     9  H    1.255457
    10  H    1.201389
    11  H    1.329969
    12  H    1.278943
    13  H    1.491635
    14  H    1.239606
    15  H    1.335178
    16  H    1.552618
 Sum of Mulliken charges =  -0.00000

 Dipole moment (field-independent basis, Debye):
    X=             -0.2769    Y=              0.7688    Z=              0.2624  Tot=              0.8583

 Test job not archived.
 1\1\GINC-SE220\SP\RHF\Aug-CC-pVDZ\C5H9N1O1\OHZDE\09-Apr-2025\0\\#t hf
 aug-cc-pvdz iop(5/13=1,5/36=2,99/5=2) pseudo=read geom=check guess=(re
 ad,tcheck) scf=(maxcycle=1)\\title\\0,1\C,0,-1.54478401,-1.27010328,-0
 .05889637\C,0,-0.49319946,-0.2963691,-0.55047288\C,0,-0.65370834,1.197
 45633,-0.18287231\C,0,0.84520056,1.29025155,0.15555282\C,0,0.84965979,
 -0.28624613,0.16003241\N,0,1.96869976,-0.94543321,-0.22741112\O,0,2.73
 975044,-0.86765537,0.78614963\H,0,-2.50680357,-1.08326591,-0.54179015\
 H,0,-1.68219261,-1.17692409,1.02090433\H,0,-1.25407532,-2.30052175,-0.

 Normal termination of Gaussian 16 at Wed Apr  9 18:16:34 2025.
