 Gaussian 16, Revision C.01,

 ----------------------------------------------------------------------
 #t hf aug-cc-pvdz symm=none int=(grid=ultrafine) guess=(read,tcheck) s
 table=(opt,rrhf)
 ----------------------------------------------------------------------
 -----
 title
 -----
 Symbolic Z-matrix:
 Charge =  0 Multiplicity = 1

 SCF Done:  E(RHF) =  -305.620391209     A.U. after   15 cycles
 Normal termination of Gaussian 16 at Wed Apr  9 03:15:33 2025.
 Gaussian 16:  ES64L-G16RevC.01  3-Jul-2019

 ----------------------------------------------------------------------
 #t hf aug-cc-pvdz iop(5/13=1,5/36=2,99/5=2) pseudo=read geom=check gue
 ss=(read,tcheck) scf=(maxcycle=1)
 ----------------------------------------------------------------------
 -----
 title
 -----
 Structure from the checkpoint file:  "Grambow2020_b97d3_006972_forward_mol1.chk"
 Charge =  0 Multiplicity = 1

                         Standard orientation:
 ---------------------------------------------------------------------
 Center     Atomic      Atomic             Coordinates (Angstroms)
 Number     Number       Type             X           Y           Z
 ---------------------------------------------------------------------
      1          8           0        1.921932   -0.887782   -0.129991
      2          6           0        1.629907    0.436134    0.282126
      3          6           0        0.371369    1.014245   -0.402737
      4          6           0       -0.859330    0.283190   -0.019624
      5          6           0       -2.334594    0.031384   -0.033559
      6          8           0       -1.034483   -0.985655    0.037847
      7          1           0        1.181502   -1.454159    0.158330
      8          1           0        1.498184    0.520730    1.375487
      9          1           0        2.496761    1.044312   -0.004798
     10          1           0        0.242034    2.080399   -0.175716
     11          1           0        0.469458    0.907843   -1.498229
     12          1           0       -1.125072    0.845818    1.656967
     13          1           0       -2.725683   -0.157076   -1.052513
     14          1           0       -1.980897    0.609911    1.320394
 ---------------------------------------------------------------------

 SCF Done:  E(RHF) =  -307.040287492     A.U. after    2 cycles

 The electronic state is 1-A.
 Alpha  occ. eigenvalues --  -21.11381 -21.07740 -11.55756 -11.47587 -11.44071
 Alpha  occ. eigenvalues --  -11.42325  -1.81933  -1.71670  -1.19566  -1.01008
 Alpha  occ. eigenvalues --   -0.93970  -0.79432  -0.71628  -0.68464  -0.63630
 Alpha  occ. eigenvalues --   -0.59343  -0.56438  -0.54380  -0.47537  -0.43954
 Alpha  occ. eigenvalues --   -0.41493  -0.36275  -0.33355  -0.32362
 Alpha virt. eigenvalues --    0.03753   0.04803   0.05241   0.05559   0.06092
 Alpha virt. eigenvalues --    0.06778   0.07289   0.09228   0.09850   0.10916
 Alpha virt. eigenvalues --    0.11437   0.12719   0.13259   0.14172   0.14778

 Mulliken charges:
               1
     1  O   -2.588435
     2  C   -0.960067
     3  C   -3.831176
     4  C    4.807454
     5  C   -2.635235
     6  O   -2.550283
     7  H    0.935569
     8  H    1.501211
     9  H    1.187491
    10  H    1.233678
    11  H    1.176696
    12  H    0.043412
    13  H    1.219830
    14  H    0.459854
 Sum of Mulliken charges =   0.00000

 Dipole moment (field-independent basis, Debye):
    X=              2.1364    Y=              0.1554    Z=             -1.7197  Tot=              2.7470

 Test job not archived.
 1\1\GINC-SE016\SP\RHF\Aug-CC-pVDZ\C4H8O2\OHZDE\09-Apr-2025\0\\#t hf au
 g-cc-pvdz iop(5/13=1,5/36=2,99/5=2) pseudo=read geom=check guess=(read
 ,tcheck) scf=(maxcycle=1)\\title\\0,1\O,0,2.02207588,0.93891838,0.4507
 7903\C,0,1.63333639,-0.25394353,-0.20788271\C,0,0.29765123,-0.82336657
 ,0.32019671\C,0,-0.84390647,0.07971848,0.04248942\C,0,-2.29000203,0.46
 513498,0.05874278\O,0,-0.9028053,1.34875815,0.21574732\H,0,1.34923077,
 1.61659821,0.25033139\H,0,1.54614389,-0.12557861,-1.30143921\H,0,2.428
 31946,-0.98440553,-0.01277247\H,0,0.08496857,-1.81317377,-0.10406728\H

 Normal termination of Gaussian 16 at Wed Apr  9 03:15:37 2025.
