 Gaussian 16, Revision C.01,

 ----------------------------------------------------------------------
 #t hf aug-cc-pvdz symm=none int=(grid=ultrafine) guess=(read,tcheck) s
 table=(opt,rrhf)
 ----------------------------------------------------------------------
 -----
 title
 -----
 Symbolic Z-matrix:
 Charge =  0 Multiplicity = 1

 SCF Done:  E(RHF) =  -325.032542855     A.U. after   14 cycles
 Normal termination of Gaussian 16 at Wed Apr  9 19:07:10 2025.
 Gaussian 16:  ES64L-G16RevC.01  3-Jul-2019

 ----------------------------------------------------------------------
 #t hf aug-cc-pvdz iop(5/13=1,5/36=2,99/5=2) pseudo=read geom=check gue
 ss=(read,tcheck) scf=(maxcycle=1)
 ----------------------------------------------------------------------
 -----
 title
 -----
 Structure from the checkpoint file:  "Grambow2020_wb97xd3_008110_reverse_mol2.chk"
 Charge =  0 Multiplicity = 1

                         Standard orientation:
 ---------------------------------------------------------------------
 Center     Atomic      Atomic             Coordinates (Angstroms)
 Number     Number       Type             X           Y           Z
 ---------------------------------------------------------------------
      1          6           0        1.775567   -1.210702   -0.194269
      2          7           0        1.041013    0.027146   -0.494271
      3          6           0       -0.412968   -0.018195    0.280420
      4          8           0       -0.259768   -0.088133    1.490566
      5          6           0       -1.411247    0.035093   -0.627386
      6          6           0       -2.850038    0.011966   -0.207072
      7          6           0        1.767234    1.230408   -0.061618
      8          1           0        2.784376   -1.167612   -0.606070
      9          1           0        1.229333   -2.052268   -0.615726
     10          1           0        1.808156   -1.312734    0.889068
     11          1           0        0.836863    0.080776   -1.485978
     12          1           0       -1.178960    0.094269   -1.684451
     13          1           0       -2.917932   -0.026888    0.880784
     14          1           0       -3.382263   -0.859040   -0.602220
     15          1           0       -3.391375    0.902321   -0.541627
     16          1           0        1.205345    2.108135   -0.375076
     17          1           0        1.816059    1.207148    1.025613
     18          1           0        2.770157    1.249510   -0.489402
 ---------------------------------------------------------------------

 SCF Done:  E(RHF) =  -326.603986404     A.U. after    2 cycles

 The electronic state is 1-A.
 Alpha  occ. eigenvalues --  -20.98225 -15.82284 -11.48726 -11.42597 -11.42445
 Alpha  occ. eigenvalues --  -11.36811 -11.33026  -1.66846  -1.47357  -1.13920
 Alpha  occ. eigenvalues --   -1.07992  -0.99412  -0.90225  -0.76848  -0.69948
 Alpha  occ. eigenvalues --   -0.66456  -0.64024  -0.59046  -0.57968  -0.55126
 Alpha  occ. eigenvalues --   -0.54439  -0.53323  -0.49049  -0.46682  -0.44253
 Alpha  occ. eigenvalues --   -0.43474  -0.27084  -0.20905
 Alpha virt. eigenvalues --    0.02705   0.04327   0.04573   0.04897   0.05965
 Alpha virt. eigenvalues --    0.06142   0.06614   0.07595   0.07752   0.08110
 Alpha virt. eigenvalues --    0.08972   0.11195   0.12330   0.12879   0.13945

 Mulliken charges:
               1
     1  C   -3.872262
     2  N   -1.492283
     3  C    4.442582
     4  O   -3.550705
     5  C   -1.456989
     6  C   -4.126026
     7  C   -3.874735
     8  H    1.303443
     9  H    1.373204
    10  H    1.368950
    11  H    0.815762
    12  H    1.480901
    13  H    1.143084
    14  H    1.202277
    15  H    1.198581
    16  H    1.373626
    17  H    1.370706
    18  H    1.299884
 Sum of Mulliken charges =   0.00000

 Dipole moment (field-independent basis, Debye):
    X=              4.7654    Y=              0.1380    Z=             -2.3466  Tot=              5.3136

 Test job not archived.
 1\1\GINC-SE016\SP\RHF\Aug-CC-pVDZ\C5H11N1O1\OHZDE\09-Apr-2025\0\\#t hf
  aug-cc-pvdz iop(5/13=1,5/36=2,99/5=2) pseudo=read geom=check guess=(r
 ead,tcheck) scf=(maxcycle=1)\\title\\0,1\C,0,1.97563816,0.71034619,-0.
 13711397\N,0,0.5199343,0.84083033,-0.29754773\C,0,-0.21337575,-0.41725
 828,0.47428947\O,0,0.04231883,-0.40399769,1.66896865\C,0,-0.91664588,-
 1.1474208,-0.41777886\C,0,-1.69151335,-2.35940181,0.00412322\C,0,0.003
 79106,2.0999124,0.25988688\H,0,2.48646465,1.58250464,-0.54641609\H,0,2
 .30363275,-0.19449561,-0.6449636\H,0,2.17604245,0.61423669,0.92857451\

 Normal termination of Gaussian 16 at Wed Apr  9 19:07:16 2025.
