 Gaussian 16, Revision C.01,

 ----------------------------------------------------------------------
 #t hf aug-cc-pvdz symm=none int=(grid=ultrafine) guess=(read,tcheck) s
 table=(opt,rrhf)
 ----------------------------------------------------------------------
 -----
 title
 -----
 Symbolic Z-matrix:
 Charge =  0 Multiplicity = 1

 SCF Done:  E(RHF) =  -306.655176397     A.U. after   16 cycles
 Normal termination of Gaussian 16 at Wed Apr  9 03:59:46 2025.
 Gaussian 16:  ES64L-G16RevC.01  3-Jul-2019

 ----------------------------------------------------------------------
 #t hf aug-cc-pvdz iop(5/13=1,5/36=2,99/5=2) pseudo=read geom=check gue
 ss=(read,tcheck) scf=(maxcycle=1)
 ----------------------------------------------------------------------
 -----
 title
 -----
 Structure from the checkpoint file:  "Grambow2020_wb97xd3_008795_reverse_mol2.chk"
 Charge =  0 Multiplicity = 1

                         Standard orientation:
 ---------------------------------------------------------------------
 Center     Atomic      Atomic             Coordinates (Angstroms)
 Number     Number       Type             X           Y           Z
 ---------------------------------------------------------------------
      1          8           0        2.300185   -0.061112   -0.165601
      2          6           0        1.109045   -0.042866    0.002929
      3          6           0        0.257256   -1.286372   -0.106128
      4          6           0       -1.177019   -1.065069    0.355872
      5          6           0       -1.751091    0.197636   -0.284023
      6          6           0       -1.000486    1.462804   -0.182888
      7          6           0        0.381968    1.266120    0.286694
      8          1           0        0.275798   -1.571517   -1.164175
      9          1           0        0.757417   -2.092090    0.433879
     10          1           0       -1.791859   -1.935654    0.118885
     11          1           0       -1.208026   -0.957863    1.445300
     12          1           0       -1.760387    0.107011   -1.390050
     13          1           0       -2.805216    0.361061   -0.044912
     14          1           0        0.162312    1.274458    1.376054
     15          1           0        1.050450    2.109968    0.115090
 ---------------------------------------------------------------------

 SCF Done:  E(RHF) =  -308.075093764     A.U. after    2 cycles

 The electronic state is 1-A.
 Alpha  occ. eigenvalues --  -21.05559 -11.51239 -11.44996 -11.43397 -11.40899
 Alpha  occ. eigenvalues --  -11.40141 -11.37570  -1.71680  -1.31717  -1.13120
 Alpha  occ. eigenvalues --   -1.08038  -0.91689  -0.80992  -0.73025  -0.67255
 Alpha  occ. eigenvalues --   -0.62575  -0.60870  -0.58255  -0.56459  -0.51786
 Alpha  occ. eigenvalues --   -0.50817  -0.49552  -0.44440  -0.41107  -0.33554
 Alpha  occ. eigenvalues --   -0.26392
 Alpha virt. eigenvalues --    0.03061   0.04766   0.05210   0.05425   0.05908
 Alpha virt. eigenvalues --    0.06290   0.06530   0.07261   0.07903   0.09645
 Alpha virt. eigenvalues --    0.10990   0.12303   0.12670   0.13308   0.14219

 Mulliken charges:
               1
     1  O   -3.463973
     2  C    4.497851
     3  C   -3.183220
     4  C   -2.872255
     5  C   -2.152745
     6  C   -0.767906
     7  C   -3.115701
     8  H    1.305190
     9  H    1.377090
    10  H    1.284511
    11  H    1.317931
    12  H    1.539414
    13  H    1.350187
    14  H    1.488312
    15  H    1.395313
 Sum of Mulliken charges =  -0.00000

 Dipole moment (field-independent basis, Debye):
    X=             -1.0155    Y=             -2.2094    Z=              0.7089  Tot=              2.5328

 Test job not archived.
 1\1\GINC-SE331\SP\RHF\Aug-CC-pVDZ\C6H8O1\OHZDE\09-Apr-2025\0\\#t hf au
 g-cc-pvdz iop(5/13=1,5/36=2,99/5=2) pseudo=read geom=check guess=(read
 ,tcheck) scf=(maxcycle=1)\\title\\0,1\O,0,0.99702074,-2.51143389,0.055
 31939\C,0,0.59922317,-1.37682991,0.09983262\C,0,-0.86309267,-1.0256610
 9,-0.04868595\C,0,-1.15525679,0.43792314,0.25483584\C,0,-0.17153159,1.
 33990954,-0.48823375\C,0,1.27584592,1.0896501,-0.35880538\C,0,1.572968
 57,-0.21510604,0.25739349\H,0,-1.12384382,-1.25753267,-1.08760753\H,0,
 -1.44418435,-1.7115017,0.57010866\H,0,-2.18546345,0.68342125,-0.010711

 Normal termination of Gaussian 16 at Wed Apr  9 03:59:50 2025.
