 Gaussian 16, Revision C.01,

 ----------------------------------------------------------------------
 #t hf aug-cc-pvdz symm=none int=(grid=ultrafine) guess=(read,tcheck) s
 table=(opt,rrhf)
 ----------------------------------------------------------------------
 -----
 title
 -----
 Symbolic Z-matrix:
 Charge =  0 Multiplicity = 1

 SCF Done:  E(RHF) =  -279.752426145     A.U. after   14 cycles
 Normal termination of Gaussian 16 at Wed Apr  9 17:10:06 2025.
 Gaussian 16:  ES64L-G16RevC.01  3-Jul-2019

 ----------------------------------------------------------------------
 #t hf aug-cc-pvdz iop(5/13=1,5/36=2,99/5=2) pseudo=read geom=check gue
 ss=(read,tcheck) scf=(maxcycle=1)
 ----------------------------------------------------------------------
 -----
 title
 -----
 Structure from the checkpoint file:  "Grambow2020_b97d3_007059_forward_mol1.chk"
 Charge =  0 Multiplicity = 1

                         Standard orientation:
 ---------------------------------------------------------------------
 Center     Atomic      Atomic             Coordinates (Angstroms)
 Number     Number       Type             X           Y           Z
 ---------------------------------------------------------------------
      1          7           0        1.992109    0.035088    0.002507
      2          6           0        0.555037    0.278428   -0.005559
      3          6           0       -0.470296    1.210804   -0.001686
      4          6           0       -1.600536    0.343603    0.001756
      5          7           0       -1.262060   -0.972140    0.001473
      6          7           0        0.079628   -0.978389   -0.002791
      7          1           0        2.502496    0.331034    0.843072
      8          1           0        2.512890    0.331755   -0.831249
      9          1           0       -0.421839    2.293874    0.002631
     10          1           0       -2.646059    0.637570    0.005971
     11          1           0        1.479538   -1.183158    0.004183
 ---------------------------------------------------------------------

 SCF Done:  E(RHF) =  -281.077089787     A.U. after    2 cycles

 The electronic state is 1-A.
 Alpha  occ. eigenvalues --  -15.84876 -15.73183 -15.71775 -11.45127 -11.41024
 Alpha  occ. eigenvalues --  -11.35776  -1.58498  -1.39619  -1.11793  -1.09186
 Alpha  occ. eigenvalues --   -0.83096  -0.77129  -0.73412  -0.70797  -0.61098
 Alpha  occ. eigenvalues --   -0.55908  -0.52462  -0.49591  -0.41394  -0.36139
 Alpha  occ. eigenvalues --   -0.30875  -0.30381
 Alpha virt. eigenvalues --    0.01899   0.04690   0.04738   0.06095   0.06557
 Alpha virt. eigenvalues --    0.10516   0.11406   0.12045   0.12856   0.13786
 Alpha virt. eigenvalues --    0.14116   0.14435   0.15697   0.16280   0.16669

 Mulliken charges:
               1
     1  N   -3.561109
     2  C    3.706547
     3  C   -1.791126
     4  C    0.234305
     5  N   -1.558364
     6  N   -1.697005
     7  H    0.566094
     8  H    0.569525
     9  H    1.233860
    10  H    1.440169
    11  H    0.857105
 Sum of Mulliken charges =   0.00000

 Dipole moment (field-independent basis, Debye):
    X=              5.5633    Y=              2.2673    Z=              0.0270  Tot=              6.0076

 Test job not archived.
 1\1\GINC-SE162\SP\RHF\Aug-CC-pVDZ\C3H5N3\OHZDE\09-Apr-2025\0\\#t hf au
 g-cc-pvdz iop(5/13=1,5/36=2,99/5=2) pseudo=read geom=check guess=(read
 ,tcheck) scf=(maxcycle=1)\\title\\0,1\N,0,-1.73138973,0.28933133,0.025
 1475\C,0,-0.31321819,-0.04458031,-0.01668532\C,0,0.64908951,-1.0339905
 3,-0.1418971\C,0,1.83337046,-0.25181233,-0.01875201\N,0,1.58138634,1.0
 7077762,0.16292301\N,0,0.24305026,1.16580995,0.1597507\H,0,-2.26748897
 ,-0.08552766,0.81679573\H,0,-2.26290979,0.14544066,-0.84154436\H,0,0.5
 3010732,-2.10174253,-0.28735529\H,0,2.85743106,-0.61169028,-0.05536605

 Normal termination of Gaussian 16 at Wed Apr  9 17:10:10 2025.
