 Gaussian 16, Revision C.01,

 ----------------------------------------------------------------------
 #t hf aug-cc-pvdz symm=none int=(grid=ultrafine) guess=(read,tcheck) s
 table=(opt,rrhf)
 ----------------------------------------------------------------------
 -----
 title
 -----
 Symbolic Z-matrix:
 Charge =  0 Multiplicity = 1

 SCF Done:  E(RHF) =  -339.043374780     A.U. after   18 cycles
 Normal termination of Gaussian 16 at Wed Apr  9 16:28:43 2025.
 Gaussian 16:  ES64L-G16RevC.01  3-Jul-2019

 ----------------------------------------------------------------------
 #t hf aug-cc-pvdz iop(5/13=1,5/36=2,99/5=2) pseudo=read geom=check gue
 ss=(read,tcheck) scf=(maxcycle=1)
 ----------------------------------------------------------------------
 -----
 title
 -----
 Structure from the checkpoint file:  "Grambow2020_b97d3_006810_forward_mol1.chk"
 Charge =  0 Multiplicity = 1

                         Standard orientation:
 ---------------------------------------------------------------------
 Center     Atomic      Atomic             Coordinates (Angstroms)
 Number     Number       Type             X           Y           Z
 ---------------------------------------------------------------------
      1          8           0        1.602260    0.676386   -0.024323
      2          6           0        0.355631    0.939081    0.052660
      3          6           0       -1.340311   -0.292983   -0.004540
      4          8           0       -2.401042    0.232989   -0.055496
      5          6           0       -0.150789   -0.890773    0.084198
      6          8           0        1.643616   -0.729244   -0.063625
      7          1           0        0.084350    1.999982    0.177932
      8          1           0       -0.030213   -1.972982    0.175711
 ---------------------------------------------------------------------

 SCF Done:  E(RHF) =  -340.485849590     A.U. after    2 cycles

 The electronic state is 1-A.
 Alpha  occ. eigenvalues --  -21.19580 -21.12875 -21.07913 -11.56014 -11.52506
 Alpha  occ. eigenvalues --  -11.49678  -2.03342  -1.76407  -1.43184  -1.16641
 Alpha  occ. eigenvalues --   -0.90365  -0.76195  -0.74041  -0.61359  -0.60541
 Alpha  occ. eigenvalues --   -0.55885  -0.54459  -0.49357  -0.39979  -0.33864
 Alpha  occ. eigenvalues --   -0.30728  -0.29183
 Alpha virt. eigenvalues --    0.02929   0.05520   0.07298   0.08347   0.10099
 Alpha virt. eigenvalues --    0.10564   0.11484   0.12429   0.13430   0.13673
 Alpha virt. eigenvalues --    0.13737   0.13964   0.15185   0.17045   0.18337

 Mulliken charges:
               1
     1  O   -1.914750
     2  C   -0.009199
     3  C    3.036562
     4  O   -2.665289
     5  C   -0.786907
     6  O   -0.460536
     7  H    1.468698
     8  H    1.331419
 Sum of Mulliken charges =   0.00000

 Dipole moment (field-independent basis, Debye):
    X=              0.2545    Y=              0.4183    Z=              0.0835  Tot=              0.4967

 Test job not archived.
 1\1\GINC-SE229\SP\RHF\Aug-CC-pVDZ\C3H2O3\OHZDE\09-Apr-2025\0\\#t hf au
 g-cc-pvdz iop(5/13=1,5/36=2,99/5=2) pseudo=read geom=check guess=(read
 ,tcheck) scf=(maxcycle=1)\\title\\0,1\O,0,-0.61971913,-0.88598741,1.40
 966483\C,0,-0.72720327,0.16823645,0.69827422\C,0,0.37983692,0.87112654
 ,-0.93814798\O,0,0.15110111,1.96684949,-1.32733206\C,0,0.62035153,-0.3
 7439894,-0.5246167\O,0,0.41276418,-1.60636609,0.78190407\H,0,-1.546335
 79,0.85693535,0.96193115\H,0,1.32204445,-1.04614439,-1.02509052\\Versi
 on=ES64L-G16RevC.01\State=1-A\HF=-340.4858496\RMSD=2.322e-01\Dipole=-0

 Normal termination of Gaussian 16 at Wed Apr  9 16:28:46 2025.
