 Gaussian 16, Revision C.01,

 ----------------------------------------------------------------------
 #t hf aug-cc-pvdz symm=none int=(grid=ultrafine) guess=(read,tcheck) s
 table=(opt,rrhf)
 ----------------------------------------------------------------------
 -----
 title
 -----
 Symbolic Z-matrix:
 Charge =  0 Multiplicity = 1

 SCF Done:  E(RHF) =  -306.759702573     A.U. after   14 cycles
 Normal termination of Gaussian 16 at Wed Apr  9 03:59:44 2025.
 Gaussian 16:  ES64L-G16RevC.01  3-Jul-2019

 ----------------------------------------------------------------------
 #t hf aug-cc-pvdz iop(5/13=1,5/36=2,99/5=2) pseudo=read geom=check gue
 ss=(read,tcheck) scf=(maxcycle=1)
 ----------------------------------------------------------------------
 -----
 title
 -----
 Structure from the checkpoint file:  "Grambow2020_wb97xd3_008787_reverse_mol2.chk"
 Charge =  0 Multiplicity = 1

                         Standard orientation:
 ---------------------------------------------------------------------
 Center     Atomic      Atomic             Coordinates (Angstroms)
 Number     Number       Type             X           Y           Z
 ---------------------------------------------------------------------
      1          8           0        0.734694    1.919981    0.079694
      2          6           0        0.069180    0.915685    0.098227
      3          6           0        1.859006   -0.815808   -0.354391
      4          6           0        0.591976   -0.487073    0.421419
      5          6           0       -0.605391   -1.411803    0.161230
      6          6           0       -1.741782   -0.479363   -0.149366
      7          6           0       -1.377324    0.799516   -0.186394
      8          1           0        1.661979   -0.838683   -1.429036
      9          1           0        2.621426   -0.058606   -0.170548
     10          1           0        2.257054   -1.789045   -0.062047
     11          1           0        0.822691   -0.476654    1.491543
     12          1           0       -0.424378   -2.080637   -0.686444
     13          1           0       -0.840661   -2.054166    1.013351
     14          1           0       -2.746652   -0.842148   -0.332400
     15          1           0       -2.002993    1.653175   -0.406325
 ---------------------------------------------------------------------

 SCF Done:  E(RHF) =  -308.198259122     A.U. after    2 cycles

 The electronic state is 1-A.
 Alpha  occ. eigenvalues --  -21.03958 -11.49762 -11.48130 -11.43539 -11.40106
 Alpha  occ. eigenvalues --  -11.39516 -11.36529  -1.69935  -1.33637  -1.12771
 Alpha  occ. eigenvalues --   -1.01277  -0.94391  -0.81199  -0.74623  -0.66314
 Alpha  occ. eigenvalues --   -0.64722  -0.58819  -0.56622  -0.52327  -0.51248
 Alpha  occ. eigenvalues --   -0.49748  -0.47013  -0.44964  -0.44638  -0.33692
 Alpha  occ. eigenvalues --   -0.26787
 Alpha virt. eigenvalues --    0.03307   0.04598   0.05438   0.05518   0.05886
 Alpha virt. eigenvalues --    0.06304   0.06897   0.07822   0.10619   0.10755
 Alpha virt. eigenvalues --    0.11799   0.12170   0.13302   0.13694   0.14600

 Mulliken charges:
               1
     1  O   -3.731857
     2  C    4.495790
     3  C   -4.067453
     4  C   -2.080117
     5  C   -4.031342
     6  C    0.275820
     7  C   -1.681763
     8  H    1.291884
     9  H    1.214811
    10  H    1.215462
    11  H    1.561115
    12  H    1.449105
    13  H    1.205595
    14  H    1.395874
    15  H    1.487076
 Sum of Mulliken charges =  -0.00000

 Dipole moment (field-independent basis, Debye):
    X=             -1.1261    Y=             -2.0029    Z=              0.0498  Tot=              2.2983

 Test job not archived.
 1\1\GINC-SE454\SP\RHF\Aug-CC-pVDZ\C6H8O1\OHZDE\09-Apr-2025\0\\#t hf au
 g-cc-pvdz iop(5/13=1,5/36=2,99/5=2) pseudo=read geom=check guess=(read
 ,tcheck) scf=(maxcycle=1)\\title\\0,1\O,0,0.44892635,-2.06411972,1.207
 36386\C,0,0.55824318,-0.95996529,0.73751891\C,0,-1.63651175,-0.7854779
 2,-0.51108633\C,0,-0.6058026,-0.05055281,0.33320961\C,0,0.06543886,1.1
 5562447,-0.33841901\C,0,1.53748227,0.92205157,-0.14913245\C,0,1.814174
 44,-0.23816839,0.43998841\H,0,-1.20178184,-1.11057583,-1.45951973\H,0,
 -1.99245376,-1.67175766,0.01451085\H,0,-2.49184406,-0.14472546,-0.7323

 Normal termination of Gaussian 16 at Wed Apr  9 03:59:49 2025.
