 Gaussian 16, Revision C.01,

 ----------------------------------------------------------------------
 #t hf aug-cc-pvdz symm=none int=(grid=ultrafine) guess=(read,tcheck) s
 table=(opt,rrhf)
 ----------------------------------------------------------------------
 -----
 title
 -----
 Symbolic Z-matrix:
 Charge =  0 Multiplicity = 1

 SCF Done:  E(RHF) =  -286.869115456     A.U. after   14 cycles
 Normal termination of Gaussian 16 at Wed Apr  9 18:45:56 2025.
 Gaussian 16:  ES64L-G16RevC.01  3-Jul-2019

 ----------------------------------------------------------------------
 #t hf aug-cc-pvdz iop(5/13=1,5/36=2,99/5=2) pseudo=read geom=check gue
 ss=(read,tcheck) scf=(maxcycle=1)
 ----------------------------------------------------------------------
 -----
 title
 -----
 Structure from the checkpoint file:  "Grambow2020_wb97xd3_007625_reverse_mol2.chk"
 Charge =  0 Multiplicity = 1

                         Standard orientation:
 ---------------------------------------------------------------------
 Center     Atomic      Atomic             Coordinates (Angstroms)
 Number     Number       Type             X           Y           Z
 ---------------------------------------------------------------------
      1          6           0       -2.465393   -0.041619    0.209123
      2          6           0       -0.999585   -0.075958   -0.061812
      3          6           0       -0.188745    1.200340   -0.163593
      4          6           0        1.236128    0.707663   -0.310562
      5          6           0        1.201457   -0.771326   -0.347286
      6          7           0        1.719118   -0.060788    0.839459
      7          6           0       -0.228842   -1.152100   -0.201883
      8          1           0       -2.894955   -1.043484    0.211166
      9          1           0       -2.988288    0.559069   -0.540565
     10          1           0       -2.666228    0.417611    1.181039
     11          1           0       -0.500050    1.795657   -1.028395
     12          1           0       -0.312118    1.825277    0.725790
     13          1           0        1.951060    1.276568   -0.891923
     14          1           0        1.890008   -1.357223   -0.943518
     15          1           0        2.733303   -0.073304    0.824788
     16          1           0       -0.576679   -2.176658   -0.158520
 ---------------------------------------------------------------------

 SCF Done:  E(RHF) =  -288.267242245     A.U. after    2 cycles

 The electronic state is 1-A.
 Alpha  occ. eigenvalues --  -15.72432 -11.50572 -11.45193 -11.40992 -11.39785
 Alpha  occ. eigenvalues --  -11.38180 -11.34874  -1.48594  -1.22627  -1.04764
 Alpha  occ. eigenvalues --   -1.02898  -0.89198  -0.81560  -0.74915  -0.71662
 Alpha  occ. eigenvalues --   -0.61544  -0.57942  -0.57131  -0.54672  -0.49964
 Alpha  occ. eigenvalues --   -0.49176  -0.45077  -0.44229  -0.41841  -0.33705
 Alpha  occ. eigenvalues --   -0.30191
 Alpha virt. eigenvalues --    0.03851   0.05045   0.05353   0.05544   0.05977
 Alpha virt. eigenvalues --    0.06312   0.06867   0.07770   0.08353   0.09920
 Alpha virt. eigenvalues --    0.11987   0.13014   0.13785   0.13987   0.14134

 Mulliken charges:
               1
     1  C   -4.878125
     2  C    5.115928
     3  C   -5.074439
     4  C   -0.283737
     5  C   -2.116597
     6  N   -1.855916
     7  C   -1.835428
     8  H    1.292474
     9  H    1.177047
    10  H    1.147693
    11  H    1.207931
    12  H    1.168361
    13  H    1.409748
    14  H    1.326411
    15  H    0.627890
    16  H    1.570760
 Sum of Mulliken charges =   0.00000

 Dipole moment (field-independent basis, Debye):
    X=              0.4969    Y=              0.2344    Z=             -0.9367  Tot=              1.0859

 Test job not archived.
 1\1\GINC-SE108\SP\RHF\Aug-CC-pVDZ\C6H9N1\OHZDE\09-Apr-2025\0\\#t hf au
 g-cc-pvdz iop(5/13=1,5/36=2,99/5=2) pseudo=read geom=check guess=(read
 ,tcheck) scf=(maxcycle=1)\\title\\0,1\C,0,1.85759946,-1.04361982,0.830
 26059\C,0,0.59795161,-0.35287818,0.43108529\C,0,0.60381683,0.76127297,
 -0.59623655\C,0,-0.86511907,1.07634133,-0.79002505\C,0,-1.63766395,0.2
 1510455,0.13269249\N,0,-1.64635303,-0.04333516,-1.32138324\C,0,-0.6369
 0934,-0.61789976,0.85135744\H,0,1.67640118,-1.78909131,1.60466413\H,0,
 2.5956456,-0.32768344,1.20308828\H,0,2.30902293,-1.54723467,-0.0290632

 Normal termination of Gaussian 16 at Wed Apr  9 18:46:02 2025.
