 Gaussian 16, Revision C.01,

 ----------------------------------------------------------------------
 #t hf aug-cc-pvdz symm=none int=(grid=ultrafine) guess=(read,tcheck) s
 table=(opt,rrhf)
 ----------------------------------------------------------------------
 -----
 title
 -----
 Symbolic Z-matrix:
 Charge =  0 Multiplicity = 1

 SCF Done:  E(RHF) =  -323.690871792     A.U. after   16 cycles
 Normal termination of Gaussian 16 at Wed Apr  9 18:24:32 2025.
 Gaussian 16:  ES64L-G16RevC.01  3-Jul-2019

 ----------------------------------------------------------------------
 #t hf aug-cc-pvdz iop(5/13=1,5/36=2,99/5=2) pseudo=read geom=check gue
 ss=(read,tcheck) scf=(maxcycle=1)
 ----------------------------------------------------------------------
 -----
 title
 -----
 Structure from the checkpoint file:  "Grambow2020_wb97xd3_006969_reverse_mol1.chk"
 Charge =  0 Multiplicity = 1

                         Standard orientation:
 ---------------------------------------------------------------------
 Center     Atomic      Atomic             Coordinates (Angstroms)
 Number     Number       Type             X           Y           Z
 ---------------------------------------------------------------------
      1          6           0       -2.883618   -0.089864   -0.219766
      2          6           0       -1.647717   -0.635986    0.507003
      3          6           0       -0.346137   -0.495702   -0.217664
      4          8           0       -0.088565    1.047625   -0.502819
      5          6           0        1.139866    0.663697    0.602017
      6          6           0        2.204934   -0.150008    0.079812
      7          7           0        3.107570   -0.728080   -0.336084
      8          1           0       -3.023369   -0.594967   -1.176950
      9          1           0       -3.785981   -0.231423    0.377562
     10          1           0       -2.810267    0.982333   -0.428592
     11          1           0       -1.776019   -1.709125    0.678115
     12          1           0       -1.585667   -0.187865    1.509182
     13          1           0       -0.381578   -0.925880   -1.221114
     14          1           0       -0.782160    1.593390   -0.103584
     15          1           0        0.816787    0.323144    1.578609
     16          1           0        1.479813    1.713125    0.653507
 ---------------------------------------------------------------------

 SCF Done:  E(RHF) =  -325.231905867     A.U. after    2 cycles

 The electronic state is 1-A.
 Alpha  occ. eigenvalues --  -21.12834 -15.76358 -11.55678 -11.44254 -11.41820
 Alpha  occ. eigenvalues --  -11.38352 -11.34897  -1.77695  -1.31593  -1.18482
 Alpha  occ. eigenvalues --   -1.10554  -0.96424  -0.82949  -0.72875  -0.69368
 Alpha  occ. eigenvalues --   -0.66780  -0.62329  -0.56929  -0.54161  -0.52540
 Alpha  occ. eigenvalues --   -0.51323  -0.49305  -0.47414  -0.44206  -0.41466
 Alpha  occ. eigenvalues --   -0.40550  -0.24777
 Alpha virt. eigenvalues --    0.03104   0.04096   0.04778   0.05487   0.05575
 Alpha virt. eigenvalues --    0.06184   0.06546   0.07982   0.08770   0.08944
 Alpha virt. eigenvalues --    0.10669   0.11209   0.11988   0.13066   0.13658

 Mulliken charges:
               1
     1  C   -3.515086
     2  C   -3.588797
     3  C   -0.276947
     4  O   -2.382388
     5  C   -1.992390
     6  C    2.481610
     7  N   -2.522464
     8  H    1.264897
     9  H    1.166383
    10  H    1.297877
    11  H    1.459862
    12  H    1.440439
    13  H    1.440547
    14  H    1.066102
    15  H    1.490180
    16  H    1.170176
 Sum of Mulliken charges =   0.00000

 Dipole moment (field-independent basis, Debye):
    X=             -3.2926    Y=              3.1421    Z=              1.0275  Tot=              4.6658

 Test job not archived.
 1\1\GINC-SE115\SP\RHF\Aug-CC-pVDZ\C5H9N1O1\OHZDE\09-Apr-2025\0\\#t hf
 aug-cc-pvdz iop(5/13=1,5/36=2,99/5=2) pseudo=read geom=check guess=(re
 ad,tcheck) scf=(maxcycle=1)\\title\\0,1\C,0,2.24503769,-0.34306568,-0.
 01479756\C,0,1.0260159,0.23274489,0.71754197\C,0,-0.11485726,0.6651413
 5,-0.14869904\O,0,-0.61329277,-0.58722838,-0.99288264\C,0,-1.92937218,
 -0.28291402,0.03299908\C,0,-2.69282431,0.8957507,-0.27856882\N,0,-3.36
 699131,1.78426677,-0.55772202\H,0,2.66200005,0.39061751,-0.70668771\H,
 0,3.02662816,-0.63291872,0.68961821\H,0,2.00233142,-1.23624534,-0.5995

 Normal termination of Gaussian 16 at Wed Apr  9 18:24:37 2025.
