 Gaussian 16, Revision C.01,

 ----------------------------------------------------------------------
 #t hf aug-cc-pvdz symm=none int=(grid=ultrafine) guess=(read,tcheck) s
 table=(opt,rrhf)
 ----------------------------------------------------------------------
 -----
 title
 -----
 Symbolic Z-matrix:
 Charge =  0 Multiplicity = 1

 SCF Done:  E(RHF) =  -321.501299623     A.U. after   17 cycles
 Normal termination of Gaussian 16 at Wed Apr  9 03:40:12 2025.
 Gaussian 16:  ES64L-G16RevC.01  3-Jul-2019

 ----------------------------------------------------------------------
 #t hf aug-cc-pvdz iop(5/13=1,5/36=2,99/5=2) pseudo=read geom=check gue
 ss=(read,tcheck) scf=(maxcycle=1)
 ----------------------------------------------------------------------
 -----
 title
 -----
 Structure from the checkpoint file:  "Grambow2020_wb97xd3_007491_reverse_mol2.chk"
 Charge =  0 Multiplicity = 1

                         Standard orientation:
 ---------------------------------------------------------------------
 Center     Atomic      Atomic             Coordinates (Angstroms)
 Number     Number       Type             X           Y           Z
 ---------------------------------------------------------------------
      1          8           0        2.590206   -0.961434    0.012568
      2          6           0        1.797205   -0.115114   -0.029575
      3          6           0        1.067891    0.947499   -0.096998
      4          6           0       -0.113434    1.534061   -0.087232
      5          6           0       -1.375119   -0.599741    0.414277
      6          6           0       -1.447823    0.857977    0.059531
      7          7           0       -1.848512   -1.568962   -0.238777
      8          1           0       -0.169104    2.615950   -0.207541
      9          1           0       -0.860252   -0.831221    1.350282
     10          1           0       -2.009647    0.999969   -0.870992
     11          1           0       -2.012926    1.390532    0.834531
     12          1           0       -2.302448   -1.249121   -1.095400
 ---------------------------------------------------------------------

 SCF Done:  E(RHF) =  -322.946016978     A.U. after    2 cycles

 The electronic state is 1-A.
 Alpha  occ. eigenvalues --  -21.13277 -15.75261 -11.55345 -11.50314 -11.46184
 Alpha  occ. eigenvalues --  -11.42633 -11.40484  -1.76953  -1.37309  -1.23494
 Alpha  occ. eigenvalues --   -1.08102  -0.93794  -0.84662  -0.70294  -0.64557
 Alpha  occ. eigenvalues --   -0.63636  -0.61119  -0.58131  -0.55328  -0.54165
 Alpha  occ. eigenvalues --   -0.53960  -0.42731  -0.38873  -0.36235  -0.28775
 Alpha virt. eigenvalues --    0.02629   0.04986   0.05332   0.05798   0.06151
 Alpha virt. eigenvalues --    0.07416   0.08378   0.09378   0.10614   0.11157
 Alpha virt. eigenvalues --    0.12022   0.13797   0.13876   0.14383   0.14617

 Mulliken charges:
               1
     1  O   -2.720174
     2  C    1.862834
     3  C    2.150856
     4  C   -1.097228
     5  C    1.090443
     6  C   -3.981279
     7  N   -3.177515
     8  H    1.282289
     9  H    1.597182
    10  H    1.260922
    11  H    1.136066
    12  H    0.595606
 Sum of Mulliken charges =  -0.00000

 Dipole moment (field-independent basis, Debye):
    X=             -1.0778    Y=              1.2544    Z=             -0.0025  Tot=              1.6538

 Test job not archived.
 1\1\GINC-SE329\SP\RHF\Aug-CC-pVDZ\C5H5N1O1\OHZDE\09-Apr-2025\0\\#t hf
 aug-cc-pvdz iop(5/13=1,5/36=2,99/5=2) pseudo=read geom=check guess=(re
 ad,tcheck) scf=(maxcycle=1)\\title\\0,1\O,0,1.55828115,1.47752751,2.60
 960691\C,0,1.47453156,0.7208744,1.73362387\C,0,1.55639948,-0.18596336,
 0.81900135\C,0,1.05640708,-0.8095612,-0.23019453\C,0,-0.94503946,0.724
 83945,-0.42071224\C,0,-0.25636004,-0.52001026,-0.90252303\N,0,-2.09460
 41,0.81242421,0.08997401\H,0,1.6170027,-1.63164151,-0.67513493\H,0,-0.
 37929421,1.65230986,-0.54116222\H,0,-0.90726137,-1.3930441,-0.77673942

 Normal termination of Gaussian 16 at Wed Apr  9 03:40:16 2025.
