 Gaussian 16, Revision C.01,

 ----------------------------------------------------------------------
 #t hf aug-cc-pvdz symm=none int=(grid=ultrafine) guess=(read,tcheck) s
 table=(opt,rrhf)
 ----------------------------------------------------------------------
 -----
 title
 -----
 Symbolic Z-matrix:
 Charge =  0 Multiplicity = 1

 SCF Done:  E(RHF) =  -307.834972245     A.U. after   15 cycles

 1\1\GINC-SE021\Stability\RHF\Aug-CC-pVDZ\C6H10O1\OHZDE\09-Apr-2025\0\\
 #t hf aug-cc-pvdz symm=none int=(grid=ultrafine) guess=(read,tcheck) s
 table=(opt,rrhf)\\title\\0,1\C,0,2.25095172,-0.57880971,-0.25847191\C,
 0,0.99731486,-0.31004196,0.09659647\C,0,0.10714956,0.55463527,-0.67065
 014\C,0,-1.19640639,0.74502366,-0.4263549\C,0,-2.02058765,0.04483194,0
 .56171224\C,0,-2.1038627,-1.28053294,0.70268611\O,0,-1.44307184,-2.219
 52712,-0.00039504\H,0,2.68067719,-0.17133649,-1.16774274\H,0,2.4306158
 2,2.47440149,0.27725394\H,0,2.88751603,-1.20985026,0.34840417\H,0,0.59

 Normal termination of Gaussian 16 at Wed Apr  9 03:45:44 2025.
 Gaussian 16:  ES64L-G16RevC.01  3-Jul-2019

 ----------------------------------------------------------------------
 #t hf aug-cc-pvdz iop(5/13=1,5/36=2,99/5=2) pseudo=read geom=check gue
 ss=(read,tcheck) scf=(maxcycle=1)
 ----------------------------------------------------------------------
 -----
 title
 -----
 Structure from the checkpoint file:  "Grambow2020_wb97xd3_007818_reverse_mol2.chk"
 Charge =  0 Multiplicity = 1

                         Standard orientation:
 ---------------------------------------------------------------------
 Center     Atomic      Atomic             Coordinates (Angstroms)
 Number     Number       Type             X           Y           Z
 ---------------------------------------------------------------------
      1          6           0        2.379146   -1.136206    0.051256
      2          6           0        1.258140   -0.455110    0.273447
      3          6           0        0.863630    0.724199   -0.489653
      4          6           0       -0.312723    1.358180   -0.392454
      5          6           0       -1.478859    0.939691    0.389092
      6          6           0       -2.041249   -0.271077    0.355079
      7          8           0       -1.644453   -1.335648   -0.367362
      8          1           0        3.066260   -0.851701   -0.738936
      9          1           0        3.523084    1.598668    0.974972
     10          1           0        2.647332   -1.995317    0.652695
     11          1           0        0.594171   -0.765439    1.075184
     12          1           0        1.614736    1.134342   -1.158798
     13          1           0        3.930428    2.223023    0.960080
     14          1           0       -0.429353    2.283611   -0.950414
     15          1           0       -1.994734    1.694634    0.970364
     16          1           0       -2.936956   -0.493617    0.922373
     17          1           0       -0.867859   -1.101081   -0.889217
 ---------------------------------------------------------------------

 SCF Done:  E(RHF) =  -309.311736246     A.U. after    2 cycles

 The electronic state is 1-A.
 Alpha  occ. eigenvalues --  -21.10226 -11.46173 -11.45678 -11.42615 -11.40268
 Alpha  occ. eigenvalues --  -11.39676 -11.37414  -1.75802  -1.26461  -1.14416
 Alpha  occ. eigenvalues --   -1.03779  -0.89025  -0.82220  -0.74702  -0.68451
 Alpha  occ. eigenvalues --   -0.63641  -0.62317  -0.61065  -0.58325  -0.53532
 Alpha  occ. eigenvalues --   -0.50670  -0.48410  -0.46002  -0.44514  -0.43534
 Alpha  occ. eigenvalues --   -0.32723  -0.26836
 Alpha virt. eigenvalues --    0.03829   0.04896   0.05100   0.05304   0.05962
 Alpha virt. eigenvalues --    0.06424   0.06949   0.07621   0.07926   0.08837
 Alpha virt. eigenvalues --    0.10721   0.11092   0.12449   0.12636   0.13017

 Mulliken charges:
               1
     1  C   -4.361218
     2  C   -0.825459
     3  C   -1.059290
     4  C   -0.567982
     5  C   -1.529875
     6  C    0.609040
     7  O   -3.630908
     8  H    1.461691
     9  H   -0.269852
    10  H    1.290531
    11  H    1.902472
    12  H    1.488000
    13  H    0.194537
    14  H    1.255050
    15  H    1.219258
    16  H    1.588136
    17  H    1.235868
 Sum of Mulliken charges =   0.00000

 Dipole moment (field-independent basis, Debye):
    X=              0.0123    Y=             -0.2167    Z=             -0.1299  Tot=              0.2529

 Test job not archived.
 1\1\GINC-SE021\SP\RHF\Aug-CC-pVDZ\C6H10O1\OHZDE\09-Apr-2025\0\\#t hf a
 ug-cc-pvdz iop(5/13=1,5/36=2,99/5=2) pseudo=read geom=check guess=(rea
 d,tcheck) scf=(maxcycle=1)\\title\\0,1\C,0,2.25095172,-0.57880971,-0.2
 5847191\C,0,0.99731486,-0.31004196,0.09659647\C,0,0.10714956,0.5546352
 7,-0.67065014\C,0,-1.19640639,0.74502366,-0.4263549\C,0,-2.02058765,0.
 04483194,0.56171224\C,0,-2.1038627,-1.28053294,0.70268611\O,0,-1.44307
 184,-2.21952712,-0.00039504\H,0,2.68067719,-0.17133649,-1.16774274\H,0
 ,2.43061582,2.47440149,0.27725394\H,0,2.88751603,-1.20985026,0.3484041

 Normal termination of Gaussian 16 at Wed Apr  9 03:45:50 2025.
