 Gaussian 16, Revision C.01,

 ----------------------------------------------------------------------
 #t hf aug-cc-pvdz symm=none int=(grid=ultrafine) guess=(read,tcheck) s
 table=(opt,rrhf)
 ----------------------------------------------------------------------
 -----
 title
 -----
 Symbolic Z-matrix:
 Charge =  0 Multiplicity = 1

 SCF Done:  E(RHF) =  -264.852499082     A.U. after   15 cycles
 Normal termination of Gaussian 16 at Wed Apr  9 15:41:52 2025.
 Gaussian 16:  ES64L-G16RevC.01  3-Jul-2019

 ----------------------------------------------------------------------
 #t hf aug-cc-pvdz iop(5/13=1,5/36=2,99/5=2) pseudo=read geom=check gue
 ss=(read,tcheck) scf=(maxcycle=1)
 ----------------------------------------------------------------------
 -----
 title
 -----
 Structure from the checkpoint file:  "Grambow2020_b97d3_006627_reverse_mol1.chk"
 Charge =  0 Multiplicity = 1

                         Standard orientation:
 ---------------------------------------------------------------------
 Center     Atomic      Atomic             Coordinates (Angstroms)
 Number     Number       Type             X           Y           Z
 ---------------------------------------------------------------------
      1          6           0       -1.836183   -0.292532   -0.259683
      2          6           0       -0.847310   -1.256345    0.209716
      3          6           0        1.122421    0.039601    0.519202
      4          7           0        2.063997   -0.492164   -0.421073
      5          6           0        0.259345    1.081469    0.223484
      6          7           0       -0.742104    1.646066   -0.125505
      7          1           0       -1.982168   -0.140579   -1.323767
      8          1           0       -2.581450    0.092636    0.427782
      9          1           0       -2.045702   -1.656248   -0.136786
     10          1           0       -0.809975   -1.528183    1.260782
     11          1           0       -0.214849   -1.801974   -0.484522
     12          1           0        1.389193   -0.126215    1.563264
     13          1           0        1.795433   -0.228600   -1.370912
     14          1           0        3.006625   -0.121302   -0.266106
 ---------------------------------------------------------------------

 SCF Done:  E(RHF) =  -266.154250694     A.U. after    2 cycles

 The electronic state is 1-A.
 Alpha  occ. eigenvalues --  -15.73880 -15.71346 -11.50314 -11.44272 -11.41605
 Alpha  occ. eigenvalues --  -11.37675  -1.35175  -1.26372  -1.20238  -0.96908
 Alpha  occ. eigenvalues --   -0.88252  -0.70094  -0.68665  -0.65175  -0.61039
 Alpha  occ. eigenvalues --   -0.57428  -0.55676  -0.55042  -0.49334  -0.41830
 Alpha  occ. eigenvalues --   -0.39315  -0.37245  -0.23877
 Alpha virt. eigenvalues --    0.03053   0.05181   0.05256   0.05450   0.05851
 Alpha virt. eigenvalues --    0.06171   0.06754   0.08171   0.10138   0.11467
 Alpha virt. eigenvalues --    0.12312   0.12621   0.14339   0.14724   0.15078

 Mulliken charges:
               1
     1  C   -2.706529
     2  C   -3.363761
     3  C   -0.210623
     4  N   -2.711529
     5  C    2.344008
     6  N   -2.553890
     7  H    1.342693
     8  H    1.318029
     9  H    0.962881
    10  H    1.408570
    11  H    1.436490
    12  H    1.571885
    13  H    0.630770
    14  H    0.531007
 Sum of Mulliken charges =   0.00000

 Dipole moment (field-independent basis, Debye):
    X=             -1.1240    Y=             -3.1139    Z=             -0.1810  Tot=              3.3155

 Test job not archived.
 1\1\GINC-SE162\SP\RHF\Aug-CC-pVDZ\C4H8N2\OHZDE\09-Apr-2025\0\\#t hf au
 g-cc-pvdz iop(5/13=1,5/36=2,99/5=2) pseudo=read geom=check guess=(read
 ,tcheck) scf=(maxcycle=1)\\title\\0,1\C,0,-1.54473195,0.73873578,-0.32
 606183\C,0,-1.01817584,-0.59848558,-0.07762755\C,0,1.20732073,-0.21491
 9,0.66744823\N,0,2.03864707,-0.82225561,-0.32929495\C,0,0.79916623,1.1
 0732948,0.61353712\N,0,0.10869031,2.06105248,0.37454473\H,0,-1.4761115
 3,1.17247824,-1.31794646\H,0,-2.20664264,1.20017175,0.39873876\H,0,-2.
 21811844,-0.44475787,-0.58025645\H,0,-1.22649265,-1.09802102,0.8642309

 Normal termination of Gaussian 16 at Wed Apr  9 15:41:56 2025.
