 Gaussian 16, Revision C.01,

 ----------------------------------------------------------------------
 #t hf aug-cc-pvdz symm=none int=(grid=ultrafine) guess=(read,tcheck) s
 table=(opt,rrhf)
 ----------------------------------------------------------------------
 -----
 title
 -----
 Symbolic Z-matrix:
 Charge =  0 Multiplicity = 1

 SCF Done:  E(RHF) =  -306.572890346     A.U. after   15 cycles
 Normal termination of Gaussian 16 at Wed Apr  9 19:14:04 2025.
 Gaussian 16:  ES64L-G16RevC.01  3-Jul-2019

 ----------------------------------------------------------------------
 #t hf aug-cc-pvdz iop(5/13=1,5/36=2,99/5=2) pseudo=read geom=check gue
 ss=(read,tcheck) scf=(maxcycle=1)
 ----------------------------------------------------------------------
 -----
 title
 -----
 Structure from the checkpoint file:  "Grambow2020_wb97xd3_008433_forward_mol1.chk"
 Charge =  0 Multiplicity = 1

                         Standard orientation:
 ---------------------------------------------------------------------
 Center     Atomic      Atomic             Coordinates (Angstroms)
 Number     Number       Type             X           Y           Z
 ---------------------------------------------------------------------
      1          6           0        1.022678   -0.729193   -0.812090
      2          6           0        1.162350    0.646982   -0.178927
      3          6           0       -0.241712    1.262939    0.048401
      4          8           0       -1.289573    0.536080   -0.511400
      5          6           0       -1.289924   -0.743337    0.111746
      6          6           0        0.160102   -1.062963    0.428039
      7          6           0        0.825853    0.133712    1.191241
      8          1           0        0.559735   -0.811181   -1.798263
      9          1           0        1.972848   -1.260133   -0.805518
     10          1           0        1.951321    1.362435   -0.396768
     11          1           0       -0.282645    2.321016   -0.192548
     12          1           0       -1.722799   -1.452423   -0.595442
     13          1           0       -1.901189   -0.717238    1.022394
     14          1           0        0.268232   -2.026313    0.925254
     15          1           0       -0.365003    1.246347    1.201629
 ---------------------------------------------------------------------

 SCF Done:  E(RHF) =  -308.019352094     A.U. after    2 cycles

 The electronic state is 1-A.
 Alpha  occ. eigenvalues --  -21.05926 -11.48698 -11.46439 -11.44571 -11.40826
 Alpha  occ. eigenvalues --  -11.40664 -11.36292  -1.79878  -1.36966  -1.12097
 Alpha  occ. eigenvalues --   -0.99066  -0.89145  -0.86070  -0.75538  -0.71827
 Alpha  occ. eigenvalues --   -0.65055  -0.62069  -0.56328  -0.54388  -0.50810
 Alpha  occ. eigenvalues --   -0.49997  -0.45785  -0.40124  -0.38727  -0.34051
 Alpha  occ. eigenvalues --   -0.27263
 Alpha virt. eigenvalues --    0.03728   0.04798   0.04912   0.05571   0.06044
 Alpha virt. eigenvalues --    0.06204   0.06636   0.07966   0.08990   0.11851
 Alpha virt. eigenvalues --    0.12363   0.12855   0.13033   0.13597   0.14207

 Mulliken charges:
               1
     1  C   -2.261185
     2  C   -1.547710
     3  C   -0.060139
     4  O   -3.198836
     5  C   -1.592291
     6  C   -2.306910
     7  C   -0.211787
     8  H    1.310829
     9  H    1.265444
    10  H    1.412181
    11  H    1.355370
    12  H    1.511098
    13  H    1.422125
    14  H    1.671760
    15  H    1.230052
 Sum of Mulliken charges =   0.00000

 Dipole moment (field-independent basis, Debye):
    X=             -0.6727    Y=             -0.2578    Z=             -2.0381  Tot=              2.1617

 Test job not archived.
 1\1\GINC-SE131\SP\RHF\Aug-CC-pVDZ\C6H8O1\OHZDE\09-Apr-2025\0\\#t hf au
 g-cc-pvdz iop(5/13=1,5/36=2,99/5=2) pseudo=read geom=check guess=(read
 ,tcheck) scf=(maxcycle=1)\\title\\0,1\C,0,0.76090227,1.13262231,0.3092
 5505\C,0,1.28152555,-0.14231181,-0.33708461\C,0,0.37773842,-1.33702548
 ,0.06078397\O,0,-0.57957032,-1.0409249,1.0280464\C,0,-1.42974565,-0.03
 926179,0.48115467\C,0,-0.55875004,0.80723359,-0.42966253\C,0,0.2417231
 6,-0.10773702,-1.41951328\H,0,0.73741978,1.19930987,1.39947449\H,0,1.2
 561956,2.00972756,-0.10321731\H,0,2.32952062,-0.38667259,-0.4913407\H,

 Normal termination of Gaussian 16 at Wed Apr  9 19:14:09 2025.
