 Gaussian 16, Revision C.01,

 ----------------------------------------------------------------------
 #t hf aug-cc-pvdz symm=none int=(grid=ultrafine) guess=(read,tcheck) s
 table=(opt,rrhf)
 ----------------------------------------------------------------------
 -----
 title
 -----
 Symbolic Z-matrix:
 Charge =  0 Multiplicity = 1

 SCF Done:  E(RHF) =  -245.618300321     A.U. after   18 cycles
 Normal termination of Gaussian 16 at Wed Apr  9 17:37:23 2025.
 Gaussian 16:  ES64L-G16RevC.01  3-Jul-2019

 ----------------------------------------------------------------------
 #t hf aug-cc-pvdz iop(5/13=1,5/36=2,99/5=2) pseudo=read geom=check gue
 ss=(read,tcheck) scf=(maxcycle=1)
 ----------------------------------------------------------------------
 -----
 title
 -----
 Structure from the checkpoint file:  "Grambow2020_b97d3_007206_forward_mol1.chk"
 Charge =  0 Multiplicity = 1

                         Standard orientation:
 ---------------------------------------------------------------------
 Center     Atomic      Atomic             Coordinates (Angstroms)
 Number     Number       Type             X           Y           Z
 ---------------------------------------------------------------------
      1          8           0       -1.885774   -0.488144   -0.233621
      2          6           0       -1.049330    0.118283    0.362654
      3          6           0        0.638338    0.013862    0.494356
      4          6           0        1.409713   -0.943324   -0.175689
      5          7           0        0.736265    1.266632   -0.267063
      6          1           0       -0.808544    1.339973    0.265272
      7          1           0        0.884046    0.167859    1.548958
      8          1           0        2.157987   -1.562355    0.321286
      9          1           0        1.257660   -1.109515   -1.242466
     10          1           0        0.448864    1.069837   -1.242570
 ---------------------------------------------------------------------

 SCF Done:  E(RHF) =  -246.741053718     A.U. after    2 cycles

 The electronic state is 1-A.
 Alpha  occ. eigenvalues --  -21.09139 -15.74659 -11.50143 -11.49171 -11.43876
 Alpha  occ. eigenvalues --   -1.72671  -1.36313  -1.07325  -0.91274  -0.80508
 Alpha  occ. eigenvalues --   -0.69255  -0.61586  -0.57166  -0.55856  -0.53457
 Alpha  occ. eigenvalues --   -0.46220  -0.40736  -0.29999  -0.29149
 Alpha virt. eigenvalues --    0.02189   0.03890   0.05162   0.05303   0.06747
 Alpha virt. eigenvalues --    0.07362   0.10266   0.11373   0.11889   0.12857
 Alpha virt. eigenvalues --    0.13169   0.13896   0.14302   0.15633   0.16857

 Mulliken charges:
               1
     1  O   -2.497595
     2  C    1.731046
     3  C   -1.725524
     4  C   -1.815622
     5  N   -1.571287
     6  H    0.954639
     7  H    1.456932
     8  H    1.444921
     9  H    1.335130
    10  H    0.687361
 Sum of Mulliken charges =  -0.00000

 Dipole moment (field-independent basis, Debye):
    X=              0.5404    Y=             -2.6931    Z=             -0.2212  Tot=              2.7557

 Test job not archived.
 1\1\GINC-SE454\SP\RHF\Aug-CC-pVDZ\C3H5N1O1\OHZDE\09-Apr-2025\0\\#t hf
 aug-cc-pvdz iop(5/13=1,5/36=2,99/5=2) pseudo=read geom=check guess=(re
 ad,tcheck) scf=(maxcycle=1)\\title\\0,1\O,0,1.34759348,-1.13260092,1.4
 97318\C,0,1.29861621,-0.45827571,0.51455564\C,0,0.07186832,-0.00553219
 ,-0.56552956\C,0,-1.25950039,-0.42124458,-0.44376746\N,0,0.15566258,1.
 35920036,-0.02769646\H,0,1.60332072,0.74993351,0.42867527\H,0,0.497459
 7,-0.06467664,-1.5713362\H,0,-1.82849592,-0.85322114,-1.26822961\H,0,-
 1.76594034,-0.33751546,0.51813749\H,0,-0.21722636,1.34428275,0.9385708

 Normal termination of Gaussian 16 at Wed Apr  9 17:37:26 2025.
