 Gaussian 16, Revision C.01,

 ----------------------------------------------------------------------
 #t hf aug-cc-pvdz symm=none int=(grid=ultrafine) guess=(read,tcheck) s
 table=(opt,rrhf)
 ----------------------------------------------------------------------
 -----
 title
 -----
 Symbolic Z-matrix:
 Charge =  0 Multiplicity = 1

 SCF Done:  E(RHF) =  -322.652023017     A.U. after   16 cycles
 Normal termination of Gaussian 16 at Wed Apr  9 03:33:23 2025.
 Gaussian 16:  ES64L-G16RevC.01  3-Jul-2019

 ----------------------------------------------------------------------
 #t hf aug-cc-pvdz iop(5/13=1,5/36=2,99/5=2) pseudo=read geom=check gue
 ss=(read,tcheck) scf=(maxcycle=1)
 ----------------------------------------------------------------------
 -----
 title
 -----
 Structure from the checkpoint file:  "Grambow2020_wb97xd3_007012_forward_mol1.chk"
 Charge =  0 Multiplicity = 1

                         Standard orientation:
 ---------------------------------------------------------------------
 Center     Atomic      Atomic             Coordinates (Angstroms)
 Number     Number       Type             X           Y           Z
 ---------------------------------------------------------------------
      1          6           0       -0.968904    0.926047    1.098655
      2          6           0        0.221203    0.879593   -0.738094
      3          6           0        1.536621    0.628889   -0.398928
      4          6           0        1.555190   -0.603826    0.254443
      5          7           0        0.334524   -1.090167    0.357788
      6          6           0       -0.664115   -0.202620   -0.276327
      7          8           0       -1.727681   -0.662144   -0.726472
      8          1           0       -1.491659    1.807565    0.739594
      9          1           0       -0.127525    1.181091    1.738844
     10          1           0       -1.677612    0.261129    1.585184
     11          1           0       -0.174089    1.738071   -1.258706
     12          1           0        2.386717    1.277682   -0.532915
     13          1           0        2.405971   -1.105567    0.695308
     14          1           0        0.078002   -2.000148    0.701455
 ---------------------------------------------------------------------

 SCF Done:  E(RHF) =  -324.161147151     A.U. after    2 cycles

 The electronic state is 1-A.
 Alpha  occ. eigenvalues --  -20.94867 -15.79666 -11.51546 -11.49142 -11.46291
 Alpha  occ. eigenvalues --  -11.40318 -11.38396  -1.65413  -1.48265  -1.18550
 Alpha  occ. eigenvalues --   -1.08018  -0.97357  -0.84282  -0.82737  -0.72234
 Alpha  occ. eigenvalues --   -0.61878  -0.60222  -0.58788  -0.58334  -0.54810
 Alpha  occ. eigenvalues --   -0.52845  -0.44207  -0.42748  -0.35559  -0.24510
 Alpha  occ. eigenvalues --   -0.21653
 Alpha virt. eigenvalues --    0.02837   0.04257   0.04732   0.04957   0.05816
 Alpha virt. eigenvalues --    0.06318   0.07082   0.08519   0.10307   0.11264
 Alpha virt. eigenvalues --    0.11598   0.12604   0.13054   0.13938   0.14699

 Mulliken charges:
               1
     1  C   -3.995795
     2  C   -1.834401
     3  C   -0.816851
     4  C   -0.337080
     5  N   -3.320064
     6  C    5.744156
     7  O   -4.054164
     8  H    1.095689
     9  H    1.550526
    10  H    1.034393
    11  H    1.487596
    12  H    1.269355
    13  H    1.410551
    14  H    0.766090
 Sum of Mulliken charges =  -0.00000

 Dipole moment (field-independent basis, Debye):
    X=              4.2662    Y=              0.0164    Z=              1.7734  Tot=              4.6202

 Test job not archived.
 1\1\GINC-SE292\SP\RHF\Aug-CC-pVDZ\C5H7N1O1\OHZDE\09-Apr-2025\0\\#t hf
 aug-cc-pvdz iop(5/13=1,5/36=2,99/5=2) pseudo=read geom=check guess=(re
 ad,tcheck) scf=(maxcycle=1)\\title\\0,1\C,0,-1.41777177,-0.41693253,0.
 50260328\C,0,-0.18420984,0.72709066,-0.89800191\C,0,0.80877124,1.36703
 664,-0.18199226\C,0,1.54880633,0.37145912,0.45675394\N,0,1.04368019,-0
 .81791156,0.19699108\C,0,-0.12010255,-0.73212522,-0.71150871\O,0,-0.41
 8536,-1.68368243,-1.45342685\H,0,-2.31481669,-0.07059966,-0.00201252\H
 ,0,-1.1665236,0.20092687,1.36163279\H,0,-1.53353475,-1.46593787,0.7619

 Normal termination of Gaussian 16 at Wed Apr  9 03:33:27 2025.
