 Gaussian 16, Revision C.01,

 ----------------------------------------------------------------------
 #t hf aug-cc-pvdz symm=none int=(grid=ultrafine) guess=(read,tcheck) s
 table=(opt,rrhf)
 ----------------------------------------------------------------------
 -----
 title
 -----
 Symbolic Z-matrix:
 Charge =  0 Multiplicity = 1

 SCF Done:  E(RHF) =  -343.481993792     A.U. after   16 cycles
 Normal termination of Gaussian 16 at Wed Apr  9 19:21:08 2025.
 Gaussian 16:  ES64L-G16RevC.01  3-Jul-2019

 ----------------------------------------------------------------------
 #t hf aug-cc-pvdz iop(5/13=1,5/36=2,99/5=2) pseudo=read geom=check gue
 ss=(read,tcheck) scf=(maxcycle=1)
 ----------------------------------------------------------------------
 -----
 title
 -----
 Structure from the checkpoint file:  "Grambow2020_wb97xd3_008657_forward_mol1.chk"
 Charge =  0 Multiplicity = 1

                         Standard orientation:
 ---------------------------------------------------------------------
 Center     Atomic      Atomic             Coordinates (Angstroms)
 Number     Number       Type             X           Y           Z
 ---------------------------------------------------------------------
      1          6           0       -2.417756    0.424955   -0.122158
      2          6           0       -1.019639   -0.599976    0.941270
      3          8           0       -0.934358   -0.287861   -0.754631
      4          6           0        0.123021   -0.164342    0.163357
      5          6           0        1.412571   -0.897668   -0.185988
      6          8           0        2.148451    0.332227   -0.106942
      7          6           0        0.977921    1.090164    0.241285
      8          1           0       -3.158866   -0.096639    0.472401
      9          1           0       -2.178857    1.393030    0.297636
     10          1           0       -2.749378    0.494671   -1.158636
     11          1           0       -1.071218   -1.695789    0.954996
     12          1           0        1.753682   -1.627155    0.553485
     13          1           0        1.433590   -1.336054   -1.186923
     14          1           0        0.743982    1.857097   -0.502725
     15          1           0        1.057614    1.537112    1.235754
 ---------------------------------------------------------------------

 SCF Done:  E(RHF) =  -345.057137633     A.U. after    2 cycles

 The electronic state is 1-A.
 Alpha  occ. eigenvalues --  -21.07940 -21.03678 -11.47577 -11.46912 -11.45417
 Alpha  occ. eigenvalues --  -11.41257 -11.38776  -1.80977  -1.73179  -1.09404
 Alpha  occ. eigenvalues --   -1.02831  -1.00455  -0.93833  -0.77215  -0.66978
 Alpha  occ. eigenvalues --   -0.66469  -0.60886  -0.59886  -0.58191  -0.57513
 Alpha  occ. eigenvalues --   -0.50152  -0.45629  -0.40410  -0.36605  -0.33579
 Alpha  occ. eigenvalues --   -0.29559  -0.27665
 Alpha virt. eigenvalues --    0.03640   0.04884   0.05166   0.05349   0.05843
 Alpha virt. eigenvalues --    0.06539   0.07134   0.07377   0.09109   0.11483
 Alpha virt. eigenvalues --    0.12173   0.12898   0.13312   0.13495   0.13818

 Mulliken charges:
               1
     1  C   -3.348262
     2  C   -2.177855
     3  O   -2.757890
     4  C    4.098861
     5  C   -1.893306
     6  O   -2.798174
     7  C   -1.508992
     8  H    1.207363
     9  H    1.380311
    10  H    1.284918
    11  H    1.147922
    12  H    1.357690
    13  H    1.283878
    14  H    1.346294
    15  H    1.377243
 Sum of Mulliken charges =   0.00000

 Dipole moment (field-independent basis, Debye):
    X=             -0.7980    Y=              0.0662    Z=             -1.7281  Tot=              1.9046

 Test job not archived.
 1\1\GINC-SE135\SP\RHF\Aug-CC-pVDZ\C5H8O2\OHZDE\09-Apr-2025\0\\#t hf au
 g-cc-pvdz iop(5/13=1,5/36=2,99/5=2) pseudo=read geom=check guess=(read
 ,tcheck) scf=(maxcycle=1)\\title\\0,1\C,0,2.18756181,-0.22859089,0.067
 40438\C,0,0.54324642,0.20261205,1.18382103\O,0,0.75913982,0.6553376,-0
 .46820715\C,0,-0.41245348,0.12265982,0.0971551\C,0,-1.69732205,0.90648
 149,-0.14260134\O,0,-2.30954139,-0.25174074,-0.7292157\C,0,-1.13894528
 ,-1.05985465,-0.52299152\H,0,2.76922864,-0.00046868,0.95308416\H,0,1.9
 8338195,-1.28791737,-0.01386613\H,0,2.68434141,0.1655336,-0.81972359\H

 Normal termination of Gaussian 16 at Wed Apr  9 19:21:13 2025.
