 Gaussian 16, Revision C.01,

 ----------------------------------------------------------------------
 #t hf aug-cc-pvdz symm=none int=(grid=ultrafine) guess=(read,tcheck) s
 table=(opt,rrhf)
 ----------------------------------------------------------------------
 -----
 title
 -----
 Symbolic Z-matrix:
 Charge =  0 Multiplicity = 1

 SCF Done:  E(RHF) =  -320.543495335     A.U. after   17 cycles
 Normal termination of Gaussian 16 at Wed Apr  9 17:22:14 2025.
 Gaussian 16:  ES64L-G16RevC.01  3-Jul-2019

 ----------------------------------------------------------------------
 #t hf aug-cc-pvdz iop(5/13=1,5/36=2,99/5=2) pseudo=read geom=check gue
 ss=(read,tcheck) scf=(maxcycle=1)
 ----------------------------------------------------------------------
 -----
 title
 -----
 Structure from the checkpoint file:  "Grambow2020_b97d3_007121_forward_mol1.chk"
 Charge =  0 Multiplicity = 1

                         Standard orientation:
 ---------------------------------------------------------------------
 Center     Atomic      Atomic             Coordinates (Angstroms)
 Number     Number       Type             X           Y           Z
 ---------------------------------------------------------------------
      1          6           0        2.237725   -0.635614   -0.010119
      2          7           0        0.712140   -0.631002    0.077109
      3          6           0       -0.109318    0.560655   -0.012140
      4          8           0        0.389196    1.682267    0.002176
      5          6           0       -1.558275    0.209051   -0.030547
      6          8           0       -1.970651   -0.953050   -0.015316
      7          1           0        1.120098   -0.826425    1.078969
      8          1           0        2.579012   -1.400975   -0.705470
      9          1           0        2.573549    0.389588   -0.153525
     10          1           0        0.202061   -1.472522   -0.221002
     11          1           0       -2.228852    1.089064   -0.116783
 ---------------------------------------------------------------------

 SCF Done:  E(RHF) =  -321.928342654     A.U. after    2 cycles

 The electronic state is 1-A.
 Alpha  occ. eigenvalues --  -21.13879 -21.12052 -15.83895 -11.57320 -11.52596
 Alpha  occ. eigenvalues --  -11.33833  -1.78443  -1.74407  -1.44996  -1.07460
 Alpha  occ. eigenvalues --   -0.93446  -0.82267  -0.75435  -0.70906  -0.62698
 Alpha  occ. eigenvalues --   -0.58029  -0.55590  -0.51953  -0.51032  -0.44263
 Alpha  occ. eigenvalues --   -0.40429  -0.33541  -0.24359
 Alpha virt. eigenvalues --    0.02914   0.05106   0.05371   0.06312   0.07002
 Alpha virt. eigenvalues --    0.07938   0.08937   0.09841   0.10697   0.11860
 Alpha virt. eigenvalues --    0.12124   0.13178   0.14353   0.15517   0.16526

 Mulliken charges:
               1
     1  C   -2.791041
     2  N   -2.789393
     3  C    4.820412
     4  O   -3.198201
     5  C    0.568343
     6  O   -2.592301
     7  H    1.042485
     8  H    1.248371
     9  H    1.335722
    10  H    0.753736
    11  H    1.601868
 Sum of Mulliken charges =  -0.00000

 Dipole moment (field-independent basis, Debye):
    X=             -3.8090    Y=             -0.1532    Z=             -0.7653  Tot=              3.8882

 Test job not archived.
 1\1\GINC-SE454\SP\RHF\Aug-CC-pVDZ\C3H5N1O2\OHZDE\09-Apr-2025\0\\#t hf
 aug-cc-pvdz iop(5/13=1,5/36=2,99/5=2) pseudo=read geom=check guess=(re
 ad,tcheck) scf=(maxcycle=1)\\title\\0,1\C,0,-1.09081948,1.58965283,0.0
 286901\N,0,0.01625709,0.54724678,0.17972617\C,0,-0.12592169,-0.8538621
 3,-0.16593938\O,0,-1.21908497,-1.33295797,-0.45263667\C,0,1.17482512,-
 1.57051339,-0.03211047\O,0,2.22451203,-1.00877499,0.28940294\H,0,-0.35
 883562,0.80784192,1.17959576\H,0,-0.71202304,2.48083895,-0.46937394\H,
 0,-1.97031163,1.09540941,-0.37947473\H,0,0.99417038,0.85973582,0.12278

 Normal termination of Gaussian 16 at Wed Apr  9 17:22:17 2025.
