 Gaussian 16, Revision C.01,

 ----------------------------------------------------------------------
 #t hf aug-cc-pvdz symm=none int=(grid=ultrafine) guess=(read,tcheck) s
 table=(opt,rrhf)
 ----------------------------------------------------------------------
 -----
 title
 -----
 Symbolic Z-matrix:
 Charge =  0 Multiplicity = 1

 SCF Done:  E(RHF) =  -342.485145914     A.U. after   17 cycles
 Normal termination of Gaussian 16 at Wed Apr  9 19:16:58 2025.
 Gaussian 16:  ES64L-G16RevC.01  3-Jul-2019

 ----------------------------------------------------------------------
 #t hf aug-cc-pvdz iop(5/13=1,5/36=2,99/5=2) pseudo=read geom=check gue
 ss=(read,tcheck) scf=(maxcycle=1)
 ----------------------------------------------------------------------
 -----
 title
 -----
 Structure from the checkpoint file:  "Grambow2020_wb97xd3_008522_reverse_mol2.chk"
 Charge =  0 Multiplicity = 1

                         Standard orientation:
 ---------------------------------------------------------------------
 Center     Atomic      Atomic             Coordinates (Angstroms)
 Number     Number       Type             X           Y           Z
 ---------------------------------------------------------------------
      1          8           0        2.314930   -0.012406    0.077127
      2          6           0        1.095697   -0.031883    0.005542
      3          6           0        0.321718   -1.221530    0.115816
      4          8           0       -1.009954   -1.196639   -0.110166
      5          6           0       -1.730669   -0.149671   -0.085047
      6          6           0       -1.103649    1.123764    0.303279
      7          6           0        0.295270    1.231991   -0.296553
      8          1           0        0.728619   -2.218316    0.098112
      9          1           0        0.255016    1.350102   -1.384615
     10          1           0       -2.780366   -0.321200   -0.279159
     11          1           0       -0.998036    1.088085    1.403471
     12          1           0       -1.747607    1.968637    0.062723
     13          1           0        0.832367    2.089031    0.105566
 ---------------------------------------------------------------------

 SCF Done:  E(RHF) =  -344.035652987     A.U. after    2 cycles

 The electronic state is 1-A.
 Alpha  occ. eigenvalues --  -21.20959 -20.99459 -11.52666 -11.47292 -11.44647
 Alpha  occ. eigenvalues --  -11.40092 -11.38003  -1.91211  -1.65776  -1.24490
 Alpha  occ. eigenvalues --   -1.11037  -0.95661  -0.88335  -0.77858  -0.69460
 Alpha  occ. eigenvalues --   -0.65124  -0.64392  -0.57732  -0.57019  -0.54799
 Alpha  occ. eigenvalues --   -0.53502  -0.47011  -0.42132  -0.41386  -0.25265
 Alpha  occ. eigenvalues --   -0.24441
 Alpha virt. eigenvalues --    0.02363   0.04021   0.04823   0.05661   0.06090
 Alpha virt. eigenvalues --    0.06793   0.07714   0.09857   0.11172   0.12021
 Alpha virt. eigenvalues --    0.12219   0.12789   0.13168   0.14136   0.14721

 Mulliken charges:
               1
     1  O   -3.570651
     2  C    4.823013
     3  C   -0.682986
     4  O   -4.041693
     5  C    1.097109
     6  C   -3.129649
     7  C   -3.288989
     8  H    1.689624
     9  H    1.325312
    10  H    1.729635
    11  H    1.382665
    12  H    1.340833
    13  H    1.325778
 Sum of Mulliken charges =   0.00000

 Dipole moment (field-independent basis, Debye):
    X=             -3.8774    Y=              0.7235    Z=             -0.3123  Tot=              3.9567

 Test job not archived.
 1\1\GINC-SE018\SP\RHF\Aug-CC-pVDZ\C5H6O2\OHZDE\09-Apr-2025\0\\#t hf au
 g-cc-pvdz iop(5/13=1,5/36=2,99/5=2) pseudo=read geom=check guess=(read
 ,tcheck) scf=(maxcycle=1)\\title\\0,1\O,0,1.52871656,1.88225604,0.9232
 0048\C,0,0.94618961,0.92440868,0.43820212\C,0,1.55174958,-0.35024046,0
 .25103983\O,0,0.90033512,-1.3275161,-0.41651505\C,0,-0.35472787,-1.356
 99869,-0.61689037\C,0,-1.1863443,-0.30556511,-0.00985507\C,0,-0.479877
 82,1.04448053,-0.09211628\H,0,2.60575223,-0.5460454,0.3520531\H,0,-0.4
 2320076,1.40305105,-1.12539482\H,0,-0.70312445,-2.22311914,-1.16225338

 Normal termination of Gaussian 16 at Wed Apr  9 19:17:02 2025.
