 Gaussian 16, Revision C.01,

 ----------------------------------------------------------------------
 #t hf aug-cc-pvdz symm=none int=(grid=ultrafine) guess=(read,tcheck) s
 table=(opt,rrhf)
 ----------------------------------------------------------------------
 -----
 title
 -----
 Symbolic Z-matrix:
 Charge =  0 Multiplicity = 1

 SCF Done:  E(RHF) =  -322.469544730     A.U. after   19 cycles
 Normal termination of Gaussian 16 at Wed Apr  9 18:10:46 2025.
 Gaussian 16:  ES64L-G16RevC.01  3-Jul-2019

 ----------------------------------------------------------------------
 #t hf aug-cc-pvdz iop(5/13=1,5/36=2,99/5=2) pseudo=read geom=check gue
 ss=(read,tcheck) scf=(maxcycle=1)
 ----------------------------------------------------------------------
 -----
 title
 -----
 Structure from the checkpoint file:  "Grambow2020_wb97xd3_006633_reverse_mol1.chk"
 Charge =  0 Multiplicity = 1

                         Standard orientation:
 ---------------------------------------------------------------------
 Center     Atomic      Atomic             Coordinates (Angstroms)
 Number     Number       Type             X           Y           Z
 ---------------------------------------------------------------------
      1          8           0        2.472544    0.460980   -0.061868
      2          6           0        1.311463    0.346190   -0.084090
      3          6           0        0.470002   -1.011114   -0.109713
      4          6           0       -0.536579   -1.004490    0.831387
      5          6           0       -1.057952    1.205477    0.582937
      6          6           0       -1.418739    0.492616   -0.712954
      7          7           0       -0.956583   -0.892146   -0.525673
      8          1           0        0.244600    1.063204    0.484594
      9          1           0        1.057819   -1.845708   -0.464317
     10          1           0       -0.871151   -1.552932    1.695983
     11          1           0       -0.954328    2.291852    0.489583
     12          1           0       -1.731934    1.008284    1.409461
     13          1           0       -0.943324    0.943157   -1.586374
     14          1           0       -2.495127    0.477259   -0.899680
 ---------------------------------------------------------------------

 SCF Done:  E(RHF) =  -323.989359651     A.U. after    2 cycles

 The electronic state is 1-A.
 Alpha  occ. eigenvalues --  -21.10416 -15.74690 -11.50854 -11.49163 -11.44789
 Alpha  occ. eigenvalues --  -11.43065 -11.39155  -1.74959  -1.52164  -1.14997
 Alpha  occ. eigenvalues --   -1.03055  -0.91805  -0.81741  -0.79043  -0.69370
 Alpha  occ. eigenvalues --   -0.66036  -0.61625  -0.56954  -0.55869  -0.53151
 Alpha  occ. eigenvalues --   -0.50543  -0.45697  -0.43242  -0.37913  -0.36150
 Alpha  occ. eigenvalues --   -0.22383
 Alpha virt. eigenvalues --    0.03005   0.04386   0.05427   0.05729   0.06071
 Alpha virt. eigenvalues --    0.06268   0.07566   0.07681   0.10054   0.10855
 Alpha virt. eigenvalues --    0.12173   0.12581   0.13312   0.13842   0.14282

 Mulliken charges:
               1
     1  O   -3.102948
     2  C    2.642935
     3  C   -1.024452
     4  C   -0.188124
     5  C   -3.791338
     6  C   -2.470907
     7  N   -1.717451
     8  H    2.605203
     9  H    1.266465
    10  H    0.906637
    11  H    0.811713
    12  H    1.146373
    13  H    1.555812
    14  H    1.360082
 Sum of Mulliken charges =  -0.00000

 Dipole moment (field-independent basis, Debye):
    X=              0.3392    Y=              0.5440    Z=              0.2428  Tot=              0.6856

 Test job not archived.
 1\1\GINC-SE029\SP\RHF\Aug-CC-pVDZ\C5H7N1O1\OHZDE\09-Apr-2025\0\\#t hf
 aug-cc-pvdz iop(5/13=1,5/36=2,99/5=2) pseudo=read geom=check guess=(re
 ad,tcheck) scf=(maxcycle=1)\\title\\0,1\O,0,2.01749391,1.84462938,0.85
 050472\C,0,1.15039881,1.12014787,0.55886468\C,0,0.2106035,1.19942247,-
 0.73012223\C,0,0.11982171,-0.01753194,-1.37019881\C,0,0.11418573,-1.27
 218887,0.53854828\C,0,-1.17038771,-0.4555416,0.51342174\N,0,-1.0497003
 9,0.405165,-0.67436873\H,0,0.94045161,-0.26282635,0.69674656\H,0,0.193
 71936,2.19120455,-1.15896086\H,0,0.32293597,-0.47284063,-2.32502475\H,

 Normal termination of Gaussian 16 at Wed Apr  9 18:10:50 2025.
