 Gaussian 16, Revision C.01,

 ----------------------------------------------------------------------
 #t hf aug-cc-pvdz symm=none int=(grid=ultrafine) guess=(read,tcheck) s
 table=(opt,rrhf)
 ----------------------------------------------------------------------
 -----
 title
 -----
 Symbolic Z-matrix:
 Charge =  0 Multiplicity = 1

 SCF Done:  E(RHF) =  -286.672450862     A.U. after   19 cycles
 Normal termination of Gaussian 16 at Wed Apr  9 19:02:06 2025.
 Gaussian 16:  ES64L-G16RevC.01  3-Jul-2019

 ----------------------------------------------------------------------
 #t hf aug-cc-pvdz iop(5/13=1,5/36=2,99/5=2) pseudo=read geom=check gue
 ss=(read,tcheck) scf=(maxcycle=1)
 ----------------------------------------------------------------------
 -----
 title
 -----
 Structure from the checkpoint file:  "Grambow2020_wb97xd3_008005_reverse_mol1.chk"
 Charge =  0 Multiplicity = 1

                         Standard orientation:
 ---------------------------------------------------------------------
 Center     Atomic      Atomic             Coordinates (Angstroms)
 Number     Number       Type             X           Y           Z
 ---------------------------------------------------------------------
      1          6           0       -2.786468   -0.268525   -0.058005
      2          6           0       -1.586440    0.565563    0.233171
      3          6           0       -0.333745    0.343326    0.031806
      4          6           0        0.912924    1.309141    0.054025
      5          6           0        1.905246    0.293062   -0.308386
      6          6           0        1.636828   -0.948234    0.439781
      7          7           0        0.398982   -0.865992   -0.317102
      8          1           0       -2.637948   -1.121789   -0.737319
      9          1           0       -3.589470    0.341529   -0.479400
     10          1           0       -3.183577   -0.661523    0.882812
     11          1           0        1.057633    1.694812    1.065919
     12          1           0        0.817810    2.130035   -0.651510
     13          1           0        2.529742    0.289852   -1.190736
     14          1           0        1.508177   -0.866356    1.522502
     15          1           0        2.238813   -1.808913    0.160122
     16          1           0       -0.024126   -1.701706   -0.707030
 ---------------------------------------------------------------------

 SCF Done:  E(RHF) =  -288.071478556     A.U. after    2 cycles

 The electronic state is 1-A.
 Alpha  occ. eigenvalues --  -15.78934 -11.54477 -11.46908 -11.42071 -11.37509
 Alpha  occ. eigenvalues --  -11.34806 -11.28110  -1.52187  -1.14337  -1.12996
 Alpha  occ. eigenvalues --   -1.02936  -0.89652  -0.85743  -0.78684  -0.66657
 Alpha  occ. eigenvalues --   -0.65368  -0.60172  -0.57366  -0.53174  -0.52734
 Alpha  occ. eigenvalues --   -0.51417  -0.50893  -0.45332  -0.38823  -0.26760
 Alpha  occ. eigenvalues --   -0.20320
 Alpha virt. eigenvalues --    0.02582   0.03740   0.04558   0.05042   0.05618
 Alpha virt. eigenvalues --    0.06370   0.06923   0.07234   0.08012   0.08673
 Alpha virt. eigenvalues --    0.10185   0.10700   0.11741   0.12646   0.12696

 Mulliken charges:
               1
     1  C   -4.555609
     2  C   -0.590248
     3  C    4.066518
     4  C   -3.632059
     5  C   -0.401638
     6  C   -3.294257
     7  N   -2.462346
     8  H    1.307490
     9  H    1.223703
    10  H    1.148220
    11  H    1.192162
    12  H    1.237961
    13  H    1.340334
    14  H    1.351668
    15  H    1.404987
    16  H    0.663114
 Sum of Mulliken charges =  -0.00000

 Dipole moment (field-independent basis, Debye):
    X=              6.5360    Y=             -3.6505    Z=             -1.3570  Tot=              7.6084

 Test job not archived.
 1\1\GINC-SE173\SP\RHF\Aug-CC-pVDZ\C6H9N1\OHZDE\09-Apr-2025\0\\#t hf au
 g-cc-pvdz iop(5/13=1,5/36=2,99/5=2) pseudo=read geom=check guess=(read
 ,tcheck) scf=(maxcycle=1)\\title\\0,1\C,0,2.62800783,0.71896169,0.1926
 6703\C,0,1.6033399,-0.3303837,0.45626586\C,0,0.33920462,-0.35776357,0.
 21051741\C,0,-0.69614856,-1.54751111,0.20571717\C,0,-1.8535467,-0.7468
 5241,-0.203961\C,0,-1.85778649,0.52880821,0.53447747\N,0,-0.60170976,0
 .68305716,-0.17992889\H,0,2.34057443,1.52162805,-0.50353262\H,0,3.5485
 0831,0.27353104,-0.19310635\H,0,2.90790547,1.1891297,1.14023104\H,0,-0

 Normal termination of Gaussian 16 at Wed Apr  9 19:02:11 2025.
