 Gaussian 16, Revision C.01,

 ----------------------------------------------------------------------
 #t hf aug-cc-pvdz symm=none int=(grid=ultrafine) guess=(read,tcheck) s
 table=(opt,rrhf)
 ----------------------------------------------------------------------
 -----
 title
 -----
 Symbolic Z-matrix:
 Charge =  0 Multiplicity = 1

 SCF Done:  E(RHF) =  -324.925425301     A.U. after   15 cycles
 Normal termination of Gaussian 16 at Wed Apr  9 19:10:11 2025.
 Gaussian 16:  ES64L-G16RevC.01  3-Jul-2019

 ----------------------------------------------------------------------
 #t hf aug-cc-pvdz iop(5/13=1,5/36=2,99/5=2) pseudo=read geom=check gue
 ss=(read,tcheck) scf=(maxcycle=1)
 ----------------------------------------------------------------------
 -----
 title
 -----
 Structure from the checkpoint file:  "Grambow2020_wb97xd3_008230_forward_mol1.chk"
 Charge =  0 Multiplicity = 1

                         Standard orientation:
 ---------------------------------------------------------------------
 Center     Atomic      Atomic             Coordinates (Angstroms)
 Number     Number       Type             X           Y           Z
 ---------------------------------------------------------------------
      1          6           0        1.655729    1.218758    0.458483
      2          6           0        1.937860   -0.164172    0.048160
      3          6           0        0.928451   -1.030553   -0.512296
      4          7           0       -0.323691   -1.029222    0.137894
      5          6           0       -1.138457   -0.013450   -0.186164
      6          8           0       -0.924456    0.804234   -1.094643
      7          6           0       -2.401894    0.084971    0.636289
      8          1           0        0.762386    1.272538    1.079430
      9          1           0        2.507367    1.689278    0.944460
     10          1           0        1.395289    1.775339   -0.453483
     11          1           0        2.979737   -0.440060   -0.114177
     12          1           0        1.484874   -0.937691    1.783732
     13          1           0        0.785860   -0.464066   -1.474861
     14          1           0        1.313482   -2.026078   -0.735726
     15          1           0        0.703260   -1.050266    1.624284
     16          1           0       -2.459798    1.079389    1.081328
     17          1           0       -2.438475   -0.674972    1.414393
     18          1           0       -3.262629   -0.026058   -0.024322
 ---------------------------------------------------------------------

 SCF Done:  E(RHF) =  -326.492387261     A.U. after    2 cycles

 The electronic state is 1-A.
 Alpha  occ. eigenvalues --  -20.97034 -15.66593 -11.56463 -11.44401 -11.43806
 Alpha  occ. eigenvalues --  -11.41816 -11.34705  -1.65852  -1.36815  -1.20860
 Alpha  occ. eigenvalues --   -1.07990  -1.00420  -0.85323  -0.74557  -0.71120
 Alpha  occ. eigenvalues --   -0.67351  -0.60030  -0.58825  -0.57262  -0.56867
 Alpha  occ. eigenvalues --   -0.54811  -0.53663  -0.48294  -0.46733  -0.42281
 Alpha  occ. eigenvalues --   -0.33773  -0.25376  -0.24303
 Alpha virt. eigenvalues --    0.02619   0.03613   0.03955   0.05014   0.05663
 Alpha virt. eigenvalues --    0.06002   0.06360   0.06929   0.07569   0.07922
 Alpha virt. eigenvalues --    0.08883   0.10612   0.11532   0.12196   0.12943

 Mulliken charges:
               1
     1  C   -4.282885
     2  C   -0.462350
     3  C   -2.239819
     4  N   -2.527037
     5  C    5.539994
     6  O   -3.288473
     7  C   -4.620856
     8  H    1.533160
     9  H    1.129291
    10  H    1.381985
    11  H    1.383801
    12  H    0.131927
    13  H    1.548822
    14  H    1.248800
    15  H   -0.340764
    16  H    1.262433
    17  H    1.393965
    18  H    1.208006
 Sum of Mulliken charges =  -0.00000

 Dipole moment (field-independent basis, Debye):
    X=              5.3543    Y=              0.7338    Z=              0.6369  Tot=              5.4418

 Test job not archived.
 1\1\GINC-SE454\SP\RHF\Aug-CC-pVDZ\C5H11N1O1\OHZDE\09-Apr-2025\0\\#t hf
  aug-cc-pvdz iop(5/13=1,5/36=2,99/5=2) pseudo=read geom=check guess=(r
 ead,tcheck) scf=(maxcycle=1)\\title\\0,1\C,0,-1.38608414,0.55435677,-1
 .07782932\C,0,-1.58398397,0.75820724,0.36430083\C,0,-0.49068554,0.7605
 048,1.3068102\N,0,0.46680238,-0.26409155,1.15179989\C,0,1.39430182,-0.
 04578631,0.20695187\O,0,1.54192954,1.02210133,-0.40750634\C,0,2.309259
 19,-1.21371889,-0.07796062\H,0,-0.75326044,-0.31078577,-1.27171416\H,0
 ,-2.32634342,0.48956169,-1.6205672\H,0,-0.80480114,1.4127714,-1.444608

 Normal termination of Gaussian 16 at Wed Apr  9 19:10:17 2025.
