 Gaussian 16, Revision C.01,

 ----------------------------------------------------------------------
 #t hf aug-cc-pvdz symm=none int=(grid=ultrafine) guess=(read,tcheck) s
 table=(opt,rrhf)
 ----------------------------------------------------------------------
 -----
 title
 -----
 Symbolic Z-matrix:
 Charge =  0 Multiplicity = 1

 SCF Done:  E(RHF) =  -268.693847294     A.U. after   15 cycles
 Normal termination of Gaussian 16 at Wed Apr  9 17:05:20 2025.
 Gaussian 16:  ES64L-G16RevC.01  3-Jul-2019

 ----------------------------------------------------------------------
 #t hf aug-cc-pvdz iop(5/13=1,5/36=2,99/5=2) pseudo=read geom=check gue
 ss=(read,tcheck) scf=(maxcycle=1)
 ----------------------------------------------------------------------
 -----
 title
 -----
 Structure from the checkpoint file:  "Grambow2020_b97d3_007039_reverse_mol1.chk"
 Charge =  0 Multiplicity = 1

                         Standard orientation:
 ---------------------------------------------------------------------
 Center     Atomic      Atomic             Coordinates (Angstroms)
 Number     Number       Type             X           Y           Z
 ---------------------------------------------------------------------
      1          6           0        3.130694    0.376836    0.114022
      2          6           0        1.750239   -0.076002   -0.053649
      3          6           0        0.592767   -0.450646   -0.191978
      4          6           0       -0.781657   -0.811953   -0.369172
      5          6           0       -1.753433   -0.461127    0.644177
      6          8           0       -2.436950    0.953335   -0.242250
      7          1           0        3.817504   -0.460140    0.316991
      8          1           0        3.501216    0.900197   -0.782167
      9          1           0        3.212800    1.078702    0.959262
     10          1           0       -1.546288    0.352631   -0.878025
     11          1           0       -1.007159   -1.692785   -0.973466
     12          1           0       -2.675714   -1.035027    0.724777
     13          1           0       -1.430603    0.011942    1.574448
     14          1           0       -2.007806    1.755146    0.135779
 ---------------------------------------------------------------------

 SCF Done:  E(RHF) =  -269.990507070     A.U. after    2 cycles

 The electronic state is 1-A.
 Alpha  occ. eigenvalues --  -21.07353 -11.49557 -11.43042 -11.41685 -11.37881
 Alpha  occ. eigenvalues --  -11.36542  -1.67345  -1.20619  -1.12009  -0.98131
 Alpha  occ. eigenvalues --   -0.87014  -0.70402  -0.66605  -0.61933  -0.57146
 Alpha  occ. eigenvalues --   -0.56975  -0.54769  -0.52720  -0.47971  -0.41443
 Alpha  occ. eigenvalues --   -0.37043  -0.33443  -0.23522
 Alpha virt. eigenvalues --    0.03107   0.04784   0.05427   0.05795   0.06148
 Alpha virt. eigenvalues --    0.06842   0.07012   0.08101   0.10007   0.10591
 Alpha virt. eigenvalues --    0.12338   0.12824   0.13395   0.14196   0.14931

 Mulliken charges:
               1
     1  C   -5.280503
     2  C    2.068284
     3  C    2.868273
     4  C   -3.956696
     5  C   -2.528584
     6  O   -1.773074
     7  H    0.942079
     8  H    0.892619
     9  H    0.857398
    10  H    1.527800
    11  H    0.878208
    12  H    1.298241
    13  H    1.319088
    14  H    0.886869
 Sum of Mulliken charges =  -0.00000

 Dipole moment (field-independent basis, Debye):
    X=             -1.4757    Y=              0.9440    Z=              1.2383  Tot=              2.1453

 Test job not archived.
 1\1\GINC-SE173\SP\RHF\Aug-CC-pVDZ\C5H8O1\OHZDE\09-Apr-2025\0\\#t hf au
 g-cc-pvdz iop(5/13=1,5/36=2,99/5=2) pseudo=read geom=check guess=(read
 ,tcheck) scf=(maxcycle=1)\\title\\0,1\C,0,2.97644906,-0.00130082,-0.08
 08815\C,0,1.55600549,0.28638523,0.11510012\C,0,0.36554483,0.5226586,0.
 27700481\C,0,-1.03841559,0.7198396,0.47948179\C,0,-1.97788511,0.292512
 73,-0.53495961\O,0,-2.48478377,-1.21724939,0.31199072\H,0,3.56127032,0
 .91416265,-0.26348831\H,0,3.41596496,-0.50673907,0.79416468\H,0,3.1260
 1105,-0.66273484,-0.94916919\H,0,-1.65931035,-0.53928143,0.95796989\H,

 Normal termination of Gaussian 16 at Wed Apr  9 17:05:28 2025.
