 Gaussian 16, Revision C.01,

 ----------------------------------------------------------------------
 #t hf aug-cc-pvdz symm=none int=(grid=ultrafine) guess=(read,tcheck) s
 table=(opt,rrhf)
 ----------------------------------------------------------------------
 -----
 title
 -----
 Symbolic Z-matrix:
 Charge =  0 Multiplicity = 1

 SCF Done:  E(RHF) =  -338.532222850     A.U. after   16 cycles
 Normal termination of Gaussian 16 at Wed Apr  9 03:40:26 2025.
 Gaussian 16:  ES64L-G16RevC.01  3-Jul-2019

 ----------------------------------------------------------------------
 #t hf aug-cc-pvdz iop(5/13=1,5/36=2,99/5=2) pseudo=read geom=check gue
 ss=(read,tcheck) scf=(maxcycle=1)
 ----------------------------------------------------------------------
 -----
 title
 -----
 Structure from the checkpoint file:  "Grambow2020_wb97xd3_007477_forward_mol1.chk"
 Charge =  0 Multiplicity = 1

                         Standard orientation:
 ---------------------------------------------------------------------
 Center     Atomic      Atomic             Coordinates (Angstroms)
 Number     Number       Type             X           Y           Z
 ---------------------------------------------------------------------
      1          6           0        2.322647    0.328401    0.336936
      2          8           0        1.372535   -0.435091   -0.395060
      3          6           0        0.085898   -0.119127   -0.157947
      4          6           0       -0.726681    1.108912   -0.397964
      5          7           0       -1.834564    0.764815    0.144378
      6          6           0       -1.419875   -0.474865    0.747861
      7          7           0       -0.899973   -1.189465   -0.394555
      8          1           0        2.183596    1.398710    0.165086
      9          1           0        3.303631    0.027053   -0.021810
     10          1           0        2.239746    0.116310    1.406564
     11          1           0       -0.498080    2.043783   -0.898202
     12          1           0       -0.167659   -0.132499    1.166898
     13          1           0       -0.471693   -2.060002   -0.080123
 ---------------------------------------------------------------------

 SCF Done:  E(RHF) =  -340.077865537     A.U. after    2 cycles

 The electronic state is 1-A.
 Alpha  occ. eigenvalues --  -21.10922 -15.76454 -15.74586 -11.54515 -11.46626
 Alpha  occ. eigenvalues --  -11.44471 -11.43538  -1.83452  -1.58109  -1.28974
 Alpha  occ. eigenvalues --   -1.05393  -0.96626  -0.92535  -0.75340  -0.73397
 Alpha  occ. eigenvalues --   -0.68158  -0.64197  -0.63400  -0.59117  -0.51325
 Alpha  occ. eigenvalues --   -0.49186  -0.42055  -0.41408  -0.39280  -0.36260
 Alpha  occ. eigenvalues --   -0.31355
 Alpha virt. eigenvalues --    0.02992   0.04699   0.05508   0.05846   0.06221
 Alpha virt. eigenvalues --    0.07636   0.09170   0.09648   0.10022   0.11651
 Alpha virt. eigenvalues --    0.12872   0.13463   0.13586   0.13995   0.14981

 Mulliken charges:
               1
     1  C   -3.110108
     2  O   -3.868844
     3  C    3.625046
     4  C    0.609528
     5  N   -2.296081
     6  C   -0.120516
     7  N   -1.981917
     8  H    1.322804
     9  H    1.291083
    10  H    1.300526
    11  H    1.322968
    12  H    1.227308
    13  H    0.678202
 Sum of Mulliken charges =   0.00000

 Dipole moment (field-independent basis, Debye):
    X=              4.2981    Y=              0.2479    Z=             -0.9817  Tot=              4.4157

 Test job not archived.
 1\1\GINC-SE173\SP\RHF\Aug-CC-pVDZ\C4H6N2O1\OHZDE\09-Apr-2025\0\\#t hf
 aug-cc-pvdz iop(5/13=1,5/36=2,99/5=2) pseudo=read geom=check guess=(re
 ad,tcheck) scf=(maxcycle=1)\\title\\0,1\C,0,-1.89355749,-0.29764648,-0
 .20247061\O,0,-0.86262652,-0.35134327,0.77515326\C,0,0.3531054,0.02844
 15,0.34012206\C,0,0.90278007,1.32290846,-0.15805971\N,0,2.08665764,0.9
 6207202,-0.48695499\C,0,1.95127886,-0.46024517,-0.30904271\N,0,1.50724
 103,-0.53602681,1.06323728\H,0,-1.97003576,0.7013562,-0.63901715\H,0,-
 2.81989087,-0.54163241,0.31154899\H,0,-1.70709791,-1.02892174,-0.99394

 Normal termination of Gaussian 16 at Wed Apr  9 03:40:30 2025.
