 Gaussian 16, Revision C.01,

 ----------------------------------------------------------------------
 #t hf aug-cc-pvdz symm=none int=(grid=ultrafine) guess=(read,tcheck) s
 table=(opt,rrhf)
 ----------------------------------------------------------------------
 -----
 title
 -----
 Symbolic Z-matrix:
 Charge =  0 Multiplicity = 1

 SCF Done:  E(RHF) =  -342.564020909     A.U. after   13 cycles
 Normal termination of Gaussian 16 at Wed Apr  9 19:28:59 2025.
 Gaussian 16:  ES64L-G16RevC.01  3-Jul-2019

 ----------------------------------------------------------------------
 #t hf aug-cc-pvdz iop(5/13=1,5/36=2,99/5=2) pseudo=read geom=check gue
 ss=(read,tcheck) scf=(maxcycle=1)
 ----------------------------------------------------------------------
 -----
 title
 -----
 Structure from the checkpoint file:  "Grambow2020_wb97xd3_009061_reverse_mol2.chk"
 Charge =  0 Multiplicity = 1

                         Standard orientation:
 ---------------------------------------------------------------------
 Center     Atomic      Atomic             Coordinates (Angstroms)
 Number     Number       Type             X           Y           Z
 ---------------------------------------------------------------------
      1          8           0        2.283843    0.000088    0.256065
      2          6           0        1.114843    0.000096   -0.004189
      3          6           0        0.258715    1.249976   -0.209235
      4          6           0       -1.148994    0.732856   -0.306235
      5          6           0       -1.149021   -0.733138   -0.306443
      6          8           0       -1.548054   -0.000046    0.843894
      7          6           0        0.258989   -1.250186   -0.209289
      8          1           0        0.575263    1.750525   -1.128568
      9          1           0        0.406980    1.945626    0.617553
     10          1           0       -1.930021   -1.314668   -0.783316
     11          1           0       -1.928788    1.316107   -0.783176
     12          1           0        0.575722   -1.751029   -1.128367
     13          1           0        0.407342   -1.944528    0.618542
 ---------------------------------------------------------------------

 SCF Done:  E(RHF) =  -344.087145333     A.U. after    2 cycles

 The electronic state is 1-A.
 Alpha  occ. eigenvalues --  -21.07326 -21.05922 -11.54930 -11.50882 -11.45749
 Alpha  occ. eigenvalues --  -11.42412 -11.39637  -1.81707  -1.71119  -1.23382
 Alpha  occ. eigenvalues --   -1.09502  -0.94680  -0.85530  -0.78683  -0.71308
 Alpha  occ. eigenvalues --   -0.63604  -0.61205  -0.57931  -0.56010  -0.52619
 Alpha  occ. eigenvalues --   -0.49925  -0.44271  -0.42407  -0.36815  -0.32550
 Alpha  occ. eigenvalues --   -0.28226
 Alpha virt. eigenvalues --    0.03486   0.04295   0.05287   0.05379   0.06585
 Alpha virt. eigenvalues --    0.06791   0.08674   0.10516   0.12232   0.12449
 Alpha virt. eigenvalues --    0.13317   0.13900   0.14125   0.14439   0.14606

 Mulliken charges:
               1
     1  O   -3.447817
     2  C    4.950698
     3  C   -4.147833
     4  C    0.623763
     5  C    0.620356
     6  O   -2.827482
     7  C   -4.146814
     8  H    1.393085
     9  H    1.312061
    10  H    1.482664
    11  H    1.482432
    12  H    1.392986
    13  H    1.311900
 Sum of Mulliken charges =   0.00000

 Dipole moment (field-independent basis, Debye):
    X=             -1.4388    Y=              0.0004    Z=             -0.8210  Tot=              1.6565

 Test job not archived.
 1\1\GINC-SE362\SP\RHF\Aug-CC-pVDZ\C5H6O2\OHZDE\09-Apr-2025\0\\#t hf au
 g-cc-pvdz iop(5/13=1,5/36=2,99/5=2) pseudo=read geom=check guess=(read
 ,tcheck) scf=(maxcycle=1)\\title\\0,1\O,0,0.65055397,-2.13110433,-1.06
 199263\C,0,0.36171512,-1.1074437,-0.51155086\C,0,-1.05090366,-0.532254
 24,-0.4073248\C,0,-0.85972721,0.83642673,0.18312478\C,0,0.54560956,1.0
 3592203,0.54969175\O,0,-0.0081144,1.66124276,-0.60021656\C,0,1.3459344
 8,-0.19223788,0.21746844\H,0,-1.65036058,-1.17765394,0.24077714\H,0,-1
 .52252178,-0.51612026,-1.39058832\H,0,0.84957546,1.70711261,1.34508723

 Normal termination of Gaussian 16 at Wed Apr  9 19:29:03 2025.
