 Gaussian 16, Revision C.01,

 ----------------------------------------------------------------------
 #t hf aug-cc-pvdz symm=none int=(grid=ultrafine) guess=(read,tcheck) s
 table=(opt,rrhf)
 ----------------------------------------------------------------------
 -----
 title
 -----
 Symbolic Z-matrix:
 Charge =  0 Multiplicity = 1

 SCF Done:  E(RHF) =  -286.782802998     A.U. after   16 cycles
 Normal termination of Gaussian 16 at Wed Apr  9 18:29:32 2025.
 Gaussian 16:  ES64L-G16RevC.01  3-Jul-2019

 ----------------------------------------------------------------------
 #t hf aug-cc-pvdz iop(5/13=1,5/36=2,99/5=2) pseudo=read geom=check gue
 ss=(read,tcheck) scf=(maxcycle=1)
 ----------------------------------------------------------------------
 -----
 title
 -----
 Structure from the checkpoint file:  "Grambow2020_wb97xd3_007182_reverse_mol2.chk"
 Charge =  0 Multiplicity = 1

                         Standard orientation:
 ---------------------------------------------------------------------
 Center     Atomic      Atomic             Coordinates (Angstroms)
 Number     Number       Type             X           Y           Z
 ---------------------------------------------------------------------
      1          6           0        2.381743   -0.871023    0.001871
      2          6           0        1.194917    0.043966   -0.000817
      3          6           0        1.274419    1.374016    0.000923
      4          6           0       -1.447579    1.383397    0.002107
      5          6           0       -1.215483    0.082461    0.000518
      6          6           0       -2.510589   -0.692285    0.001086
      7          7           0       -0.026781   -0.605394   -0.012144
      8          1           0        2.380944   -1.513332   -0.882506
      9          1           0        3.305711   -0.297742    0.005319
     10          1           0        2.374390   -1.514407    0.885611
     11          1           0        2.232402    1.873315    0.000524
     12          1           0        0.393815    2.020146    0.002536
     13          1           0       -2.572128   -1.320314    0.892194
     14          1           0       -3.364064   -0.013457    0.006266
     15          1           0       -2.574773   -1.312473   -0.895123
     16          1           0       -0.053385   -1.607169    0.036055
 ---------------------------------------------------------------------

 SCF Done:  E(RHF) =  -288.170483181     A.U. after    2 cycles

 The electronic state is 1-A.
 Alpha  occ. eigenvalues --  -15.77891 -11.46107 -11.44419 -11.40636 -11.39584
 Alpha  occ. eigenvalues --  -11.38960 -11.36609  -1.47288  -1.21024  -1.11102
 Alpha  occ. eigenvalues --   -1.02148  -0.96209  -0.81750  -0.72727  -0.67935
 Alpha  occ. eigenvalues --   -0.62132  -0.59048  -0.58505  -0.56956  -0.54925
 Alpha  occ. eigenvalues --   -0.51166  -0.50553  -0.49045  -0.39908  -0.35099
 Alpha  occ. eigenvalues --   -0.27743
 Alpha virt. eigenvalues --    0.03042   0.04090   0.05478   0.05747   0.05794
 Alpha virt. eigenvalues --    0.06544   0.06820   0.07267   0.08987   0.09346
 Alpha virt. eigenvalues --    0.10227   0.11893   0.12714   0.12903   0.13278

 Mulliken charges:
               1
     1  C   -5.143449
     2  C    4.726228
     3  C   -4.385152
     4  C   -2.362215
     5  C    5.215645
     6  C   -5.127500
     7  N   -4.805785
     8  H    1.215082
     9  H    1.340926
    10  H    1.207462
    11  H    1.479943
    12  H    1.831510
    13  H    1.178332
    14  H    1.440863
    15  H    1.187665
    16  H    1.000446
 Sum of Mulliken charges =   0.00000

 Dipole moment (field-independent basis, Debye):
    X=              1.0191    Y=             -4.4654    Z=              0.0506  Tot=              4.5805

 Test job not archived.
 1\1\GINC-SE103\SP\RHF\Aug-CC-pVDZ\C6H9N1\OHZDE\09-Apr-2025\0\\#t hf au
 g-cc-pvdz iop(5/13=1,5/36=2,99/5=2) pseudo=read geom=check guess=(read
 ,tcheck) scf=(maxcycle=1)\\title\\0,1\C,0,-2.36396246,-0.32435348,0.06
 594344\C,0,-1.04735076,0.3912225,0.08186194\C,0,-0.91385229,1.71184758
 ,0.19797249\C,0,1.77253557,1.29898025,0.0488963\C,0,1.33631564,0.05533
 382,-0.04785726\C,0,2.49028487,-0.90747428,-0.18528374\N,0,0.05467623,
 -0.43798532,-0.02902105\H,0,-2.42973748,-1.03834207,0.89091521\H,0,-3.
 18411911,0.38311641,0.16190786\H,0,-2.4950392,-0.87619534,-0.86855258\

 Normal termination of Gaussian 16 at Wed Apr  9 18:29:37 2025.
