 Gaussian 16, Revision C.01,

 ----------------------------------------------------------------------
 #t hf aug-cc-pvdz symm=none int=(grid=ultrafine) guess=(read,tcheck) s
 table=(opt,rrhf)
 ----------------------------------------------------------------------
 -----
 title
 -----
 Symbolic Z-matrix:
 Charge =  0 Multiplicity = 1

 SCF Done:  E(RHF) =  -283.551758258     A.U. after   15 cycles
 Normal termination of Gaussian 16 at Wed Apr  9 03:09:13 2025.
 Gaussian 16:  ES64L-G16RevC.01  3-Jul-2019

 ----------------------------------------------------------------------
 #t hf aug-cc-pvdz iop(5/13=1,5/36=2,99/5=2) pseudo=read geom=check gue
 ss=(read,tcheck) scf=(maxcycle=1)
 ----------------------------------------------------------------------
 -----
 title
 -----
 Structure from the checkpoint file:  "Grambow2020_b97d3_006652_reverse_mol1.chk"
 Charge =  0 Multiplicity = 1

                         Standard orientation:
 ---------------------------------------------------------------------
 Center     Atomic      Atomic             Coordinates (Angstroms)
 Number     Number       Type             X           Y           Z
 ---------------------------------------------------------------------
      1          7           0        2.743234    0.448832    0.104270
      2          6           0        1.729209   -0.109977   -0.061346
      3          6           0        0.437755   -0.776055   -0.241376
      4          6           0       -0.687856    0.040471    0.398062
      5          6           0       -1.351522    1.118687   -0.392215
      6          8           0       -2.017468   -0.503047    0.153124
      7          1           0        0.477707   -1.780163    0.207142
      8          1           0        0.232109   -0.886005   -1.315707
      9          1           0       -0.573368    0.159662    1.479365
     10          1           0       -1.827819    1.837550    0.301059
     11          1           0       -2.137031   -0.087254   -0.845497
 ---------------------------------------------------------------------

 SCF Done:  E(RHF) =  -284.834459457     A.U. after    2 cycles

 The electronic state is 1-A.
 Alpha  occ. eigenvalues --  -21.12426 -15.77464 -11.51373 -11.47469 -11.44098
 Alpha  occ. eigenvalues --  -11.42755  -1.79148  -1.32459  -1.18040  -1.01731
 Alpha  occ. eigenvalues --   -0.87544  -0.73963  -0.69530  -0.63811  -0.59122
 Alpha  occ. eigenvalues --   -0.55908  -0.52648  -0.45294  -0.44244  -0.43428
 Alpha  occ. eigenvalues --   -0.38516  -0.35694
 Alpha virt. eigenvalues --    0.03419   0.05135   0.05396   0.05881   0.06298
 Alpha virt. eigenvalues --    0.08582   0.09649   0.10380   0.10930   0.12480
 Alpha virt. eigenvalues --    0.12850   0.13298   0.14145   0.15045   0.15235

 Mulliken charges:
               1
     1  N   -2.340367
     2  C    2.063879
     3  C   -2.964984
     4  C    1.215918
     5  C   -2.301665
     6  O   -2.426778
     7  H    1.402489
     8  H    1.515826
     9  H    1.467138
    10  H    1.247944
    11  H    1.120600
 Sum of Mulliken charges =   0.00000

 Dipole moment (field-independent basis, Debye):
    X=             -3.2983    Y=             -2.5628    Z=              1.2641  Tot=              4.3641

 Test job not archived.
 1\1\GINC-SE029\SP\RHF\Aug-CC-pVDZ\C4H5N1O1\OHZDE\09-Apr-2025\0\\#t hf
 aug-cc-pvdz iop(5/13=1,5/36=2,99/5=2) pseudo=read geom=check guess=(re
 ad,tcheck) scf=(maxcycle=1)\\title\\0,1\N,0,2.97160704,0.4413618,0.512
 54079\C,0,1.98448589,-0.0831821,0.16846271\C,0,0.7237024,-0.70988168,-
 0.23352645\C,0,-0.46896625,0.02936762,0.37774185\C,0,-1.04803131,1.204
 39869,-0.33746767\O,0,-1.76122895,-0.46723573,-0.07691841\H,0,0.719624
 35,-1.76283587,0.08626965\H,0,0.63685828,-0.68170144,-1.32907666\H,0,-
 0.4735433,0.01027538,1.47142559\H,0,-1.60062849,1.83427851,0.3851235\H

 Normal termination of Gaussian 16 at Wed Apr  9 03:09:17 2025.
