 Gaussian 16, Revision C.01,

 ----------------------------------------------------------------------
 #t hf aug-cc-pvdz symm=none int=(grid=ultrafine) guess=(read,tcheck) s
 table=(opt,rrhf)
 ----------------------------------------------------------------------
 -----
 title
 -----
 Symbolic Z-matrix:
 Charge =  0 Multiplicity = 1

 SCF Done:  E(RHF) =  -302.895774149     A.U. after   15 cycles
 Normal termination of Gaussian 16 at Wed Apr  9 19:23:12 2025.
 Gaussian 16:  ES64L-G16RevC.01  3-Jul-2019

 ----------------------------------------------------------------------
 #t hf aug-cc-pvdz iop(5/13=1,5/36=2,99/5=2) pseudo=read geom=check gue
 ss=(read,tcheck) scf=(maxcycle=1)
 ----------------------------------------------------------------------
 -----
 title
 -----
 Structure from the checkpoint file:  "Grambow2020_wb97xd3_008850_reverse_mol2.chk"
 Charge =  0 Multiplicity = 1

                         Standard orientation:
 ---------------------------------------------------------------------
 Center     Atomic      Atomic             Coordinates (Angstroms)
 Number     Number       Type             X           Y           Z
 ---------------------------------------------------------------------
      1          6           0       -1.633158   -0.811992   -0.974341
      2          6           0       -1.186583    0.130336    0.104100
      3          6           0       -1.644172    1.369099    0.218331
      4          6           0        1.834899    0.054237   -0.186379
      5          7           0        2.491807    0.840754   -0.714728
      6          6           0       -0.167242   -0.399162    1.080742
      7          7           0        1.090730   -0.839770    0.467746
      8          1           0       -2.020323   -1.741730   -0.546559
      9          1           0       -2.413808   -0.366552   -1.589260
     10          1           0       -0.802128   -1.077278   -1.633496
     11          1           0       -1.288782    2.034401    0.996631
     12          1           0       -2.386294    1.764754   -0.465058
     13          1           0       -0.563275   -1.268550    1.611139
     14          1           0        0.071079    0.358668    1.827381
     15          1           0        1.103300   -1.765713    0.073375
 ---------------------------------------------------------------------

 SCF Done:  E(RHF) =  -304.335613959     A.U. after    2 cycles

 The electronic state is 1-A.
 Alpha  occ. eigenvalues --  -15.79736 -15.74024 -11.46417 -11.45273 -11.42349
 Alpha  occ. eigenvalues --  -11.39913 -11.37475  -1.46411  -1.27983  -1.22068
 Alpha  occ. eigenvalues --   -1.02804  -0.99789  -0.79302  -0.77519  -0.66218
 Alpha  occ. eigenvalues --   -0.65013  -0.62812  -0.57983  -0.55315  -0.54236
 Alpha  occ. eigenvalues --   -0.51237  -0.49975  -0.46435  -0.43048  -0.35870
 Alpha  occ. eigenvalues --   -0.33607
 Alpha virt. eigenvalues --    0.02677   0.04868   0.05060   0.05273   0.05679
 Alpha virt. eigenvalues --    0.05886   0.07363   0.08573   0.09874   0.10426
 Alpha virt. eigenvalues --    0.11440   0.11781   0.12969   0.13751   0.14066

 Mulliken charges:
               1
     1  C   -4.223957
     2  C    3.264759
     3  C   -4.731334
     4  C    3.461771
     5  N   -2.710994
     6  C   -3.507897
     7  N   -1.964791
     8  H    1.177449
     9  H    1.352791
    10  H    1.227877
    11  H    1.568467
    12  H    1.629311
    13  H    1.305767
    14  H    1.447885
    15  H    0.702896
 Sum of Mulliken charges =  -0.00000

 Dipole moment (field-independent basis, Debye):
    X=             -3.2118    Y=             -2.6643    Z=              1.2746  Tot=              4.3634

 Test job not archived.
 1\1\GINC-SE108\SP\RHF\Aug-CC-pVDZ\C5H8N2\OHZDE\09-Apr-2025\0\\#t hf au
 g-cc-pvdz iop(5/13=1,5/36=2,99/5=2) pseudo=read geom=check guess=(read
 ,tcheck) scf=(maxcycle=1)\\title\\0,1\C,0,-1.18867367,0.9750968,-0.766
 75576\C,0,0.09678721,0.84555391,-0.0043547\C,0,1.17551759,1.56631672,-
 0.27603712\C,0,0.64653892,-2.135865,-0.17298119\N,0,1.38204387,-2.6567
 1069,-0.89203927\C,0,0.11690816,-0.1653912,1.11405464\N,0,-0.17376654,
 -1.54116621,0.69555001\H,0,-2.02314748,1.19346198,-0.09349842\H,0,-1.1
 2934495,1.77056745,-1.50814892\H,0,-1.42850247,0.04747773,-1.29351726\

 Normal termination of Gaussian 16 at Wed Apr  9 19:23:17 2025.
