 Gaussian 16, Revision C.01,

 ----------------------------------------------------------------------
 #t hf aug-cc-pvdz symm=none int=(grid=ultrafine) guess=(read,tcheck) s
 table=(opt,rrhf)
 ----------------------------------------------------------------------
 -----
 title
 -----
 Symbolic Z-matrix:
 Charge =  0 Multiplicity = 1

 SCF Done:  E(RHF) =  -321.492924814     A.U. after   14 cycles
 Normal termination of Gaussian 16 at Wed Apr  9 19:09:41 2025.
 Gaussian 16:  ES64L-G16RevC.01  3-Jul-2019

 ----------------------------------------------------------------------
 #t hf aug-cc-pvdz iop(5/13=1,5/36=2,99/5=2) pseudo=read geom=check gue
 ss=(read,tcheck) scf=(maxcycle=1)
 ----------------------------------------------------------------------
 -----
 title
 -----
 Structure from the checkpoint file:  "Grambow2020_wb97xd3_008193_reverse_mol2.chk"
 Charge =  0 Multiplicity = 1

                         Standard orientation:
 ---------------------------------------------------------------------
 Center     Atomic      Atomic             Coordinates (Angstroms)
 Number     Number       Type             X           Y           Z
 ---------------------------------------------------------------------
      1          8           0        1.858642   -1.254388    0.086474
      2          6           0        0.515404   -1.213159   -0.297923
      3          6           0       -0.241049   -0.083491    0.433591
      4          6           0        0.345323    1.221903    0.116914
      5          6           0        0.877532    2.256805   -0.157850
      6          6           0       -2.739655   -0.225527   -0.223041
      7          7           0       -1.620917   -0.132942    0.085107
      8          1           0        2.300239   -0.465936   -0.240213
      9          1           0        0.388552   -1.076692   -1.377508
     10          1           0        0.066649   -2.164943   -0.013491
     11          1           0       -0.154712   -0.256502    1.509378
     12          1           0        1.331226    3.190596   -0.395863
 ---------------------------------------------------------------------

 SCF Done:  E(RHF) =  -322.938067850     A.U. after    2 cycles

 The electronic state is 1-A.
 Alpha  occ. eigenvalues --  -21.09243 -15.78624 -11.52397 -11.46620 -11.44208
 Alpha  occ. eigenvalues --  -11.43414 -11.42769  -1.74354  -1.43758  -1.19425
 Alpha  occ. eigenvalues --   -1.07832  -0.95152  -0.79822  -0.74529  -0.70851
 Alpha  occ. eigenvalues --   -0.64793  -0.61274  -0.56298  -0.48602  -0.47402
 Alpha  occ. eigenvalues --   -0.46560  -0.42763  -0.40406  -0.39986  -0.33960
 Alpha virt. eigenvalues --    0.02835   0.04721   0.05996   0.06270   0.06517
 Alpha virt. eigenvalues --    0.09281   0.09839   0.10121   0.10476   0.10629
 Alpha virt. eigenvalues --    0.11699   0.12210   0.13256   0.14060   0.14309

 Mulliken charges:
               1
     1  O   -2.609816
     2  C   -0.221329
     3  C   -2.574607
     4  C    5.320087
     5  C   -4.440349
     6  C   -0.515033
     7  N   -0.670955
     8  H    0.797457
     9  H    1.421156
    10  H    1.147940
    11  H    1.550512
    12  H    0.794938
 Sum of Mulliken charges =   0.00000

 Dipole moment (field-independent basis, Debye):
    X=              3.5269    Y=              0.6490    Z=              0.4458  Tot=              3.6137

 Test job not archived.
 1\1\GINC-SE113\SP\RHF\Aug-CC-pVDZ\C5H5N1O1\OHZDE\09-Apr-2025\0\\#t hf
 aug-cc-pvdz iop(5/13=1,5/36=2,99/5=2) pseudo=read geom=check guess=(re
 ad,tcheck) scf=(maxcycle=1)\\title\\0,1\O,0,-2.00772325,-0.082939,-0.3
 1566822\C,0,-0.95426608,-0.73914465,0.3272724\C,0,0.39645555,-0.427566
 58,-0.35239981\C,0,0.68110225,1.00938281,-0.30420818\C,0,0.85090437,2.
 19203568,-0.25663528\C,0,2.23081399,-1.83385177,0.81029689\N,0,1.42826
 769,-1.18413019,0.27281719\H,0,-1.91876617,0.86310555,-0.17257345\H,0,
 -0.87944111,-0.47944289,1.38895704\H,0,-1.13960632,-1.81010144,0.24435

 Normal termination of Gaussian 16 at Wed Apr  9 19:09:45 2025.
