 Gaussian 16, Revision C.01,

 ----------------------------------------------------------------------
 #t hf aug-cc-pvdz symm=none int=(grid=ultrafine) guess=(read,tcheck) s
 table=(opt,rrhf)
 ----------------------------------------------------------------------
 -----
 title
 -----
 Symbolic Z-matrix:
 Charge =  0 Multiplicity = 1

 SCF Done:  E(RHF) =  -345.934152033     A.U. after   14 cycles

 1\1\GINC-SE116\Stability\RHF\Aug-CC-pVDZ\C5H12O2\OHZDE\09-Apr-2025\0\\
 #t hf aug-cc-pvdz symm=none int=(grid=ultrafine) guess=(read,tcheck) s
 table=(opt,rrhf)\\title\\0,1\C,0,-1.69872177,-0.66756172,1.24078796\O,
 0,-0.38617385,-0.14922258,1.14835164\C,0,-0.14234066,0.58820123,-0.045
 27671\C,0,-0.42548587,2.06577988,0.13432022\C,0,1.3185996,0.32168918,-
 0.36615083\C,0,0.82590547,-1.933378,-1.46662971\O,0,1.57950049,-1.0854
 5294,-0.23997466\H,0,-2.4414886,0.13589766,1.28392317\H,0,-1.75098913,
 -1.24025404,2.1655236\H,0,-1.91326767,-1.32179969,0.39004832\H,0,-0.73

 Normal termination of Gaussian 16 at Wed Apr  9 19:02:15 2025.
 Gaussian 16:  ES64L-G16RevC.01  3-Jul-2019

 ----------------------------------------------------------------------
 #t hf aug-cc-pvdz iop(5/13=1,5/36=2,99/5=2) pseudo=read geom=check gue
 ss=(read,tcheck) scf=(maxcycle=1)
 ----------------------------------------------------------------------
 -----
 title
 -----
 Structure from the checkpoint file:  "Grambow2020_wb97xd3_008011_reverse_mol2.chk"
 Charge =  0 Multiplicity = 1

                         Standard orientation:
 ---------------------------------------------------------------------
 Center     Atomic      Atomic             Coordinates (Angstroms)
 Number     Number       Type             X           Y           Z
 ---------------------------------------------------------------------
      1          6           0       -1.360830    1.780362    0.095850
      2          8           0       -0.813476    0.664773   -0.579327
      3          6           0       -0.563907   -0.453232    0.266709
      4          6           0       -1.745070   -1.400924    0.315698
      5          6           0        0.671419   -1.110650   -0.324990
      6          6           0        2.275545    0.525987    0.809615
      7          8           0        1.652630   -0.100288   -0.608596
      8          1           0       -2.348706    1.550140    0.508416
      9          1           0       -1.467234    2.577039   -0.638880
     10          1           0       -0.693542    2.107386    0.899341
     11          1           0       -0.295747   -0.086381    1.261517
     12          1           0       -2.011662   -1.737563   -0.688021
     13          1           0       -2.615460   -0.912850    0.755562
     14          1           0       -1.511256   -2.274206    0.928512
     15          1           0        0.442981   -1.608613   -1.270632
     16          1           0        1.126652   -1.814759    0.367857
     17          1           0        2.907967    1.290013    0.327680
     18          1           0        2.983292   -0.297079    1.003665
     19          1           0        1.106537    0.641741   -0.928923
 ---------------------------------------------------------------------

 SCF Done:  E(RHF) =  -347.553148950     A.U. after    2 cycles

 The electronic state is 1-A.
 Alpha  occ. eigenvalues --  -21.12409 -21.05645 -11.47899 -11.43359 -11.41047
 Alpha  occ. eigenvalues --  -11.38141 -11.33311  -1.82585  -1.75023  -1.17880
 Alpha  occ. eigenvalues --   -1.01843  -0.98645  -0.90050  -0.84049  -0.70806
 Alpha  occ. eigenvalues --   -0.66315  -0.62847  -0.61253  -0.58789  -0.58278
 Alpha  occ. eigenvalues --   -0.56082  -0.52111  -0.48731  -0.48170  -0.45707
 Alpha  occ. eigenvalues --   -0.41922  -0.39502  -0.31608  -0.26090
 Alpha virt. eigenvalues --    0.03774   0.04798   0.04980   0.05382   0.05712
 Alpha virt. eigenvalues --    0.06105   0.06329   0.06646   0.07350   0.08968
 Alpha virt. eigenvalues --    0.09111   0.09878   0.12342   0.12787   0.13107

 Mulliken charges:
               1
     1  C   -3.008181
     2  O   -3.291511
     3  C    0.857260
     4  C   -4.264403
     5  C   -1.238163
     6  C   -2.743236
     7  O   -2.894148
     8  H    1.344565
     9  H    1.248892
    10  H    1.432871
    11  H    2.294604
    12  H    1.224024
    13  H    1.272506
    14  H    1.163487
    15  H    1.354173
    16  H    1.592906
    17  H    1.196134
    18  H    1.259620
    19  H    1.198600
 Sum of Mulliken charges =  -0.00000

 Dipole moment (field-independent basis, Debye):
    X=             -1.9259    Y=             -1.3027    Z=             -2.4075  Tot=              3.3470

 Test job not archived.
 1\1\GINC-SE116\SP\RHF\Aug-CC-pVDZ\C5H12O2\OHZDE\09-Apr-2025\0\\#t hf a
 ug-cc-pvdz iop(5/13=1,5/36=2,99/5=2) pseudo=read geom=check guess=(rea
 d,tcheck) scf=(maxcycle=1)\\title\\0,1\C,0,-1.69872177,-0.66756172,1.2
 4078796\O,0,-0.38617385,-0.14922258,1.14835164\C,0,-0.14234066,0.58820
 123,-0.04527671\C,0,-0.42548587,2.06577988,0.13432022\C,0,1.3185996,0.
 32168918,-0.36615083\C,0,0.82590547,-1.933378,-1.46662971\O,0,1.579500
 49,-1.08545294,-0.23997466\H,0,-2.4414886,0.13589766,1.28392317\H,0,-1
 .75098913,-1.24025404,2.1655236\H,0,-1.91326767,-1.32179969,0.39004832

 Normal termination of Gaussian 16 at Wed Apr  9 19:02:22 2025.
