 Gaussian 16, Revision C.01,

 ----------------------------------------------------------------------
 #t hf aug-cc-pvdz symm=none int=(grid=ultrafine) guess=(read,tcheck) s
 table=(opt,rrhf)
 ----------------------------------------------------------------------
 -----
 title
 -----
 Symbolic Z-matrix:
 Charge =  0 Multiplicity = 1

 SCF Done:  E(RHF) =  -338.587807673     A.U. after   15 cycles
 Normal termination of Gaussian 16 at Wed Apr  9 03:40:24 2025.
 Gaussian 16:  ES64L-G16RevC.01  3-Jul-2019

 ----------------------------------------------------------------------
 #t hf aug-cc-pvdz iop(5/13=1,5/36=2,99/5=2) pseudo=read geom=check gue
 ss=(read,tcheck) scf=(maxcycle=1)
 ----------------------------------------------------------------------
 -----
 title
 -----
 Structure from the checkpoint file:  "Grambow2020_wb97xd3_007489_forward_mol1.chk"
 Charge =  0 Multiplicity = 1

                         Standard orientation:
 ---------------------------------------------------------------------
 Center     Atomic      Atomic             Coordinates (Angstroms)
 Number     Number       Type             X           Y           Z
 ---------------------------------------------------------------------
      1          6           0        2.482867    0.323724    0.007593
      2          8           0        1.455207   -0.658818    0.017255
      3          6           0        0.215729   -0.153808   -0.004460
      4          6           0       -0.264215    1.134743   -0.086634
      5          7           0       -1.715868    0.926084   -0.074651
      6          6           0       -1.972459   -0.366208    0.032224
      7          7           0       -0.817442   -1.048547   -0.000344
      8          1           0        2.394954    0.957262   -0.877125
      9          1           0        3.422765   -0.223686   -0.003349
     10          1           0        2.420387    0.953782    0.897100
     11          1           0       -1.255663    1.690264    0.665814
     12          1           0       -2.943919   -0.832070    0.079640
     13          1           0       -0.718536   -2.048466   -0.067490
 ---------------------------------------------------------------------

 SCF Done:  E(RHF) =  -340.122013564     A.U. after    2 cycles

 The electronic state is 1-A.
 Alpha  occ. eigenvalues --  -21.08168 -15.83033 -15.74871 -11.45362 -11.44459
 Alpha  occ. eigenvalues --  -11.40758 -11.33800  -1.80943  -1.56979  -1.30938
 Alpha  occ. eigenvalues --   -1.07925  -0.98165  -0.89487  -0.78573  -0.73871
 Alpha  occ. eigenvalues --   -0.66999  -0.63596  -0.61349  -0.58747  -0.53320
 Alpha  occ. eigenvalues --   -0.47195  -0.44425  -0.39870  -0.38401  -0.32247
 Alpha  occ. eigenvalues --   -0.25008
 Alpha virt. eigenvalues --    0.03010   0.04902   0.05085   0.06574   0.07039
 Alpha virt. eigenvalues --    0.07445   0.09625   0.09912   0.10834   0.12420
 Alpha virt. eigenvalues --    0.12559   0.12866   0.13997   0.15380   0.15592

 Mulliken charges:
               1
     1  C   -3.353155
     2  O   -3.433217
     3  C    5.490681
     4  C   -1.374899
     5  N   -2.684002
     6  C    0.660062
     7  N   -2.966743
     8  H    1.427394
     9  H    1.368786
    10  H    1.372369
    11  H    1.049447
    12  H    1.542726
    13  H    0.900553
 Sum of Mulliken charges =  -0.00000

 Dipole moment (field-independent basis, Debye):
    X=             -0.5575    Y=             -4.7748    Z=              0.8358  Tot=              4.8794

 Test job not archived.
 1\1\GINC-SE252\SP\RHF\Aug-CC-pVDZ\C4H6N2O1\OHZDE\09-Apr-2025\0\\#t hf
 aug-cc-pvdz iop(5/13=1,5/36=2,99/5=2) pseudo=read geom=check guess=(re
 ad,tcheck) scf=(maxcycle=1)\\title\\0,1\C,0,-2.28437817,-0.04936413,-0
 .06668621\O,0,-1.14604363,-0.74365392,0.42699746\C,0,0.02024367,-0.147
 76404,0.15040877\C,0,0.335481,1.03759585,-0.47649742\N,0,1.80038085,1.
 0454713,-0.40588525\C,0,2.21697927,-0.06022997,0.1866929\N,0,1.1531061
 3,-0.76485138,0.6018983\H,0,-2.3199018,0.96212375,0.34252641\H,0,-3.15
 025282,-0.62443544,0.25384413\H,0,-2.25275908,0.01455852,-1.15618766\H

 Normal termination of Gaussian 16 at Wed Apr  9 03:40:28 2025.
