 Gaussian 16, Revision C.01,

 ----------------------------------------------------------------------
 #t hf aug-cc-pvdz symm=none int=(grid=ultrafine) guess=(read,tcheck) s
 table=(opt,rrhf)
 ----------------------------------------------------------------------
 -----
 title
 -----
 Symbolic Z-matrix:
 Charge =  0 Multiplicity = 1

 SCF Done:  E(RHF) =  -343.538260639     A.U. after   16 cycles
 Normal termination of Gaussian 16 at Wed Apr  9 18:48:46 2025.
 Gaussian 16:  ES64L-G16RevC.01  3-Jul-2019

 ----------------------------------------------------------------------
 #t hf aug-cc-pvdz iop(5/13=1,5/36=2,99/5=2) pseudo=read geom=check gue
 ss=(read,tcheck) scf=(maxcycle=1)
 ----------------------------------------------------------------------
 -----
 title
 -----
 Structure from the checkpoint file:  "Grambow2020_wb97xd3_007673_forward_mol1.chk"
 Charge =  0 Multiplicity = 1

                         Standard orientation:
 ---------------------------------------------------------------------
 Center     Atomic      Atomic             Coordinates (Angstroms)
 Number     Number       Type             X           Y           Z
 ---------------------------------------------------------------------
      1          6           0       -1.541754   -1.239347   -0.201451
      2          6           0       -0.407505   -0.628207    0.609356
      3          6           0        0.963985   -0.838947    0.001032
      4          8           0        1.102620    0.235496   -0.921426
      5          6           0        1.928810    0.191657    0.424873
      6          6           0       -0.370806    0.877040    0.556955
      7          8           0       -1.137925    1.575874   -0.191925
      8          1           0       -1.504034   -2.324171   -0.108561
      9          1           0       -1.430744   -1.018217   -1.268410
     10          1           0       -2.531169   -0.918566    0.134807
     11          1           0       -0.458638   -0.930421    1.661206
     12          1           0        1.205649   -1.829707   -0.387003
     13          1           0        2.935756   -0.107658    0.109946
     14          1           0        0.180998    1.440411    1.295165
     15          1           0       -1.551758    1.024198   -0.874935
 ---------------------------------------------------------------------

 SCF Done:  E(RHF) =  -345.107972570     A.U. after    2 cycles

 The electronic state is 1-A.
 Alpha  occ. eigenvalues --  -21.20055 -21.00506 -11.57585 -11.48011 -11.42616
 Alpha  occ. eigenvalues --  -11.40431 -11.32391  -1.86934  -1.71521  -1.24271
 Alpha  occ. eigenvalues --   -1.03815  -0.94986  -0.87918  -0.79518  -0.72807
 Alpha  occ. eigenvalues --   -0.69815  -0.64595  -0.60297  -0.56936  -0.54389
 Alpha  occ. eigenvalues --   -0.53247  -0.48177  -0.44836  -0.39890  -0.31681
 Alpha  occ. eigenvalues --   -0.31446  -0.22541
 Alpha virt. eigenvalues --    0.03020   0.04550   0.04683   0.05163   0.05421
 Alpha virt. eigenvalues --    0.05571   0.07108   0.07865   0.08737   0.10319
 Alpha virt. eigenvalues --    0.12106   0.12242   0.12818   0.13999   0.14644

 Mulliken charges:
               1
     1  C   -3.704944
     2  C   -3.208001
     3  C    1.544517
     4  O   -2.369042
     5  C   -1.734429
     6  C    2.707811
     7  O   -3.550364
     8  H    1.123992
     9  H    1.278940
    10  H    1.204638
    11  H    1.705461
    12  H    1.514003
    13  H    1.054321
    14  H    1.649847
    15  H    0.783249
 Sum of Mulliken charges =  -0.00000

 Dipole moment (field-independent basis, Debye):
    X=             -6.0727    Y=              0.0196    Z=             -1.1024  Tot=              6.1720

 Test job not archived.
 1\1\GINC-SE135\SP\RHF\Aug-CC-pVDZ\C5H8O2\OHZDE\09-Apr-2025\0\\#t hf au
 g-cc-pvdz iop(5/13=1,5/36=2,99/5=2) pseudo=read geom=check guess=(read
 ,tcheck) scf=(maxcycle=1)\\title\\0,1\C,0,1.60633357,-0.48850751,0.062
 98918\C,0,0.30988074,0.10037467,0.60136673\C,0,-0.26523299,1.20657786,
 -0.25945427\O,0,-1.03512997,0.51880309,-1.23863735\C,0,-1.72159144,1.3
 5212931,-0.08478769\C,0,-0.87209141,-0.82522356,0.4746006\O,0,-0.82601
 433,-1.94888121,-0.1360801\H,0,2.41017,0.23481854,0.19542866\H,0,1.538
 67191,-0.67909595,-1.01344901\H,0,1.90679058,-1.40584183,0.57595705\H,

 Normal termination of Gaussian 16 at Wed Apr  9 18:48:51 2025.
