 Gaussian 16, Revision C.01,

 ----------------------------------------------------------------------
 #t hf aug-cc-pvdz symm=none int=(grid=ultrafine) guess=(read,tcheck) s
 table=(opt,rrhf)
 ----------------------------------------------------------------------
 -----
 title
 -----
 Symbolic Z-matrix:
 Charge =  0 Multiplicity = 1

 SCF Done:  E(RHF) =  -338.581065030     A.U. after   16 cycles
 Normal termination of Gaussian 16 at Wed Apr  9 03:28:17 2025.
 Gaussian 16:  ES64L-G16RevC.01  3-Jul-2019

 ----------------------------------------------------------------------
 #t hf aug-cc-pvdz iop(5/13=1,5/36=2,99/5=2) pseudo=read geom=check gue
 ss=(read,tcheck) scf=(maxcycle=1)
 ----------------------------------------------------------------------
 -----
 title
 -----
 Structure from the checkpoint file:  "Grambow2020_wb97xd3_006694_reverse_mol1.chk"
 Charge =  0 Multiplicity = 1

                         Standard orientation:
 ---------------------------------------------------------------------
 Center     Atomic      Atomic             Coordinates (Angstroms)
 Number     Number       Type             X           Y           Z
 ---------------------------------------------------------------------
      1          6           0        2.279573   -0.327021    0.178154
      2          6           0        0.822107   -0.034263    0.157356
      3          6           0        0.204621    1.260468    0.152584
      4          7           0       -1.046484    1.184985   -0.228449
      5          6           0       -1.142474   -0.178124   -0.388759
      6          7           0       -1.672053   -0.933603    0.548953
      7          8           0        0.028552   -0.749234   -0.763404
      8          1           0        2.752055   -0.065272   -0.771897
      9          1           0        2.752178    0.261005    0.966181
     10          1           0        2.461983   -1.381969    0.377202
     11          1           0        0.641045    2.180934    0.519588
     12          1           0       -0.389136   -0.668904    1.137833
     13          1           0       -2.399735   -0.417957    1.038788
 ---------------------------------------------------------------------

 SCF Done:  E(RHF) =  -340.140854177     A.U. after    2 cycles

 The electronic state is 1-A.
 Alpha  occ. eigenvalues --  -21.09344 -15.77082 -15.74812 -11.51792 -11.49067
 Alpha  occ. eigenvalues --  -11.44298 -11.40237  -1.88721  -1.42621  -1.31834
 Alpha  occ. eigenvalues --   -1.15142  -0.98395  -0.83682  -0.80526  -0.73002
 Alpha  occ. eigenvalues --   -0.67518  -0.60211  -0.58785  -0.57223  -0.52970
 Alpha  occ. eigenvalues --   -0.48291  -0.45804  -0.43001  -0.38186  -0.36199
 Alpha  occ. eigenvalues --   -0.30175
 Alpha virt. eigenvalues --    0.03429   0.04913   0.05364   0.05969   0.06217
 Alpha virt. eigenvalues --    0.07267   0.08384   0.09316   0.09920   0.10972
 Alpha virt. eigenvalues --    0.12258   0.13050   0.13148   0.14217   0.14398

 Mulliken charges:
               1
     1  C   -4.035732
     2  C    1.630368
     3  C    0.062307
     4  N   -2.978701
     5  C    5.156002
     6  N   -2.474656
     7  O   -3.221704
     8  H    1.058118
     9  H    1.091718
    10  H    1.187613
    11  H    1.305997
    12  H    0.575197
    13  H    0.643472
 Sum of Mulliken charges =   0.00000

 Dipole moment (field-independent basis, Debye):
    X=              1.7889    Y=              0.5825    Z=              0.4706  Tot=              1.9393

 Test job not archived.
 1\1\GINC-SE094\SP\RHF\Aug-CC-pVDZ\C4H6N2O1\OHZDE\09-Apr-2025\0\\#t hf
 aug-cc-pvdz iop(5/13=1,5/36=2,99/5=2) pseudo=read geom=check guess=(re
 ad,tcheck) scf=(maxcycle=1)\\title\\0,1\C,0,-1.79978479,0.50629197,0.2
 0476465\C,0,-0.41235915,0.1023088,-0.14480016\C,0,0.00156156,-1.145116
 58,-0.71946612\N,0,1.20333022,-1.05237641,-1.23259322\C,0,1.48396507,0
 .25113209,-0.89334543\N,0,2.21498811,0.53238223,0.16354141\O,0,0.37841
 906,1.03442153,-0.84804147\H,0,-2.40243461,0.67742227,-0.69071144\H,0,
 -2.26989953,-0.28982821,0.78381681\H,0,-1.80132298,1.41620322,0.802985

 Normal termination of Gaussian 16 at Wed Apr  9 03:28:21 2025.
