 Gaussian 16, Revision C.01,

 ----------------------------------------------------------------------
 #t hf aug-cc-pvdz symm=none int=(grid=ultrafine) guess=(read,tcheck) s
 table=(opt,rrhf)
 ----------------------------------------------------------------------
 -----
 title
 -----
 Symbolic Z-matrix:
 Charge =  0 Multiplicity = 1

 SCF Done:  E(RHF) =  -324.986071510     A.U. after   15 cycles
 Normal termination of Gaussian 16 at Wed Apr  9 19:06:08 2025.
 Gaussian 16:  ES64L-G16RevC.01  3-Jul-2019

 ----------------------------------------------------------------------
 #t hf aug-cc-pvdz iop(5/13=1,5/36=2,99/5=2) pseudo=read geom=check gue
 ss=(read,tcheck) scf=(maxcycle=1)
 ----------------------------------------------------------------------
 -----
 title
 -----
 Structure from the checkpoint file:  "Grambow2020_wb97xd3_008097_forward_mol1.chk"
 Charge =  0 Multiplicity = 1

                         Standard orientation:
 ---------------------------------------------------------------------
 Center     Atomic      Atomic             Coordinates (Angstroms)
 Number     Number       Type             X           Y           Z
 ---------------------------------------------------------------------
      1          6           0        2.335744   -0.494598    0.217742
      2          6           0        1.717846    0.744175    0.040277
      3          7           0       -0.165706    0.618421   -0.261630
      4          6           0       -0.896562    1.834958   -0.014692
      5          6           0       -0.707966   -0.544338   -0.116667
      6          8           0        0.009148   -1.611973   -0.264197
      7          6           0       -2.149917   -0.752991    0.245361
      8          1           0        2.575154   -0.817145    1.224280
      9          1           0        2.978762   -0.866161   -0.572414
     10          1           0        1.056790   -1.288714   -0.118456
     11          1           0        1.889569    1.297221   -0.876557
     12          1           0        1.559404    1.387351    0.901577
     13          1           0       -0.233996    2.681539   -0.207620
     14          1           0       -1.755915    1.934302   -0.682418
     15          1           0       -1.251601    1.921680    1.018311
     16          1           0       -2.383141   -1.813672    0.197105
     17          1           0       -2.806671   -0.203087   -0.429626
     18          1           0       -2.336467   -0.389715    1.258675
 ---------------------------------------------------------------------

 SCF Done:  E(RHF) =  -326.569646606     A.U. after    2 cycles

 The electronic state is 1-A.
 Alpha  occ. eigenvalues --  -21.05027 -15.71726 -11.50350 -11.45313 -11.39960
 Alpha  occ. eigenvalues --  -11.39139 -11.31313  -1.75447  -1.38492  -1.14263
 Alpha  occ. eigenvalues --   -1.08911  -1.00349  -0.84614  -0.76417  -0.66060
 Alpha  occ. eigenvalues --   -0.65173  -0.62802  -0.61938  -0.57678  -0.56754
 Alpha  occ. eigenvalues --   -0.54065  -0.52230  -0.48844  -0.47946  -0.44795
 Alpha  occ. eigenvalues --   -0.41283  -0.30345  -0.22775
 Alpha virt. eigenvalues --    0.03278   0.04892   0.05287   0.05534   0.05862
 Alpha virt. eigenvalues --    0.06197   0.06875   0.07209   0.07914   0.08606
 Alpha virt. eigenvalues --    0.09066   0.10607   0.12274   0.12476   0.13232

 Mulliken charges:
               1
     1  C   -3.769185
     2  C   -2.843866
     3  N   -2.891284
     4  C   -3.627484
     5  C    5.193513
     6  O   -3.896435
     7  C   -4.071955
     8  H    1.160894
     9  H    1.178459
    10  H    2.415322
    11  H    1.441062
    12  H    1.557678
    13  H    1.452920
    14  H    1.515212
    15  H    1.452931
    16  H    1.190630
    17  H    1.295823
    18  H    1.245763
 Sum of Mulliken charges =   0.00000

 Dipole moment (field-independent basis, Debye):
    X=             -2.6890    Y=              1.4127    Z=              0.0801  Tot=              3.0386

 Test job not archived.
 1\1\GINC-SE454\SP\RHF\Aug-CC-pVDZ\C5H11N1O1\OHZDE\09-Apr-2025\0\\#t hf
  aug-cc-pvdz iop(5/13=1,5/36=2,99/5=2) pseudo=read geom=check guess=(r
 ead,tcheck) scf=(maxcycle=1)\\title\\0,1\C,0,-2.23375189,-0.00416332,-
 1.03576513\C,0,-1.79271805,-0.1954189,0.2744872\N,0,0.10423801,-0.3837
 9272,0.41872632\C,0,0.63352978,-0.14432865,1.73690679\C,0,0.79971159,-
 0.16162417,-0.64618011\O,0,0.25612337,-0.30709511,-1.81203292\C,0,2.23
 121654,0.29036983,-0.62835014\H,0,-2.48610779,0.99912956,-1.35855414\H
 ,0,-2.76526931,-0.81430939,-1.52262171\H,0,-0.83442811,-0.23458584,-1.

 Normal termination of Gaussian 16 at Wed Apr  9 19:06:14 2025.
