 Gaussian 16, Revision C.01,

 ----------------------------------------------------------------------
 #t hf aug-cc-pvdz symm=none int=(grid=ultrafine) guess=(read,tcheck) s
 table=(opt,rrhf)
 ----------------------------------------------------------------------
 -----
 title
 -----
 Symbolic Z-matrix:
 Charge =  0 Multiplicity = 1

 SCF Done:  E(RHF) =  -305.883948317     A.U. after   14 cycles
 Normal termination of Gaussian 16 at Wed Apr  9 17:19:20 2025.
 Gaussian 16:  ES64L-G16RevC.01  3-Jul-2019

 ----------------------------------------------------------------------
 #t hf aug-cc-pvdz iop(5/13=1,5/36=2,99/5=2) pseudo=read geom=check gue
 ss=(read,tcheck) scf=(maxcycle=1)
 ----------------------------------------------------------------------
 -----
 title
 -----
 Structure from the checkpoint file:  "Grambow2020_b97d3_007098_reverse_mol2.chk"
 Charge =  0 Multiplicity = 1

                         Standard orientation:
 ---------------------------------------------------------------------
 Center     Atomic      Atomic             Coordinates (Angstroms)
 Number     Number       Type             X           Y           Z
 ---------------------------------------------------------------------
      1          6           0       -1.832771   -1.234235   -0.066691
      2          6           0       -1.675193   -0.009952    0.470115
      3          6           0       -1.647587    1.280856   -0.293903
      4          8           0        1.686048    1.101830    0.168818
      5          6           0        2.126790   -0.014304   -0.025059
      6          8           0        1.413161   -1.149082   -0.149501
      7          1           0        0.449145   -0.928456   -0.051182
      8          1           0       -1.843697   -2.133722    0.550280
      9          1           0       -1.980887   -1.369667   -1.140207
     10          1           0       -1.537840    0.072905    1.553126
     11          1           0       -0.671956    1.770744   -0.161016
     12          1           0       -2.418071    1.971510    0.081921
     13          1           0       -1.817501    1.118839   -1.366831
     14          1           0        3.199703   -0.258324   -0.127406
 ---------------------------------------------------------------------

 SCF Done:  E(RHF) =  -307.261115310     A.U. after    2 cycles

 The electronic state is 1-A.
 Alpha  occ. eigenvalues --  -21.11966 -21.06242 -11.51172 -11.43259 -11.39272
 Alpha  occ. eigenvalues --  -11.36904  -1.81296  -1.65275  -1.20432  -0.99664
 Alpha  occ. eigenvalues --   -0.88172  -0.79455  -0.64953  -0.64603  -0.60253
 Alpha  occ. eigenvalues --   -0.57292  -0.56640  -0.53966  -0.50541  -0.47924
 Alpha  occ. eigenvalues --   -0.46546  -0.35647  -0.33734  -0.31059
 Alpha virt. eigenvalues --    0.03885   0.05013   0.05491   0.05785   0.05941
 Alpha virt. eigenvalues --    0.06677   0.08125   0.08931   0.10515   0.11286
 Alpha virt. eigenvalues --    0.11961   0.12381   0.14066   0.14711   0.15183

 Mulliken charges:
               1
     1  C   -3.363653
     2  C   -0.865035
     3  C   -4.204128
     4  O   -2.559649
     5  C    2.458766
     6  O   -2.896496
     7  H    1.559248
     8  H    1.448955
     9  H    1.471230
    10  H    1.439373
    11  H    1.291254
    12  H    1.167608
    13  H    1.361059
    14  H    1.691469
 Sum of Mulliken charges =   0.00000

 Dipole moment (field-independent basis, Debye):
    X=             -0.6707    Y=             -0.5894    Z=             -0.0051  Tot=              0.8929

 Test job not archived.
 1\1\GINC-SE173\SP\RHF\Aug-CC-pVDZ\C4H8O2\OHZDE\09-Apr-2025\0\\#t hf au
 g-cc-pvdz iop(5/13=1,5/36=2,99/5=2) pseudo=read geom=check guess=(read
 ,tcheck) scf=(maxcycle=1)\\title\\0,1\C,0,-0.72836406,1.66305369,-0.12
 943992\C,0,-1.13106536,0.41666392,-0.43960814\C,0,-1.52085273,-0.64503
 328,0.54605726\O,0,1.53199073,-1.912591,-0.11175928\C,0,2.39599385,-1.
 0583611,-0.14900351\O,0,2.20674632,0.27362471,-0.19872273\H,0,1.229433
 51,0.45385908,-0.20535227\H,0,-0.45941042,2.38703925,-0.89973795\H,0,-
 0.68011712,2.00362911,0.90709174\H,0,-1.16960205,0.12645051,-1.4945652

 Normal termination of Gaussian 16 at Wed Apr  9 17:19:23 2025.
