 Gaussian 16, Revision C.01,

 ----------------------------------------------------------------------
 #t hf aug-cc-pvdz symm=none int=(grid=ultrafine) guess=(read,tcheck) s
 table=(opt,rrhf)
 ----------------------------------------------------------------------
 -----
 title
 -----
 Symbolic Z-matrix:
 Charge =  0 Multiplicity = 1

 SCF Done:  E(RHF) =  -295.757499011     A.U. after   15 cycles
 Normal termination of Gaussian 16 at Wed Apr  9 16:17:40 2025.
 Gaussian 16:  ES64L-G16RevC.01  3-Jul-2019

 ----------------------------------------------------------------------
 #t hf aug-cc-pvdz iop(5/13=1,5/36=2,99/5=2) pseudo=read geom=check gue
 ss=(read,tcheck) scf=(maxcycle=1)
 ----------------------------------------------------------------------
 -----
 title
 -----
 Structure from the checkpoint file:  "Grambow2020_b97d3_006779_forward_mol1.chk"
 Charge =  0 Multiplicity = 1

                         Standard orientation:
 ---------------------------------------------------------------------
 Center     Atomic      Atomic             Coordinates (Angstroms)
 Number     Number       Type             X           Y           Z
 ---------------------------------------------------------------------
      1          7           0       -2.017620   -0.018590    0.106723
      2          6           0       -0.646952   -0.034513   -0.003052
      3          7           0        0.096661   -1.130720   -0.025930
      4          7           0        1.376711   -0.615894    0.028169
      5          6           0        1.465489    0.730867   -0.071321
      6          7           0        0.107382    1.142793   -0.092867
      7          1           0       -2.452241    0.776072   -0.352093
      8          1           0       -2.454697   -0.907584   -0.119480
      9          1           0        2.150316   -1.272478    0.043574
     10          1           0        0.903462    1.582737    0.761571
 ---------------------------------------------------------------------

 SCF Done:  E(RHF) =  -297.096246574     A.U. after    2 cycles

 The electronic state is 1-A.
 Alpha  occ. eigenvalues --  -15.80793 -15.78473 -15.76883 -15.76138 -11.47530
 Alpha  occ. eigenvalues --  -11.41217  -1.64365  -1.38498  -1.32216  -1.16181
 Alpha  occ. eigenvalues --   -0.87870  -0.82231  -0.75135  -0.67169  -0.64651
 Alpha  occ. eigenvalues --   -0.59013  -0.48871  -0.48232  -0.45041  -0.40824
 Alpha  occ. eigenvalues --   -0.36931  -0.30780
 Alpha virt. eigenvalues --    0.03690   0.05019   0.06136   0.06449   0.10177
 Alpha virt. eigenvalues --    0.10766   0.11560   0.12281   0.13618   0.13851
 Alpha virt. eigenvalues --    0.14042   0.15985   0.16426   0.17899   0.18162

 Mulliken charges:
               1
     1  N   -2.763737
     2  C    4.698189
     3  N   -1.790202
     4  N   -1.305761
     5  C   -0.080342
     6  N   -2.192556
     7  H    0.599927
     8  H    0.605491
     9  H    0.874179
    10  H    1.354810
 Sum of Mulliken charges =  -0.00000

 Dipole moment (field-independent basis, Debye):
    X=             -1.8724    Y=             -1.3846    Z=              0.0587  Tot=              2.3294

 Test job not archived.
 1\1\GINC-SE042\SP\RHF\Aug-CC-pVDZ\C2H4N4\OHZDE\09-Apr-2025\0\\#t hf au
 g-cc-pvdz iop(5/13=1,5/36=2,99/5=2) pseudo=read geom=check guess=(read
 ,tcheck) scf=(maxcycle=1)\\title\\0,1\N,0,1.84450932,0.10322295,-0.334
 32765\C,0,0.50572543,-0.02706344,-0.04846636\N,0,-0.1803537,-1.1566125
 5,-0.1410373\N,0,-1.47529953,-0.72990813,0.07699334\C,0,-1.60513338,0.
 5650912,0.44802394\N,0,-0.27646715,1.0579854,0.36864308\H,0,2.30692004
 ,0.82589518,0.2086423\H,0,2.34636943,-0.7802455,-0.34594708\H,0,-2.214
 92982,-1.42355546,0.03691104\H,0,-1.20478064,1.59435935,-0.2700223\\Ve

 Normal termination of Gaussian 16 at Wed Apr  9 16:17:43 2025.
