 Gaussian 16, Revision C.01,

 ----------------------------------------------------------------------
 #t hf aug-cc-pvdz symm=none int=(grid=ultrafine) guess=(read,tcheck) s
 table=(opt,rrhf)
 ----------------------------------------------------------------------
 -----
 title
 -----
 Symbolic Z-matrix:
 Charge =  0 Multiplicity = 1

 SCF Done:  E(RHF) =  -339.784418850     A.U. after   15 cycles
 Normal termination of Gaussian 16 at Wed Apr  9 18:00:10 2025.
 Gaussian 16:  ES64L-G16RevC.01  3-Jul-2019

 ----------------------------------------------------------------------
 #t hf aug-cc-pvdz iop(5/13=1,5/36=2,99/5=2) pseudo=read geom=check gue
 ss=(read,tcheck) scf=(maxcycle=1)
 ----------------------------------------------------------------------
 -----
 title
 -----
 Structure from the checkpoint file:  "Grambow2020_wb97xd3_006542_reverse_mol1.chk"
 Charge =  0 Multiplicity = 1

                         Standard orientation:
 ---------------------------------------------------------------------
 Center     Atomic      Atomic             Coordinates (Angstroms)
 Number     Number       Type             X           Y           Z
 ---------------------------------------------------------------------
      1          6           0        1.451312   -1.697937   -0.374930
      2          7           0        0.609234   -1.069290    0.631400
      3          6           0       -0.053807    0.130813    0.187993
      4          6           0       -1.400811    0.342197    0.677394
      5          8           0       -2.220601   -0.184687   -0.667686
      6          6           0        0.751115    1.291148   -0.057778
      7          7           0        1.433219    2.194032   -0.281365
      8          1           0        2.219627   -1.030007   -0.786405
      9          1           0        1.947767   -2.565912    0.061880
     10          1           0        0.830465   -2.044314   -1.204377
     11          1           0        1.162755   -0.891263    1.460819
     12          1           0       -1.116513   -0.221739   -0.931105
     13          1           0       -1.759376    1.362052    0.755406
     14          1           0       -1.757143   -0.317656    1.463281
     15          1           0       -2.546800   -1.084180   -0.524341
 ---------------------------------------------------------------------

 SCF Done:  E(RHF) =  -341.377937373     A.U. after    2 cycles

 The electronic state is 1-A.
 Alpha  occ. eigenvalues --  -21.14478 -15.73114 -15.72449 -11.51824 -11.43597
 Alpha  occ. eigenvalues --  -11.38772 -11.38592  -1.77901  -1.40232  -1.26982
 Alpha  occ. eigenvalues --   -1.13603  -0.97026  -0.89874  -0.76578  -0.72103
 Alpha  occ. eigenvalues --   -0.64773  -0.61157  -0.59096  -0.55654  -0.52291
 Alpha  occ. eigenvalues --   -0.49747  -0.49093  -0.48434  -0.45165  -0.41003
 Alpha  occ. eigenvalues --   -0.34530  -0.27169
 Alpha virt. eigenvalues --    0.03111   0.04411   0.04451   0.05531   0.06195
 Alpha virt. eigenvalues --    0.06538   0.07516   0.08483   0.09890   0.11018
 Alpha virt. eigenvalues --    0.11568   0.12185   0.12726   0.13679   0.14702

 Mulliken charges:
               1
     1  C   -3.630803
     2  N   -3.020476
     3  C    1.516531
     4  C   -2.391748
     5  O   -1.991603
     6  C    2.073833
     7  N   -2.603288
     8  H    1.402434
     9  H    1.224989
    10  H    1.314499
    11  H    0.591560
    12  H    1.620814
    13  H    1.532481
    14  H    1.529511
    15  H    0.831265
 Sum of Mulliken charges =   0.00000

 Dipole moment (field-independent basis, Debye):
    X=             -4.9313    Y=             -3.6221    Z=              0.8578  Tot=              6.1784

 Test job not archived.
 1\1\GINC-SE229\SP\RHF\Aug-CC-pVDZ\C4H8N2O1\OHZDE\09-Apr-2025\0\\#t hf
 aug-cc-pvdz iop(5/13=1,5/36=2,99/5=2) pseudo=read geom=check guess=(re
 ad,tcheck) scf=(maxcycle=1)\\title\\0,1\C,0,-1.73781422,0.6020834,0.88
 817755\N,0,-0.55138665,-0.23205079,1.00481134\C,0,0.16724743,-0.421405
 19,-0.22976989\C,0,1.61225113,-0.46249854,-0.13547644\O,0,1.91906497,1
 .1001049,-0.60774626\C,0,-0.45225707,-1.21104763,-1.25317464\N,0,-0.99
 591398,-1.8203437,-2.06782262\H,0,-2.45706889,0.24312242,0.14013276\H,
 0,-2.24137906,0.6493855,1.85504614\H,0,-1.44361233,1.61649759,0.609214

 Normal termination of Gaussian 16 at Wed Apr  9 18:00:15 2025.
