 Gaussian 16, Revision C.01,

 ----------------------------------------------------------------------
 #t hf aug-cc-pvdz symm=none int=(grid=ultrafine) guess=(read,tcheck) s
 table=(opt,rrhf)
 ----------------------------------------------------------------------
 -----
 title
 -----
 Symbolic Z-matrix:
 Charge =  0 Multiplicity = 1

 SCF Done:  E(RHF) =  -304.578255143     A.U. after   17 cycles
 Normal termination of Gaussian 16 at Wed Apr  9 03:16:22 2025.
 Gaussian 16:  ES64L-G16RevC.01  3-Jul-2019

 ----------------------------------------------------------------------
 #t hf aug-cc-pvdz iop(5/13=1,5/36=2,99/5=2) pseudo=read geom=check gue
 ss=(read,tcheck) scf=(maxcycle=1)
 ----------------------------------------------------------------------
 -----
 title
 -----
 Structure from the checkpoint file:  "Grambow2020_b97d3_007014_reverse_mol1.chk"
 Charge =  0 Multiplicity = 1

                         Standard orientation:
 ---------------------------------------------------------------------
 Center     Atomic      Atomic             Coordinates (Angstroms)
 Number     Number       Type             X           Y           Z
 ---------------------------------------------------------------------
      1          8           0       -1.754266   -1.041888    0.143944
      2          6           0       -1.536372    0.145530   -0.476306
      3          6           0       -0.813991    1.089766    0.461927
      4          6           0        0.417710    0.691652   -0.345755
      5          6           0        1.337315   -0.309464    0.230255
      6          8           0        2.526031   -0.399879   -0.051710
      7          1           0       -2.074952   -1.665785   -0.537573
      8          1           0       -0.367142    0.122073   -1.261857
      9          1           0       -1.090969    2.140787    0.350401
     10          1           0       -0.794935    0.782197    1.513965
     11          1           0        0.875009    1.461139   -0.973700
     12          1           0        0.850890   -1.011179    0.950166
 ---------------------------------------------------------------------

 SCF Done:  E(RHF) =  -305.949799808     A.U. after    2 cycles

 The electronic state is 1-A.
 Alpha  occ. eigenvalues --  -21.13083 -21.06414 -11.49654 -11.46066 -11.44523
 Alpha  occ. eigenvalues --  -11.40469  -1.77780  -1.69931  -1.26812  -0.98627
 Alpha  occ. eigenvalues --   -0.84491  -0.82326  -0.68903  -0.63505  -0.60086
 Alpha  occ. eigenvalues --   -0.55352  -0.54080  -0.51347  -0.48946  -0.43510
 Alpha  occ. eigenvalues --   -0.40832  -0.31233  -0.28328
 Alpha virt. eigenvalues --    0.03670   0.05244   0.05573   0.05887   0.06446
 Alpha virt. eigenvalues --    0.07071   0.08608   0.10652   0.11334   0.12454
 Alpha virt. eigenvalues --    0.13358   0.13962   0.14515   0.15072   0.15370

 Mulliken charges:
               1
     1  O   -2.456960
     2  C    1.131929
     3  C   -2.924798
     4  C   -2.321316
     5  C    1.491807
     6  O   -2.781323
     7  H    0.795190
     8  H    1.610072
     9  H    1.348845
    10  H    1.430788
    11  H    1.201069
    12  H    1.474696
 Sum of Mulliken charges =  -0.00000

 Dipole moment (field-independent basis, Debye):
    X=             -1.0869    Y=             -0.3657    Z=              0.8668  Tot=              1.4375

 Test job not archived.
 1\1\GINC-SE051\SP\RHF\Aug-CC-pVDZ\C4H6O2\OHZDE\09-Apr-2025\0\\#t hf au
 g-cc-pvdz iop(5/13=1,5/36=2,99/5=2) pseudo=read geom=check guess=(read
 ,tcheck) scf=(maxcycle=1)\\title\\0,1\O,0,-1.58449822,1.16153839,0.072
 96828\C,0,-1.26494151,0.03961398,-0.62080337\C,0,0.13908481,0.1615011,
 -1.17537772\C,0,0.50968716,-0.72856766,0.00714745\C,0,1.10972493,-0.09
 452575,1.19779335\O,0,1.83759669,-0.67198398,1.99621072\H,0,-2.4240548
 4,0.97921171,0.54035841\H,0,-0.78250566,-0.98082629,0.22222589\H,0,0.2
 8652091,-0.31587694,-2.14706313\H,0,0.56894776,1.16953436,-1.14652708\

 Normal termination of Gaussian 16 at Wed Apr  9 03:16:26 2025.
