 Gaussian 16, Revision C.01,

 ----------------------------------------------------------------------
 #t hf aug-cc-pvdz symm=none int=(grid=ultrafine) guess=(read,tcheck) s
 table=(opt,rrhf)
 ----------------------------------------------------------------------
 -----
 title
 -----
 Symbolic Z-matrix:
 Charge =  0 Multiplicity = 1

 SCF Done:  E(RHF) =  -322.500449377     A.U. after   16 cycles
 Normal termination of Gaussian 16 at Wed Apr  9 18:10:41 2025.
 Gaussian 16:  ES64L-G16RevC.01  3-Jul-2019

 ----------------------------------------------------------------------
 #t hf aug-cc-pvdz iop(5/13=1,5/36=2,99/5=2) pseudo=read geom=check gue
 ss=(read,tcheck) scf=(maxcycle=1)
 ----------------------------------------------------------------------
 -----
 title
 -----
 Structure from the checkpoint file:  "Grambow2020_wb97xd3_006632_reverse_mol1.chk"
 Charge =  0 Multiplicity = 1

                         Standard orientation:
 ---------------------------------------------------------------------
 Center     Atomic      Atomic             Coordinates (Angstroms)
 Number     Number       Type             X           Y           Z
 ---------------------------------------------------------------------
      1          8           0        2.564364    0.348444    0.207520
      2          6           0        1.851911    0.120575   -0.679557
      3          6           0        0.266103   -0.907343    0.093225
      4          6           0       -0.611642   -0.149958    0.988903
      5          6           0       -1.099557    1.138271    0.340109
      6          6           0       -1.601303    0.242066   -0.809370
      7          7           0       -1.176352   -1.013026   -0.110377
      8          1           0        1.015651   -0.258848   -1.286247
      9          1           0        0.710044   -1.823157    0.479548
     10          1           0       -0.744279   -0.407430    2.033227
     11          1           0       -0.345493    1.897154    0.124369
     12          1           0       -1.916916    1.607358    0.884726
     13          1           0       -1.148844    0.375926   -1.796309
     14          1           0       -2.683678    0.250949   -0.926692
 ---------------------------------------------------------------------

 SCF Done:  E(RHF) =  -323.998911362     A.U. after    2 cycles

 The electronic state is 1-A.
 Alpha  occ. eigenvalues --  -21.14625 -15.71738 -11.54456 -11.50037 -11.43747
 Alpha  occ. eigenvalues --  -11.40051 -11.36666  -1.77898  -1.52116  -1.10153
 Alpha  occ. eigenvalues --   -1.00460  -0.95360  -0.79663  -0.78235  -0.69973
 Alpha  occ. eigenvalues --   -0.63345  -0.61611  -0.57480  -0.55079  -0.52772
 Alpha  occ. eigenvalues --   -0.50395  -0.49141  -0.41426  -0.40408  -0.32149
 Alpha  occ. eigenvalues --   -0.24784
 Alpha virt. eigenvalues --    0.03652   0.05166   0.05620   0.05838   0.06104
 Alpha virt. eigenvalues --    0.06698   0.07061   0.08691   0.10491   0.11056
 Alpha virt. eigenvalues --    0.12029   0.13172   0.13325   0.13869   0.13977

 Mulliken charges:
               1
     1  O   -2.092059
     2  C    0.260875
     3  C   -1.310902
     4  C   -0.125806
     5  C   -3.224466
     6  C   -2.243352
     7  N   -1.690094
     8  H    2.339705
     9  H    1.499301
    10  H    1.364798
    11  H    1.323591
    12  H    1.121548
    13  H    1.447986
    14  H    1.328873
 Sum of Mulliken charges =   0.00000

 Dipole moment (field-independent basis, Debye):
    X=              0.8776    Y=              1.3110    Z=             -0.0272  Tot=              1.5779

 Test job not archived.
 1\1\GINC-SE173\SP\RHF\Aug-CC-pVDZ\C5H7N1O1\OHZDE\09-Apr-2025\0\\#t hf
 aug-cc-pvdz iop(5/13=1,5/36=2,99/5=2) pseudo=read geom=check guess=(re
 ad,tcheck) scf=(maxcycle=1)\\title\\0,1\O,0,2.72857545,0.81552279,0.73
 404805\C,0,1.67398527,1.20634146,1.01956292\C,0,0.47894498,0.90729339,
 -0.60863972\C,0,0.19420338,-0.48990899,-0.94487603\C,0,-0.36216708,-1.
 25289945,0.24962262\C,0,-1.43146549,-0.1449331,0.32204427\N,0,-0.90445
 73,0.5412176,-0.90102081\H,0,0.61462119,1.50177637,0.9767607\H,0,0.927
 36053,1.52949812,-1.38118724\H,0,0.50697888,-0.94212935,-1.87877404\H,

 Normal termination of Gaussian 16 at Wed Apr  9 18:10:46 2025.
