 Gaussian 16, Revision C.01,

 ----------------------------------------------------------------------
 #t hf aug-cc-pvdz symm=none int=(grid=ultrafine) guess=(read,tcheck) s
 table=(opt,rrhf)
 ----------------------------------------------------------------------
 -----
 title
 -----
 Symbolic Z-matrix:
 Charge =  0 Multiplicity = 1

 SCF Done:  E(RHF) =  -324.890274045     A.U. after   15 cycles
 Normal termination of Gaussian 16 at Wed Apr  9 19:26:26 2025.
 Gaussian 16:  ES64L-G16RevC.01  3-Jul-2019

 ----------------------------------------------------------------------
 #t hf aug-cc-pvdz iop(5/13=1,5/36=2,99/5=2) pseudo=read geom=check gue
 ss=(read,tcheck) scf=(maxcycle=1)
 ----------------------------------------------------------------------
 -----
 title
 -----
 Structure from the checkpoint file:  "Grambow2020_wb97xd3_008966_reverse_mol1.chk"
 Charge =  0 Multiplicity = 1

                         Standard orientation:
 ---------------------------------------------------------------------
 Center     Atomic      Atomic             Coordinates (Angstroms)
 Number     Number       Type             X           Y           Z
 ---------------------------------------------------------------------
      1          6           0       -1.964935   -1.418561    0.195540
      2          6           0       -1.807520    0.013304   -0.279361
      3          7           0       -0.735912    0.677916    0.447924
      4          6           0       -0.121660    1.808303   -0.250759
      5          6           0        0.579710    0.524862   -0.131599
      6          6           0        1.729745    0.159888    0.626777
      7          8           0        2.230012   -1.120950   -0.478231
      8          1           0       -2.785898   -1.916833   -0.323530
      9          1           0       -2.162493   -1.449534    1.268476
     10          1           0       -1.051977   -1.987953    0.000857
     11          1           0       -1.611498    0.025317   -1.363253
     12          1           0       -2.732295    0.571038   -0.102505
     13          1           0       -0.530545    2.079779   -1.221470
     14          1           0        0.132376    2.653238    0.382587
     15          1           0        1.323219   -0.656005   -0.922578
     16          1           0        2.634411    0.755118    0.565839
     17          1           0        1.611795   -0.394027    1.555972
     18          1           0        1.992150   -1.984727   -0.113604
 ---------------------------------------------------------------------

 SCF Done:  E(RHF) =  -326.472301406     A.U. after    2 cycles

 The electronic state is 1-A.
 Alpha  occ. eigenvalues --  -21.10816 -15.69617 -11.50576 -11.42558 -11.40268
 Alpha  occ. eigenvalues --  -11.34672 -11.34428  -1.72859  -1.45413  -1.14742
 Alpha  occ. eigenvalues --   -1.06076  -0.92637  -0.84355  -0.78199  -0.68992
 Alpha  occ. eigenvalues --   -0.64928  -0.64351  -0.59597  -0.58736  -0.53526
 Alpha  occ. eigenvalues --   -0.50151  -0.47743  -0.47340  -0.45029  -0.41711
 Alpha  occ. eigenvalues --   -0.39155  -0.31914  -0.25086
 Alpha virt. eigenvalues --    0.04219   0.05035   0.05247   0.05664   0.05848
 Alpha virt. eigenvalues --    0.06366   0.06601   0.06990   0.07170   0.08599
 Alpha virt. eigenvalues --    0.09060   0.10677   0.11924   0.13147   0.13480

 Mulliken charges:
               1
     1  C   -3.191924
     2  C   -3.129174
     3  N   -1.868015
     4  C   -3.092704
     5  C    1.282652
     6  C   -2.481797
     7  O   -2.062773
     8  H    1.076555
     9  H    1.343655
    10  H    1.439686
    11  H    1.653827
    12  H    1.447650
    13  H    1.438850
    14  H    1.336059
    15  H    1.429181
    16  H    1.158861
    17  H    1.343559
    18  H    0.875852
 Sum of Mulliken charges =   0.00000

 Dipole moment (field-independent basis, Debye):
    X=              2.1990    Y=             -1.4972    Z=              0.5704  Tot=              2.7207

 Test job not archived.
 1\1\GINC-SE207\SP\RHF\Aug-CC-pVDZ\C5H11N1O1\OHZDE\09-Apr-2025\0\\#t hf
  aug-cc-pvdz iop(5/13=1,5/36=2,99/5=2) pseudo=read geom=check guess=(r
 ead,tcheck) scf=(maxcycle=1)\\title\\0,1\C,0,-1.83252044,-1.2245948,-0
 .32256639\C,0,-1.43343338,-0.25361143,0.77217955\N,0,0.00003015,-0.320
 25534,1.01658934\C,0,0.58511036,0.88718534,1.60225681\C,0,0.80028023,0
 .55458324,0.18931049\C,0,1.97258801,0.12403037,-0.49715791\O,0,1.48860
 139,0.80662011,-2.05011745\H,0,-2.91055844,-1.20327777,-0.49306378\H,0
 ,-1.54247246,-2.2432557,-0.05916187\H,0,-1.34024683,-0.96284932,-1.263

 Normal termination of Gaussian 16 at Wed Apr  9 19:26:33 2025.
