 Gaussian 16, Revision C.01,

 ----------------------------------------------------------------------
 #t hf aug-cc-pvdz symm=none int=(grid=ultrafine) guess=(read,tcheck) s
 table=(opt,rrhf)
 ----------------------------------------------------------------------
 -----
 title
 -----
 Symbolic Z-matrix:
 Charge =  0 Multiplicity = 1

 SCF Done:  E(RHF) =  -307.734385179     A.U. after   15 cycles

 1\1\GINC-SE018\Stability\RHF\Aug-CC-pVDZ\C6H10O1\OHZDE\09-Apr-2025\0\\
 #t hf aug-cc-pvdz symm=none int=(grid=ultrafine) guess=(read,tcheck) s
 table=(opt,rrhf)\\title\\0,1\C,0,1.72856708,-0.56598453,-0.38683484\C,
 0,0.81068922,0.25774546,0.50805359\C,0,0.04817558,1.38703994,-0.200373
 58\C,0,-1.35353845,0.84532808,-0.02070028\O,0,-1.65115078,-0.27547753,
 -0.80116888\C,0,-1.11764029,-1.309849,0.03028936\C,0,-0.36975758,-0.54
 078352,1.11518228\H,0,2.08990421,-1.45936908,0.12783517\H,0,2.60012453
 ,0.02732292,-0.66989851\H,0,1.2308856,-0.87945671,-1.30659868\H,0,1.41

 Normal termination of Gaussian 16 at Wed Apr  9 19:16:15 2025.
 Gaussian 16:  ES64L-G16RevC.01  3-Jul-2019

 ----------------------------------------------------------------------
 #t hf aug-cc-pvdz iop(5/13=1,5/36=2,99/5=2) pseudo=read geom=check gue
 ss=(read,tcheck) scf=(maxcycle=1)
 ----------------------------------------------------------------------
 -----
 title
 -----
 Structure from the checkpoint file:  "Grambow2020_wb97xd3_008492_reverse_mol1.chk"
 Charge =  0 Multiplicity = 1

                         Standard orientation:
 ---------------------------------------------------------------------
 Center     Atomic      Atomic             Coordinates (Angstroms)
 Number     Number       Type             X           Y           Z
 ---------------------------------------------------------------------
      1          6           0        1.940604   -0.561427   -0.470409
      2          6           0        1.074618    0.260806    0.476089
      3          6           0        0.298826    1.411812   -0.181128
      4          6           0       -1.101608    0.887067    0.051173
      5          8           0       -1.449253   -0.216911   -0.732591
      6          6           0       -0.895492   -1.271751    0.058953
      7          6           0       -0.090032   -0.530596    1.121830
      8          1           0        2.310715   -1.467862    0.014338
      9          1           0        2.807715    0.023994   -0.782101
     10          1           0        1.398952   -0.853229   -1.372286
     11          1           0        1.720162    0.639341    1.270992
     12          1           0        0.443184    2.356418    0.347036
     13          1           0        0.493049    1.581015   -1.243734
     14          1           0       -1.919904    1.611695    0.099572
     15          1           0       -0.274378   -1.950318   -0.533221
     16          1           0       -1.722840   -1.848900    0.482620
     17          1           0       -1.024133    0.467669    1.238463
 ---------------------------------------------------------------------

 SCF Done:  E(RHF) =  -309.211996342     A.U. after    2 cycles

 The electronic state is 1-A.
 Alpha  occ. eigenvalues --  -21.05682 -11.52516 -11.44899 -11.43424 -11.40359
 Alpha  occ. eigenvalues --  -11.38942 -11.35903  -1.79591  -1.29308  -1.09043
 Alpha  occ. eigenvalues --   -1.05057  -0.92786  -0.88573  -0.74633  -0.68960
 Alpha  occ. eigenvalues --   -0.63413  -0.62791  -0.57921  -0.56472  -0.53501
 Alpha  occ. eigenvalues --   -0.51708  -0.50490  -0.46834  -0.44106  -0.39626
 Alpha  occ. eigenvalues --   -0.30862  -0.26026
 Alpha virt. eigenvalues --    0.03849   0.04788   0.04913   0.05459   0.06009
 Alpha virt. eigenvalues --    0.06053   0.06327   0.06466   0.07681   0.09501
 Alpha virt. eigenvalues --    0.09792   0.11337   0.13005   0.13293   0.13834

 Mulliken charges:
               1
     1  C   -4.197111
     2  C   -0.453594
     3  C   -3.457619
     4  C    0.182760
     5  O   -2.994180
     6  C   -1.360963
     7  C   -1.777502
     8  H    1.252183
     9  H    1.094637
    10  H    1.445482
    11  H    1.577877
    12  H    1.268598
    13  H    1.495928
    14  H    1.380270
    15  H    1.592273
    16  H    1.405137
    17  H    1.545823
 Sum of Mulliken charges =  -0.00000

 Dipole moment (field-independent basis, Debye):
    X=             -0.0511    Y=              1.4408    Z=             -1.8988  Tot=              2.3841

 Test job not archived.
 1\1\GINC-SE018\SP\RHF\Aug-CC-pVDZ\C6H10O1\OHZDE\09-Apr-2025\0\\#t hf a
 ug-cc-pvdz iop(5/13=1,5/36=2,99/5=2) pseudo=read geom=check guess=(rea
 d,tcheck) scf=(maxcycle=1)\\title\\0,1\C,0,1.72856708,-0.56598453,-0.3
 8683484\C,0,0.81068922,0.25774546,0.50805359\C,0,0.04817558,1.38703994
 ,-0.20037358\C,0,-1.35353845,0.84532808,-0.02070028\O,0,-1.65115078,-0
 .27547753,-0.80116888\C,0,-1.11764029,-1.309849,0.03028936\C,0,-0.3697
 5758,-0.54078352,1.11518228\H,0,2.08990421,-1.45936908,0.12783517\H,0,
 2.60012453,0.02732292,-0.66989851\H,0,1.2308856,-0.87945671,-1.3065986

 Normal termination of Gaussian 16 at Wed Apr  9 19:16:21 2025.
