 Gaussian 16, Revision C.01,

 ----------------------------------------------------------------------
 #t hf aug-cc-pvdz symm=none int=(grid=ultrafine) guess=(read,tcheck) s
 table=(opt,rrhf)
 ----------------------------------------------------------------------
 -----
 title
 -----
 Symbolic Z-matrix:
 Charge =  0 Multiplicity = 1

 SCF Done:  E(RHF) =  -359.512385009     A.U. after   16 cycles
 Normal termination of Gaussian 16 at Wed Apr  9 03:53:40 2025.
 Gaussian 16:  ES64L-G16RevC.01  3-Jul-2019

 ----------------------------------------------------------------------
 #t hf aug-cc-pvdz iop(5/13=1,5/36=2,99/5=2) pseudo=read geom=check gue
 ss=(read,tcheck) scf=(maxcycle=1)
 ----------------------------------------------------------------------
 -----
 title
 -----
 Structure from the checkpoint file:  "Grambow2020_wb97xd3_008374_forward_mol1.chk"
 Charge =  0 Multiplicity = 1

                         Standard orientation:
 ---------------------------------------------------------------------
 Center     Atomic      Atomic             Coordinates (Angstroms)
 Number     Number       Type             X           Y           Z
 ---------------------------------------------------------------------
      1          8           0       -0.055333    1.589088   -0.049091
      2          6           0       -0.519684    0.510749    0.502510
      3          6           0       -1.909523    0.052395    0.110088
      4          7           0       -1.138344   -0.983198   -0.707784
      5          6           0       -0.012526   -0.826278    0.312032
      6          6           0        1.512756   -0.661602    0.267722
      7          8           0        2.025190    0.152791   -0.504556
      8          1           0        0.901923    1.402379   -0.266921
      9          1           0        0.893027    0.249162    1.748734
     10          1           0       -2.521540    0.749858   -0.458171
     11          1           0       -2.475455   -0.445447    0.892508
     12          1           0       -0.864585   -0.543171   -1.583117
     13          1           0       -0.270242   -1.483075    1.138745
     14          1           0        2.120290   -1.433936    0.757771
 ---------------------------------------------------------------------

 SCF Done:  E(RHF) =  -361.142777295     A.U. after    2 cycles

 The electronic state is 1-A.
 Alpha  occ. eigenvalues --  -21.14325 -21.04703 -15.77469 -11.55342 -11.50973
 Alpha  occ. eigenvalues --  -11.50101 -11.44934  -1.83498  -1.70543  -1.48422
 Alpha  occ. eigenvalues --   -1.10989  -1.04271  -0.89229  -0.82678  -0.74249
 Alpha  occ. eigenvalues --   -0.67978  -0.65778  -0.62306  -0.57326  -0.54430
 Alpha  occ. eigenvalues --   -0.51102  -0.47835  -0.47078  -0.44297  -0.38684
 Alpha  occ. eigenvalues --   -0.29429  -0.27373
 Alpha virt. eigenvalues --    0.03572   0.04777   0.05030   0.05580   0.06658
 Alpha virt. eigenvalues --    0.07676   0.08079   0.08351   0.09063   0.10074
 Alpha virt. eigenvalues --    0.11937   0.12058   0.12999   0.14018   0.14820

 Mulliken charges:
               1
     1  O   -3.259051
     2  C    3.499759
     3  C   -3.077718
     4  N   -2.200898
     5  C    0.108908
     6  C    1.138185
     7  O   -2.918387
     8  H    0.855670
     9  H   -0.403068
    10  H    1.261186
    11  H    1.457495
    12  H    0.559955
    13  H    1.622747
    14  H    1.355216
 Sum of Mulliken charges =   0.00000

 Dipole moment (field-independent basis, Debye):
    X=             -2.9510    Y=              0.3660    Z=             -2.4614  Tot=              3.8602

 Test job not archived.
 1\1\GINC-SE226\SP\RHF\Aug-CC-pVDZ\C4H7N1O2\OHZDE\09-Apr-2025\0\\#t hf
 aug-cc-pvdz iop(5/13=1,5/36=2,99/5=2) pseudo=read geom=check guess=(re
 ad,tcheck) scf=(maxcycle=1)\\title\\0,1\O,0,-0.84129882,-0.4285481,1.4
 3484957\C,0,-0.75071394,-0.2359465,0.15523981\C,0,-1.36509356,1.023930
 24,-0.42007059\N,0,0.09095502,1.48368992,-0.48808926\C,0,0.46492256,0.
 00609602,-0.58284865\C,0,1.50356793,-0.92147326,0.06244069\O,0,1.67952
 92,-0.89914999,1.283415\H,0,0.04615532,-0.78195405,1.72841231\H,0,-0.0
 0338441,-1.92689148,-0.29136917\H,0,-2.01800895,1.60135944,0.23124703\

 Normal termination of Gaussian 16 at Wed Apr  9 03:53:44 2025.
