 Gaussian 16, Revision C.01,

 ----------------------------------------------------------------------
 #t hf aug-cc-pvdz symm=none int=(grid=ultrafine) guess=(read,tcheck) s
 table=(opt,rrhf)
 ----------------------------------------------------------------------
 -----
 title
 -----
 Symbolic Z-matrix:
 Charge =  0 Multiplicity = 1

 SCF Done:  E(RHF) =  -376.966214767     A.U. after   13 cycles
 Normal termination of Gaussian 16 at Wed Apr  9 03:58:41 2025.
 Gaussian 16:  ES64L-G16RevC.01  3-Jul-2019

 ----------------------------------------------------------------------
 #t hf aug-cc-pvdz iop(5/13=1,5/36=2,99/5=2) pseudo=read geom=check gue
 ss=(read,tcheck) scf=(maxcycle=1)
 ----------------------------------------------------------------------
 -----
 title
 -----
 Structure from the checkpoint file:  "Grambow2020_wb97xd3_008748_reverse_mol2.chk"
 Charge =  0 Multiplicity = 1

                         Standard orientation:
 ---------------------------------------------------------------------
 Center     Atomic      Atomic             Coordinates (Angstroms)
 Number     Number       Type             X           Y           Z
 ---------------------------------------------------------------------
      1          7           0       -1.537089   -1.199510   -0.087220
      2          6           0       -0.170982   -1.181039   -0.006942
      3          8           0        0.504355   -2.186626    0.059013
      4          7           0        0.363537    0.091429   -0.037639
      5          6           0        1.726192    0.322721    0.007703
      6          6           0        2.290450    1.525675   -0.015899
      7          8           0       -2.143501    1.832959    0.041752
      8          1           0       -1.969294   -2.087101    0.088153
      9          1           0       -2.070471   -0.360563    0.067866
     10          1           0       -0.268933    0.875497   -0.091507
     11          1           0       -2.309547    2.395915    0.799946
     12          1           0        2.306678   -0.589429    0.066146
     13          1           0        3.365529    1.619983    0.023954
     14          1           0        1.704816    2.436158   -0.076665
     15          1           0       -2.504713    2.291305   -0.719166
 ---------------------------------------------------------------------

 SCF Done:  E(RHF) =  -378.647157264     A.U. after    2 cycles

 The electronic state is 1-A.
 Alpha  occ. eigenvalues --  -21.14579 -21.00355 -15.76089 -15.75615 -11.49626
 Alpha  occ. eigenvalues --  -11.43003 -11.35815  -1.71693  -1.70638  -1.41835
 Alpha  occ. eigenvalues --   -1.31362  -1.08634  -0.86153  -0.80566  -0.71872
 Alpha  occ. eigenvalues --   -0.68485  -0.66838  -0.62617  -0.58684  -0.54284
 Alpha  occ. eigenvalues --   -0.52438  -0.50661  -0.47050  -0.44110  -0.40580
 Alpha  occ. eigenvalues --   -0.32643  -0.28781  -0.27270
 Alpha virt. eigenvalues --    0.02115   0.04792   0.04863   0.05115   0.06456
 Alpha virt. eigenvalues --    0.07526   0.08113   0.09082   0.11832   0.12586
 Alpha virt. eigenvalues --    0.12830   0.13966   0.14551   0.15670   0.16201

 Mulliken charges:
               1
     1  N   -2.657918
     2  C    5.272794
     3  O   -3.030659
     4  N   -2.914931
     5  C    0.186176
     6  C   -3.219902
     7  O   -2.674782
     8  H    0.560452
     9  H    0.930958
    10  H    1.048831
    11  H    1.112864
    12  H    1.540412
    13  H    1.288487
    14  H    1.451858
    15  H    1.105359
 Sum of Mulliken charges =   0.00000

 Dipole moment (field-independent basis, Debye):
    X=             -3.8949    Y=              3.2957    Z=              0.3230  Tot=              5.1124

 Test job not archived.
 1\1\GINC-SE073\SP\RHF\Aug-CC-pVDZ\C3H8N2O2\OHZDE\09-Apr-2025\0\\#t hf
 aug-cc-pvdz iop(5/13=1,5/36=2,99/5=2) pseudo=read geom=check guess=(re
 ad,tcheck) scf=(maxcycle=1)\\title\\0,1\N,0,1.47308944,0.60509858,-1.3
 579901\C,0,1.27970302,0.89495608,-0.03450312\O,0,2.03049372,1.59845259
 ,0.6081793\N,0,0.13256884,0.3326326,0.48866262\C,0,-0.25392584,0.52691
 402,1.80215317\C,0,-1.34501082,0.0067546,2.35443087\O,0,-0.84377599,-1
 .39107102,-1.83514138\H,0,2.36742265,0.86210905,-1.73147253\H,0,0.9571
 5401,-0.13688229,-1.80031978\H,0,-0.43693892,-0.2421153,-0.11384043\H,

 Normal termination of Gaussian 16 at Wed Apr  9 03:58:45 2025.
