 Gaussian 16, Revision C.01,

 ----------------------------------------------------------------------
 #t hf aug-cc-pvdz symm=none int=(grid=ultrafine) guess=(read,tcheck) s
 table=(opt,rrhf)
 ----------------------------------------------------------------------
 -----
 title
 -----
 Symbolic Z-matrix:
 Charge =  0 Multiplicity = 1

 SCF Done:  E(RHF) =  -305.627213126     A.U. after   15 cycles
 Normal termination of Gaussian 16 at Wed Apr  9 16:12:54 2025.
 Gaussian 16:  ES64L-G16RevC.01  3-Jul-2019

 ----------------------------------------------------------------------
 #t hf aug-cc-pvdz iop(5/13=1,5/36=2,99/5=2) pseudo=read geom=check gue
 ss=(read,tcheck) scf=(maxcycle=1)
 ----------------------------------------------------------------------
 -----
 title
 -----
 Structure from the checkpoint file:  "Grambow2020_b97d3_006759_forward_mol1.chk"
 Charge =  0 Multiplicity = 1

                         Standard orientation:
 ---------------------------------------------------------------------
 Center     Atomic      Atomic             Coordinates (Angstroms)
 Number     Number       Type             X           Y           Z
 ---------------------------------------------------------------------
      1          6           0       -1.248973   -1.092920   -0.157972
      2          6           0       -1.952239    0.191414   -0.089642
      3          6           0       -0.100192    1.106315    0.516746
      4          8           0        0.558316    1.816208   -0.153263
      5          6           0        0.995778   -0.877634    0.581179
      6          8           0        1.819605   -0.667125   -0.521465
      7          1           0       -0.731564   -1.386350   -1.066079
      8          1           0       -2.495104   -0.976339   -0.592089
      9          1           0       -1.391554   -1.821669    0.633507
     10          1           0       -2.607313    0.392445    0.752804
     11          1           0       -2.054388    0.811777   -0.976878
     12          1           0        1.396330   -0.525461    1.541832
     13          1           0        0.805377   -1.952987    0.644543
     14          1           0        1.888607    0.302871   -0.641676
 ---------------------------------------------------------------------

 SCF Done:  E(RHF) =  -307.057897232     A.U. after    2 cycles

 The electronic state is 1-A.
 Alpha  occ. eigenvalues --  -21.10814 -21.04651 -11.49775 -11.46331 -11.44445
 Alpha  occ. eigenvalues --  -11.37380  -1.74505  -1.68075  -1.23829  -0.92152
 Alpha  occ. eigenvalues --   -0.88361  -0.72549  -0.68878  -0.64309  -0.61574
 Alpha  occ. eigenvalues --   -0.57872  -0.56443  -0.51268  -0.50715  -0.46587
 Alpha  occ. eigenvalues --   -0.41617  -0.39676  -0.34211  -0.20602
 Alpha virt. eigenvalues --    0.03209   0.04604   0.04946   0.05210   0.06182
 Alpha virt. eigenvalues --    0.06846   0.07238   0.08286   0.09490   0.10629
 Alpha virt. eigenvalues --    0.12482   0.12854   0.13270   0.14255   0.14632

 Mulliken charges:
               1
     1  C   -2.939471
     2  C   -3.291926
     3  C    1.978006
     4  O   -1.993719
     5  C   -1.035083
     6  O   -2.705452
     7  H    1.528172
     8  H    0.971084
     9  H    1.354243
    10  H    1.367551
    11  H    1.373562
    12  H    1.325070
    13  H    1.062202
    14  H    1.005761
 Sum of Mulliken charges =  -0.00000

 Dipole moment (field-independent basis, Debye):
    X=             -2.7142    Y=              0.0159    Z=             -1.0097  Tot=              2.8960

 Test job not archived.
 1\1\GINC-SE219\SP\RHF\Aug-CC-pVDZ\C4H8O2\OHZDE\09-Apr-2025\0\\#t hf au
 g-cc-pvdz iop(5/13=1,5/36=2,99/5=2) pseudo=read geom=check guess=(read
 ,tcheck) scf=(maxcycle=1)\\title\\0,1\C,0,-1.05145104,-0.22370955,-0.5
 195629\C,0,-1.31642503,-0.34881269,0.91671807\C,0,0.80025504,-0.163701
 24,1.26345703\O,0,1.3333179,0.77960509,1.72444613\C,0,1.27977687,-0.12
 553089,-0.9523858\O,0,1.67202634,1.20815507,-1.03145497\H,0,-0.9955502
 5,0.75646771,-0.982811\H,0,-2.29191702,-0.2237455,-0.05466044\H,0,-1.0
 8429199,-1.10870862,-1.14689174\H,0,-1.54355995,-1.32691319,1.3302154\

 Normal termination of Gaussian 16 at Wed Apr  9 16:12:58 2025.
