 Gaussian 16, Revision C.01,

 ----------------------------------------------------------------------
 #t hf aug-cc-pvdz symm=none int=(grid=ultrafine) guess=(read,tcheck) s
 table=(opt,rrhf)
 ----------------------------------------------------------------------
 -----
 title
 -----
 Symbolic Z-matrix:
 Charge =  0 Multiplicity = 1

 SCF Done:  E(RHF) =  -305.841208467     A.U. after   13 cycles
 Normal termination of Gaussian 16 at Wed Apr  9 17:57:27 2025.
 Gaussian 16:  ES64L-G16RevC.01  3-Jul-2019

 ----------------------------------------------------------------------
 #t hf aug-cc-pvdz iop(5/13=1,5/36=2,99/5=2) pseudo=read geom=check gue
 ss=(read,tcheck) scf=(maxcycle=1)
 ----------------------------------------------------------------------
 -----
 title
 -----
 Structure from the checkpoint file:  "Grambow2020_wb97xd3_006279_reverse_mol2.chk"
 Charge =  0 Multiplicity = 1

                         Standard orientation:
 ---------------------------------------------------------------------
 Center     Atomic      Atomic             Coordinates (Angstroms)
 Number     Number       Type             X           Y           Z
 ---------------------------------------------------------------------
      1          6           0        2.817760    0.293711   -0.419982
      2          6           0        2.010622   -0.634463    0.067145
      3          6           0        0.593325   -0.413015    0.501353
      4          8           0        0.092826    0.879857    0.232296
      5          6           0       -2.644358    0.279961    0.205340
      6          8           0       -2.677323   -0.575682   -0.632909
      7          1           0        3.830136    0.054491   -0.719433
      8          1           0        0.117299    1.013786   -0.718786
      9          1           0        2.502372    1.325779   -0.521814
     10          1           0        2.363298   -1.657353    0.173950
     11          1           0       -0.049414   -1.178947    0.047129
     12          1           0        0.521263   -0.545419    1.584907
     13          1           0       -2.481040    0.049249    1.273991
     14          1           0       -2.792035    1.347852   -0.038181
 ---------------------------------------------------------------------

 SCF Done:  E(RHF) =  -307.214467315     A.U. after    2 cycles

 The electronic state is 1-A.
 Alpha  occ. eigenvalues --  -21.07826 -21.07013 -11.47374 -11.44425 -11.40627
 Alpha  occ. eigenvalues --  -11.37371  -1.72575  -1.70947  -1.17531  -0.97976
 Alpha  occ. eigenvalues --   -0.89364  -0.78858  -0.66638  -0.66071  -0.65276
 Alpha  occ. eigenvalues --   -0.57998  -0.53120  -0.52511  -0.51152  -0.44889
 Alpha  occ. eigenvalues --   -0.41591  -0.35857  -0.32838  -0.30182
 Alpha virt. eigenvalues --    0.03502   0.05034   0.05335   0.05562   0.06175
 Alpha virt. eigenvalues --    0.06963   0.07806   0.08445   0.10373   0.11018
 Alpha virt. eigenvalues --    0.11776   0.13576   0.14438   0.14641   0.15069

 Mulliken charges:
               1
     1  C   -2.848588
     2  C   -0.910087
     3  C   -1.380295
     4  O   -2.326849
     5  C   -0.799517
     6  O   -2.004804
     7  H    1.371945
     8  H    0.725625
     9  H    1.444340
    10  H    1.348640
    11  H    1.380418
    12  H    1.302805
    13  H    1.375555
    14  H    1.320812
 Sum of Mulliken charges =  -0.00000

 Dipole moment (field-independent basis, Debye):
    X=              0.4923    Y=              0.3395    Z=              0.5046  Tot=              0.7825

 Test job not archived.
 1\1\GINC-SE174\SP\RHF\Aug-CC-pVDZ\C4H8O2\OHZDE\09-Apr-2025\0\\#t hf au
 g-cc-pvdz iop(5/13=1,5/36=2,99/5=2) pseudo=read geom=check guess=(read
 ,tcheck) scf=(maxcycle=1)\\title\\0,1\C,0,-2.43623468,-0.66116893,0.14
 117661\C,0,-1.25762098,-1.1180933,0.53151114\C,0,0.06998641,-0.6488131
 3,0.01814681\O,0,0.00217729,0.45516385,-0.8599461\C,0,2.60316908,1.437
 78471,-0.51055284\O,0,2.62302216,1.60035287,0.6764815\H,0,-3.35470075,
 -1.04653919,0.56509981\H,0,-0.38700125,1.19073243,-0.37976858\H,0,-2.5
 2613574,0.10044457,-0.62489572\H,0,-1.2019079,-1.89584144,1.28920194\H

 Normal termination of Gaussian 16 at Wed Apr  9 17:57:31 2025.
