 Gaussian 16, Revision C.01,

 ----------------------------------------------------------------------
 #t hf aug-cc-pvdz symm=none int=(grid=ultrafine) guess=(read,tcheck) s
 table=(opt,rrhf)
 ----------------------------------------------------------------------
 -----
 title
 -----
 Symbolic Z-matrix:
 Charge =  0 Multiplicity = 1

 SCF Done:  E(RHF) =  -339.803423838     A.U. after   16 cycles
 Normal termination of Gaussian 16 at Wed Apr  9 18:01:12 2025.
 Gaussian 16:  ES64L-G16RevC.01  3-Jul-2019

 ----------------------------------------------------------------------
 #t hf aug-cc-pvdz iop(5/13=1,5/36=2,99/5=2) pseudo=read geom=check gue
 ss=(read,tcheck) scf=(maxcycle=1)
 ----------------------------------------------------------------------
 -----
 title
 -----
 Structure from the checkpoint file:  "Grambow2020_wb97xd3_006549_reverse_mol2.chk"
 Charge =  0 Multiplicity = 1

                         Standard orientation:
 ---------------------------------------------------------------------
 Center     Atomic      Atomic             Coordinates (Angstroms)
 Number     Number       Type             X           Y           Z
 ---------------------------------------------------------------------
      1          6           0        1.163169    1.878310   -0.229614
      2          7           0        0.114821    1.104795   -0.283030
      3          6           0       -0.024050   -0.236260   -0.181411
      4          6           0       -1.401149   -0.793484   -0.384054
      5          8           0       -2.382380   -0.008520    0.281944
      6          6           0        1.128911   -1.016258   -0.038551
      7          7           0        2.101249   -1.629673    0.086612
      8          1           0        2.142324    1.435150   -0.129801
      9          1           0        1.015362    2.943556   -0.286904
     10          1           0        0.719626    1.112319    2.659839
     11          1           0       -0.788121    1.567347   -0.352782
     12          1           0        0.612243    0.392042    2.492311
     13          1           0       -1.413892   -1.836376   -0.055468
     14          1           0       -1.709212   -0.778409   -1.434196
     15          1           0       -2.233068   -0.087168    1.228154
 ---------------------------------------------------------------------

 SCF Done:  E(RHF) =  -341.375119566     A.U. after    2 cycles

 The electronic state is 1-A.
 Alpha  occ. eigenvalues --  -21.08945 -15.88679 -15.73661 -11.47079 -11.44944
 Alpha  occ. eigenvalues --  -11.43612 -11.40122  -1.73623  -1.51015  -1.28790
 Alpha  occ. eigenvalues --   -1.12875  -0.97390  -0.92896  -0.74682  -0.72686
 Alpha  occ. eigenvalues --   -0.66651  -0.63480  -0.60657  -0.59486  -0.58393
 Alpha  occ. eigenvalues --   -0.53745  -0.50634  -0.45601  -0.45301  -0.41419
 Alpha  occ. eigenvalues --   -0.34720  -0.24785
 Alpha virt. eigenvalues --    0.02957   0.04513   0.05448   0.05747   0.06055
 Alpha virt. eigenvalues --    0.06737   0.07460   0.08332   0.08425   0.10313
 Alpha virt. eigenvalues --    0.11129   0.12028   0.12987   0.14071   0.14506

 Mulliken charges:
               1
     1  C   -2.270466
     2  N   -3.690938
     3  C    2.818417
     4  C   -1.171890
     5  O   -2.447034
     6  C    2.277306
     7  N   -2.665578
     8  H    1.653009
     9  H    1.530017
    10  H   -0.025518
    11  H    0.678453
    12  H   -0.106837
    13  H    1.369858
    14  H    1.295111
    15  H    0.756090
 Sum of Mulliken charges =   0.00000

 Dipole moment (field-independent basis, Debye):
    X=             -2.9626    Y=              3.8737    Z=             -0.4091  Tot=              4.8939

 Test job not archived.
 1\1\GINC-SE229\SP\RHF\Aug-CC-pVDZ\C4H8N2O1\OHZDE\09-Apr-2025\0\\#t hf
 aug-cc-pvdz iop(5/13=1,5/36=2,99/5=2) pseudo=read geom=check guess=(re
 ad,tcheck) scf=(maxcycle=1)\\title\\0,1\C,0,-1.79154127,-0.05554618,1.
 0976388\N,0,-0.50185833,-0.08206733,0.90731085\C,0,0.25133105,-0.55917
 52,-0.10911246\C,0,1.7396487,-0.49404383,0.06010407\O,0,2.14580362,0.7
 5262525,0.6109127\C,0,-0.39397796,-1.20182333,-1.17151703\N,0,-0.95998
 865,-1.71979876,-2.03680233\H,0,-2.44241526,-0.51933837,0.37213263\H,0
 ,-2.16758026,0.43335596,1.98050242\H,0,-1.34949552,2.11778581,-0.95507

 Normal termination of Gaussian 16 at Wed Apr  9 18:01:17 2025.
