 Gaussian 16, Revision C.01,

 ----------------------------------------------------------------------
 #t hf aug-cc-pvdz symm=none int=(grid=ultrafine) guess=(read,tcheck) s
 table=(opt,rrhf)
 ----------------------------------------------------------------------
 -----
 title
 -----
 Symbolic Z-matrix:
 Charge =  0 Multiplicity = 1

 SCF Done:  E(RHF) =  -306.554659792     A.U. after   15 cycles
 Normal termination of Gaussian 16 at Wed Apr  9 03:27:18 2025.
 Gaussian 16:  ES64L-G16RevC.01  3-Jul-2019

 ----------------------------------------------------------------------
 #t hf aug-cc-pvdz iop(5/13=1,5/36=2,99/5=2) pseudo=read geom=check gue
 ss=(read,tcheck) scf=(maxcycle=1)
 ----------------------------------------------------------------------
 -----
 title
 -----
 Structure from the checkpoint file:  "Grambow2020_wb97xd3_006667_reverse_mol1.chk"
 Charge =  0 Multiplicity = 1

                         Standard orientation:
 ---------------------------------------------------------------------
 Center     Atomic      Atomic             Coordinates (Angstroms)
 Number     Number       Type             X           Y           Z
 ---------------------------------------------------------------------
      1          6           0        2.203738   -0.067783   -0.226735
      2          6           0        0.740905   -0.074477   -0.602853
      3          6           0       -0.201487   -0.925463    0.304952
      4          8           0       -0.172977    0.137279    1.276385
      5          6           0       -0.151824    0.994827    0.096754
      6          6           0       -1.499459    0.756317   -0.620898
      7          6           0       -1.530846   -0.622316   -0.386685
      8          1           0        2.689615   -0.993380   -0.542496
      9          1           0        2.329777    0.040276    0.850608
     10          1           0        2.719786    0.759217   -0.718522
     11          1           0        0.594073   -0.190249   -1.678132
     12          1           0        0.034007   -1.914583    0.692613
     13          1           0        0.171952    2.011759    0.299576
     14          1           0       -2.277386    0.151684    0.293859
     15          1           0       -2.244177   -1.329585   -0.795800
 ---------------------------------------------------------------------

 SCF Done:  E(RHF) =  -308.000356545     A.U. after    2 cycles

 The electronic state is 1-A.
 Alpha  occ. eigenvalues --  -21.04604 -11.53605 -11.48726 -11.44008 -11.41073
 Alpha  occ. eigenvalues --  -11.39183 -11.37166  -1.81603  -1.27946  -1.14770
 Alpha  occ. eigenvalues --   -1.01104  -0.97887  -0.78874  -0.76720  -0.70384
 Alpha  occ. eigenvalues --   -0.67463  -0.58956  -0.57693  -0.53086  -0.50216
 Alpha  occ. eigenvalues --   -0.48458  -0.46544  -0.43015  -0.36825  -0.31930
 Alpha  occ. eigenvalues --   -0.29448
 Alpha virt. eigenvalues --    0.03673   0.04660   0.04821   0.05713   0.05844
 Alpha virt. eigenvalues --    0.06333   0.06641   0.07359   0.09541   0.10223
 Alpha virt. eigenvalues --    0.11489   0.12177   0.12979   0.14107   0.14281

 Mulliken charges:
               1
     1  C   -4.015600
     2  C   -1.020990
     3  C   -0.539985
     4  O   -3.076926
     5  C    0.216172
     6  C   -2.011320
     7  C   -0.738513
     8  H    1.179821
     9  H    1.247247
    10  H    1.160846
    11  H    1.697998
    12  H    1.583694
    13  H    1.676770
    14  H    1.163974
    15  H    1.476812
 Sum of Mulliken charges =   0.00000

 Dipole moment (field-independent basis, Debye):
    X=              1.5975    Y=             -2.4420    Z=              0.6626  Tot=              2.9924

 Test job not archived.
 1\1\GINC-SE366\SP\RHF\Aug-CC-pVDZ\C6H8O1\OHZDE\09-Apr-2025\0\\#t hf au
 g-cc-pvdz iop(5/13=1,5/36=2,99/5=2) pseudo=read geom=check guess=(read
 ,tcheck) scf=(maxcycle=1)\\title\\0,1\C,0,1.92936596,0.39692819,-0.154
 99755\C,0,0.55884789,-0.19889976,-0.37422504\C,0,-0.31252497,-0.414607
 35,0.9027127\O,0,-0.62016811,0.99221568,0.89176124\C,0,-0.60934458,0.8
 1699536,-0.5561848\C,0,-1.77752343,-0.14395797,-0.87234914\C,0,-1.5715
 3768,-0.97063229,0.23699752\H,0,2.62322968,-0.35578478,0.22511647\H,0,
 1.88775813,1.22147606,0.55677413\H,0,2.33574193,0.77407564,-1.09558619

 Normal termination of Gaussian 16 at Wed Apr  9 03:27:22 2025.
