 Gaussian 16, Revision C.01,

 ----------------------------------------------------------------------
 #t hf aug-cc-pvdz symm=none int=(grid=ultrafine) guess=(read,tcheck) s
 table=(opt,rrhf)
 ----------------------------------------------------------------------
 -----
 title
 -----
 Symbolic Z-matrix:
 Charge =  0 Multiplicity = 1

 SCF Done:  E(RHF) =  -343.589579508     A.U. after   15 cycles
 Normal termination of Gaussian 16 at Wed Apr  9 18:19:50 2025.
 Gaussian 16:  ES64L-G16RevC.01  3-Jul-2019

 ----------------------------------------------------------------------
 #t hf aug-cc-pvdz iop(5/13=1,5/36=2,99/5=2) pseudo=read geom=check gue
 ss=(read,tcheck) scf=(maxcycle=1)
 ----------------------------------------------------------------------
 -----
 title
 -----
 Structure from the checkpoint file:  "Grambow2020_wb97xd3_006886_reverse_mol2.chk"
 Charge =  0 Multiplicity = 1

                         Standard orientation:
 ---------------------------------------------------------------------
 Center     Atomic      Atomic             Coordinates (Angstroms)
 Number     Number       Type             X           Y           Z
 ---------------------------------------------------------------------
      1          6           0        1.377027    0.000235    1.291085
      2          6           0        0.920042   -0.047937   -0.118004
      3          6           0        1.561083   -0.404539   -1.208506
      4          6           0       -0.646037    2.061313    0.002706
      5          8           0       -0.431053    0.397603   -0.291687
      6          6           0       -1.452893   -0.502648   -0.070622
      7          8           0       -1.284241   -1.631628    0.232643
      8          1           0        0.795302   -0.690036    1.905899
      9          1           0        1.243986    1.013901    1.671856
     10          1           0        2.427351   -0.278764    1.349453
     11          1           0        2.589729   -0.729654   -1.145762
     12          1           0        1.086152   -0.369940   -2.179032
     13          1           0       -1.073958    2.295950   -0.982980
     14          1           0       -1.499887    1.967167    0.694124
     15          1           0       -2.401654    0.025032   -0.221158
 ---------------------------------------------------------------------

 SCF Done:  E(RHF) =  -345.145716592     A.U. after    2 cycles

 The electronic state is 1-A.
 Alpha  occ. eigenvalues --  -21.14967 -21.10323 -11.54934 -11.48611 -11.40728
 Alpha  occ. eigenvalues --  -11.38951 -11.36526  -1.91194  -1.72546  -1.20391
 Alpha  occ. eigenvalues --   -1.03566  -0.94849  -0.92491  -0.76982  -0.69569
 Alpha  occ. eigenvalues --   -0.64946  -0.64116  -0.59276  -0.57431  -0.55818
 Alpha  occ. eigenvalues --   -0.52743  -0.52193  -0.48155  -0.38330  -0.38060
 Alpha  occ. eigenvalues --   -0.34825  -0.30436
 Alpha virt. eigenvalues --    0.03154   0.04820   0.04865   0.05665   0.05867
 Alpha virt. eigenvalues --    0.06517   0.07155   0.08679   0.09495   0.10368
 Alpha virt. eigenvalues --    0.11530   0.11826   0.13875   0.14369   0.14701

 Mulliken charges:
               1
     1  C   -3.910009
     2  C    3.805814
     3  C   -4.313661
     4  C   -3.038948
     5  O   -3.133075
     6  C    1.919963
     7  O   -2.602840
     8  H    1.292024
     9  H    1.416319
    10  H    1.175065
    11  H    1.482462
    12  H    1.599033
    13  H    1.357666
    14  H    1.362075
    15  H    1.588114
 Sum of Mulliken charges =  -0.00000

 Dipole moment (field-independent basis, Debye):
    X=              0.1036    Y=             -2.3144    Z=             -0.7289  Tot=              2.4287

 Test job not archived.
 1\1\GINC-SE115\SP\RHF\Aug-CC-pVDZ\C5H8O2\OHZDE\09-Apr-2025\0\\#t hf au
 g-cc-pvdz iop(5/13=1,5/36=2,99/5=2) pseudo=read geom=check guess=(read
 ,tcheck) scf=(maxcycle=1)\\title\\0,1\C,0,-0.4980841,1.54970919,-0.503
 11466\C,0,-0.48156772,0.07080264,-0.59928418\C,0,-1.10301026,-0.734578
 12,-1.43142864\C,0,-0.29691839,-0.39521794,1.98235105\O,0,0.32713911,-
 0.55397215,0.40559271\C,0,1.68488633,-0.65886059,0.184231\O,0,2.224769
 45,-0.28471213,-0.79737402\H,0,0.49950499,1.95612767,-0.68343396\H,0,-
 0.82269405,1.83566062,0.4984164\H,0,-1.18277938,1.96120258,-1.2422326\

 Normal termination of Gaussian 16 at Wed Apr  9 18:19:55 2025.
