 Gaussian 16, Revision C.01,

 ----------------------------------------------------------------------
 #t hf aug-cc-pvdz symm=none int=(grid=ultrafine) guess=(read,tcheck) s
 table=(opt,rrhf)
 ----------------------------------------------------------------------
 -----
 title
 -----
 Symbolic Z-matrix:
 Charge =  0 Multiplicity = 1

 SCF Done:  E(RHF) =  -360.904418040     A.U. after   14 cycles
 Normal termination of Gaussian 16 at Wed Apr  9 18:09:17 2025.
 Gaussian 16:  ES64L-G16RevC.01  3-Jul-2019

 ----------------------------------------------------------------------
 #t hf aug-cc-pvdz iop(5/13=1,5/36=2,99/5=2) pseudo=read geom=check gue
 ss=(read,tcheck) scf=(maxcycle=1)
 ----------------------------------------------------------------------
 -----
 title
 -----
 Structure from the checkpoint file:  "Grambow2020_wb97xd3_006617_reverse_mol2.chk"
 Charge =  0 Multiplicity = 1

                         Standard orientation:
 ---------------------------------------------------------------------
 Center     Atomic      Atomic             Coordinates (Angstroms)
 Number     Number       Type             X           Y           Z
 ---------------------------------------------------------------------
      1          6           0       -2.682167    0.446987   -0.453319
      2          6           0       -1.403650    0.065508    0.260457
      3          8           0       -1.451605   -1.322650    0.514284
      4          6           0       -0.178625    0.412800   -0.575291
      5          7           0        1.018453   -0.007148    0.120425
      6          6           0        2.193651   -0.081312   -0.100810
      7          8           0        3.348066   -0.194453   -0.207581
      8          1           0       -2.713089    1.519453   -0.653929
      9          1           0       -3.542433    0.185515    0.161954
     10          1           0       -2.764803   -0.092081   -1.399138
     11          1           0       -1.333626    0.616027    1.209147
     12          1           0       -0.621318   -1.575602    0.927103
     13          1           0       -0.242910   -0.100718   -1.538548
     14          1           0       -0.141078    1.491015   -0.751068
     15          1           0        0.821266    2.188700    1.883823
     16          1           0        0.661871    2.890657    2.077842
 ---------------------------------------------------------------------

 SCF Done:  E(RHF) =  -362.541156445     A.U. after    2 cycles

 The electronic state is 1-A.
 Alpha  occ. eigenvalues --  -21.12151 -21.06987 -15.76769 -11.59223 -11.47854
 Alpha  occ. eigenvalues --  -11.43468 -11.37608  -1.77255  -1.72699  -1.41298
 Alpha  occ. eigenvalues --   -1.16657  -1.03363  -0.85415  -0.73795  -0.69210
 Alpha  occ. eigenvalues --   -0.65750  -0.63192  -0.61712  -0.61120  -0.57653
 Alpha  occ. eigenvalues --   -0.55717  -0.53409  -0.50280  -0.48982  -0.41214
 Alpha  occ. eigenvalues --   -0.36536  -0.33511  -0.32418
 Alpha virt. eigenvalues --    0.03828   0.05201   0.05420   0.05718   0.06036
 Alpha virt. eigenvalues --    0.06491   0.06711   0.07753   0.08627   0.10513
 Alpha virt. eigenvalues --    0.11641   0.12428   0.12618   0.13610   0.13797

 Mulliken charges:
               1
     1  C   -3.843865
     2  C    0.912143
     3  O   -3.110033
     4  C   -2.387475
     5  N   -1.977541
     6  C    4.100159
     7  O   -2.932802
     8  H    1.248828
     9  H    1.130748
    10  H    1.211350
    11  H    1.765818
    12  H    0.798252
    13  H    1.540520
    14  H    1.624349
    15  H   -0.358671
    16  H    0.278221
 Sum of Mulliken charges =   0.00000

 Dipole moment (field-independent basis, Debye):
    X=             -0.3302    Y=              0.8211    Z=             -0.7212  Tot=              1.1417

 Test job not archived.
 1\1\GINC-SE113\SP\RHF\Aug-CC-pVDZ\C4H9N1O2\OHZDE\09-Apr-2025\0\\#t hf
 aug-cc-pvdz iop(5/13=1,5/36=2,99/5=2) pseudo=read geom=check guess=(re
 ad,tcheck) scf=(maxcycle=1)\\title\\0,1\C,0,-1.7555194,-1.280492,-0.17
 568077\C,0,-0.58725325,-0.40435674,-0.57210313\O,0,-0.99039572,0.37337
 627,-1.67949672\C,0,-0.15252818,0.49259729,0.57953067\N,0,0.93459025,1
 .34414144,0.14776914\C,0,1.56156661,2.26991247,0.57833243\O,0,2.231683
 24,3.16765505,0.89751099\H,0,-1.49285925,-1.92622814,0.66421095\H,0,-2
 .04965444,-1.90867952,-1.01583057\H,0,-2.61313358,-0.66612703,0.105477

 Normal termination of Gaussian 16 at Wed Apr  9 18:09:22 2025.
