 Gaussian 16, Revision C.01,

 ----------------------------------------------------------------------
 #t hf aug-cc-pvdz symm=none int=(grid=ultrafine) guess=(read,tcheck) s
 table=(opt,rrhf)
 ----------------------------------------------------------------------
 -----
 title
 -----
 Symbolic Z-matrix:
 Charge =  0 Multiplicity = 1

 SCF Done:  E(RHF) =  -322.540277403     A.U. after   17 cycles
 Normal termination of Gaussian 16 at Wed Apr  9 18:10:42 2025.
 Gaussian 16:  ES64L-G16RevC.01  3-Jul-2019

 ----------------------------------------------------------------------
 #t hf aug-cc-pvdz iop(5/13=1,5/36=2,99/5=2) pseudo=read geom=check gue
 ss=(read,tcheck) scf=(maxcycle=1)
 ----------------------------------------------------------------------
 -----
 title
 -----
 Structure from the checkpoint file:  "Grambow2020_wb97xd3_006629_reverse_mol1.chk"
 Charge =  0 Multiplicity = 1

                         Standard orientation:
 ---------------------------------------------------------------------
 Center     Atomic      Atomic             Coordinates (Angstroms)
 Number     Number       Type             X           Y           Z
 ---------------------------------------------------------------------
      1          8           0       -2.609513   -0.154528   -0.213388
      2          6           0       -1.425774   -0.135729   -0.426693
      3          6           0       -0.439276   -0.150696    0.694138
      4          6           0        1.008595   -0.728734    0.517246
      5          6           0        1.662466   -0.990839   -0.712677
      6          6           0        0.923698    1.459424   -0.342568
      7          7           0        0.696043    0.697504    0.732702
      8          1           0       -1.012211   -0.150029   -1.446604
      9          1           0       -0.869862   -0.386334    1.660695
     10          1           0        1.225256   -1.342167    1.392044
     11          1           0        1.881055   -2.022716   -0.962108
     12          1           0        2.324012   -0.262377   -1.144639
     13          1           0        0.128447    2.090652   -0.717345
     14          1           0        1.948854    1.706113   -0.580520
 ---------------------------------------------------------------------

 SCF Done:  E(RHF) =  -324.019876373     A.U. after    2 cycles

 The electronic state is 1-A.
 Alpha  occ. eigenvalues --  -21.07534 -15.80523 -11.53368 -11.49669 -11.46011
 Alpha  occ. eigenvalues --  -11.44129 -11.36867  -1.72527  -1.55993  -1.12800
 Alpha  occ. eigenvalues --   -1.06730  -0.96846  -0.82325  -0.80748  -0.70196
 Alpha  occ. eigenvalues --   -0.69359  -0.66733  -0.57644  -0.56050  -0.52993
 Alpha  occ. eigenvalues --   -0.51183  -0.48596  -0.45096  -0.38672  -0.31530
 Alpha  occ. eigenvalues --   -0.23424
 Alpha virt. eigenvalues --    0.03505   0.04290   0.05389   0.05654   0.05815
 Alpha virt. eigenvalues --    0.06080   0.06829   0.07785   0.09553   0.10099
 Alpha virt. eigenvalues --    0.12480   0.12800   0.13299   0.13695   0.14455

 Mulliken charges:
               1
     1  O   -2.924547
     2  C    1.161816
     3  C   -0.329010
     4  C   -0.210566
     5  C   -2.943622
     6  C   -2.061286
     7  N   -2.409276
     8  H    1.471616
     9  H    1.422423
    10  H    1.309943
    11  H    1.327676
    12  H    1.080177
    13  H    1.601711
    14  H    1.502946
 Sum of Mulliken charges =  -0.00000

 Dipole moment (field-independent basis, Debye):
    X=              0.7690    Y=              1.0271    Z=              1.1660  Tot=              1.7338

 Test job not archived.
 1\1\GINC-SE112\SP\RHF\Aug-CC-pVDZ\C5H7N1O1\OHZDE\09-Apr-2025\0\\#t hf
 aug-cc-pvdz iop(5/13=1,5/36=2,99/5=2) pseudo=read geom=check guess=(re
 ad,tcheck) scf=(maxcycle=1)\\title\\0,1\O,0,1.6033904,2.41052507,0.804
 19044\C,0,1.06746848,1.33947719,0.69134999\C,0,0.28477438,0.99321461,-
 0.53223359\C,0,0.1024953,-0.49074002,-1.00805009\C,0,0.34109009,-1.654
 57759,-0.23506057\C,0,-1.42461932,-0.02445379,0.71967243\N,0,-0.982817
 67,0.36026941,-0.48255686\H,0,1.16056469,0.55247701,1.45516948\H,0,0.4
 2137578,1.68420118,-1.35627286\H,0,0.25978854,-0.51027805,-2.08665549\

 Normal termination of Gaussian 16 at Wed Apr  9 18:10:47 2025.
