 Gaussian 16, Revision C.01,

 ----------------------------------------------------------------------
 #t hf aug-cc-pvdz symm=none int=(grid=ultrafine) guess=(read,tcheck) s
 table=(opt,rrhf)
 ----------------------------------------------------------------------
 -----
 title
 -----
 Symbolic Z-matrix:
 Charge =  0 Multiplicity = 1

 SCF Done:  E(RHF) =  -338.700503037     A.U. after   14 cycles
 Normal termination of Gaussian 16 at Wed Apr  9 03:40:23 2025.
 Gaussian 16:  ES64L-G16RevC.01  3-Jul-2019

 ----------------------------------------------------------------------
 #t hf aug-cc-pvdz iop(5/13=1,5/36=2,99/5=2) pseudo=read geom=check gue
 ss=(read,tcheck) scf=(maxcycle=1)
 ----------------------------------------------------------------------
 -----
 title
 -----
 Structure from the checkpoint file:  "Grambow2020_wb97xd3_007483_reverse_mol2.chk"
 Charge =  0 Multiplicity = 1

                         Standard orientation:
 ---------------------------------------------------------------------
 Center     Atomic      Atomic             Coordinates (Angstroms)
 Number     Number       Type             X           Y           Z
 ---------------------------------------------------------------------
      1          6           0        1.879272   -0.087569   -0.538491
      2          8           0        1.599937    0.076713    0.844249
      3          6           0        0.505742   -0.023580   -0.061639
      4          6           0       -0.399866    1.161053   -0.136463
      5          7           0       -1.625830    0.871562   -0.053357
      6          6           0       -1.734329   -0.575794    0.075138
      7          7           0       -0.380908   -1.128136    0.010493
      8          1           0        2.333404    0.764961   -1.037992
      9          1           0       -2.370247   -0.970300   -0.720730
     10          1           0        2.288596   -1.057101   -0.813740
     11          1           0       -0.040572    2.182766   -0.209336
     12          1           0       -2.217497   -0.791714    1.032200
     13          1           0       -0.250937   -1.790961   -0.735627
 ---------------------------------------------------------------------

 SCF Done:  E(RHF) =  -340.227925891     A.U. after    2 cycles

 The electronic state is 1-A.
 Alpha  occ. eigenvalues --  -21.06562 -15.74525 -15.73806 -11.51636 -11.45466
 Alpha  occ. eigenvalues --  -11.43099 -11.41642  -1.80447  -1.50399  -1.27598
 Alpha  occ. eigenvalues --   -1.06612  -0.97385  -0.87628  -0.81690  -0.72151
 Alpha  occ. eigenvalues --   -0.68062  -0.64156  -0.58635  -0.54939  -0.53908
 Alpha  occ. eigenvalues --   -0.50309  -0.43582  -0.40333  -0.39482  -0.31406
 Alpha  occ. eigenvalues --   -0.30724
 Alpha virt. eigenvalues --    0.03441   0.04934   0.05190   0.05815   0.06673
 Alpha virt. eigenvalues --    0.06961   0.09567   0.11079   0.11290   0.11819
 Alpha virt. eigenvalues --    0.12224   0.13513   0.14279   0.15128   0.15769

 Mulliken charges:
               1
     1  C   -1.934999
     2  O   -2.719782
     3  C    5.011286
     4  C   -0.439868
     5  N   -2.785760
     6  C   -1.729457
     7  N   -3.197080
     8  H    1.473778
     9  H    1.515435
    10  H    1.348120
    11  H    1.383902
    12  H    1.566299
    13  H    0.508127
 Sum of Mulliken charges =  -0.00000

 Dipole moment (field-independent basis, Debye):
    X=              0.9346    Y=             -0.7889    Z=             -1.3040  Tot=              1.7878

 Test job not archived.
 1\1\GINC-SE094\SP\RHF\Aug-CC-pVDZ\C4H6N2O1\OHZDE\09-Apr-2025\0\\#t hf
 aug-cc-pvdz iop(5/13=1,5/36=2,99/5=2) pseudo=read geom=check guess=(re
 ad,tcheck) scf=(maxcycle=1)\\title\\0,1\C,0,-1.53920544,0.25790661,-1.
 10235237\O,0,-0.49396569,-0.42230042,-1.78189641\C,0,-0.25855128,0.026
 20286,-0.45096449\C,0,0.83578049,1.02655916,-0.27544964\N,0,1.64410698
 ,0.74054357,0.65110399\C,0,1.20040007,-0.50636504,1.26058334\N,0,-0.03
 448188,-0.91207217,0.58866362\H,0,-1.79630432,1.24232712,-1.48622775\H
 ,0,1.04784365,-0.35947492,2.33230283\H,0,-2.38566501,-0.36389228,-0.81

 Normal termination of Gaussian 16 at Wed Apr  9 03:40:27 2025.
