 Gaussian 16, Revision C.01,

 ----------------------------------------------------------------------
 #t hf aug-cc-pvdz symm=none int=(grid=ultrafine) guess=(read,tcheck) s
 table=(opt,rrhf)
 ----------------------------------------------------------------------
 -----
 title
 -----
 Symbolic Z-matrix:
 Charge =  0 Multiplicity = 1

 SCF Done:  E(RHF) =  -323.763650594     A.U. after   15 cycles
 Normal termination of Gaussian 16 at Wed Apr  9 03:52:41 2025.
 Gaussian 16:  ES64L-G16RevC.01  3-Jul-2019

 ----------------------------------------------------------------------
 #t hf aug-cc-pvdz iop(5/13=1,5/36=2,99/5=2) pseudo=read geom=check gue
 ss=(read,tcheck) scf=(maxcycle=1)
 ----------------------------------------------------------------------
 -----
 title
 -----
 Structure from the checkpoint file:  "Grambow2020_wb97xd3_008338_forward_mol1.chk"
 Charge =  0 Multiplicity = 1

                         Standard orientation:
 ---------------------------------------------------------------------
 Center     Atomic      Atomic             Coordinates (Angstroms)
 Number     Number       Type             X           Y           Z
 ---------------------------------------------------------------------
      1          7           0       -2.316764    0.070339    0.219755
      2          6           0       -1.096643    0.072595   -0.060386
      3          6           0       -0.286532    1.315957   -0.239418
      4          6           0        1.105404    1.164489    0.361887
      5          6           0        1.734306   -0.103217   -0.194050
      6          6           0        0.876978   -1.338994   -0.154063
      7          8           0       -0.447041   -1.146245   -0.274716
      8          1           0       -2.673337   -0.883008    0.264967
      9          1           0       -0.200429    1.500582   -1.315961
     10          1           0       -0.849838    2.141772    0.190104
     11          1           0        1.036346    1.087342    1.451653
     12          1           0        1.712581    2.043418    0.136005
     13          1           0        1.942902    0.027611   -1.264443
     14          1           0        2.689262   -0.338776    0.276672
     15          1           0        1.022092   -1.522738    1.660659
     16          1           0        1.113017   -2.043595    0.975969
 ---------------------------------------------------------------------

 SCF Done:  E(RHF) =  -325.298086478     A.U. after    2 cycles

 The electronic state is 1-A.
 Alpha  occ. eigenvalues --  -21.11038 -15.73670 -11.50308 -11.45954 -11.44080
 Alpha  occ. eigenvalues --  -11.41097 -11.37737  -1.83595  -1.33782  -1.25646
 Alpha  occ. eigenvalues --   -1.09038  -0.93583  -0.87708  -0.76586  -0.70258
 Alpha  occ. eigenvalues --   -0.68371  -0.64048  -0.59567  -0.57650  -0.54078
 Alpha  occ. eigenvalues --   -0.52871  -0.48959  -0.47336  -0.42075  -0.39754
 Alpha  occ. eigenvalues --   -0.36106  -0.29592
 Alpha virt. eigenvalues --    0.03480   0.04880   0.05194   0.05485   0.05802
 Alpha virt. eigenvalues --    0.06197   0.06454   0.07025   0.08541   0.10274
 Alpha virt. eigenvalues --    0.11796   0.12044   0.13016   0.13323   0.13528

 Mulliken charges:
               1
     1  N   -3.599425
     2  C    5.368421
     3  C   -3.078025
     4  C   -2.940560
     5  C   -2.191337
     6  C    0.396793
     7  O   -3.559644
     8  H    0.713444
     9  H    1.401586
    10  H    1.266502
    11  H    1.459708
    12  H    1.233475
    13  H    1.504254
    14  H    1.304028
    15  H    0.471588
    16  H    0.249194
 Sum of Mulliken charges =  -0.00000

 Dipole moment (field-independent basis, Debye):
    X=              1.4516    Y=              1.0339    Z=             -0.2135  Tot=              1.7949

 Test job not archived.
 1\1\GINC-SE340\SP\RHF\Aug-CC-pVDZ\C5H9N1O1\OHZDE\09-Apr-2025\0\\#t hf
 aug-cc-pvdz iop(5/13=1,5/36=2,99/5=2) pseudo=read geom=check guess=(re
 ad,tcheck) scf=(maxcycle=1)\\title\\0,1\N,0,2.56432866,0.62059832,0.25
 574596\C,0,1.40076564,0.32154537,-0.09620241\C,0,0.86166888,-1.0725826
 5,-0.08824768\C,0,-0.58689023,-1.10627645,0.3834909\C,0,-1.38473141,-0
 .10869124,-0.44109067\C,0,-0.78416892,1.26373273,-0.58084619\O,0,0.557
 75152,1.32681214,-0.57812906\H,0,2.72840656,1.61976082,0.14255236\H,0,
 0.92002856,-1.45394165,-1.11372457\H,0,1.52474838,-1.67951172,0.524725

 Normal termination of Gaussian 16 at Wed Apr  9 03:52:46 2025.
