 Gaussian 16, Revision C.01,

 ----------------------------------------------------------------------
 #t hf aug-cc-pvdz symm=none int=(grid=ultrafine) guess=(read,tcheck) s
 table=(opt,rrhf)
 ----------------------------------------------------------------------
 -----
 title
 -----
 Symbolic Z-matrix:
 Charge =  0 Multiplicity = 1

 SCF Done:  E(RHF) =  -302.140671052     A.U. after   18 cycles
 Normal termination of Gaussian 16 at Wed Apr  9 16:04:36 2025.
 Gaussian 16:  ES64L-G16RevC.01  3-Jul-2019

 ----------------------------------------------------------------------
 #t hf aug-cc-pvdz iop(5/13=1,5/36=2,99/5=2) pseudo=read geom=check gue
 ss=(read,tcheck) scf=(maxcycle=1)
 ----------------------------------------------------------------------
 -----
 title
 -----
 Structure from the checkpoint file:  "Grambow2020_b97d3_006715_forward_mol1.chk"
 Charge =  0 Multiplicity = 1

                         Standard orientation:
 ---------------------------------------------------------------------
 Center     Atomic      Atomic             Coordinates (Angstroms)
 Number     Number       Type             X           Y           Z
 ---------------------------------------------------------------------
      1          8           0        2.968764   -0.191317   -0.355569
      2          6           0        1.901292    0.030168    0.391542
      3          6           0        0.571845    0.116508    0.023134
      4          6           0       -0.663918    0.269156    0.035737
      5          6           0       -2.085404    0.382845   -0.086576
      6          8           0       -2.841394   -0.581412    0.013792
      7          1           0        3.084524   -0.027815    0.835274
      8          1           0       -2.446377    1.417586   -0.284083
 ---------------------------------------------------------------------

 SCF Done:  E(RHF) =  -303.423618610     A.U. after    2 cycles

 The electronic state is 1-A.
 Alpha  occ. eigenvalues --  -21.12586 -21.09681 -11.55370 -11.53376 -11.47760
 Alpha  occ. eigenvalues --  -11.47364  -1.77038  -1.72782  -1.19866  -1.02338
 Alpha  occ. eigenvalues --   -0.87993  -0.74405  -0.71409  -0.57022  -0.56016
 Alpha  occ. eigenvalues --   -0.51608  -0.51433  -0.40085  -0.39452  -0.33458
 Alpha  occ. eigenvalues --   -0.28500
 Alpha virt. eigenvalues --    0.02118   0.04428   0.05880   0.06666   0.08625
 Alpha virt. eigenvalues --    0.09799   0.10525   0.10622   0.11342   0.11825
 Alpha virt. eigenvalues --    0.13553   0.14210   0.15858   0.16212   0.16911

 Mulliken charges:
               1
     1  O   -1.970992
     2  C   -1.005743
     3  C    1.830206
     4  C    1.560035
     5  C    0.264427
     6  O   -2.527167
     7  H    0.855672
     8  H    0.993561
 Sum of Mulliken charges =  -0.00000

 Dipole moment (field-independent basis, Debye):
    X=              1.1212    Y=              0.6415    Z=             -0.7881  Tot=              1.5132

 Test job not archived.
 1\1\GINC-SE129\SP\RHF\Aug-CC-pVDZ\C4H2O2\OHZDE\09-Apr-2025\0\\#t hf au
 g-cc-pvdz iop(5/13=1,5/36=2,99/5=2) pseudo=read geom=check guess=(read
 ,tcheck) scf=(maxcycle=1)\\title\\0,1\O,0,-2.92026905,-0.12338114,0.37
 517953\C,0,-1.79788904,-0.50821844,-0.20696194\C,0,-0.50913266,-0.0413
 9382,-0.0286654\C,0,0.71803205,0.14577944,-0.1266723\C,0,2.11934203,0.
 43656844,-0.11000687\O,0,2.90862737,-0.13364987,0.64050378\H,0,-2.9352
 342,-1.00695108,-0.44781419\H,0,2.4316185,1.22525548,-0.83143363\\Vers
 ion=ES64L-G16RevC.01\State=1-A\HF=-303.4236186\RMSD=1.374e+00\Dipole=-

 Normal termination of Gaussian 16 at Wed Apr  9 16:04:39 2025.
