 Gaussian 16, Revision C.01,

 ----------------------------------------------------------------------
 #t hf aug-cc-pvdz symm=none int=(grid=ultrafine) guess=(read,tcheck) s
 table=(opt,rrhf)
 ----------------------------------------------------------------------
 -----
 title
 -----
 Symbolic Z-matrix:
 Charge =  0 Multiplicity = 1

 SCF Done:  E(RHF) =  -305.689490307     A.U. after   16 cycles
 Normal termination of Gaussian 16 at Wed Apr  9 17:18:24 2025.
 Gaussian 16:  ES64L-G16RevC.01  3-Jul-2019

 ----------------------------------------------------------------------
 #t hf aug-cc-pvdz iop(5/13=1,5/36=2,99/5=2) pseudo=read geom=check gue
 ss=(read,tcheck) scf=(maxcycle=1)
 ----------------------------------------------------------------------
 -----
 title
 -----
 Structure from the checkpoint file:  "Grambow2020_b97d3_007092_forward_mol1.chk"
 Charge =  0 Multiplicity = 1

                         Standard orientation:
 ---------------------------------------------------------------------
 Center     Atomic      Atomic             Coordinates (Angstroms)
 Number     Number       Type             X           Y           Z
 ---------------------------------------------------------------------
      1          6           0        2.410631   -0.295178    0.174307
      2          6           0        0.784688   -0.192599   -0.459522
      3          6           0        0.839232    1.198943   -0.060489
      4          8           0       -0.034381   -0.997242    0.144403
      5          6           0       -1.762643    0.254464    0.362051
      6          8           0       -2.719665   -0.116241   -0.281174
      7          1           0        3.154046    0.365086   -0.281858
      8          1           0        2.389932   -0.216709    1.263468
      9          1           0        2.595414   -1.331766   -0.126092
     10          1           0        0.978238   -0.337306   -1.545420
     11          1           0        0.691835    1.449336    0.990507
     12          1           0       -1.017008    1.048293   -0.073462
     13          1           0        1.285668    1.966857   -0.696550
     14          1           0       -1.677211    0.170295    1.465504
 ---------------------------------------------------------------------

 SCF Done:  E(RHF) =  -307.088860661     A.U. after    2 cycles

 The electronic state is 1-A.
 Alpha  occ. eigenvalues --  -21.02473 -20.97520 -11.52447 -11.46928 -11.46063
 Alpha  occ. eigenvalues --  -11.43279  -1.67559  -1.63787  -1.20775  -1.01700
 Alpha  occ. eigenvalues --   -0.88710  -0.83554  -0.71269  -0.64673  -0.63484
 Alpha  occ. eigenvalues --   -0.60126  -0.57472  -0.53049  -0.48731  -0.47047
 Alpha  occ. eigenvalues --   -0.39996  -0.27586  -0.26704  -0.24018
 Alpha virt. eigenvalues --    0.01382   0.02632   0.04110   0.04868   0.05330
 Alpha virt. eigenvalues --    0.05668   0.05985   0.07281   0.08101   0.11510
 Alpha virt. eigenvalues --    0.12194   0.13127   0.13821   0.14337   0.14574

 Mulliken charges:
               1
     1  C   -3.689130
     2  C    1.424848
     3  C   -2.887740
     4  O   -2.784625
     5  C   -0.041364
     6  O   -2.507397
     7  H    1.275242
     8  H    1.297961
     9  H    1.034483
    10  H    1.468989
    11  H    1.355311
    12  H    1.467679
    13  H    1.396642
    14  H    1.189102
 Sum of Mulliken charges =  -0.00000

 Dipole moment (field-independent basis, Debye):
    X=              4.3473    Y=              2.5103    Z=              0.2730  Tot=              5.0275

 Test job not archived.
 1\1\GINC-SE045\SP\RHF\Aug-CC-pVDZ\C4H8O2\OHZDE\09-Apr-2025\0\\#t hf au
 g-cc-pvdz iop(5/13=1,5/36=2,99/5=2) pseudo=read geom=check guess=(read
 ,tcheck) scf=(maxcycle=1)\\title\\0,1\C,0,-0.56072803,1.78341142,0.477
 76784\C,0,0.07499989,0.48027068,-0.49877049\C,0,-0.92319714,-0.3426342
 9,0.15316492\O,0,1.33255373,0.2578014,-0.2704782\C,0,1.37820231,-1.886
 58453,-0.24697216\O,0,2.0094205,-2.37278647,-1.15923515\H,0,-1.6206348
 ,2.01944252,0.3451519\H,0,-0.29205024,1.62757681,1.52485146\H,0,0.0570
 246,2.57628602,0.04345032\H,0,-0.23687373,0.81318339,-1.51340272\H,0,-

 Normal termination of Gaussian 16 at Wed Apr  9 17:18:33 2025.
