 Gaussian 16, Revision C.01,

 ----------------------------------------------------------------------
 #t hf aug-cc-pvdz symm=none int=(grid=ultrafine) guess=(read,tcheck) s
 table=(opt,rrhf)
 ----------------------------------------------------------------------
 -----
 title
 -----
 Symbolic Z-matrix:
 Charge =  0 Multiplicity = 1

 SCF Done:  E(RHF) =  -359.608445379     A.U. after   16 cycles
 Normal termination of Gaussian 16 at Wed Apr  9 03:53:37 2025.
 Gaussian 16:  ES64L-G16RevC.01  3-Jul-2019

 ----------------------------------------------------------------------
 #t hf aug-cc-pvdz iop(5/13=1,5/36=2,99/5=2) pseudo=read geom=check gue
 ss=(read,tcheck) scf=(maxcycle=1)
 ----------------------------------------------------------------------
 -----
 title
 -----
 Structure from the checkpoint file:  "Grambow2020_wb97xd3_008365_reverse_mol2.chk"
 Charge =  0 Multiplicity = 1

                         Standard orientation:
 ---------------------------------------------------------------------
 Center     Atomic      Atomic             Coordinates (Angstroms)
 Number     Number       Type             X           Y           Z
 ---------------------------------------------------------------------
      1          8           0       -2.794911    0.221047   -0.463646
      2          6           0       -2.258166   -0.133972    0.665419
      3          6           0        0.671200   -1.238255   -0.537907
      4          7           0        1.990777   -1.028665    0.009789
      5          6           0        0.867761   -0.364537    0.655061
      6          6           0        0.719129    1.101083    0.430027
      7          8           0        1.276054    1.672980   -0.473228
      8          1           0       -3.195805   -0.496963   -0.978368
      9          1           0       -2.395110   -1.239964    0.771917
     10          1           0        0.412564   -0.739797   -1.466604
     11          1           0        0.261477   -2.232387   -0.399991
     12          1           0        2.479664   -0.333342   -0.548728
     13          1           0        0.588717   -0.731144    1.635641
     14          1           0        0.064373    1.636112    1.136999
 ---------------------------------------------------------------------

 SCF Done:  E(RHF) =  -361.191587586     A.U. after    2 cycles

 The electronic state is 1-A.
 Alpha  occ. eigenvalues --  -21.17017 -21.05905 -15.74391 -11.49185 -11.46360
 Alpha  occ. eigenvalues --  -11.44339 -11.40382  -1.80811  -1.71519  -1.46066
 Alpha  occ. eigenvalues --   -1.00966  -0.93219  -0.88838  -0.80318  -0.72595
 Alpha  occ. eigenvalues --   -0.70673  -0.64563  -0.58178  -0.51076  -0.49565
 Alpha  occ. eigenvalues --   -0.48914  -0.47995  -0.46572  -0.43409  -0.36554
 Alpha  occ. eigenvalues --   -0.34309  -0.29896
 Alpha virt. eigenvalues --    0.02756   0.04855   0.05359   0.05499   0.06461
 Alpha virt. eigenvalues --    0.06659   0.07641   0.09583   0.10933   0.11374
 Alpha virt. eigenvalues --    0.12267   0.12898   0.13240   0.13822   0.14445

 Mulliken charges:
               1
     1  O   -1.928607
     2  C   -0.595354
     3  C   -2.187789
     4  N   -2.301109
     5  C   -0.540555
     6  C    0.913410
     7  O   -2.805360
     8  H    0.869121
     9  H    1.651451
    10  H    1.412250
    11  H    1.380064
    12  H    0.766751
    13  H    1.735778
    14  H    1.629949
 Sum of Mulliken charges =   0.00000

 Dipole moment (field-independent basis, Debye):
    X=             -2.7851    Y=             -1.5907    Z=             -1.8172  Tot=              3.6864

 Test job not archived.
 1\1\GINC-SE090\SP\RHF\Aug-CC-pVDZ\C4H7N1O2\OHZDE\09-Apr-2025\0\\#t hf
 aug-cc-pvdz iop(5/13=1,5/36=2,99/5=2) pseudo=read geom=check guess=(re
 ad,tcheck) scf=(maxcycle=1)\\title\\0,1\O,0,-1.21544855,-2.13665869,1.
 32046699\C,0,-0.75164747,-2.12749807,0.10649612\C,0,-0.55267146,1.1967
 6645,-0.29136573\N,0,0.50905049,1.95393097,-0.9115527\C,0,0.68856589,0
 .51713792,-0.76320114\C,0,1.62788284,0.0512784,0.29577548\O,0,1.984913
 73,0.76572012,1.19866068\H,0,-2.17218353,-1.99807164,1.40198522\H,0,-1
 .61491564,-1.95028706,-0.58392313\H,0,-0.68359396,1.27587542,0.7830783

 Normal termination of Gaussian 16 at Wed Apr  9 03:53:41 2025.
