 Gaussian 16, Revision C.01,

 ----------------------------------------------------------------------
 #t hf aug-cc-pvdz symm=none int=(grid=ultrafine) guess=(read,tcheck) s
 table=(opt,rrhf)
 ----------------------------------------------------------------------
 -----
 title
 -----
 Symbolic Z-matrix:
 Charge =  0 Multiplicity = 1

 SCF Done:  E(RHF) =  -394.272016837     A.U. after   16 cycles
 Normal termination of Gaussian 16 at Wed Apr  9 18:30:26 2025.
 Gaussian 16:  ES64L-G16RevC.01  3-Jul-2019

 ----------------------------------------------------------------------
 #t hf aug-cc-pvdz iop(5/13=1,5/36=2,99/5=2) pseudo=read geom=check gue
 ss=(read,tcheck) scf=(maxcycle=1)
 ----------------------------------------------------------------------
 -----
 title
 -----
 Structure from the checkpoint file:  "Grambow2020_wb97xd3_007208_reverse_mol1.chk"
 Charge =  0 Multiplicity = 1

                         Standard orientation:
 ---------------------------------------------------------------------
 Center     Atomic      Atomic             Coordinates (Angstroms)
 Number     Number       Type             X           Y           Z
 ---------------------------------------------------------------------
      1          7           0        1.226769   -1.604522    0.345783
      2          6           0        0.647449   -0.573380   -0.053698
      3          8           0       -0.490860   -0.581216   -0.864096
      4          6           0       -1.613088   -0.065678   -0.384132
      5          8           0       -1.661309    0.244959    0.852236
      6          6           0        1.260985    0.780307    0.204579
      7          8           0        0.823064    1.795004   -0.247140
      8          1           0        0.729272   -2.454353    0.086657
      9          1           0       -2.619606    0.442751    0.128682
     10          1           0        2.163720    0.725788    0.835682
 ---------------------------------------------------------------------

 SCF Done:  E(RHF) =  -395.926751824     A.U. after    2 cycles

 The electronic state is 1-A.
 Alpha  occ. eigenvalues --  -21.14771 -21.11362 -21.10030 -15.79315 -11.53517
 Alpha  occ. eigenvalues --  -11.51040 -11.48788  -1.90909  -1.75529  -1.73112
 Alpha  occ. eigenvalues --   -1.37333  -1.01496  -0.88034  -0.76856  -0.74436
 Alpha  occ. eigenvalues --   -0.69983  -0.65101  -0.57114  -0.54474  -0.53521
 Alpha  occ. eigenvalues --   -0.47800  -0.45082  -0.40965  -0.37615  -0.32921
 Alpha  occ. eigenvalues --   -0.31077
 Alpha virt. eigenvalues --    0.03740   0.05248   0.05748   0.07731   0.09498
 Alpha virt. eigenvalues --    0.10117   0.10997   0.11137   0.11492   0.12533
 Alpha virt. eigenvalues --    0.13094   0.14267   0.14988   0.15577   0.17489

 Mulliken charges:
               1
     1  N   -3.349399
     2  C    4.258140
     3  O   -3.038007
     4  C    0.971045
     5  O   -1.878830
     6  C    1.677253
     7  O   -2.755890
     8  H    0.799208
     9  H    1.746179
    10  H    1.570301
 Sum of Mulliken charges =  -0.00000

 Dipole moment (field-independent basis, Debye):
    X=             -0.2089    Y=             -0.4020    Z=              0.8441  Tot=              0.9580

 Test job not archived.
 1\1\GINC-SE108\SP\RHF\Aug-CC-pVDZ\C3H3N1O3\OHZDE\09-Apr-2025\0\\#t hf
 aug-cc-pvdz iop(5/13=1,5/36=2,99/5=2) pseudo=read geom=check guess=(re
 ad,tcheck) scf=(maxcycle=1)\\title\\0,1\N,0,-0.86243332,1.56021792,-0.
 67416086\C,0,-0.51017533,0.39368341,-0.40293581\O,0,0.57121435,-0.2555
 015,-1.00435837\C,0,1.59388167,-0.61860087,-0.24419315\O,0,1.63662511,
 -0.20075838,0.96038494\C,0,-1.3599891,-0.45390732,0.5108519\O,0,-1.145
 53008,-1.60968322,0.71971592\H,0,-0.22312658,2.01828197,-1.3209425\H,0
 ,2.50593523,-0.93650206,0.53147043\H,0,-2.20644394,0.10403605,0.944910

 Normal termination of Gaussian 16 at Wed Apr  9 18:30:30 2025.
