 Gaussian 16, Revision C.01,

 ----------------------------------------------------------------------
 #t hf aug-cc-pvdz symm=none int=(grid=ultrafine) guess=(read,tcheck) s
 table=(opt,rrhf)
 ----------------------------------------------------------------------
 -----
 title
 -----
 Symbolic Z-matrix:
 Charge =  0 Multiplicity = 1

 SCF Done:  E(RHF) =  -306.547172303     A.U. after   15 cycles
 Normal termination of Gaussian 16 at Wed Apr  9 19:28:14 2025.
 Gaussian 16:  ES64L-G16RevC.01  3-Jul-2019

 ----------------------------------------------------------------------
 #t hf aug-cc-pvdz iop(5/13=1,5/36=2,99/5=2) pseudo=read geom=check gue
 ss=(read,tcheck) scf=(maxcycle=1)
 ----------------------------------------------------------------------
 -----
 title
 -----
 Structure from the checkpoint file:  "Grambow2020_wb97xd3_009014_reverse_mol1.chk"
 Charge =  0 Multiplicity = 1

                         Standard orientation:
 ---------------------------------------------------------------------
 Center     Atomic      Atomic             Coordinates (Angstroms)
 Number     Number       Type             X           Y           Z
 ---------------------------------------------------------------------
      1          6           0        2.250839   -0.177670   -0.117107
      2          6           0        0.759639   -0.047197   -0.163171
      3          8           0        0.187588    1.234193   -0.268409
      4          6           0       -0.959777    0.755142    0.465292
      5          6           0       -1.747331   -0.164920   -0.475140
      6          6           0       -0.743781   -1.312344   -0.275514
      7          6           0       -0.193934   -0.519064    0.904032
      8          1           0        2.641191    0.340631    0.759129
      9          1           0        2.521811   -1.232145   -0.058249
     10          1           0        2.699963    0.252507   -1.012796
     11          1           0       -1.422088    1.535952    1.065520
     12          1           0       -2.639102   -0.530424    0.043454
     13          1           0       -2.015927    0.182509   -1.473750
     14          1           0        0.402781   -0.736235   -1.079275
     15          1           0        0.116737   -0.890022    1.872891
 ---------------------------------------------------------------------

 SCF Done:  E(RHF) =  -307.997812455     A.U. after    2 cycles

 The electronic state is 1-A.
 Alpha  occ. eigenvalues --  -21.05592 -11.52251 -11.49008 -11.42726 -11.42110
 Alpha  occ. eigenvalues --  -11.40664 -11.37030  -1.82017  -1.32161  -1.14619
 Alpha  occ. eigenvalues --   -1.01053  -0.93390  -0.78870  -0.76520  -0.70640
 Alpha  occ. eigenvalues --   -0.65345  -0.61383  -0.57701  -0.55751  -0.50745
 Alpha  occ. eigenvalues --   -0.50241  -0.46033  -0.40411  -0.36871  -0.32763
 Alpha  occ. eigenvalues --   -0.28654
 Alpha virt. eigenvalues --    0.03799   0.04666   0.05066   0.05528   0.05871
 Alpha virt. eigenvalues --    0.06515   0.06855   0.08245   0.09135   0.10974
 Alpha virt. eigenvalues --    0.12124   0.12473   0.12564   0.13330   0.14711

 Mulliken charges:
               1
     1  C   -4.638026
     2  C    3.557012
     3  O   -3.429316
     4  C   -0.027208
     5  C   -3.246531
     6  C   -0.644728
     7  C   -1.914065
     8  H    1.159115
     9  H    1.108537
    10  H    1.200820
    11  H    1.550866
    12  H    1.371086
    13  H    1.356729
    14  H    1.378289
    15  H    1.217420
 Sum of Mulliken charges =   0.00000

 Dipole moment (field-independent basis, Debye):
    X=              0.7340    Y=              2.0447    Z=              1.2136  Tot=              2.4884

 Test job not archived.
 1\1\GINC-SE098\SP\RHF\Aug-CC-pVDZ\C6H8O1\OHZDE\09-Apr-2025\0\\#t hf au
 g-cc-pvdz iop(5/13=1,5/36=2,99/5=2) pseudo=read geom=check guess=(read
 ,tcheck) scf=(maxcycle=1)\\title\\0,1\C,0,2.13300575,0.15905421,-0.130
 11784\C,0,0.64288607,0.02407365,-0.19451016\O,0,-0.08460681,0.87006229
 ,-1.05202676\C,0,-1.20074072,0.79421367,-0.13947873\C,0,-1.80435294,-0
 .60858112,-0.27726849\C,0,-0.67291244,-1.23259038,0.55579618\C,0,-0.30
 20749,0.18710977,0.96796656\H,0,2.3998503,1.15628732,0.22076802\H,0,2.
 53559635,-0.5820699,0.56087012\H,0,2.57406952,-0.00021391,-1.11455593\

 Normal termination of Gaussian 16 at Wed Apr  9 19:28:19 2025.
