 Gaussian 16, Revision C.01,

 ----------------------------------------------------------------------
 #t hf aug-cc-pvdz symm=none int=(grid=ultrafine) guess=(read,tcheck) s
 table=(opt,rrhf)
 ----------------------------------------------------------------------
 -----
 title
 -----
 Symbolic Z-matrix:
 Charge =  0 Multiplicity = 1

 SCF Done:  E(RHF) =  -342.444801504     A.U. after   17 cycles
 Normal termination of Gaussian 16 at Wed Apr  9 19:29:03 2025.
 Gaussian 16:  ES64L-G16RevC.01  3-Jul-2019

 ----------------------------------------------------------------------
 #t hf aug-cc-pvdz iop(5/13=1,5/36=2,99/5=2) pseudo=read geom=check gue
 ss=(read,tcheck) scf=(maxcycle=1)
 ----------------------------------------------------------------------
 -----
 title
 -----
 Structure from the checkpoint file:  "Grambow2020_wb97xd3_009061_reverse_mol1.chk"
 Charge =  0 Multiplicity = 1

                         Standard orientation:
 ---------------------------------------------------------------------
 Center     Atomic      Atomic             Coordinates (Angstroms)
 Number     Number       Type             X           Y           Z
 ---------------------------------------------------------------------
      1          8           0        2.372364   -0.472586   -0.106915
      2          6           0        1.220089   -0.187702    0.044751
      3          6           0        0.692998    1.246372    0.203983
      4          6           0       -0.703980    1.144002   -0.204903
      5          6           0       -1.189402   -0.221274   -0.328475
      6          8           0       -2.338791   -0.400958    0.256158
      7          6           0        0.027871   -1.111899    0.103719
      8          1           0        1.285545    2.023901   -0.280376
      9          1           0        0.707882    1.480367    1.283620
     10          1           0       -1.164014   -0.292276   -1.480300
     11          1           0       -1.403704    1.969947   -0.279462
     12          1           0        0.163170   -2.007236   -0.495739
     13          1           0       -0.142917   -1.403344    1.143865
 ---------------------------------------------------------------------

 SCF Done:  E(RHF) =  -343.960076230     A.U. after    2 cycles

 The electronic state is 1-A.
 Alpha  occ. eigenvalues --  -21.08698 -20.93911 -11.57537 -11.53444 -11.46993
 Alpha  occ. eigenvalues --  -11.46723 -11.40195  -1.74483  -1.61173  -1.32914
 Alpha  occ. eigenvalues --   -1.10146  -1.02118  -0.84116  -0.79763  -0.71005
 Alpha  occ. eigenvalues --   -0.67674  -0.63630  -0.58301  -0.55345  -0.54295
 Alpha  occ. eigenvalues --   -0.53180  -0.43930  -0.42105  -0.31625  -0.23067
 Alpha  occ. eigenvalues --   -0.22278
 Alpha virt. eigenvalues --    0.00500   0.02078   0.03878   0.04613   0.05252
 Alpha virt. eigenvalues --    0.06682   0.06830   0.09137   0.09813   0.11654
 Alpha virt. eigenvalues --    0.11832   0.12444   0.13612   0.14071   0.14243

 Mulliken charges:
               1
     1  O   -3.428969
     2  C    4.894912
     3  C   -3.851171
     4  C   -0.537274
     5  C    1.863646
     6  O   -3.194684
     7  C   -3.975888
     8  H    1.354157
     9  H    1.482695
    10  H    1.355445
    11  H    1.382270
    12  H    1.303141
    13  H    1.351720
 Sum of Mulliken charges =  -0.00000

 Dipole moment (field-independent basis, Debye):
    X=              2.6858    Y=              3.2188    Z=             -0.2373  Tot=              4.1988

 Test job not archived.
 1\1\GINC-SE340\SP\RHF\Aug-CC-pVDZ\C5H6O2\OHZDE\09-Apr-2025\0\\#t hf au
 g-cc-pvdz iop(5/13=1,5/36=2,99/5=2) pseudo=read geom=check guess=(read
 ,tcheck) scf=(maxcycle=1)\\title\\0,1\O,0,0.54430819,-2.42072297,-0.21
 477848\C,0,0.30484816,-1.24830945,-0.2173185\C,0,-1.10141912,-0.648758
 52,-0.3679777\C,0,-0.97530799,0.67352143,0.23607889\C,0,0.39671862,1.0
 8365203,0.48949627\O,0,0.64315754,2.29471296,0.0798919\C,0,1.26875528,
 -0.09631135,-0.06637966\H,0,-1.92151481,-1.27157409,-0.00768541\H,0,-1
 .27990445,-0.50566091,-1.44883745\H,0,0.40750009,0.89711412,1.6285634\

 Normal termination of Gaussian 16 at Wed Apr  9 19:29:06 2025.
