 Gaussian 16, Revision C.01,

 ----------------------------------------------------------------------
 #t hf aug-cc-pvdz symm=none int=(grid=ultrafine) guess=(read,tcheck) s
 table=(opt,rrhf)
 ----------------------------------------------------------------------
 -----
 title
 -----
 Symbolic Z-matrix:
 Charge =  0 Multiplicity = 1

 SCF Done:  E(RHF) =  -271.933761495     A.U. after   16 cycles
 Normal termination of Gaussian 16 at Wed Apr  9 03:39:49 2025.
 Gaussian 16:  ES64L-G16RevC.01  3-Jul-2019

 ----------------------------------------------------------------------
 #t hf aug-cc-pvdz iop(5/13=1,5/36=2,99/5=2) pseudo=read geom=check gue
 ss=(read,tcheck) scf=(maxcycle=1)
 ----------------------------------------------------------------------
 -----
 title
 -----
 Structure from the checkpoint file:  "Grambow2020_wb97xd3_007433_reverse_mol2.chk"
 Charge =  0 Multiplicity = 1

                         Standard orientation:
 ---------------------------------------------------------------------
 Center     Atomic      Atomic             Coordinates (Angstroms)
 Number     Number       Type             X           Y           Z
 ---------------------------------------------------------------------
      1          6           0       -2.694208    0.192053   -0.522716
      2          6           0       -1.536215    0.652644    0.355720
      3          6           0       -0.651965   -0.495460    0.849112
      4          6           0        0.239497   -1.118876   -0.226515
      5          6           0        1.494844   -0.325825   -0.559868
      6          6           0        1.844771    1.067477   -0.172599
      7          6           0        2.531903   -0.084756    0.468358
      8          1           0       -3.314255    1.035492   -0.831284
      9          1           0       -3.334410   -0.512812    0.013550
     10          1           0       -2.345389   -0.303516   -1.431374
     11          1           0       -0.932727    1.378615   -0.196706
     12          1           0       -1.938080    1.184568    1.222804
     13          1           0       -1.297764   -1.277401    1.260150
     14          1           0       -0.339528   -1.257734   -1.143096
     15          1           0        0.556952   -2.114893    0.094106
     16          1           0        1.963898   -0.629070   -1.495880
     17          1           0        2.390682    1.694317   -0.868269
     18          1           0        1.252186    1.636122    0.540525
     19          1           0       -0.033326   -0.157230    1.686526
 ---------------------------------------------------------------------

 SCF Done:  E(RHF) =  -273.306326774     A.U. after    2 cycles

 The electronic state is 1-A.
 Alpha  occ. eigenvalues --  -11.45155 -11.42325 -11.42004 -11.40249 -11.38928
 Alpha  occ. eigenvalues --  -11.37188 -11.34934  -1.33892  -1.21836  -1.07752
 Alpha  occ. eigenvalues --   -0.95403  -0.85666  -0.81422  -0.72761  -0.66736
 Alpha  occ. eigenvalues --   -0.64141  -0.60621  -0.56580  -0.55321  -0.54607
 Alpha  occ. eigenvalues --   -0.51279  -0.48745  -0.45042  -0.43825  -0.42868
 Alpha  occ. eigenvalues --   -0.38443  -0.32304
 Alpha virt. eigenvalues --    0.03961   0.04794   0.05002   0.05338   0.05785
 Alpha virt. eigenvalues --    0.05905   0.06183   0.06322   0.07097   0.07702
 Alpha virt. eigenvalues --    0.08128   0.09169   0.10081   0.11009   0.12147

 Mulliken charges:
               1
     1  C   -3.734121
     2  C   -3.385046
     3  C   -2.722961
     4  C   -3.946660
     5  C    0.242963
     6  C   -2.594436
     7  C   -0.733350
     8  H    1.150115
     9  H    1.301358
    10  H    1.392756
    11  H    1.765096
    12  H    1.396108
    13  H    1.326910
    14  H    1.642618
    15  H    1.252917
    16  H    1.274885
    17  H    1.267357
    18  H    1.542176
    19  H    1.561314
 Sum of Mulliken charges =  -0.00000

 Dipole moment (field-independent basis, Debye):
    X=             -1.5711    Y=              0.6085    Z=             -1.4156  Tot=              2.2006

 Test job not archived.
 1\1\GINC-SE366\SP\RHF\Aug-CC-pVDZ\C7H12\OHZDE\09-Apr-2025\0\\#t hf aug
 -cc-pvdz iop(5/13=1,5/36=2,99/5=2) pseudo=read geom=check guess=(read,
 tcheck) scf=(maxcycle=1)\\title\\0,1\C,0,2.29588938,0.62864921,-0.8708
 9686\C,0,1.25797104,-0.47190118,-0.68049091\C,0,0.6692103,-0.51601122,
 0.73191577\C,0,-0.29267165,0.62862569,1.05582238\C,0,-1.69642673,0.467
 98931,0.49047529\C,0,-2.18527466,-0.50655445,-0.52195201\C,0,-2.555335
 93,-0.66224818,0.90963226\H,0,2.70946116,0.6096261,-1.88067811\H,0,3.1
 2522516,0.50844214,-0.16945145\H,0,1.87092079,1.62235942,-0.71321562\H

 Normal termination of Gaussian 16 at Wed Apr  9 03:39:55 2025.
