 Gaussian 16, Revision C.01,

 ----------------------------------------------------------------------
 #t hf aug-cc-pvdz symm=none int=(grid=ultrafine) guess=(read,tcheck) s
 table=(opt,rrhf)
 ----------------------------------------------------------------------
 -----
 title
 -----
 Symbolic Z-matrix:
 Charge =  0 Multiplicity = 1

 SCF Done:  E(RHF) =  -269.462867034     A.U. after   18 cycles
 Normal termination of Gaussian 16 at Wed Apr  9 18:05:52 2025.
 Gaussian 16:  ES64L-G16RevC.01  3-Jul-2019

 ----------------------------------------------------------------------
 #t hf aug-cc-pvdz iop(5/13=1,5/36=2,99/5=2) pseudo=read geom=check gue
 ss=(read,tcheck) scf=(maxcycle=1)
 ----------------------------------------------------------------------
 -----
 title
 -----
 Structure from the checkpoint file:  "Grambow2020_wb97xd3_006583_reverse_mol1.chk"
 Charge =  0 Multiplicity = 1

                         Standard orientation:
 ---------------------------------------------------------------------
 Center     Atomic      Atomic             Coordinates (Angstroms)
 Number     Number       Type             X           Y           Z
 ---------------------------------------------------------------------
      1          6           0       -0.051685    1.757228   -0.069094
      2          6           0       -0.244534    0.285720    0.165983
      3          6           0        0.606702   -0.451524    1.183927
      4          6           0        1.292119   -0.643095   -0.092105
      5          6           0        2.488485   -0.549347   -0.683800
      6          6           0       -1.541847   -0.246379   -0.128313
      7          6           0       -2.631808   -0.684798   -0.370022
      8          1           0       -0.805767    2.312100    0.495961
      9          1           0        0.941949    2.069778    0.246740
     10          1           0       -0.178406    2.008911   -1.122403
     11          1           0        0.442945   -0.749609   -0.884565
     12          1           0        1.123338    0.185857    1.896180
     13          1           0        0.120641   -1.304683    1.649345
     14          1           0        2.449473   -0.252635   -1.738651
     15          1           0       -3.598767   -1.076545   -0.582064
 ---------------------------------------------------------------------

 SCF Done:  E(RHF) =  -270.785923548     A.U. after    2 cycles

 The electronic state is 1-A.
 Alpha  occ. eigenvalues --  -11.53372 -11.45967 -11.45074 -11.43742 -11.41534
 Alpha  occ. eigenvalues --  -11.40165 -11.36198  -1.37869  -1.14060  -1.08497
 Alpha  occ. eigenvalues --   -1.00622  -0.90647  -0.78804  -0.73035  -0.68109
 Alpha  occ. eigenvalues --   -0.62887  -0.60681  -0.55968  -0.54883  -0.53701
 Alpha  occ. eigenvalues --   -0.48436  -0.42255  -0.39113  -0.34596  -0.26956
 Alpha virt. eigenvalues --    0.02430   0.04188   0.05229   0.05383   0.06133
 Alpha virt. eigenvalues --    0.06632   0.06793   0.07216   0.08240   0.09475
 Alpha virt. eigenvalues --    0.09834   0.11028   0.11615   0.12526   0.13119

 Mulliken charges:
               1
     1  C   -5.107044
     2  C    0.157030
     3  C   -3.040240
     4  C    2.694739
     5  C   -4.109116
     6  C    5.204849
     7  C   -4.943827
     8  H    1.084836
     9  H    1.400962
    10  H    1.094147
    11  H    1.329860
    12  H    1.339054
    13  H    1.217039
    14  H    1.009885
    15  H    0.667829
 Sum of Mulliken charges =   0.00000

 Dipole moment (field-independent basis, Debye):
    X=             -5.0349    Y=              1.7674    Z=              0.4627  Tot=              5.3562

 Test job not archived.
 1\1\GINC-SE041\SP\RHF\Aug-CC-pVDZ\C7H8\OHZDE\09-Apr-2025\0\\#t hf aug-
 cc-pvdz iop(5/13=1,5/36=2,99/5=2) pseudo=read geom=check guess=(read,t
 check) scf=(maxcycle=1)\\title\\0,1\C,0,-0.05640404,-1.51073619,-0.451
 36465\C,0,-0.30986569,-0.07680028,-0.08072806\C,0,0.18544776,1.0495109
 9,-0.96978849\C,0,1.23285446,0.87065773,0.03305839\C,0,2.55350065,0.71
 248162,0.17817282\C,0,-1.45116128,0.17991731,0.74649775\C,0,-2.4117758
 8,0.38941391,1.43350559\H,0,-0.94948299,-1.91974514,-0.93191902\H,0,0.
 78989105,-1.58794467,-1.13148984\H,0,0.14900151,-2.11656794,0.43160701

 Normal termination of Gaussian 16 at Wed Apr  9 18:05:58 2025.
