 Gaussian 16, Revision C.01,

 ----------------------------------------------------------------------
 #t hf aug-cc-pvdz symm=none int=(grid=ultrafine) guess=(read,tcheck) s
 table=(opt,rrhf)
 ----------------------------------------------------------------------
 -----
 title
 -----
 Symbolic Z-matrix:
 Charge =  0 Multiplicity = 1

 SCF Done:  E(RHF) =  -306.540284551     A.U. after   15 cycles
 Normal termination of Gaussian 16 at Wed Apr  9 19:09:00 2025.
 Gaussian 16:  ES64L-G16RevC.01  3-Jul-2019

 ----------------------------------------------------------------------
 #t hf aug-cc-pvdz iop(5/13=1,5/36=2,99/5=2) pseudo=read geom=check gue
 ss=(read,tcheck) scf=(maxcycle=1)
 ----------------------------------------------------------------------
 -----
 title
 -----
 Structure from the checkpoint file:  "Grambow2020_wb97xd3_008161_reverse_mol1.chk"
 Charge =  0 Multiplicity = 1

                         Standard orientation:
 ---------------------------------------------------------------------
 Center     Atomic      Atomic             Coordinates (Angstroms)
 Number     Number       Type             X           Y           Z
 ---------------------------------------------------------------------
      1          8           0        2.056444   -0.333572    0.096622
      2          6           0        0.713912   -0.032950   -0.006944
      3          6           0        0.132785    1.140118   -0.821917
      4          6           0       -0.979693    1.060378    0.203419
      5          6           0       -1.639354   -0.887181   -0.304360
      6          6           0       -0.261663   -1.155660   -0.090274
      7          6           0       -0.145237    0.387639    1.129528
      8          1           0        2.313539   -0.846881   -0.673565
      9          1           0       -0.104393    0.986159   -1.875691
     10          1           0        0.774314    2.009757   -0.674083
     11          1           0       -1.849241    1.683621    0.345908
     12          1           0       -2.321722   -0.652897    0.493493
     13          1           0       -2.135568   -1.500890   -1.067216
     14          1           0        0.154131   -2.166570   -0.141180
     15          1           0       -0.207110    0.082209    2.162644
 ---------------------------------------------------------------------

 SCF Done:  E(RHF) =  -308.013421578     A.U. after    2 cycles

 The electronic state is 1-A.
 Alpha  occ. eigenvalues --  -21.08615 -11.49254 -11.46634 -11.43641 -11.41944
 Alpha  occ. eigenvalues --  -11.39223 -11.36443  -1.74277  -1.40354  -1.08503
 Alpha  occ. eigenvalues --   -0.96477  -0.94427  -0.80319  -0.74687  -0.69692
 Alpha  occ. eigenvalues --   -0.65977  -0.58953  -0.57113  -0.55721  -0.52428
 Alpha  occ. eigenvalues --   -0.46843  -0.44489  -0.40432  -0.33627  -0.30124
 Alpha  occ. eigenvalues --   -0.28908
 Alpha virt. eigenvalues --    0.03884   0.04789   0.05216   0.05589   0.05952
 Alpha virt. eigenvalues --    0.06182   0.06812   0.07209   0.09606   0.11415
 Alpha virt. eigenvalues --    0.11892   0.12505   0.12697   0.14529   0.14693

 Mulliken charges:
               1
     1  O   -3.872228
     2  C    3.782828
     3  C   -3.285774
     4  C   -1.627142
     5  C   -2.411982
     6  C   -1.131074
     7  C   -0.737071
     8  H    0.539717
     9  H    1.475587
    10  H    1.200397
    11  H    1.233995
    12  H    1.199384
    13  H    1.116427
    14  H    1.374856
    15  H    1.142080
 Sum of Mulliken charges =  -0.00000

 Dipole moment (field-independent basis, Debye):
    X=             -0.0390    Y=             -0.5034    Z=             -0.2888  Tot=              0.5817

 Test job not archived.
 1\1\GINC-SE207\SP\RHF\Aug-CC-pVDZ\C6H8O1\OHZDE\09-Apr-2025\0\\#t hf au
 g-cc-pvdz iop(5/13=1,5/36=2,99/5=2) pseudo=read geom=check guess=(read
 ,tcheck) scf=(maxcycle=1)\\title\\0,1\O,0,2.0639594,0.91121733,-0.5220
 4\C,0,0.87019657,0.27352807,-0.25413171\C,0,0.73697402,-1.19124344,0.2
 0919684\C,0,-0.61159958,-1.09170697,-0.47397431\C,0,-1.41828428,0.3989
 1056,0.79618224\C,0,-0.21626397,1.04773175,0.4087259\C,0,-0.18639202,0
 .00508143,-1.26316815\H,0,2.43434289,1.22437446,0.30712855\H,0,0.77627
 632,-1.41432145,1.2764775\H,0,1.44753735,-1.79467288,-0.35707105\H,0,-

 Normal termination of Gaussian 16 at Wed Apr  9 19:09:05 2025.
