 Gaussian 16, Revision C.01,

 ----------------------------------------------------------------------
 #t hf aug-cc-pvdz symm=none int=(grid=ultrafine) guess=(read,tcheck) s
 table=(opt,rrhf)
 ----------------------------------------------------------------------
 -----
 title
 -----
 Symbolic Z-matrix:
 Charge =  0 Multiplicity = 1

 SCF Done:  E(RHF) =  -307.755346645     A.U. after   16 cycles

 1\1\GINC-SE226\Stability\RHF\Aug-CC-pVDZ\C6H10O1\OHZDE\09-Apr-2025\0\\
 #t hf aug-cc-pvdz symm=none int=(grid=ultrafine) guess=(read,tcheck) s
 table=(opt,rrhf)\\title\\0,1\C,0,-1.79747102,0.24421806,-0.02958018\C,
 0,-0.75221809,0.26806458,1.08670444\C,0,0.04817938,-0.99255729,1.14705
 811\C,0,1.35747187,-1.04147036,0.80956373\C,0,1.80270022,-0.02413829,-
 0.07002388\C,0,1.10774421,1.25608032,0.0443778\O,0,0.08911726,1.392108
 15,1.03335889\H,0,-2.49390552,-0.5840811,0.11406563\H,0,-1.32786845,0.
 1226186,-1.00729186\H,0,-2.36054373,1.17760562,-0.0219428\H,0,-1.27415

 Normal termination of Gaussian 16 at Wed Apr  9 19:29:26 2025.
 Gaussian 16:  ES64L-G16RevC.01  3-Jul-2019

 ----------------------------------------------------------------------
 #t hf aug-cc-pvdz iop(5/13=1,5/36=2,99/5=2) pseudo=read geom=check gue
 ss=(read,tcheck) scf=(maxcycle=1)
 ----------------------------------------------------------------------
 -----
 title
 -----
 Structure from the checkpoint file:  "Grambow2020_wb97xd3_009039_reverse_mol2.chk"
 Charge =  0 Multiplicity = 1

                         Standard orientation:
 ---------------------------------------------------------------------
 Center     Atomic      Atomic             Coordinates (Angstroms)
 Number     Number       Type             X           Y           Z
 ---------------------------------------------------------------------
      1          6           0       -1.878662    0.149149    0.746169
      2          6           0       -1.003937    0.163861   -0.508364
      3          6           0        0.009075    1.262379   -0.485775
      4          6           0        1.335095    1.028415   -0.353594
      5          6           0        1.683045   -0.196594    0.267013
      6          6           0        0.747276   -1.298498    0.054519
      7          8           0       -0.393196   -1.073757   -0.771921
      8          1           0       -2.416099    1.093590    0.850700
      9          1           0       -1.276912    0.003741    1.645050
     10          1           0       -2.606426   -0.659215    0.673859
     11          1           0       -1.647348    0.350728   -1.375985
     12          1           0        0.938027    0.484549    3.498211
     13          1           0       -0.376778    2.278379   -0.540699
     14          1           0        2.051714    1.840470   -0.420573
     15          1           0        1.359864    0.341595    2.897302
     16          1           0        1.319851   -2.108094   -0.412367
     17          1           0        0.448325   -1.687962    1.040058
 ---------------------------------------------------------------------

 SCF Done:  E(RHF) =  -309.217198102     A.U. after    2 cycles

 The electronic state is 1-A.
 Alpha  occ. eigenvalues --  -21.04539 -11.48633 -11.44959 -11.43394 -11.41043
 Alpha  occ. eigenvalues --  -11.39182 -11.37360  -1.77288  -1.24521  -1.16290
 Alpha  occ. eigenvalues --   -1.03818  -0.91200  -0.85641  -0.73036  -0.67231
 Alpha  occ. eigenvalues --   -0.62908  -0.61533  -0.60705  -0.57749  -0.55898
 Alpha  occ. eigenvalues --   -0.52677  -0.52142  -0.48817  -0.40132  -0.37621
 Alpha  occ. eigenvalues --   -0.30999  -0.28184
 Alpha virt. eigenvalues --    0.03043   0.04249   0.04975   0.05153   0.06216
 Alpha virt. eigenvalues --    0.06388   0.06478   0.06829   0.08141   0.08527
 Alpha virt. eigenvalues --    0.10503   0.10804   0.11957   0.12272   0.13495

 Mulliken charges:
               1
     1  C   -4.279723
     2  C    0.940753
     3  C   -0.887376
     4  C    0.636790
     5  C   -1.998831
     6  C   -1.905846
     7  O   -3.621716
     8  H    1.202054
     9  H    1.475781
    10  H    1.222615
    11  H    1.556381
    12  H    0.205808
    13  H    1.399836
    14  H    1.566691
    15  H   -0.283819
    16  H    1.295268
    17  H    1.475334
 Sum of Mulliken charges =  -0.00000

 Dipole moment (field-independent basis, Debye):
    X=             -2.6040    Y=              1.1176    Z=             -1.1976  Tot=              3.0764

 Test job not archived.
 1\1\GINC-SE226\SP\RHF\Aug-CC-pVDZ\C6H10O1\OHZDE\09-Apr-2025\0\\#t hf a
 ug-cc-pvdz iop(5/13=1,5/36=2,99/5=2) pseudo=read geom=check guess=(rea
 d,tcheck) scf=(maxcycle=1)\\title\\0,1\C,0,-1.79747102,0.24421806,-0.0
 2958018\C,0,-0.75221809,0.26806458,1.08670444\C,0,0.04817938,-0.992557
 29,1.14705811\C,0,1.35747187,-1.04147036,0.80956373\C,0,1.80270022,-0.
 02413829,-0.07002388\C,0,1.10774421,1.25608032,0.0443778\O,0,0.0891172
 6,1.39210815,1.03335889\H,0,-2.49390552,-0.5840811,0.11406563\H,0,-1.3
 2786845,0.1226186,-1.00729186\H,0,-2.36054373,1.17760562,-0.0219428\H,

 Normal termination of Gaussian 16 at Wed Apr  9 19:29:32 2025.
