 Gaussian 16, Revision C.01,

 ----------------------------------------------------------------------
 #t hf aug-cc-pvdz symm=none int=(grid=ultrafine) guess=(read,tcheck) s
 table=(opt,rrhf)
 ----------------------------------------------------------------------
 -----
 title
 -----
 Symbolic Z-matrix:
 Charge =  0 Multiplicity = 1

 SCF Done:  E(RHF) =  -339.740453106     A.U. after   18 cycles
 Normal termination of Gaussian 16 at Wed Apr  9 18:01:48 2025.
 Gaussian 16:  ES64L-G16RevC.01  3-Jul-2019

 ----------------------------------------------------------------------
 #t hf aug-cc-pvdz iop(5/13=1,5/36=2,99/5=2) pseudo=read geom=check gue
 ss=(read,tcheck) scf=(maxcycle=1)
 ----------------------------------------------------------------------
 -----
 title
 -----
 Structure from the checkpoint file:  "Grambow2020_wb97xd3_006551_forward_mol1.chk"
 Charge =  0 Multiplicity = 1

                         Standard orientation:
 ---------------------------------------------------------------------
 Center     Atomic      Atomic             Coordinates (Angstroms)
 Number     Number       Type             X           Y           Z
 ---------------------------------------------------------------------
      1          6           0        2.410161   -1.087376   -0.180002
      2          7           0        1.245861   -0.511650    0.472288
      3          6           0       -0.543165    0.106766   -0.433493
      4          6           0       -1.830766    0.226984    0.282883
      5          8           0       -2.838723   -0.645739   -0.153904
      6          6           0        0.670979    0.771195   -0.019613
      7          7           0        1.059980    1.921141   -0.082469
      8          1           0        3.322428   -0.550334    0.090145
      9          1           0        2.520255   -2.140036    0.082421
     10          1           0        2.281933   -1.003883   -1.260064
     11          1           0        1.237304   -0.604645    1.480859
     12          1           0       -0.558983   -0.405011   -1.395353
     13          1           0       -2.168035    1.252261    0.082429
     14          1           0       -1.665816    0.177310    1.366738
     15          1           0       -2.643452   -1.531599    0.156669
 ---------------------------------------------------------------------

 SCF Done:  E(RHF) =  -341.284537989     A.U. after    2 cycles

 The electronic state is 1-A.
 Alpha  occ. eigenvalues --  -21.11571 -15.75654 -15.65284 -11.54632 -11.47502
 Alpha  occ. eigenvalues --  -11.41017 -11.39895  -1.76338  -1.42812  -1.22333
 Alpha  occ. eigenvalues --   -1.13712  -0.99828  -0.92601  -0.77471  -0.70805
 Alpha  occ. eigenvalues --   -0.66981  -0.63023  -0.61415  -0.60265  -0.56090
 Alpha  occ. eigenvalues --   -0.53130  -0.47184  -0.44923  -0.38356  -0.36324
 Alpha  occ. eigenvalues --   -0.34485  -0.23608
 Alpha virt. eigenvalues --    0.02727   0.04146   0.04352   0.05006   0.05443
 Alpha virt. eigenvalues --    0.06095   0.06512   0.06747   0.08341   0.10915
 Alpha virt. eigenvalues --    0.11059   0.12014   0.12784   0.13525   0.14137

 Mulliken charges:
               1
     1  C   -3.458965
     2  N   -2.078580
     3  C   -2.012928
     4  C   -0.429492
     5  O   -2.698590
     6  C    4.251937
     7  N   -3.012188
     8  H    1.354575
     9  H    1.307367
    10  H    1.407098
    11  H    0.580746
    12  H    1.429847
    13  H    1.302085
    14  H    1.381080
    15  H    0.676007
 Sum of Mulliken charges =  -0.00000

 Dipole moment (field-independent basis, Debye):
    X=             -2.6283    Y=             -5.6419    Z=              0.6542  Tot=              6.2584

 Test job not archived.
 1\1\GINC-SE030\SP\RHF\Aug-CC-pVDZ\C4H8N2O1\OHZDE\09-Apr-2025\0\\#t hf
 aug-cc-pvdz iop(5/13=1,5/36=2,99/5=2) pseudo=read geom=check guess=(re
 ad,tcheck) scf=(maxcycle=1)\\title\\0,1\C,0,-2.25577032,0.54826284,0.6
 3946035\N,0,-1.00869155,-0.19815269,0.65350917\C,0,0.65031222,0.073942
 15,-0.60234171\C,0,2.02314107,-0.35315158,-0.25811224\O,0,2.9542807,0.
 68767585,-0.12371828\C,0,-0.4904944,-0.81232155,-0.60045006\N,0,-0.871
 79507,-1.68878269,-1.35149889\H,0,-3.11796138,-0.12057418,0.5855382\H,
 0,-2.3414189,1.17620565,1.52683269\H,0,-2.2717287,1.1843689,-0.2465772

 Normal termination of Gaussian 16 at Wed Apr  9 18:01:53 2025.
