 Gaussian 16, Revision C.01,

 ----------------------------------------------------------------------
 #t hf aug-cc-pvdz symm=none int=(grid=ultrafine) guess=(read,tcheck) s
 table=(opt,rrhf)
 ----------------------------------------------------------------------
 -----
 title
 -----
 Symbolic Z-matrix:
 Charge =  0 Multiplicity = 1

 SCF Done:  E(RHF) =  -281.159439080     A.U. after   18 cycles
 Normal termination of Gaussian 16 at Wed Apr  9 03:05:11 2025.
 Gaussian 16:  ES64L-G16RevC.01  3-Jul-2019

 ----------------------------------------------------------------------
 #t hf aug-cc-pvdz iop(5/13=1,5/36=2,99/5=2) pseudo=read geom=check gue
 ss=(read,tcheck) scf=(maxcycle=1)
 ----------------------------------------------------------------------
 -----
 title
 -----
 Structure from the checkpoint file:  "Grambow2020_b97d3_006498_forward_mol1.chk"
 Charge =  0 Multiplicity = 1

                         Standard orientation:
 ---------------------------------------------------------------------
 Center     Atomic      Atomic             Coordinates (Angstroms)
 Number     Number       Type             X           Y           Z
 ---------------------------------------------------------------------
      1          8           0       -0.943491   -1.089190   -0.243828
      2          6           0       -0.073835    0.257704   -0.311438
      3          6           0       -1.031478    1.248769   -0.175569
      4          6           0       -1.476474   -0.010336    0.387460
      5          6           0        1.300026    0.063792   -0.027776
      6          7           0        2.445421   -0.072071    0.187819
      7          1           0       -1.879450   -0.141562    1.399829
 ---------------------------------------------------------------------

 SCF Done:  E(RHF) =  -282.359077352     A.U. after    2 cycles

 The electronic state is 1-A.
 Alpha  occ. eigenvalues --  -21.15825 -15.81937 -11.58831 -11.55368 -11.49005
 Alpha  occ. eigenvalues --  -11.45118  -1.85559  -1.34734  -1.25300  -1.01756
 Alpha  occ. eigenvalues --   -0.86509  -0.69021  -0.61312  -0.59928  -0.58054
 Alpha  occ. eigenvalues --   -0.52276  -0.47526  -0.46233  -0.40273  -0.33215
 Alpha virt. eigenvalues --    0.02934   0.05403   0.06809   0.07981   0.08924
 Alpha virt. eigenvalues --    0.09618   0.10509   0.11196   0.11609   0.12137
 Alpha virt. eigenvalues --    0.12775   0.13696   0.15142   0.15794   0.16958

 Mulliken charges:
               1
     1  O   -2.210426
     2  C    2.066867
     3  C   -1.681189
     4  C    1.134892
     5  C    1.584911
     6  N   -2.337950
     7  H    1.442895
 Sum of Mulliken charges =  -0.00000

 Dipole moment (field-independent basis, Debye):
    X=             -2.4743    Y=             -2.8966    Z=              0.6558  Tot=              3.8656

 Test job not archived.
 1\1\GINC-SE457\SP\RHF\Aug-CC-pVDZ\C4H1N1O1\OHZDE\09-Apr-2025\0\\#t hf
 aug-cc-pvdz iop(5/13=1,5/36=2,99/5=2) pseudo=read geom=check guess=(re
 ad,tcheck) scf=(maxcycle=1)\\title\\0,1\O,0,0.09471378,-1.18164654,-0.
 74878128\C,0,-0.33620721,-0.16762079,0.41786192\C,0,0.75443954,-0.1992
 3484,1.27064587\C,0,1.1152955,-0.58470546,-0.07900744\C,0,-1.36198862,
 0.73276382,0.04018414\N,0,-2.22196638,1.47951995,-0.24206346\H,0,1.941
 72737,-0.15400413,-0.65866977\\Version=ES64L-G16RevC.01\State=1-A\HF=-
 282.3590774\RMSD=4.538e-01\Dipole=0.6641361,-0.8513006,-1.0710417\Quad

 Normal termination of Gaussian 16 at Wed Apr  9 03:05:13 2025.
