 Gaussian 16, Revision C.01,

 ----------------------------------------------------------------------
 #t hf aug-cc-pvdz symm=none int=(grid=ultrafine) guess=(read,tcheck) s
 table=(opt,rrhf)
 ----------------------------------------------------------------------
 -----
 title
 -----
 Symbolic Z-matrix:
 Charge =  0 Multiplicity = 1

 SCF Done:  E(RHF) =  -358.358878869     A.U. after   17 cycles
 Normal termination of Gaussian 16 at Wed Apr  9 03:34:09 2025.
 Gaussian 16:  ES64L-G16RevC.01  3-Jul-2019

 ----------------------------------------------------------------------
 #t hf aug-cc-pvdz iop(5/13=1,5/36=2,99/5=2) pseudo=read geom=check gue
 ss=(read,tcheck) scf=(maxcycle=1)
 ----------------------------------------------------------------------
 -----
 title
 -----
 Structure from the checkpoint file:  "Grambow2020_wb97xd3_007084_reverse_mol2.chk"
 Charge =  0 Multiplicity = 1

                         Standard orientation:
 ---------------------------------------------------------------------
 Center     Atomic      Atomic             Coordinates (Angstroms)
 Number     Number       Type             X           Y           Z
 ---------------------------------------------------------------------
      1          8           0        2.189033   -0.125033   -0.256061
      2          6           0        0.994181    0.024339   -0.136792
      3          7           0        0.226536    1.046341   -0.558116
      4          6           0       -1.184113    1.144969   -0.239336
      5          6           0       -1.161296   -0.235799    0.248505
      6          8           0       -1.082387   -1.341257   -0.385816
      7          6           0        0.039524   -0.930619    0.590626
      8          1           0        0.493702    1.506317    2.460065
      9          1           0       -1.828106    1.254983   -1.111661
     10          1           0       -1.399993    1.898942    0.517583
     11          1           0       -0.013695    1.340012    2.981348
     12          1           0        0.179400   -1.611664    1.416481
 ---------------------------------------------------------------------

 SCF Done:  E(RHF) =  -359.933222359     A.U. after    2 cycles

 The electronic state is 1-A.
 Alpha  occ. eigenvalues --  -21.19408 -21.01647 -15.71454 -11.59248 -11.54562
 Alpha  occ. eigenvalues --  -11.50501 -11.49017  -1.92368  -1.68746  -1.41706
 Alpha  occ. eigenvalues --   -1.10768  -1.05329  -0.86685  -0.79551  -0.70367
 Alpha  occ. eigenvalues --   -0.68920  -0.66795  -0.63458  -0.57771  -0.52490
 Alpha  occ. eigenvalues --   -0.50570  -0.47162  -0.41636  -0.36077  -0.28277
 Alpha  occ. eigenvalues --   -0.26900
 Alpha virt. eigenvalues --    0.02086   0.04159   0.04636   0.05095   0.06363
 Alpha virt. eigenvalues --    0.07209   0.07746   0.09904   0.10472   0.11168
 Alpha virt. eigenvalues --    0.12360   0.12946   0.13815   0.14159   0.14742

 Mulliken charges:
               1
     1  O   -3.178592
     2  C    4.861363
     3  N   -2.305357
     4  C   -2.462231
     5  C    3.543030
     6  O   -2.699168
     7  C   -1.773913
     8  H   -0.204485
     9  H    1.269874
    10  H    1.446232
    11  H    0.108946
    12  H    1.394300
 Sum of Mulliken charges =  -0.00000

 Dipole moment (field-independent basis, Debye):
    X=             -5.0651    Y=             -1.9695    Z=              1.5881  Tot=              5.6619

 Test job not archived.
 1\1\GINC-SE105\SP\RHF\Aug-CC-pVDZ\C4H5N1O2\OHZDE\09-Apr-2025\0\\#t hf
 aug-cc-pvdz iop(5/13=1,5/36=2,99/5=2) pseudo=read geom=check guess=(re
 ad,tcheck) scf=(maxcycle=1)\\title\\0,1\O,0,1.11278827,2.21313088,0.66
 48794\C,0,0.63419348,1.10618455,0.56576659\N,0,1.26077362,-0.06787228,
 0.36509604\C,0,0.54228818,-1.30824347,0.1493712\C,0,-0.70017832,-0.649
 26492,0.55809338\O,0,-1.10365038,-0.27531134,1.71048125\C,0,-0.8618129
 2,0.76981516,0.60143962\H,0,0.04092463,0.60506628,-2.36464617\H,0,0.82
 160151,-2.10654204,0.83674664\H,0,0.56830642,-1.64296603,-0.88759077\H

 Normal termination of Gaussian 16 at Wed Apr  9 03:34:13 2025.
