 Gaussian 16, Revision C.01,

 ----------------------------------------------------------------------
 #t hf aug-cc-pvdz symm=none int=(grid=ultrafine) guess=(read,tcheck) s
 table=(opt,rrhf)
 ----------------------------------------------------------------------
 -----
 title
 -----
 Symbolic Z-matrix:
 Charge =  0 Multiplicity = 1

 SCF Done:  E(RHF) =  -325.042815986     A.U. after   14 cycles
 Normal termination of Gaussian 16 at Wed Apr  9 19:11:14 2025.
 Gaussian 16:  ES64L-G16RevC.01  3-Jul-2019

 ----------------------------------------------------------------------
 #t hf aug-cc-pvdz iop(5/13=1,5/36=2,99/5=2) pseudo=read geom=check gue
 ss=(read,tcheck) scf=(maxcycle=1)
 ----------------------------------------------------------------------
 -----
 title
 -----
 Structure from the checkpoint file:  "Grambow2020_wb97xd3_008230_reverse_mol2.chk"
 Charge =  0 Multiplicity = 1

                         Standard orientation:
 ---------------------------------------------------------------------
 Center     Atomic      Atomic             Coordinates (Angstroms)
 Number     Number       Type             X           Y           Z
 ---------------------------------------------------------------------
      1          6           0        1.992505    0.113667   -1.133753
      2          6           0        1.971040   -0.147578    0.340182
      3          6           0        0.933336    0.051766    1.154824
      4          7           0       -0.321662    0.558192    0.790667
      5          6           0       -1.118575   -0.150392    0.106691
      6          8           0       -0.874153   -1.405839   -0.318127
      7          6           0       -2.464249    0.336685   -0.310273
      8          1           0        2.830628    0.763705   -1.394442
      9          1           0        2.121150   -0.811226   -1.703585
     10          1           0        1.074499    0.594524   -1.471730
     11          1           0        2.896478   -0.483707    0.796366
     12          1           0       -0.095640    3.538138   -0.769119
     13          1           0        0.018462   -1.650285   -0.032332
     14          1           0        1.053154   -0.113718    2.222008
     15          1           0       -0.140345    2.935221   -0.329660
     16          1           0       -2.550261    0.303568   -1.397487
     17          1           0       -2.610676    1.353183    0.043484
     18          1           0       -3.236933   -0.314921    0.100821
 ---------------------------------------------------------------------

 SCF Done:  E(RHF) =  -326.601787085     A.U. after    2 cycles

 The electronic state is 1-A.
 Alpha  occ. eigenvalues --  -21.11071 -15.71692 -11.49746 -11.44314 -11.39853
 Alpha  occ. eigenvalues --  -11.38485 -11.36487  -1.78501  -1.38179  -1.18097
 Alpha  occ. eigenvalues --   -1.09649  -0.98431  -0.83340  -0.74663  -0.67563
 Alpha  occ. eigenvalues --   -0.63674  -0.61847  -0.59951  -0.59223  -0.56472
 Alpha  occ. eigenvalues --   -0.54201  -0.51940  -0.50783  -0.47815  -0.46099
 Alpha  occ. eigenvalues --   -0.40178  -0.33236  -0.30104
 Alpha virt. eigenvalues --    0.03594   0.05213   0.05474   0.05573   0.05927
 Alpha virt. eigenvalues --    0.06211   0.06325   0.07050   0.08072   0.08848
 Alpha virt. eigenvalues --    0.10338   0.11275   0.12707   0.12898   0.13867

 Mulliken charges:
               1
     1  C   -4.350665
     2  C    0.036709
     3  C   -1.328993
     4  N   -3.571362
     5  C    5.389273
     6  O   -3.677775
     7  C   -4.372746
     8  H    1.175274
     9  H    1.202372
    10  H    1.408178
    11  H    1.403928
    12  H    0.443469
    13  H    1.321930
    14  H    1.579441
    15  H   -0.566386
    16  H    1.335481
    17  H    1.330034
    18  H    1.241836
 Sum of Mulliken charges =  -0.00000

 Dipole moment (field-independent basis, Debye):
    X=             -0.2007    Y=             -1.3370    Z=             -0.7847  Tot=              1.5632

 Test job not archived.
 1\1\GINC-SE054\SP\RHF\Aug-CC-pVDZ\C5H11N1O1\OHZDE\09-Apr-2025\0\\#t hf
  aug-cc-pvdz iop(5/13=1,5/36=2,99/5=2) pseudo=read geom=check guess=(r
 ead,tcheck) scf=(maxcycle=1)\\title\\0,1\C,0,-1.72494925,0.71687653,-0
 .93408137\C,0,-1.54467968,1.2623701,0.44835632\C,0,-0.63712055,0.85528
 727,1.33764148\N,0,0.30323875,-0.16752731,1.15413459\C,0,1.28661351,0.
 00595834,0.37447956\O,0,1.53771242,1.13205705,-0.32209201\C,0,2.315813
 15,-1.04648271,0.13984107\H,0,-2.76044719,0.40662024,-1.09042552\H,0,-
 1.50282598,1.47056004,-1.6952041\H,0,-1.08322874,-0.14560104,-1.114401

 Normal termination of Gaussian 16 at Wed Apr  9 19:11:21 2025.
