 Gaussian 16, Revision C.01,

 ----------------------------------------------------------------------
 #t hf aug-cc-pvdz symm=none int=(grid=ultrafine) guess=(read,tcheck) s
 table=(opt,rrhf)
 ----------------------------------------------------------------------
 -----
 title
 -----
 Symbolic Z-matrix:
 Charge =  0 Multiplicity = 1

 SCF Done:  E(RHF) =  -289.017807587     A.U. after   15 cycles

 1\1\GINC-SE026\Stability\RHF\Aug-CC-pVDZ\C6H13N1\OHZDE\09-Apr-2025\0\\
 #t hf aug-cc-pvdz symm=none int=(grid=ultrafine) guess=(read,tcheck) s
 table=(opt,rrhf)\\title\\0,1\C,0,-1.7061035,1.84946971,0.58294514\C,0,
 -0.75921616,0.67937868,0.63347927\N,0,-0.86175497,-0.32403974,-0.42725
 458\C,0,-1.02176077,-1.69837384,-0.29192013\C,0,0.26170834,0.35541138,
 -0.36965044\C,0,1.53116342,-1.37615764,0.66475441\C,0,1.27926765,0.900
 00004,-1.2833935\H,0,-2.6628109,1.60046113,1.04762916\H,0,-1.28421239,
 2.70116712,1.12048973\H,0,-1.8924971,2.15167501,-0.44843759\H,0,-0.563

 Normal termination of Gaussian 16 at Wed Apr  9 04:04:51 2025.
 Gaussian 16:  ES64L-G16RevC.01  3-Jul-2019

 ----------------------------------------------------------------------
 #t hf aug-cc-pvdz iop(5/13=1,5/36=2,99/5=2) pseudo=read geom=check gue
 ss=(read,tcheck) scf=(maxcycle=1)
 ----------------------------------------------------------------------
 -----
 title
 -----
 Structure from the checkpoint file:  "Grambow2020_wb97xd3_009136_reverse_mol1.chk"
 Charge =  0 Multiplicity = 1

                         Standard orientation:
 ---------------------------------------------------------------------
 Center     Atomic      Atomic             Coordinates (Angstroms)
 Number     Number       Type             X           Y           Z
 ---------------------------------------------------------------------
      1          6           0       -2.461524   -0.009369    0.387541
      2          6           0       -0.975344   -0.190777    0.550710
      3          7           0       -0.208951   -0.609942   -0.623794
      4          6           0        0.656303   -1.691974   -0.738915
      5          6           0        0.065849    0.580110   -0.138609
      6          6           0        2.071484   -0.074971    0.969604
      7          6           0        0.469748    1.910888   -0.621127
      8          1           0       -2.988164   -0.958996    0.506215
      9          1           0       -2.843400    0.681968    1.141568
     10          1           0       -2.695830    0.393474   -0.598684
     11          1           0       -0.661795   -0.642294    1.495668
     12          1           0        1.254568   -1.664632   -1.649133
     13          1           0        1.477960   -1.083089    0.242891
     14          1           0        0.169641   -2.652939   -0.586045
     15          1           0        1.629202    0.517852    1.771536
     16          1           0        2.727002   -0.807735    1.451696
     17          1           0        2.697564    0.568205    0.349641
     18          1           0       -0.393493    2.491535   -0.959379
     19          1           0        1.180057    1.818057   -1.442755
     20          1           0        0.950246    2.464752    0.188119
 ---------------------------------------------------------------------

 SCF Done:  E(RHF) =  -290.516783248     A.U. after    2 cycles

 The electronic state is 1-A.
 Alpha  occ. eigenvalues --  -15.76990 -11.53089 -11.45673 -11.41650 -11.38808
 Alpha  occ. eigenvalues --  -11.36894 -11.33263  -1.53731  -1.14052  -1.11469
 Alpha  occ. eigenvalues --   -1.02596  -0.97379  -0.83274  -0.74922  -0.68484
 Alpha  occ. eigenvalues --   -0.61553  -0.61029  -0.59201  -0.57695  -0.56880
 Alpha  occ. eigenvalues --   -0.55998  -0.53473  -0.50659  -0.48301  -0.44342
 Alpha  occ. eigenvalues --   -0.41061  -0.34657  -0.24525
 Alpha virt. eigenvalues --    0.03349   0.04856   0.05462   0.05622   0.05698
 Alpha virt. eigenvalues --    0.05933   0.06372   0.06532   0.06730   0.08225
 Alpha virt. eigenvalues --    0.08597   0.09058   0.10269   0.11334   0.12202

 Mulliken charges:
               1
     1  C   -4.125805
     2  C   -0.860626
     3  N   -2.873030
     4  C   -3.613397
     5  C    4.881340
     6  C   -5.453769
     7  C   -5.749038
     8  H    1.159559
     9  H    1.185047
    10  H    1.230516
    11  H    1.699009
    12  H    1.187052
    13  H    3.958347
    14  H    1.287092
    15  H    1.329471
    16  H    0.305247
    17  H    1.216157
    18  H    0.821861
    19  H    1.202607
    20  H    1.212359
 Sum of Mulliken charges =   0.00000

 Dipole moment (field-independent basis, Debye):
    X=             -1.4735    Y=              1.0187    Z=             -0.4824  Tot=              1.8551

 Test job not archived.
 1\1\GINC-SE026\SP\RHF\Aug-CC-pVDZ\C6H13N1\OHZDE\09-Apr-2025\0\\#t hf a
 ug-cc-pvdz iop(5/13=1,5/36=2,99/5=2) pseudo=read geom=check guess=(rea
 d,tcheck) scf=(maxcycle=1)\\title\\0,1\C,0,-1.7061035,1.84946971,0.582
 94514\C,0,-0.75921616,0.67937868,0.63347927\N,0,-0.86175497,-0.3240397
 4,-0.42725458\C,0,-1.02176077,-1.69837384,-0.29192013\C,0,0.26170834,0
 .35541138,-0.36965044\C,0,1.53116342,-1.37615764,0.66475441\C,0,1.2792
 6765,0.90000004,-1.2833935\H,0,-2.6628109,1.60046113,1.04762916\H,0,-1
 .28421239,2.70116712,1.12048973\H,0,-1.8924971,2.15167501,-0.44843759\

 Normal termination of Gaussian 16 at Wed Apr  9 04:04:59 2025.
