 Gaussian 16, Revision C.01,

 ----------------------------------------------------------------------
 #t hf aug-cc-pvdz symm=none int=(grid=ultrafine) guess=(read,tcheck) s
 table=(opt,rrhf)
 ----------------------------------------------------------------------
 -----
 title
 -----
 Symbolic Z-matrix:
 Charge =  0 Multiplicity = 1

 SCF Done:  E(RHF) =  -342.335189823     A.U. after   16 cycles
 Normal termination of Gaussian 16 at Wed Apr  9 03:59:40 2025.
 Gaussian 16:  ES64L-G16RevC.01  3-Jul-2019

 ----------------------------------------------------------------------
 #t hf aug-cc-pvdz iop(5/13=1,5/36=2,99/5=2) pseudo=read geom=check gue
 ss=(read,tcheck) scf=(maxcycle=1)
 ----------------------------------------------------------------------
 -----
 title
 -----
 Structure from the checkpoint file:  "Grambow2020_wb97xd3_008767_reverse_mol1.chk"
 Charge =  0 Multiplicity = 1

                         Standard orientation:
 ---------------------------------------------------------------------
 Center     Atomic      Atomic             Coordinates (Angstroms)
 Number     Number       Type             X           Y           Z
 ---------------------------------------------------------------------
      1          8           0       -1.389029    1.179069   -0.086634
      2          6           0       -1.424456   -0.072954    0.149069
      3          6           0       -0.288883   -0.870634    0.619239
      4          8           0       -0.298351   -1.041230   -0.813605
      5          6           0        1.378025   -0.101384   -0.629282
      6          6           0        1.124895    1.086549    0.009839
      7          6           0        1.052696   -0.207149    0.806857
      8          1           0       -2.387584   -0.574129    0.047527
      9          1           0       -0.488745   -1.771719    1.197167
     10          1           0        2.006041   -0.562713   -1.371711
     11          1           0        1.789906    1.930766    0.098194
     12          1           0       -0.234431    1.401322   -0.062005
     13          1           0        1.760191   -0.532809    1.558410
 ---------------------------------------------------------------------

 SCF Done:  E(RHF) =  -343.896631159     A.U. after    2 cycles

 The electronic state is 1-A.
 Alpha  occ. eigenvalues --  -21.04694 -21.02575 -11.54141 -11.50105 -11.47460
 Alpha  occ. eigenvalues --  -11.42954 -11.37368  -1.78819  -1.66980  -1.31204
 Alpha  occ. eigenvalues --   -1.04064  -0.91294  -0.84757  -0.80221  -0.74550
 Alpha  occ. eigenvalues --   -0.67317  -0.59612  -0.58944  -0.52477  -0.50345
 Alpha  occ. eigenvalues --   -0.45435  -0.44059  -0.38173  -0.33910  -0.25393
 Alpha  occ. eigenvalues --   -0.23304
 Alpha virt. eigenvalues --    0.03635   0.04599   0.04883   0.05074   0.06025
 Alpha virt. eigenvalues --    0.08205   0.08724   0.09997   0.10471   0.12463
 Alpha virt. eigenvalues --    0.12880   0.13439   0.14123   0.14354   0.14910

 Mulliken charges:
               1
     1  O   -3.783635
     2  C    1.983442
     3  C   -0.409150
     4  O   -2.010656
     5  C   -0.340390
     6  C   -2.524582
     7  C   -1.383941
     8  H    1.660031
     9  H    1.528938
    10  H    0.982900
    11  H    1.156193
    12  H    1.923337
    13  H    1.217513
 Sum of Mulliken charges =  -0.00000

 Dipole moment (field-independent basis, Debye):
    X=              1.0715    Y=             -1.5109    Z=              0.1342  Tot=              1.8572

 Test job not archived.
 1\1\GINC-SE174\SP\RHF\Aug-CC-pVDZ\C5H6O2\OHZDE\09-Apr-2025\0\\#t hf au
 g-cc-pvdz iop(5/13=1,5/36=2,99/5=2) pseudo=read geom=check guess=(read
 ,tcheck) scf=(maxcycle=1)\\title\\0,1\O,0,0.86481936,1.7256705,0.49984
 918\C,0,1.48843523,0.72438657,0.01724382\C,0,0.85733341,-0.40545012,-0
 .66982135\O,0,1.01761362,-0.84059589,0.69663121\C,0,-0.91089261,-0.809
 12481,0.6106291\C,0,-1.29377629,0.45620832,0.24175599\C,0,-0.64519354,
 -0.44756671,-0.79585555\H,0,2.57748874,0.74025493,0.07027399\H,0,1.438
 7846,-0.95824428,-1.40618612\H,0,-1.20142422,-1.65709923,1.20641495\H,

 Normal termination of Gaussian 16 at Wed Apr  9 03:59:44 2025.
