 Gaussian 16, Revision C.01,

 ----------------------------------------------------------------------
 #t hf aug-cc-pvdz symm=none int=(grid=ultrafine) guess=(read,tcheck) s
 table=(opt,rrhf)
 ----------------------------------------------------------------------
 -----
 title
 -----
 Symbolic Z-matrix:
 Charge =  0 Multiplicity = 1

 SCF Done:  E(RHF) =  -305.625012806     A.U. after   17 cycles
 Normal termination of Gaussian 16 at Wed Apr  9 03:05:53 2025.
 Gaussian 16:  ES64L-G16RevC.01  3-Jul-2019

 ----------------------------------------------------------------------
 #t hf aug-cc-pvdz iop(5/13=1,5/36=2,99/5=2) pseudo=read geom=check gue
 ss=(read,tcheck) scf=(maxcycle=1)
 ----------------------------------------------------------------------
 -----
 title
 -----
 Structure from the checkpoint file:  "Grambow2020_b97d3_006520_reverse_mol1.chk"
 Charge =  0 Multiplicity = 1

                         Standard orientation:
 ---------------------------------------------------------------------
 Center     Atomic      Atomic             Coordinates (Angstroms)
 Number     Number       Type             X           Y           Z
 ---------------------------------------------------------------------
      1          8           0       -1.657257   -1.044155    0.149010
      2          6           0       -1.087999    1.191559    0.012707
      3          6           0        0.356767    0.928000   -0.000590
      4          6           0        0.943689   -0.039532    1.057106
      5          6           0        1.036474   -0.982353   -0.159079
      6          8           0        0.817877    0.107147   -1.095487
      7          1           0       -2.014733   -1.110330   -0.760242
      8          1           0       -1.612055    1.293108   -0.935637
      9          1           0       -1.508210    1.715250    0.871834
     10          1           0        0.877572    1.905601   -0.062529
     11          1           0        1.919481    0.272160    1.471694
     12          1           0        0.258843   -0.287650    1.874834
     13          1           0       -0.664319   -1.350144    0.024050
     14          1           0        1.964873   -1.527972   -0.373059
 ---------------------------------------------------------------------

 SCF Done:  E(RHF) =  -307.030210851     A.U. after    2 cycles

 The electronic state is 1-A.
 Alpha  occ. eigenvalues --  -21.07702 -21.01902 -11.56438 -11.47072 -11.40547
 Alpha  occ. eigenvalues --  -11.31811  -1.74565  -1.64036  -1.17803  -1.06316
 Alpha  occ. eigenvalues --   -0.89693  -0.74822  -0.70314  -0.69133  -0.63794
 Alpha  occ. eigenvalues --   -0.60345  -0.52796  -0.49351  -0.48188  -0.41076
 Alpha  occ. eigenvalues --   -0.37693  -0.35610  -0.33396  -0.17323
 Alpha virt. eigenvalues --    0.01978   0.03604   0.04042   0.04535   0.06198
 Alpha virt. eigenvalues --    0.06525   0.07049   0.07649   0.09789   0.10788
 Alpha virt. eigenvalues --    0.11350   0.12483   0.13995   0.14302   0.14960

 Mulliken charges:
               1
     1  O   -1.924198
     2  C   -2.856747
     3  C    0.865225
     4  C   -3.235701
     5  C   -0.887892
     6  O   -2.743165
     7  H    0.690848
     8  H    1.408736
     9  H    1.341357
    10  H    1.518894
    11  H    1.197294
    12  H    1.227529
    13  H    2.059639
    14  H    1.338181
 Sum of Mulliken charges =  -0.00000

 Dipole moment (field-independent basis, Debye):
    X=             -2.9873    Y=              3.5833    Z=              0.4215  Tot=              4.6842

 Test job not archived.
 1\1\GINC-SE435\SP\RHF\Aug-CC-pVDZ\C4H8O2\OHZDE\09-Apr-2025\0\\#t hf au
 g-cc-pvdz iop(5/13=1,5/36=2,99/5=2) pseudo=read geom=check guess=(read
 ,tcheck) scf=(maxcycle=1)\\title\\0,1\O,0,-1.19034765,1.40772715,-0.72
 474914\C,0,-1.362178,-0.70830565,0.18844851\C,0,0.07416075,-0.81146629
 ,0.47702771\C,0,1.08298816,-0.44251967,-0.63897495\C,0,1.27494007,0.81
 226966,0.23582972\O,0,0.59316337,0.20224602,1.36485843\H,0,-1.64388026
 ,1.86926385,0.01023336\H,0,-2.02962379,-0.34526698,0.96756561\H,0,-1.7
 873433,-1.38056671,-0.55735856\H,0,0.25413274,-1.801169,0.9448712\H,0,

 Normal termination of Gaussian 16 at Wed Apr  9 03:05:57 2025.
