 Gaussian 16, Revision C.01,

 ----------------------------------------------------------------------
 #t hf aug-cc-pvdz symm=none int=(grid=ultrafine) guess=(read,tcheck) s
 table=(opt,rrhf)
 ----------------------------------------------------------------------
 -----
 title
 -----
 Symbolic Z-matrix:
 Charge =  0 Multiplicity = 1

 SCF Done:  E(RHF) =  -355.831071516     A.U. after   15 cycles
 Normal termination of Gaussian 16 at Wed Apr  9 19:28:10 2025.
 Gaussian 16:  ES64L-G16RevC.01  3-Jul-2019

 ----------------------------------------------------------------------
 #t hf aug-cc-pvdz iop(5/13=1,5/36=2,99/5=2) pseudo=read geom=check gue
 ss=(read,tcheck) scf=(maxcycle=1)
 ----------------------------------------------------------------------
 -----
 title
 -----
 Structure from the checkpoint file:  "Grambow2020_wb97xd3_008993_reverse_mol1.chk"
 Charge =  0 Multiplicity = 1

                         Standard orientation:
 ---------------------------------------------------------------------
 Center     Atomic      Atomic             Coordinates (Angstroms)
 Number     Number       Type             X           Y           Z
 ---------------------------------------------------------------------
      1          6           0        2.069468   -0.836924   -0.062823
      2          7           0        0.762973   -0.495358    0.509459
      3          6           0        0.202374    0.848862    0.119114
      4          8           0        0.791132    1.453764   -0.735640
      5          7           0       -1.025372    1.045560    0.632537
      6          6           0       -1.972739   -0.344815   -0.273404
      7          7           0       -1.437630   -1.396136   -0.407313
      8          1           0        1.986302   -0.815246   -1.145898
      9          1           0        2.352330   -1.835270    0.267168
     10          1           0        2.820039   -0.109724    0.240616
     11          1           0        0.743729   -0.613997    1.517293
     12          1           0       -1.110540    0.607136    1.544994
     13          1           0       -2.876844    0.209893   -0.467189
     14          1           0       -0.138480   -1.154105    0.088037
 ---------------------------------------------------------------------

 SCF Done:  E(RHF) =  -357.472976596     A.U. after    2 cycles

 The electronic state is 1-A.
 Alpha  occ. eigenvalues --  -21.04144 -15.82027 -15.72748 -15.72134 -11.50727
 Alpha  occ. eigenvalues --  -11.46066 -11.42670  -1.73260  -1.46824  -1.33842
 Alpha  occ. eigenvalues --   -1.26989  -1.03216  -0.83976  -0.80606  -0.76220
 Alpha  occ. eigenvalues --   -0.71104  -0.64553  -0.60198  -0.57950  -0.57129
 Alpha  occ. eigenvalues --   -0.51120  -0.47821  -0.45316  -0.43959  -0.39109
 Alpha  occ. eigenvalues --   -0.30730  -0.27514
 Alpha virt. eigenvalues --    0.02687   0.04345   0.05036   0.05674   0.06041
 Alpha virt. eigenvalues --    0.07561   0.08020   0.09841   0.11054   0.11348
 Alpha virt. eigenvalues --    0.12935   0.13138   0.13675   0.14523   0.15228

 Mulliken charges:
               1
     1  C   -3.368610
     2  N   -2.581590
     3  C    5.555137
     4  O   -3.022601
     5  N   -2.635698
     6  C    0.920357
     7  N   -2.987138
     8  H    1.406251
     9  H    1.375092
    10  H    1.317316
    11  H    0.648830
    12  H    0.652637
    13  H    1.389052
    14  H    1.330966
 Sum of Mulliken charges =  -0.00000

 Dipole moment (field-independent basis, Debye):
    X=              2.4761    Y=             -1.7691    Z=              2.1126  Tot=              3.7046

 Test job not archived.
 1\1\GINC-SE018\SP\RHF\Aug-CC-pVDZ\C3H7N3O1\OHZDE\09-Apr-2025\0\\#t hf
 aug-cc-pvdz iop(5/13=1,5/36=2,99/5=2) pseudo=read geom=check guess=(re
 ad,tcheck) scf=(maxcycle=1)\\title\\0,1\C,0,1.85593542,-0.58464016,0.0
 4858047\N,0,0.47012997,-0.20311522,0.34027382\C,0,-0.06968674,0.969492
 72,-0.43892833\O,0,0.61770741,1.39056135,-1.32962338\N,0,-1.36452965,1
 .20179192,-0.15773253\C,0,-2.12625854,-0.42360025,-0.81289971\N,0,-1.5
 4469726,-1.43903907,-0.61234911\H,0,1.93029296,-0.82726016,-1.00784975
 \H,0,2.11902357,-1.45474797,0.64799515\H,0,2.53132681,0.24162554,0.261

 Normal termination of Gaussian 16 at Wed Apr  9 19:28:14 2025.
