 Gaussian 16, Revision C.01,

 ----------------------------------------------------------------------
 #t hf aug-cc-pvdz symm=none int=(grid=ultrafine) guess=(read,tcheck) s
 table=(opt,rrhf)
 ----------------------------------------------------------------------
 -----
 title
 -----
 Symbolic Z-matrix:
 Charge =  0 Multiplicity = 1

 SCF Done:  E(RHF) =  -262.478847733     A.U. after   19 cycles
 Normal termination of Gaussian 16 at Wed Apr  9 17:00:59 2025.
 Gaussian 16:  ES64L-G16RevC.01  3-Jul-2019

 ----------------------------------------------------------------------
 #t hf aug-cc-pvdz iop(5/13=1,5/36=2,99/5=2) pseudo=read geom=check gue
 ss=(read,tcheck) scf=(maxcycle=1)
 ----------------------------------------------------------------------
 -----
 title
 -----
 Structure from the checkpoint file:  "Grambow2020_b97d3_006905_reverse_mol1.chk"
 Charge =  0 Multiplicity = 1

                         Standard orientation:
 ---------------------------------------------------------------------
 Center     Atomic      Atomic             Coordinates (Angstroms)
 Number     Number       Type             X           Y           Z
 ---------------------------------------------------------------------
      1          6           0        0.995187    0.925707    0.166230
      2          6           0       -0.347586    1.227979   -0.066259
      3          7           0       -1.367822    0.338803   -0.158489
      4          7           0       -1.065805   -0.951259    0.253880
      5          6           0        0.141012   -1.286324   -0.135433
      6          6           0        1.297158   -0.454161   -0.152568
      7          1           0        1.704767    1.629916    0.596147
      8          1           0       -0.684499    2.262000   -0.159174
      9          1           0        1.345752   -1.314595    0.776226
     10          1           0        2.154736   -0.769330   -0.752754
 ---------------------------------------------------------------------

 SCF Done:  E(RHF) =  -263.685228938     A.U. after    2 cycles

 The electronic state is 1-A.
 Alpha  occ. eigenvalues --  -15.79969 -15.78879 -11.48659 -11.46641 -11.43718
 Alpha  occ. eigenvalues --  -11.41479  -1.55312  -1.23865  -1.20562  -0.96956
 Alpha  occ. eigenvalues --   -0.87589  -0.73642  -0.66703  -0.64206  -0.60652
 Alpha  occ. eigenvalues --   -0.56989  -0.51240  -0.45916  -0.39180  -0.36871
 Alpha  occ. eigenvalues --   -0.28694
 Alpha virt. eigenvalues --    0.02113   0.03955   0.05092   0.05292   0.05916
 Alpha virt. eigenvalues --    0.09092   0.09943   0.10680   0.11590   0.11806
 Alpha virt. eigenvalues --    0.12963   0.13868   0.14220   0.15062   0.15485

 Mulliken charges:
               1
     1  C   -0.621785
     2  C   -0.321196
     3  N   -1.634308
     4  N   -1.793675
     5  C    0.480967
     6  C   -1.669299
     7  H    1.330729
     8  H    1.495106
     9  H    1.390258
    10  H    1.343203
 Sum of Mulliken charges =  -0.00000

 Dipole moment (field-independent basis, Debye):
    X=              3.3926    Y=              2.1712    Z=              0.4219  Tot=              4.0500

 Test job not archived.
 1\1\GINC-SE112\SP\RHF\Aug-CC-pVDZ\C4H4N2\OHZDE\09-Apr-2025\0\\#t hf au
 g-cc-pvdz iop(5/13=1,5/36=2,99/5=2) pseudo=read geom=check guess=(read
 ,tcheck) scf=(maxcycle=1)\\title\\0,1\C,0,0.52643305,0.75085325,-0.270
 93518\C,0,1.28333266,-0.39990061,-0.04437714\N,0,0.80202376,-1.6374696
 5,0.23272402\N,0,-0.56153753,-1.79916602,0.03253033\C,0,-1.21285421,-0
 .73197294,0.42892294\C,0,-0.81323495,0.625469,0.26424899\H,0,0.8873634
 9,1.60639281,-0.83840666\H,0,2.37239437,-0.38091141,-0.11457194\H,0,-1
 .76881104,0.31531046,-0.50778872\H,0,-1.3003336,1.38804612,0.87760438\

 Normal termination of Gaussian 16 at Wed Apr  9 17:01:02 2025.
