 Gaussian 16, Revision C.01,

 ----------------------------------------------------------------------
 #t hf aug-cc-pvdz symm=none int=(grid=ultrafine) guess=(read,tcheck) s
 table=(opt,rrhf)
 ----------------------------------------------------------------------
 -----
 title
 -----
 Symbolic Z-matrix:
 Charge =  0 Multiplicity = 1

 SCF Done:  E(RHF) =  -337.444281262     A.U. after   16 cycles
 Normal termination of Gaussian 16 at Wed Apr  9 03:58:35 2025.
 Gaussian 16:  ES64L-G16RevC.01  3-Jul-2019

 ----------------------------------------------------------------------
 #t hf aug-cc-pvdz iop(5/13=1,5/36=2,99/5=2) pseudo=read geom=check gue
 ss=(read,tcheck) scf=(maxcycle=1)
 ----------------------------------------------------------------------
 -----
 title
 -----
 Structure from the checkpoint file:  "Grambow2020_wb97xd3_008696_forward_mol1.chk"
 Charge =  0 Multiplicity = 1

                         Standard orientation:
 ---------------------------------------------------------------------
 Center     Atomic      Atomic             Coordinates (Angstroms)
 Number     Number       Type             X           Y           Z
 ---------------------------------------------------------------------
      1          8           0       -2.483221    0.405857    0.016149
      2          6           0       -1.701426   -0.518919    0.009520
      3          6           0       -0.261709   -0.334163   -0.013459
      4          6           0        0.775767   -1.241822   -0.066021
      5          7           0        1.958601   -0.419282   -0.066076
      6          6           0        1.588104    0.859014    0.035646
      7          7           0        0.269189    0.940346   -0.008322
      8          1           0       -2.035054   -1.570061    0.022581
      9          1           0        1.942271   -1.400955    0.580695
     10          1           0        2.246352    1.713018    0.079952
     11          1           0       -0.286760    1.779032   -0.085750
 ---------------------------------------------------------------------

 SCF Done:  E(RHF) =  -338.938847806     A.U. after    2 cycles

 The electronic state is 1-A.
 Alpha  occ. eigenvalues --  -21.05843 -15.84868 -15.77072 -11.49525 -11.48439
 Alpha  occ. eigenvalues --  -11.42215 -11.38431  -1.71698  -1.60597  -1.33314
 Alpha  occ. eigenvalues --   -1.13489  -0.95470  -0.88152  -0.80904  -0.74672
 Alpha  occ. eigenvalues --   -0.67690  -0.62514  -0.59915  -0.52908  -0.48265
 Alpha  occ. eigenvalues --   -0.44978  -0.42662  -0.35437  -0.31412  -0.29965
 Alpha virt. eigenvalues --    0.02699   0.05307   0.05817   0.06323   0.07877
 Alpha virt. eigenvalues --    0.09651   0.09801   0.10199   0.11559   0.11825
 Alpha virt. eigenvalues --    0.12866   0.13486   0.14064   0.14808   0.15554

 Mulliken charges:
               1
     1  O   -2.866453
     2  C    1.184045
     3  C    4.136502
     4  C   -2.113511
     5  N   -2.708387
     6  C    1.040608
     7  N   -3.508749
     8  H    1.457241
     9  H    0.989451
    10  H    1.540045
    11  H    0.849209
 Sum of Mulliken charges =   0.00000

 Dipole moment (field-independent basis, Debye):
    X=              1.0523    Y=              4.3075    Z=              0.7586  Tot=              4.4986

 Test job not archived.
 1\1\GINC-SE109\SP\RHF\Aug-CC-pVDZ\C4H4N2O1\OHZDE\09-Apr-2025\0\\#t hf
 aug-cc-pvdz iop(5/13=1,5/36=2,99/5=2) pseudo=read geom=check guess=(re
 ad,tcheck) scf=(maxcycle=1)\\title\\0,1\O,0,-2.17714742,-1.58668416,0.
 02341111\C,0,-1.91763448,-0.40415474,-0.00370669\C,0,-0.55930375,0.106
 22239,0.03991012\C,0,-0.06706461,1.39470634,0.06165997\N,0,1.36236662,
 1.22081774,0.10810615\C,0,1.6340741,-0.08511131,0.05931875\N,0,0.50479
 159,-0.77177781,0.0953054\H,0,-2.70261055,0.36807534,-0.06576592\H,0,0
 .9081783,2.05796239,-0.58121467\H,0,2.61567486,-0.53347986,0.05825258\

 Normal termination of Gaussian 16 at Wed Apr  9 03:58:42 2025.
