 Gaussian 16, Revision C.01,

 ----------------------------------------------------------------------
 #t hf aug-cc-pvdz symm=none int=(grid=ultrafine) guess=(read,tcheck) s
 table=(opt,rrhf)
 ----------------------------------------------------------------------
 -----
 title
 -----
 Symbolic Z-matrix:
 Charge =  0 Multiplicity = 1

 SCF Done:  E(RHF) =  -317.572793909     A.U. after   18 cycles
 Normal termination of Gaussian 16 at Wed Apr  9 19:04:40 2025.
 Gaussian 16:  ES64L-G16RevC.01  3-Jul-2019

 ----------------------------------------------------------------------
 #t hf aug-cc-pvdz iop(5/13=1,5/36=2,99/5=2) pseudo=read geom=check gue
 ss=(read,tcheck) scf=(maxcycle=1)
 ----------------------------------------------------------------------
 -----
 title
 -----
 Structure from the checkpoint file:  "Grambow2020_wb97xd3_008054_forward_mol1.chk"
 Charge =  0 Multiplicity = 1

                         Standard orientation:
 ---------------------------------------------------------------------
 Center     Atomic      Atomic             Coordinates (Angstroms)
 Number     Number       Type             X           Y           Z
 ---------------------------------------------------------------------
      1          7           0        2.341143   -0.225184   -0.487465
      2          6           0        1.286037   -0.112074   -0.000503
      3          6           0        0.038452   -1.212796    0.681674
      4          6           0        0.370772    1.187274    0.279120
      5          7           0       -1.001869    1.187692   -0.078092
      6          6           0       -1.650339    0.129113   -0.287904
      7          7           0       -1.017129   -1.125739   -0.154902
      8          1           0       -0.222350   -0.649855    1.586130
      9          1           0        0.495008    1.402030    1.340007
     10          1           0        0.873433    1.963404   -0.293817
     11          1           0       -2.682736    0.159704   -0.622522
     12          1           0       -0.987904   -1.681761   -1.000899
 ---------------------------------------------------------------------

 SCF Done:  E(RHF) =  -319.043742591     A.U. after    2 cycles

 The electronic state is 1-A.
 Alpha  occ. eigenvalues --  -15.80547 -15.77245 -15.75358 -11.48680 -11.47827
 Alpha  occ. eigenvalues --  -11.43061 -11.41238  -1.54030  -1.34715  -1.30567
 Alpha  occ. eigenvalues --   -1.10425  -0.94186  -0.85983  -0.73942  -0.73152
 Alpha  occ. eigenvalues --   -0.67018  -0.63474  -0.58268  -0.55427  -0.52749
 Alpha  occ. eigenvalues --   -0.45418  -0.44377  -0.41111  -0.38356  -0.30224
 Alpha virt. eigenvalues --    0.02988   0.04639   0.04961   0.05586   0.06370
 Alpha virt. eigenvalues --    0.07443   0.09175   0.10000   0.10277   0.11450
 Alpha virt. eigenvalues --    0.12672   0.12835   0.12907   0.14002   0.15152

 Mulliken charges:
               1
     1  N   -2.929395
     2  C    3.329575
     3  C   -1.221268
     4  C   -1.907435
     5  N   -2.669921
     6  C    1.598619
     7  N   -2.408673
     8  H    1.323099
     9  H    1.314327
    10  H    1.257500
    11  H    1.622062
    12  H    0.691511
 Sum of Mulliken charges =   0.00000

 Dipole moment (field-independent basis, Debye):
    X=             -3.9226    Y=              1.1424    Z=             -0.2517  Tot=              4.0934

 Test job not archived.
 1\1\GINC-SE224\SP\RHF\Aug-CC-pVDZ\C4H5N3\OHZDE\09-Apr-2025\0\\#t hf au
 g-cc-pvdz iop(5/13=1,5/36=2,99/5=2) pseudo=read geom=check guess=(read
 ,tcheck) scf=(maxcycle=1)\\title\\0,1\N,0,1.91453003,-1.57195398,0.809
 06758\C,0,1.13380733,-0.92820353,0.22663168\C,0,1.12654458,0.64890339,
 -0.6371414\C,0,-0.43566863,-1.15934744,-0.06921263\N,0,-1.36808343,-0.
 1130651,0.14904859\C,0,-1.02641867,1.09576554,0.23342204\N,0,0.3310085
 2,1.45796286,0.09377248\H,0,0.55782563,0.36191663,-1.5299788\H,0,-0.48
 392557,-1.51269453,-1.09870431\H,0,-0.6864115,-1.98461161,0.59363779\H

 Normal termination of Gaussian 16 at Wed Apr  9 19:04:45 2025.
