 Gaussian 16, Revision C.01,

 ----------------------------------------------------------------------
 #t hf aug-cc-pvdz symm=none int=(grid=ultrafine) guess=(read,tcheck) s
 table=(opt,rrhf)
 ----------------------------------------------------------------------
 -----
 title
 -----
 Symbolic Z-matrix:
 Charge =  0 Multiplicity = 1

 SCF Done:  E(RHF) =  -284.774266006     A.U. after   15 cycles
 Normal termination of Gaussian 16 at Wed Apr  9 03:06:50 2025.
 Gaussian 16:  ES64L-G16RevC.01  3-Jul-2019

 ----------------------------------------------------------------------
 #t hf aug-cc-pvdz iop(5/13=1,5/36=2,99/5=2) pseudo=read geom=check gue
 ss=(read,tcheck) scf=(maxcycle=1)
 ----------------------------------------------------------------------
 -----
 title
 -----
 Structure from the checkpoint file:  "Grambow2020_b97d3_006535_forward_mol1.chk"
 Charge =  0 Multiplicity = 1

                         Standard orientation:
 ---------------------------------------------------------------------
 Center     Atomic      Atomic             Coordinates (Angstroms)
 Number     Number       Type             X           Y           Z
 ---------------------------------------------------------------------
      1          6           0        1.646458    0.381759   -0.238361
      2          6           0        1.404313   -0.974096   -0.098661
      3          8           0       -0.775825   -1.247177    0.385822
      4          6           0       -1.444566   -0.368773   -0.215702
      5          7           0       -1.102763    0.938287   -0.333742
      6          6           0       -0.079346    1.332110    0.424520
      7          1           0        2.288625    0.870941    0.495599
      8          1           0        1.668744    0.805306   -1.242437
      9          1           0        1.140557   -1.598801   -0.948355
     10          1           0        1.642626   -1.500280    0.823040
     11          1           0       -2.342386   -0.662196   -0.789020
     12          1           0        0.057410    0.931361    1.437561
     13          1           0        0.309212    2.337078    0.242458
 ---------------------------------------------------------------------

 SCF Done:  E(RHF) =  -286.096270966     A.U. after    2 cycles

 The electronic state is 1-A.
 Alpha  occ. eigenvalues --  -21.03236 -15.71196 -11.46276 -11.45516 -11.44789
 Alpha  occ. eigenvalues --  -11.38647  -1.69023  -1.35288  -1.15940  -0.97418
 Alpha  occ. eigenvalues --   -0.86437  -0.76566  -0.68855  -0.65736  -0.59176
 Alpha  occ. eigenvalues --   -0.56410  -0.54134  -0.52672  -0.51931  -0.40795
 Alpha  occ. eigenvalues --   -0.34725  -0.32269  -0.27774
 Alpha virt. eigenvalues --    0.03685   0.04955   0.05490   0.05810   0.05933
 Alpha virt. eigenvalues --    0.06227   0.06384   0.09252   0.10721   0.11724
 Alpha virt. eigenvalues --    0.12792   0.13478   0.13858   0.14334   0.14826

 Mulliken charges:
               1
     1  C   -2.894877
     2  C   -2.488234
     3  O   -2.357126
     4  C    2.260414
     5  N   -2.535967
     6  C   -1.823966
     7  H    1.314953
     8  H    1.355519
     9  H    1.340009
    10  H    1.330835
    11  H    1.634743
    12  H    1.536527
    13  H    1.327168
 Sum of Mulliken charges =   0.00000

 Dipole moment (field-independent basis, Debye):
    X=              2.2071    Y=             -0.4721    Z=              0.8274  Tot=              2.4039

 Test job not archived.
 1\1\GINC-SE040\SP\RHF\Aug-CC-pVDZ\C4H7N1O1\OHZDE\09-Apr-2025\0\\#t hf
 aug-cc-pvdz iop(5/13=1,5/36=2,99/5=2) pseudo=read geom=check guess=(re
 ad,tcheck) scf=(maxcycle=1)\\title\\0,1\C,0,0.65658677,-1.18691092,0.0
 6123586\C,0,-0.70155501,-1.3052545,0.30193978\O,0,-1.59890086,0.757692
 91,0.26564703\C,0,-0.99089004,1.45639445,-0.58451741\N,0,0.35184384,1.
 4751645,-0.77394223\C,0,1.06936582,0.84806805,0.15844882\H,0,1.3486759
 5,-1.44275669,0.8649335\H,0,1.02250808,-1.36096883,-0.95062548\H,0,-1.
 41347066,-1.46721243,-0.50350921\H,0,-1.09011098,-1.42225118,1.3111640

 Normal termination of Gaussian 16 at Wed Apr  9 03:06:54 2025.
