 Gaussian 16, Revision C.01,

 ----------------------------------------------------------------------
 #t hf aug-cc-pvdz symm=none int=(grid=ultrafine) guess=(read,tcheck) s
 table=(opt,rrhf)
 ----------------------------------------------------------------------
 -----
 title
 -----
 Symbolic Z-matrix:
 Charge =  0 Multiplicity = 1

 SCF Done:  E(RHF) =  -306.505474523     A.U. after   16 cycles
 Normal termination of Gaussian 16 at Wed Apr  9 19:14:07 2025.
 Gaussian 16:  ES64L-G16RevC.01  3-Jul-2019

 ----------------------------------------------------------------------
 #t hf aug-cc-pvdz iop(5/13=1,5/36=2,99/5=2) pseudo=read geom=check gue
 ss=(read,tcheck) scf=(maxcycle=1)
 ----------------------------------------------------------------------
 -----
 title
 -----
 Structure from the checkpoint file:  "Grambow2020_wb97xd3_008446_reverse_mol1.chk"
 Charge =  0 Multiplicity = 1

                         Standard orientation:
 ---------------------------------------------------------------------
 Center     Atomic      Atomic             Coordinates (Angstroms)
 Number     Number       Type             X           Y           Z
 ---------------------------------------------------------------------
      1          6           0       -0.416393    1.303292   -0.554018
      2          6           0       -1.377158    0.151742   -0.387995
      3          6           0       -0.756979   -1.172195   -0.135384
      4          8           0        1.214392   -0.938515   -0.627716
      5          6           0        1.531160   -0.075539    0.257840
      6          6           0        0.569542    0.949461    0.549559
      7          6           0       -1.083200   -0.473147    0.955266
      8          1           0        0.077271    1.363861   -1.529634
      9          1           0       -0.899956    2.259719   -0.348802
     10          1           0       -2.363952    0.203598   -0.845355
     11          1           0       -0.773023   -2.155587   -0.566819
     12          1           0        1.895079    1.029682   -0.172432
     13          1           0        2.258888   -0.303733    1.049255
     14          1           0        0.766698    1.624843    1.377509
     15          1           0       -1.477971   -0.615942    1.946401
 ---------------------------------------------------------------------

 SCF Done:  E(RHF) =  -307.983127097     A.U. after    2 cycles

 The electronic state is 1-A.
 Alpha  occ. eigenvalues --  -20.99365 -11.50901 -11.47566 -11.44344 -11.42829
 Alpha  occ. eigenvalues --  -11.39756 -11.37317  -1.67514  -1.34818  -1.17195
 Alpha  occ. eigenvalues --   -1.01736  -0.84167  -0.79783  -0.76244  -0.71827
 Alpha  occ. eigenvalues --   -0.67489  -0.63925  -0.57161  -0.54956  -0.50875
 Alpha  occ. eigenvalues --   -0.44954  -0.42973  -0.39057  -0.32536  -0.28725
 Alpha  occ. eigenvalues --   -0.25952
 Alpha virt. eigenvalues --    0.03607   0.04569   0.04759   0.05152   0.05818
 Alpha virt. eigenvalues --    0.06426   0.06672   0.06953   0.09643   0.11621
 Alpha virt. eigenvalues --    0.12104   0.12411   0.13239   0.13979   0.14499

 Mulliken charges:
               1
     1  C   -3.687601
     2  C   -0.375722
     3  C   -0.731763
     4  O   -2.688833
     5  C    0.801847
     6  C   -1.936734
     7  C   -0.889015
     8  H    1.191992
     9  H    1.323950
    10  H    1.242917
    11  H    0.931652
    12  H    1.121724
    13  H    1.356791
    14  H    1.471041
    15  H    0.867755
 Sum of Mulliken charges =   0.00000

 Dipole moment (field-independent basis, Debye):
    X=             -0.5813    Y=              0.9744    Z=              0.5789  Tot=              1.2738

 Test job not archived.
 1\1\GINC-SE035\SP\RHF\Aug-CC-pVDZ\C6H8O1\OHZDE\09-Apr-2025\0\\#t hf au
 g-cc-pvdz iop(5/13=1,5/36=2,99/5=2) pseudo=read geom=check guess=(read
 ,tcheck) scf=(maxcycle=1)\\title\\0,1\C,0,0.68020636,1.07666413,0.2840
 4618\C,0,1.36948763,-0.16747215,-0.21965654\C,0,0.62064664,-1.43553398
 ,-0.03937817\O,0,-0.85756315,-0.99378753,1.30340017\C,0,-1.50244108,-0
 .14272121,0.60404444\C,0,-0.73309775,0.7723591,-0.19041804\C,0,0.43105
 995,-0.81766235,-1.20852221\H,0,0.71675207,1.22538956,1.36836335\H,0,1
 .06738304,1.97292253,-0.20330747\H,0,2.45595973,-0.19091227,-0.2879172

 Normal termination of Gaussian 16 at Wed Apr  9 19:14:12 2025.
