 Gaussian 16, Revision C.01,

 ----------------------------------------------------------------------
 #t hf aug-cc-pvdz symm=none int=(grid=ultrafine) guess=(read,tcheck) s
 table=(opt,rrhf)
 ----------------------------------------------------------------------
 -----
 title
 -----
 Symbolic Z-matrix:
 Charge =  0 Multiplicity = 1

 SCF Done:  E(RHF) =  -309.050829062     A.U. after   12 cycles

 1\1\GINC-SE232\Stability\RHF\Aug-CC-pVDZ\C6H12O1\OHZDE\09-Apr-2025\0\\
 #t hf aug-cc-pvdz symm=none int=(grid=ultrafine) guess=(read,tcheck) s
 table=(opt,rrhf)\\title\\0,1\C,0,2.54340868,-0.56077795,-0.07331276\O,
 0,1.19442956,-0.93808444,0.00867021\C,0,0.37887184,0.06861538,0.531124
 41\C,0,0.07136613,1.31502107,-0.3242173\C,0,-1.38567067,1.21836439,0.1
 793518\C,0,-1.12657745,-0.25567936,0.57800799\C,0,-1.5818095,-1.258869
 86,-0.46705229\H,0,2.94450822,-0.29234876,0.91337578\H,0,2.68588272,0.
 29214837,-0.74877304\H,0,3.09914184,-1.41316445,-0.46191235\H,0,0.7430

 Normal termination of Gaussian 16 at Wed Apr  9 19:12:17 2025.
 Gaussian 16:  ES64L-G16RevC.01  3-Jul-2019

 ----------------------------------------------------------------------
 #t hf aug-cc-pvdz iop(5/13=1,5/36=2,99/5=2) pseudo=read geom=check gue
 ss=(read,tcheck) scf=(maxcycle=1)
 ----------------------------------------------------------------------
 -----
 title
 -----
 Structure from the checkpoint file:  "Grambow2020_wb97xd3_008396_forward_mol2.chk"
 Charge =  0 Multiplicity = 1

                         Standard orientation:
 ---------------------------------------------------------------------
 Center     Atomic      Atomic             Coordinates (Angstroms)
 Number     Number       Type             X           Y           Z
 ---------------------------------------------------------------------
      1          6           0       -2.540765    0.045195   -0.086833
      2          8           0       -1.280373    0.648307    0.041599
      3          6           0       -0.293511   -0.240790    0.474204
      4          6           0        0.224691   -1.326282   -0.491649
      5          6           0        1.645166   -1.018256    0.031084
      6          6           0        1.130006    0.341679    0.564045
      7          6           0        1.389590    1.503647   -0.378413
      8          1           0       -2.879001   -0.381994    0.866895
      9          1           0       -2.534119   -0.752279   -0.840504
     10          1           0       -3.243266    0.817074   -0.398453
     11          1           0       -0.590015   -0.691279    1.432854
     12          1           0       -0.155517   -2.341490   -0.379165
     13          1           0        0.097132   -1.010030   -1.528324
     14          1           0        2.446503   -0.977844   -0.707373
     15          1           0        1.943737   -1.694265    0.832850
     16          1           0        1.449288    0.607167    1.573731
     17          1           0        2.452074    1.757489   -0.377509
     18          1           0        1.101201    1.263377   -1.403828
     19          1           0        0.823906    2.386461   -0.078601
 ---------------------------------------------------------------------

 SCF Done:  E(RHF) =  -310.560476083     A.U. after    2 cycles

 The electronic state is 1-A.
 Alpha  occ. eigenvalues --  -21.03745 -11.50488 -11.41253 -11.39809 -11.39719
 Alpha  occ. eigenvalues --  -11.36569 -11.33689  -1.75747  -1.31715  -1.06200
 Alpha  occ. eigenvalues --   -1.00054  -0.90660  -0.89329  -0.75848  -0.69013
 Alpha  occ. eigenvalues --   -0.63713  -0.60794  -0.59658  -0.56984  -0.53984
 Alpha  occ. eigenvalues --   -0.52891  -0.51075  -0.48128  -0.43511  -0.40697
 Alpha  occ. eigenvalues --   -0.38783  -0.36550  -0.28385
 Alpha virt. eigenvalues --    0.04210   0.04968   0.05092   0.05441   0.05474
 Alpha virt. eigenvalues --    0.05872   0.06209   0.06723   0.06969   0.08446
 Alpha virt. eigenvalues --    0.08780   0.09582   0.11949   0.12884   0.13170

 Mulliken charges:
               1
     1  C   -3.288955
     2  O   -3.819676
     3  C    2.316000
     4  C   -3.019797
     5  C   -3.081152
     6  C   -1.484711
     7  C   -4.159191
     8  H    1.302477
     9  H    1.405314
    10  H    1.290444
    11  H    1.706747
    12  H    1.259163
    13  H    1.533181
    14  H    1.380213
    15  H    1.246935
    16  H    1.546261
    17  H    1.190828
    18  H    1.365468
    19  H    1.310451
 Sum of Mulliken charges =   0.00000

 Dipole moment (field-independent basis, Debye):
    X=             -0.0816    Y=             -0.2573    Z=              0.1527  Tot=              0.3101

 Test job not archived.
 1\1\GINC-SE232\SP\RHF\Aug-CC-pVDZ\C6H12O1\OHZDE\09-Apr-2025\0\\#t hf a
 ug-cc-pvdz iop(5/13=1,5/36=2,99/5=2) pseudo=read geom=check guess=(rea
 d,tcheck) scf=(maxcycle=1)\\title\\0,1\C,0,2.54340868,-0.56077795,-0.0
 7331276\O,0,1.19442956,-0.93808444,0.00867021\C,0,0.37887184,0.0686153
 8,0.53112441\C,0,0.07136613,1.31502107,-0.3242173\C,0,-1.38567067,1.21
 836439,0.1793518\C,0,-1.12657745,-0.25567936,0.57800799\C,0,-1.5818095
 ,-1.25886986,-0.46705229\H,0,2.94450822,-0.29234876,0.91337578\H,0,2.6
 8588272,0.29214837,-0.74877304\H,0,3.09914184,-1.41316445,-0.46191235\

 Normal termination of Gaussian 16 at Wed Apr  9 19:12:25 2025.
