 Gaussian 16, Revision C.01,

 ----------------------------------------------------------------------
 #t hf aug-cc-pvdz symm=none int=(grid=ultrafine) guess=(read,tcheck) s
 table=(opt,rrhf)
 ----------------------------------------------------------------------
 -----
 title
 -----
 Symbolic Z-matrix:
 Charge =  0 Multiplicity = 1

 SCF Done:  E(RHF) =  -283.478101577     A.U. after   15 cycles
 Normal termination of Gaussian 16 at Wed Apr  9 17:53:39 2025.
 Gaussian 16:  ES64L-G16RevC.01  3-Jul-2019

 ----------------------------------------------------------------------
 #t hf aug-cc-pvdz iop(5/13=1,5/36=2,99/5=2) pseudo=read geom=check gue
 ss=(read,tcheck) scf=(maxcycle=1)
 ----------------------------------------------------------------------
 -----
 title
 -----
 Structure from the checkpoint file:  "Grambow2020_wb97xd3_006234_forward_mol1.chk"
 Charge =  0 Multiplicity = 1

                         Standard orientation:
 ---------------------------------------------------------------------
 Center     Atomic      Atomic             Coordinates (Angstroms)
 Number     Number       Type             X           Y           Z
 ---------------------------------------------------------------------
      1          8           0       -2.101866    0.064347   -0.039239
      2          6           0       -0.921984   -0.057998   -0.026993
      3          6           0        0.310029    1.276033    0.065041
      4          6           0        1.741685    0.568484   -0.052785
      5          6           0        1.369754   -0.726830   -0.015086
      6          7           0       -0.047020   -1.053518    0.060828
      7          1           0        0.077817    1.041763    1.105587
      8          1           0        0.076823    2.311669   -0.156307
      9          1           0        0.353174    0.736724   -0.907247
     10          1           0        2.022387   -1.588013    0.008929
     11          1           0       -0.383033   -2.000435    0.016091
 ---------------------------------------------------------------------

 SCF Done:  E(RHF) =  -284.781993675     A.U. after    2 cycles

 The electronic state is 1-A.
 Alpha  occ. eigenvalues --  -21.09619 -15.82070 -11.57941 -11.45630 -11.41620
 Alpha  occ. eigenvalues --  -11.36470  -1.76707  -1.49748  -1.20958  -1.03901
 Alpha  occ. eigenvalues --   -0.84850  -0.78422  -0.73698  -0.68820  -0.62364
 Alpha  occ. eigenvalues --   -0.56445  -0.55210  -0.51151  -0.44394  -0.41050
 Alpha  occ. eigenvalues --   -0.29463  -0.26506
 Alpha virt. eigenvalues --    0.02514   0.03877   0.05611   0.05834   0.06756
 Alpha virt. eigenvalues --    0.09546   0.09904   0.10240   0.11399   0.12373
 Alpha virt. eigenvalues --    0.12957   0.13586   0.14194   0.15166   0.15840

 Mulliken charges:
               1
     1  O   -3.210531
     2  C    4.500169
     3  C   -4.540322
     4  C   -1.318398
     5  C    0.567361
     6  N   -2.879394
     7  H    1.709016
     8  H    0.998768
     9  H    2.009828
    10  H    1.409245
    11  H    0.754258
 Sum of Mulliken charges =   0.00000

 Dipole moment (field-independent basis, Debye):
    X=             -3.5736    Y=             -1.8934    Z=              0.2918  Tot=              4.0547

 Test job not archived.
 1\1\GINC-SE362\SP\RHF\Aug-CC-pVDZ\C4H5N1O1\OHZDE\09-Apr-2025\0\\#t hf
 aug-cc-pvdz iop(5/13=1,5/36=2,99/5=2) pseudo=read geom=check guess=(re
 ad,tcheck) scf=(maxcycle=1)\\title\\0,1\O,0,-1.47584505,1.84857216,0.1
 1069729\C,0,-0.64178921,1.0056746,0.07732349\C,0,-0.90359602,-0.775599
 02,-0.17661879\C,0,0.53579116,-1.46206783,-0.03145413\C,0,1.31302345,-
 0.36476835,0.06568702\N,0,0.68517629,0.94882288,0.06103363\H,0,-0.8068
 1346,-0.36405635,-1.18300082\H,0,-1.86794352,-1.25489787,-0.04922839\H
 ,0,-0.51289695,-0.5538517,0.84134153\H,0,2.39271087,-0.33690952,0.1061

 Normal termination of Gaussian 16 at Wed Apr  9 17:53:42 2025.
