 Gaussian 16, Revision C.01,

 ----------------------------------------------------------------------
 #t hf aug-cc-pvdz symm=none int=(grid=ultrafine) guess=(read,tcheck) s
 table=(opt,rrhf)
 ----------------------------------------------------------------------
 -----
 title
 -----
 Symbolic Z-matrix:
 Charge =  0 Multiplicity = 1

 SCF Done:  E(RHF) =  -279.867044994     A.U. after   15 cycles
 Normal termination of Gaussian 16 at Wed Apr  9 17:08:07 2025.
 Gaussian 16:  ES64L-G16RevC.01  3-Jul-2019

 ----------------------------------------------------------------------
 #t hf aug-cc-pvdz iop(5/13=1,5/36=2,99/5=2) pseudo=read geom=check gue
 ss=(read,tcheck) scf=(maxcycle=1)
 ----------------------------------------------------------------------
 -----
 title
 -----
 Structure from the checkpoint file:  "Grambow2020_b97d3_007048_forward_mol2.chk"
 Charge =  0 Multiplicity = 1

                         Standard orientation:
 ---------------------------------------------------------------------
 Center     Atomic      Atomic             Coordinates (Angstroms)
 Number     Number       Type             X           Y           Z
 ---------------------------------------------------------------------
      1          7           0       -2.066216   -0.011117   -0.088205
      2          6           0       -0.667678    0.082897   -0.004984
      3          6           0        0.206194    1.166007    0.008985
      4          6           0        1.498610    0.578965    0.008257
      5          7           0        1.453226   -0.757397    0.004167
      6          7           0        0.119123   -1.031306   -0.007936
      7          1           0       -2.495064    0.911199   -0.043155
      8          1           0       -2.470417   -0.591244    0.648751
      9          1           0       -0.067469    2.215743    0.034028
     10          1           0        2.457183    1.087299    0.025420
     11          1           0       -0.189923   -1.991469   -0.094772
 ---------------------------------------------------------------------

 SCF Done:  E(RHF) =  -281.162006126     A.U. after    2 cycles

 The electronic state is 1-A.
 Alpha  occ. eigenvalues --  -15.79309 -15.77887 -15.73603 -11.47654 -11.42360
 Alpha  occ. eigenvalues --  -11.36552  -1.59206  -1.35421  -1.16328  -1.09596
 Alpha  occ. eigenvalues --   -0.83223  -0.81366  -0.72247  -0.66689  -0.60483
 Alpha  occ. eigenvalues --   -0.56906  -0.54825  -0.52865  -0.44705  -0.39632
 Alpha  occ. eigenvalues --   -0.33488  -0.28577
 Alpha virt. eigenvalues --    0.03141   0.05039   0.05244   0.05973   0.07097
 Alpha virt. eigenvalues --    0.11411   0.11674   0.12519   0.13064   0.13154
 Alpha virt. eigenvalues --    0.14134   0.14503   0.15584   0.16371   0.17131

 Mulliken charges:
               1
     1  N   -3.207811
     2  C    4.197270
     3  C   -1.673184
     4  C    0.317053
     5  N   -1.985877
     6  N   -2.382057
     7  H    0.569917
     8  H    0.568744
     9  H    1.255839
    10  H    1.428397
    11  H    0.911708
 Sum of Mulliken charges =   0.00000

 Dipole moment (field-independent basis, Debye):
    X=             -2.9083    Y=              0.1331    Z=              0.7980  Tot=              3.0187

 Test job not archived.
 1\1\GINC-SE162\SP\RHF\Aug-CC-pVDZ\C3H5N3\OHZDE\09-Apr-2025\0\\#t hf au
 g-cc-pvdz iop(5/13=1,5/36=2,99/5=2) pseudo=read geom=check guess=(read
 ,tcheck) scf=(maxcycle=1)\\title\\0,1\N,0,-1.86483048,-0.02826174,0.20
 159222\C,0,-0.46815846,0.02111228,0.06541959\C,0,0.51558772,-0.9633749
 ,0.06710468\C,0,1.73691053,-0.24444993,-0.01337188\N,0,1.54888333,1.07
 814246,-0.07110608\N,0,0.19442105,1.21051715,-0.01713686\H,0,-2.193803
 09,-0.99164477,0.21824691\H,0,-2.35500821,0.46722273,-0.54489966\H,0,0
 .3551685,-2.03594683,0.10340752\H,0,2.74316253,-0.64938136,-0.0457541\

 Normal termination of Gaussian 16 at Wed Apr  9 17:08:10 2025.
