 Gaussian 16, Revision C.01,

 ----------------------------------------------------------------------
 #t hf aug-cc-pvdz symm=none int=(grid=ultrafine) guess=(read,tcheck) s
 table=(opt,rrhf)
 ----------------------------------------------------------------------
 -----
 title
 -----
 Symbolic Z-matrix:
 Charge =  0 Multiplicity = 1

 SCF Done:  E(RHF) =  -359.603195714     A.U. after   16 cycles
 Normal termination of Gaussian 16 at Wed Apr  9 03:53:38 2025.
 Gaussian 16:  ES64L-G16RevC.01  3-Jul-2019

 ----------------------------------------------------------------------
 #t hf aug-cc-pvdz iop(5/13=1,5/36=2,99/5=2) pseudo=read geom=check gue
 ss=(read,tcheck) scf=(maxcycle=1)
 ----------------------------------------------------------------------
 -----
 title
 -----
 Structure from the checkpoint file:  "Grambow2020_wb97xd3_008364_forward_mol1.chk"
 Charge =  0 Multiplicity = 1

                         Standard orientation:
 ---------------------------------------------------------------------
 Center     Atomic      Atomic             Coordinates (Angstroms)
 Number     Number       Type             X           Y           Z
 ---------------------------------------------------------------------
      1          8           0       -0.658665    1.769276   -0.174036
      2          6           0       -1.033927    0.545247    0.398244
      3          6           0       -1.468572   -0.576069   -0.569901
      4          7           0       -0.427631   -1.478193   -0.000487
      5          6           0        0.138708   -0.347391    0.773428
      6          6           0        1.564445   -0.338978   -0.292635
      7          8           0        2.468144    0.391179   -0.131476
      8          1           0       -1.388544    2.386482   -0.113409
      9          1           0       -1.762656    0.706112    1.200589
     10          1           0       -1.232915   -0.345685   -1.610667
     11          1           0       -2.481242   -0.965026   -0.480091
     12          1           0       -0.745880   -2.316337    0.465211
     13          1           0        0.396393   -0.535681    1.812719
     14          1           0        0.528504   -1.563006   -0.681663
 ---------------------------------------------------------------------

 SCF Done:  E(RHF) =  -361.238444687     A.U. after    2 cycles

 The electronic state is 1-A.
 Alpha  occ. eigenvalues --  -21.08042 -21.03584 -15.80631 -11.51838 -11.43895
 Alpha  occ. eigenvalues --  -11.41250 -11.38592  -1.73568  -1.67668  -1.50141
 Alpha  occ. eigenvalues --   -1.08244  -1.01855  -0.85442  -0.77597  -0.73444
 Alpha  occ. eigenvalues --   -0.67322  -0.62995  -0.59422  -0.56480  -0.48883
 Alpha  occ. eigenvalues --   -0.48439  -0.47513  -0.42223  -0.40742  -0.39425
 Alpha  occ. eigenvalues --   -0.32432  -0.20428
 Alpha virt. eigenvalues --    0.02686   0.04057   0.04351   0.05099   0.05337
 Alpha virt. eigenvalues --    0.06407   0.07807   0.10084   0.10867   0.11795
 Alpha virt. eigenvalues --    0.12228   0.13277   0.13876   0.14588   0.14807

 Mulliken charges:
               1
     1  O   -3.215218
     2  C    1.653491
     3  C   -2.596728
     4  N   -1.611772
     5  C   -1.803566
     6  C    1.468405
     7  O   -2.187391
     8  H    0.743878
     9  H    1.573095
    10  H    1.500296
    11  H    1.303098
    12  H    0.664372
    13  H    1.433005
    14  H    1.075034
 Sum of Mulliken charges =   0.00000

 Dipole moment (field-independent basis, Debye):
    X=             -4.7098    Y=             -1.3215    Z=              1.2520  Tot=              5.0494

 Test job not archived.
 1\1\GINC-SE021\SP\RHF\Aug-CC-pVDZ\C4H7N1O2\OHZDE\09-Apr-2025\0\\#t hf
 aug-cc-pvdz iop(5/13=1,5/36=2,99/5=2) pseudo=read geom=check guess=(re
 ad,tcheck) scf=(maxcycle=1)\\title\\0,1\O,0,-0.64984931,-1.66137942,0.
 79049379\C,0,-0.69027176,-0.68670979,-0.21695816\C,0,-1.06855122,0.747
 49751,0.21144019\N,0,0.20217554,1.26267715,-0.37290712\C,0,0.67323307,
 -0.12628754,-0.59034545\C,0,1.87099273,0.08215601,0.71012019\O,0,2.638
 54022,-0.7557667,1.0008597\H,0,-1.45997196,-2.17198949,0.77258456\H,0,
 -1.2892431,-1.03804202,-1.06459007\H,0,-1.05953352,0.87712047,1.295377

 Normal termination of Gaussian 16 at Wed Apr  9 03:53:43 2025.
