 Gaussian 16, Revision C.01,

 ----------------------------------------------------------------------
 #t hf aug-cc-pvdz symm=none int=(grid=ultrafine) guess=(read,tcheck) s
 table=(opt,rrhf)
 ----------------------------------------------------------------------
 -----
 title
 -----
 Symbolic Z-matrix:
 Charge =  0 Multiplicity = 1

 SCF Done:  E(RHF) =  -354.564392390     A.U. after   16 cycles
 Normal termination of Gaussian 16 at Wed Apr  9 03:40:15 2025.
 Gaussian 16:  ES64L-G16RevC.01  3-Jul-2019

 ----------------------------------------------------------------------
 #t hf aug-cc-pvdz iop(5/13=1,5/36=2,99/5=2) pseudo=read geom=check gue
 ss=(read,tcheck) scf=(maxcycle=1)
 ----------------------------------------------------------------------
 -----
 title
 -----
 Structure from the checkpoint file:  "Grambow2020_wb97xd3_007475_forward_mol1.chk"
 Charge =  0 Multiplicity = 1

                         Standard orientation:
 ---------------------------------------------------------------------
 Center     Atomic      Atomic             Coordinates (Angstroms)
 Number     Number       Type             X           Y           Z
 ---------------------------------------------------------------------
      1          7           0       -2.355169   -0.166884   -0.036209
      2          6           0       -1.045258   -0.130871    0.098517
      3          6           0       -0.316521    1.164774    0.461900
      4          7           0        0.647352    1.101822   -0.566977
      5          6           0        1.122771   -0.139821    0.134994
      6          8           0        2.273421   -0.561791    0.082173
      7          7           0       -0.137262   -1.028554   -0.102557
      8          1           0       -2.846612   -0.969720   -0.385496
      9          1           0       -2.872902    0.666101    0.185560
     10          1           0        0.720425    0.208186    1.282061
     11          1           0        1.346311    1.828145   -0.458940
     12          1           0       -0.184994   -1.947565   -0.512845
 ---------------------------------------------------------------------

 SCF Done:  E(RHF) =  -356.164481826     A.U. after    2 cycles

 The electronic state is 1-A.
 Alpha  occ. eigenvalues --  -20.97247 -15.85507 -15.79824 -15.74120 -11.54232
 Alpha  occ. eigenvalues --  -11.51849 -11.44700  -1.68406  -1.56246  -1.41239
 Alpha  occ. eigenvalues --   -1.31754  -1.00210  -0.91241  -0.80741  -0.76493
 Alpha  occ. eigenvalues --   -0.73084  -0.69810  -0.61357  -0.56480  -0.53435
 Alpha  occ. eigenvalues --   -0.46189  -0.44401  -0.39892  -0.35725  -0.27138
 Alpha  occ. eigenvalues --   -0.23426
 Alpha virt. eigenvalues --    0.01519   0.03957   0.05157   0.06916   0.07199
 Alpha virt. eigenvalues --    0.08313   0.09920   0.10103   0.10659   0.12088
 Alpha virt. eigenvalues --    0.12918   0.13228   0.14512   0.15258   0.16148

 Mulliken charges:
               1
     1  N   -3.081351
     2  C    4.626594
     3  C   -1.247589
     4  N   -1.673862
     5  C    3.557638
     6  O   -3.206459
     7  N   -2.770858
     8  H    0.777253
     9  H    0.654733
    10  H    0.964830
    11  H    0.640735
    12  H    0.758338
 Sum of Mulliken charges =  -0.00000

 Dipole moment (field-independent basis, Debye):
    X=             -6.3153    Y=             -2.2841    Z=             -1.6667  Tot=              6.9194

 Test job not archived.
 1\1\GINC-SE132\SP\RHF\Aug-CC-pVDZ\C3H5N3O1\OHZDE\09-Apr-2025\0\\#t hf
 aug-cc-pvdz iop(5/13=1,5/36=2,99/5=2) pseudo=read geom=check guess=(re
 ad,tcheck) scf=(maxcycle=1)\\title\\0,1\N,0,2.04207107,-0.02000966,0.0
 4080134\C,0,0.73344827,-0.06599463,-0.10309669\C,0,-0.11452685,1.20785
 724,-0.09682186\N,0,-1.06065808,0.7672359,0.85306784\C,0,-1.42470757,-
 0.26066886,-0.18198812\O,0,-2.53105194,-0.78268788,-0.27333434\N,0,-0.
 08624253,-1.06221039,-0.18300495\H,0,2.60816637,-0.8410941,0.15664413\
 H,0,2.47899308,0.88498774,0.07502255\H,0,-1.06490129,0.43474162,-1.174

 Normal termination of Gaussian 16 at Wed Apr  9 03:40:20 2025.
