 Gaussian 16, Revision C.01,

 ----------------------------------------------------------------------
 #t hf aug-cc-pvdz symm=none int=(grid=ultrafine) guess=(read,tcheck) s
 table=(opt,rrhf)
 ----------------------------------------------------------------------
 -----
 title
 -----
 Symbolic Z-matrix:
 Charge =  0 Multiplicity = 1

 SCF Done:  E(RHF) =  -301.925990922     A.U. after   15 cycles
 Normal termination of Gaussian 16 at Wed Apr  9 03:15:03 2025.
 Gaussian 16:  ES64L-G16RevC.01  3-Jul-2019

 ----------------------------------------------------------------------
 #t hf aug-cc-pvdz iop(5/13=1,5/36=2,99/5=2) pseudo=read geom=check gue
 ss=(read,tcheck) scf=(maxcycle=1)
 ----------------------------------------------------------------------
 -----
 title
 -----
 Structure from the checkpoint file:  "Grambow2020_b97d3_006938_forward_mol1.chk"
 Charge =  0 Multiplicity = 1

                         Standard orientation:
 ---------------------------------------------------------------------
 Center     Atomic      Atomic             Coordinates (Angstroms)
 Number     Number       Type             X           Y           Z
 ---------------------------------------------------------------------
      1          6           0       -2.592838   -0.188474    0.590501
      2          7           0       -1.209789   -0.342696   -0.595497
      3          6           0        0.038258    0.261365   -0.249054
      4          8           0        0.145357    1.465304   -0.074276
      5          7           0        1.064469   -0.649731   -0.151955
      6          6           0        2.377425   -0.234624    0.328921
      7          1           0       -2.617291   -1.221922    0.978398
      8          1           0       -2.133634    0.227914   -0.786467
      9          1           0       -2.075807    0.441264    1.333190
     10          1           0       -1.212181   -1.271577   -1.014130
     11          1           0        0.821190   -1.628147   -0.037288
     12          1           0        2.466478   -0.330410    1.422339
     13          1           0        3.155775   -0.839226   -0.153166
     14          1           0        2.512791    0.817066    0.061290
 ---------------------------------------------------------------------

 SCF Done:  E(RHF) =  -303.310264382     A.U. after    2 cycles

 The electronic state is 1-A.
 Alpha  occ. eigenvalues --  -21.03815 -15.78894 -15.77958 -11.52332 -11.40991
 Alpha  occ. eigenvalues --  -11.37319  -1.72499  -1.43150  -1.34616  -1.03642
 Alpha  occ. eigenvalues --   -0.93089  -0.82341  -0.74455  -0.70955  -0.63740
 Alpha  occ. eigenvalues --   -0.59021  -0.56478  -0.55075  -0.52926  -0.50197
 Alpha  occ. eigenvalues --   -0.40403  -0.33548  -0.32063  -0.29829
 Alpha virt. eigenvalues --    0.02746   0.04172   0.05008   0.05545   0.05895
 Alpha virt. eigenvalues --    0.07213   0.07703   0.07933   0.10504   0.12052
 Alpha virt. eigenvalues --    0.12735   0.13227   0.14116   0.14835   0.15030

 Mulliken charges:
               1
     1  C   -3.414466
     2  N   -2.464676
     3  C    5.721943
     4  O   -2.977147
     5  N   -2.572449
     6  C   -3.434835
     7  H    1.339206
     8  H    1.210890
     9  H    1.240115
    10  H    0.683456
    11  H    0.754119
    12  H    1.311585
    13  H    1.313563
    14  H    1.288697
 Sum of Mulliken charges =  -0.00000

 Dipole moment (field-independent basis, Debye):
    X=              3.2370    Y=             -3.0378    Z=             -0.5114  Tot=              4.4685

 Test job not archived.
 1\1\GINC-SE229\SP\RHF\Aug-CC-pVDZ\C3H8N2O1\OHZDE\09-Apr-2025\0\\#t hf
 aug-cc-pvdz iop(5/13=1,5/36=2,99/5=2) pseudo=read geom=check guess=(re
 ad,tcheck) scf=(maxcycle=1)\\title\\0,1\C,0,-2.52759094,0.83985426,0.3
 1009514\N,0,-1.314186,-0.52785259,0.29507069\C,0,-0.1312731,-0.3632873
 1,-0.48989438\O,0,-0.17696617,-0.21150983,-1.7008288\N,0,1.01979675,-0
 .40659997,0.26229958\C,0,2.31231627,-0.11707815,-0.34842015\H,0,-2.347
 89471,1.23267421,1.32620506\H,0,-2.3285149,-0.59009925,-0.1325001\H,0,
 -2.0098044,1.49928669,-0.40581291\H,0,-1.2395542,-0.93719323,1.2250970

 Normal termination of Gaussian 16 at Wed Apr  9 03:15:08 2025.
