 Gaussian 16, Revision C.01,

 ----------------------------------------------------------------------
 #t hf aug-cc-pvdz symm=none int=(grid=ultrafine) guess=(read,tcheck) s
 table=(opt,rrhf)
 ----------------------------------------------------------------------
 -----
 title
 -----
 Symbolic Z-matrix:
 Charge =  0 Multiplicity = 1

 SCF Done:  E(RHF) =  -231.710692415     A.U. after   15 cycles
 Normal termination of Gaussian 16 at Wed Apr  9 03:21:07 2025.
 Gaussian 16:  ES64L-G16RevC.01  3-Jul-2019

 ----------------------------------------------------------------------
 #t hf aug-cc-pvdz iop(5/13=1,5/36=2,99/5=2) pseudo=read geom=check gue
 ss=(read,tcheck) scf=(maxcycle=1)
 ----------------------------------------------------------------------
 -----
 title
 -----
 Structure from the checkpoint file:  "Grambow2020_wb97xd3_006055_reverse_mol2.chk"
 Charge =  0 Multiplicity = 1

                         Standard orientation:
 ---------------------------------------------------------------------
 Center     Atomic      Atomic             Coordinates (Angstroms)
 Number     Number       Type             X           Y           Z
 ---------------------------------------------------------------------
      1          6           0       -0.784254   -0.670814    0.870346
      2          6           0       -0.021641   -0.785738   -0.376704
      3          6           0       -1.345762    0.008850   -0.428070
      4          6           0       -1.503000    1.362927   -0.065241
      5          6           0        2.073881    0.354318    0.369327
      6          6           0        1.281692   -0.112314   -0.583224
      7          1           0       -0.424436   -0.017105    1.653651
      8          1           0       -1.388758   -1.497006    1.217123
      9          1           0       -0.122074   -1.730499   -0.901922
     10          1           0       -2.179210   -0.530650   -0.865803
     11          1           0       -0.511586    1.738830    0.249641
     12          1           0        3.011174    0.840385    0.129766
     13          1           0        1.825028    0.263556    1.420815
     14          1           0        1.584363   -0.010891   -1.621872
 ---------------------------------------------------------------------

 SCF Done:  E(RHF) =  -232.844061056     A.U. after    2 cycles

 The electronic state is 1-A.
 Alpha  occ. eigenvalues --  -11.46757 -11.44621 -11.42152 -11.40044 -11.39086
 Alpha  occ. eigenvalues --  -11.37644  -1.36991  -1.14714  -0.98940  -0.91504
 Alpha  occ. eigenvalues --   -0.82277  -0.75647  -0.68674  -0.64719  -0.59902
 Alpha  occ. eigenvalues --   -0.54084  -0.51653  -0.49180  -0.45743  -0.41922
 Alpha  occ. eigenvalues --   -0.35988  -0.30874
 Alpha virt. eigenvalues --    0.03619   0.04954   0.05054   0.05389   0.05713
 Alpha virt. eigenvalues --    0.06166   0.07189   0.07494   0.10331   0.10472
 Alpha virt. eigenvalues --    0.11424   0.12392   0.12712   0.13255   0.14378

 Mulliken charges:
               1
     1  C   -2.125681
     2  C   -1.685468
     3  C    0.659071
     4  C   -2.914300
     5  C   -3.198663
     6  C   -1.192387
     7  H    1.473390
     8  H    1.080538
     9  H    1.223919
    10  H    1.329719
    11  H    1.278376
    12  H    1.364148
    13  H    1.464895
    14  H    1.242443
 Sum of Mulliken charges =   0.00000

 Dipole moment (field-independent basis, Debye):
    X=              2.0438    Y=             -2.7571    Z=              0.2295  Tot=              3.4397

 Test job not archived.
 1\1\GINC-SE179\SP\RHF\Aug-CC-pVDZ\C6H8\OHZDE\09-Apr-2025\0\\#t hf aug-
 cc-pvdz iop(5/13=1,5/36=2,99/5=2) pseudo=read geom=check guess=(read,t
 check) scf=(maxcycle=1)\\title\\0,1\C,0,1.05639903,-0.56798976,-0.6235
 7827\C,0,0.64593932,0.25502056,0.51839197\C,0,0.84371668,0.97243137,-0
 .83568\C,0,-0.11214064,1.04691778,-1.87041734\C,0,-1.5318056,-0.867038
 4,1.01429078\C,0,-0.69525902,0.15142785,1.13910521\H,0,0.33783558,-1.2
 3345337,-1.08313893\H,0,2.08672896,-0.87685013,-0.72988347\H,0,1.43731
 504,0.52222865,1.21181683\H,0,1.77424583,1.52364845,-0.9227528\H,0,-1.

 Normal termination of Gaussian 16 at Wed Apr  9 03:21:12 2025.
