 Gaussian 16, Revision C.01,

 ----------------------------------------------------------------------
 #t hf aug-cc-pvdz symm=none int=(grid=ultrafine) guess=(read,tcheck) s
 table=(opt,rrhf)
 ----------------------------------------------------------------------
 -----
 title
 -----
 Symbolic Z-matrix:
 Charge =  0 Multiplicity = 1

 SCF Done:  E(RHF) =  -267.479495275     A.U. after   17 cycles
 Normal termination of Gaussian 16 at Wed Apr  9 16:46:52 2025.
 Gaussian 16:  ES64L-G16RevC.01  3-Jul-2019

 ----------------------------------------------------------------------
 #t hf aug-cc-pvdz iop(5/13=1,5/36=2,99/5=2) pseudo=read geom=check gue
 ss=(read,tcheck) scf=(maxcycle=1)
 ----------------------------------------------------------------------
 -----
 title
 -----
 Structure from the checkpoint file:  "Grambow2020_b97d3_006839_reverse_mol1.chk"
 Charge =  0 Multiplicity = 1

                         Standard orientation:
 ---------------------------------------------------------------------
 Center     Atomic      Atomic             Coordinates (Angstroms)
 Number     Number       Type             X           Y           Z
 ---------------------------------------------------------------------
      1          6           0       -1.810123   -0.667155    0.042095
      2          6           0       -1.295330    0.621667    0.103128
      3          6           0       -0.320057    1.430942    0.044229
      4          6           0        0.926045    0.872372   -0.256605
      5          6           0        1.433843   -0.306696    0.524485
      6          8           0        0.818047   -1.106458   -0.455251
      7          1           0       -2.515986   -0.921978   -0.757700
      8          1           0       -0.549611   -1.062306   -0.253959
      9          1           0       -2.046547   -1.155557    0.996364
     10          1           0        1.447691    1.106041   -1.185127
     11          1           0        0.990427   -0.371184    1.532819
     12          1           0        2.523381   -0.450134    0.565622
 ---------------------------------------------------------------------

 SCF Done:  E(RHF) =  -268.748416808     A.U. after    2 cycles

 The electronic state is 1-A.
 Alpha  occ. eigenvalues --  -21.01219 -11.51820 -11.46770 -11.43953 -11.41155
 Alpha  occ. eigenvalues --  -11.39667  -1.67244  -1.25224  -1.11185  -0.97153
 Alpha  occ. eigenvalues --   -0.87586  -0.71695  -0.66451  -0.61959  -0.60167
 Alpha  occ. eigenvalues --   -0.55958  -0.55869  -0.47981  -0.39725  -0.37352
 Alpha  occ. eigenvalues --   -0.29070  -0.27267
 Alpha virt. eigenvalues --    0.03502   0.05018   0.05363   0.06156   0.06416
 Alpha virt. eigenvalues --    0.07033   0.08368   0.09542   0.10887   0.11558
 Alpha virt. eigenvalues --    0.11949   0.13163   0.13593   0.14495   0.14835

 Mulliken charges:
               1
     1  C   -4.618260
     2  C    3.015306
     3  C   -1.325440
     4  C   -1.300772
     5  C   -2.067993
     6  O   -2.303348
     7  H    1.153248
     8  H    2.115089
     9  H    1.112797
    10  H    1.272132
    11  H    1.586779
    12  H    1.360463
 Sum of Mulliken charges =   0.00000

 Dipole moment (field-independent basis, Debye):
    X=              0.9042    Y=             -1.7333    Z=             -0.1743  Tot=              1.9627

 Test job not archived.
 1\1\GINC-SE173\SP\RHF\Aug-CC-pVDZ\C5H6O1\OHZDE\09-Apr-2025\0\\#t hf au
 g-cc-pvdz iop(5/13=1,5/36=2,99/5=2) pseudo=read geom=check guess=(read
 ,tcheck) scf=(maxcycle=1)\\title\\0,1\C,0,-1.80699657,-0.22844734,0.27
 476134\C,0,-1.08947819,0.96101392,0.28692933\C,0,0.00161915,1.59985052
 ,0.18229586\C,0,1.13248991,0.83952342,-0.13124153\C,0,1.46464585,-0.38
 676359,0.67128957\O,0,0.70113717,-1.09991039,-0.2706136\H,0,-2.5664637
 9,-0.38502157,-0.50083108\H,0,-0.63540609,-0.82978407,-0.03901028\H,0,
 -2.09279697,-0.64855784,1.24784271\H,0,1.659263,0.96275252,-1.07791557

 Normal termination of Gaussian 16 at Wed Apr  9 16:46:56 2025.
