 Gaussian 16, Revision C.01,

 ----------------------------------------------------------------------
 #t hf aug-cc-pvdz symm=none int=(grid=ultrafine) guess=(read,tcheck) s
 table=(opt,rrhf)
 ----------------------------------------------------------------------
 -----
 title
 -----
 Symbolic Z-matrix:
 Charge =  0 Multiplicity = 1

 SCF Done:  E(RHF) =  -305.357993821     A.U. after   15 cycles
 Normal termination of Gaussian 16 at Wed Apr  9 03:52:38 2025.
 Gaussian 16:  ES64L-G16RevC.01  3-Jul-2019

 ----------------------------------------------------------------------
 #t hf aug-cc-pvdz iop(5/13=1,5/36=2,99/5=2) pseudo=read geom=check gue
 ss=(read,tcheck) scf=(maxcycle=1)
 ----------------------------------------------------------------------
 -----
 title
 -----
 Structure from the checkpoint file:  "Grambow2020_wb97xd3_008350_reverse_mol1.chk"
 Charge =  0 Multiplicity = 1

                         Standard orientation:
 ---------------------------------------------------------------------
 Center     Atomic      Atomic             Coordinates (Angstroms)
 Number     Number       Type             X           Y           Z
 ---------------------------------------------------------------------
      1          8           0       -0.772645   -1.298679   -0.813038
      2          6           0       -0.883224   -0.493333    0.288700
      3          6           0        0.446708   -0.357343    1.063066
      4          6           0        1.578707    0.044587    0.235047
      5          6           0        2.482398    0.361615   -0.484418
      6          6           0       -2.055567    0.820879   -0.083694
      7          6           0       -0.965550    1.410597   -0.191520
      8          1           0       -0.069732   -0.966975   -1.382075
      9          1           0       -1.589467   -0.952854    0.970908
     10          1           0        0.655302   -1.348446    1.474850
     11          1           0        0.323095    0.327395    1.903151
     12          1           0        3.300425    0.641281   -1.106344
     13          1           0       -0.059303    1.967027   -0.319267
 ---------------------------------------------------------------------

 SCF Done:  E(RHF) =  -306.790091650     A.U. after    2 cycles

 The electronic state is 1-A.
 Alpha  occ. eigenvalues --  -21.09709 -11.50737 -11.47187 -11.43151 -11.42459
 Alpha  occ. eigenvalues --  -11.41694 -11.37903  -1.76103  -1.25461  -1.14569
 Alpha  occ. eigenvalues --   -1.05047  -0.90233  -0.76447  -0.75185  -0.67811
 Alpha  occ. eigenvalues --   -0.65434  -0.63087  -0.56704  -0.53116  -0.43471
 Alpha  occ. eigenvalues --   -0.42324  -0.39701  -0.38727  -0.36618  -0.32980
 Alpha virt. eigenvalues --    0.02816   0.04437   0.05099   0.05884   0.06461
 Alpha virt. eigenvalues --    0.07344   0.08746   0.09629   0.09981   0.11070
 Alpha virt. eigenvalues --    0.11676   0.12092   0.13139   0.13368   0.13965

 Mulliken charges:
               1
     1  O   -3.258253
     2  C    1.901744
     3  C   -3.933471
     4  C    4.559779
     5  C   -4.234941
     6  C   -1.799379
     7  C    0.325018
     8  H    0.822525
     9  H    1.267938
    10  H    1.162966
    11  H    1.233697
    12  H    0.763196
    13  H    1.189182
 Sum of Mulliken charges =  -0.00000

 Dipole moment (field-independent basis, Debye):
    X=              3.7192    Y=             -0.4893    Z=              0.4199  Tot=              3.7747

 Test job not archived.
 1\1\GINC-SE072\SP\RHF\Aug-CC-pVDZ\C6H6O1\OHZDE\09-Apr-2025\0\\#t hf au
 g-cc-pvdz iop(5/13=1,5/36=2,99/5=2) pseudo=read geom=check guess=(read
 ,tcheck) scf=(maxcycle=1)\\title\\0,1\O,0,0.08108862,-0.61883884,1.766
 40609\C,0,0.5162349,-0.94744769,0.51050064\C,0,-0.54726482,-0.67925596
 ,-0.57756969\C,0,-1.0956461,0.67250422,-0.5529538\C,0,-1.52848167,1.78
 746106,-0.48723077\C,0,2.27827399,-0.59365525,0.40916623\C,0,1.7866250
 8,0.37221591,-0.20149304\H,0,-0.20318982,0.30149797,1.77547245\H,0,0.7
 1216913,-2.01355728,0.49135589\H,0,-1.35941571,-1.38454328,-0.38175258

 Normal termination of Gaussian 16 at Wed Apr  9 03:52:42 2025.
