 Gaussian 16, Revision C.01,

 ----------------------------------------------------------------------
 #t hf aug-cc-pvdz symm=none int=(grid=ultrafine) guess=(read,tcheck) s
 table=(opt,rrhf)
 ----------------------------------------------------------------------
 -----
 title
 -----
 Symbolic Z-matrix:
 Charge =  0 Multiplicity = 1

 SCF Done:  E(RHF) =  -283.547803933     A.U. after   15 cycles
 Normal termination of Gaussian 16 at Wed Apr  9 03:09:14 2025.
 Gaussian 16:  ES64L-G16RevC.01  3-Jul-2019

 ----------------------------------------------------------------------
 #t hf aug-cc-pvdz iop(5/13=1,5/36=2,99/5=2) pseudo=read geom=check gue
 ss=(read,tcheck) scf=(maxcycle=1)
 ----------------------------------------------------------------------
 -----
 title
 -----
 Structure from the checkpoint file:  "Grambow2020_b97d3_006657_reverse_mol1.chk"
 Charge =  0 Multiplicity = 1

                         Standard orientation:
 ---------------------------------------------------------------------
 Center     Atomic      Atomic             Coordinates (Angstroms)
 Number     Number       Type             X           Y           Z
 ---------------------------------------------------------------------
      1          7           0       -2.776360    0.524311   -0.143732
      2          6           0       -1.774426   -0.037663    0.077944
      3          6           0       -0.492533   -0.684326    0.336860
      4          6           0        0.604402   -0.302624   -0.706859
      5          6           0        1.741406    0.871444    0.203315
      6          8           0        1.861308   -0.516412   -0.058489
      7          1           0       -0.586656   -1.773181    0.170501
      8          1           0       -0.198416   -0.559834    1.392975
      9          1           0        0.862589    1.152658   -0.589437
     10          1           0        2.597080    1.438544   -0.178948
     11          1           0        1.396363    1.121941    1.211380
 ---------------------------------------------------------------------

 SCF Done:  E(RHF) =  -284.831994560     A.U. after    2 cycles

 The electronic state is 1-A.
 Alpha  occ. eigenvalues --  -21.10354 -15.77095 -11.51778 -11.47775 -11.46279
 Alpha  occ. eigenvalues --  -11.43045  -1.82022  -1.31829  -1.15843  -1.02766
 Alpha  occ. eigenvalues --   -0.88014  -0.73319  -0.68679  -0.66217  -0.60119
 Alpha  occ. eigenvalues --   -0.56349  -0.52348  -0.47843  -0.43982  -0.43266
 Alpha  occ. eigenvalues --   -0.42120  -0.30219
 Alpha virt. eigenvalues --    0.02940   0.04754   0.05228   0.06003   0.07025
 Alpha virt. eigenvalues --    0.08550   0.09155   0.09629   0.11305   0.12887
 Alpha virt. eigenvalues --    0.13177   0.13666   0.14149   0.15237   0.15388

 Mulliken charges:
               1
     1  N   -2.349987
     2  C    2.121899
     3  C   -2.567933
     4  C    0.292202
     5  C   -2.400093
     6  O   -2.383621
     7  H    1.537203
     8  H    1.551828
     9  H    1.606480
    10  H    1.244997
    11  H    1.347025
 Sum of Mulliken charges =  -0.00000

 Dipole moment (field-independent basis, Debye):
    X=              4.0400    Y=             -0.4241    Z=              2.2152  Tot=              4.6270

 Test job not archived.
 1\1\GINC-SE186\SP\RHF\Aug-CC-pVDZ\C4H5N1O1\OHZDE\09-Apr-2025\0\\#t hf
 aug-cc-pvdz iop(5/13=1,5/36=2,99/5=2) pseudo=read geom=check guess=(re
 ad,tcheck) scf=(maxcycle=1)\\title\\0,1\N,0,3.06895661,0.33001283,0.39
 935027\C,0,2.05933942,-0.19949655,0.13644437\C,0,0.76880772,-0.8052669
 3,-0.1734414\C,0,-0.34662292,-0.41970779,0.84904243\C,0,-1.42675487,0.
 80591987,-0.06243104\O,0,-1.59001551,-0.58415268,0.1614126\H,0,0.82986
 89,-1.89994316,-0.03168907\H,0,0.50772155,-0.64751912,-1.23378603\H,0,
 -0.56346393,1.04435864,0.76081382\H,0,-2.27775184,1.38627511,0.3102579

 Normal termination of Gaussian 16 at Wed Apr  9 03:09:18 2025.
