 Gaussian 16, Revision C.01,

 ----------------------------------------------------------------------
 #t hf aug-cc-pvdz symm=none int=(grid=ultrafine) guess=(read,tcheck) s
 table=(opt,rrhf)
 ----------------------------------------------------------------------
 -----
 title
 -----
 Symbolic Z-matrix:
 Charge =  0 Multiplicity = 1

 SCF Done:  E(RHF) =  -302.795924460     A.U. after   15 cycles
 Normal termination of Gaussian 16 at Wed Apr  9 19:24:11 2025.
 Gaussian 16:  ES64L-G16RevC.01  3-Jul-2019

 ----------------------------------------------------------------------
 #t hf aug-cc-pvdz iop(5/13=1,5/36=2,99/5=2) pseudo=read geom=check gue
 ss=(read,tcheck) scf=(maxcycle=1)
 ----------------------------------------------------------------------
 -----
 title
 -----
 Structure from the checkpoint file:  "Grambow2020_wb97xd3_008910_reverse_mol1.chk"
 Charge =  0 Multiplicity = 1

                         Standard orientation:
 ---------------------------------------------------------------------
 Center     Atomic      Atomic             Coordinates (Angstroms)
 Number     Number       Type             X           Y           Z
 ---------------------------------------------------------------------
      1          6           0        1.443198    1.451812    0.007174
      2          7           0        0.240896    0.654763    0.009814
      3          6           0       -1.033172    1.087947   -0.061241
      4          6           0       -1.900055    0.025706   -0.042085
      5          6           0       -1.186412   -1.218149   -0.006774
      6          6           0        0.182949   -0.751966    0.123187
      7          7           0        1.350053   -1.485829   -0.181774
      8          1           0        2.199254    0.949771   -0.596909
      9          1           0        1.231545    2.425796   -0.431226
     10          1           0        1.834826    1.599660    1.017000
     11          1           0       -1.239327    2.150940   -0.084379
     12          1           0       -2.975408    0.120417   -0.076850
     13          1           0       -0.319788   -1.030189    1.176530
     14          1           0        2.001620   -1.565555    0.584574
     15          1           0        1.091583   -2.405485   -0.506584
 ---------------------------------------------------------------------

 SCF Done:  E(RHF) =  -304.249033107     A.U. after    2 cycles

 The electronic state is 1-A.
 Alpha  occ. eigenvalues --  -15.76600 -15.75336 -11.46108 -11.44639 -11.41783
 Alpha  occ. eigenvalues --  -11.38136 -11.34221  -1.54857  -1.32533  -1.19451
 Alpha  occ. eigenvalues --   -1.03409  -0.99063  -0.80801  -0.75411  -0.69596
 Alpha  occ. eigenvalues --   -0.68801  -0.63892  -0.60052  -0.58172  -0.53577
 Alpha  occ. eigenvalues --   -0.52478  -0.48881  -0.40436  -0.37090  -0.30859
 Alpha  occ. eigenvalues --   -0.30073
 Alpha virt. eigenvalues --    0.03044   0.04873   0.05053   0.05605   0.06066
 Alpha virt. eigenvalues --    0.06634   0.06835   0.07530   0.10390   0.11025
 Alpha virt. eigenvalues --    0.11498   0.12691   0.12827   0.13886   0.14509

 Mulliken charges:
               1
     1  C   -3.421231
     2  N   -2.928118
     3  C   -0.047063
     4  C    0.094137
     5  C   -2.661143
     6  C    2.078217
     7  N   -2.913272
     8  H    1.398087
     9  H    1.362629
    10  H    1.415781
    11  H    1.500101
    12  H    1.402830
    13  H    1.543248
    14  H    0.571740
    15  H    0.604057
 Sum of Mulliken charges =  -0.00000

 Dipole moment (field-independent basis, Debye):
    X=              3.5345    Y=              3.5574    Z=              0.7683  Tot=              5.0733

 Test job not archived.
 1\1\GINC-SE037\SP\RHF\Aug-CC-pVDZ\C5H8N2\OHZDE\09-Apr-2025\0\\#t hf au
 g-cc-pvdz iop(5/13=1,5/36=2,99/5=2) pseudo=read geom=check guess=(read
 ,tcheck) scf=(maxcycle=1)\\title\\0,1\C,0,-1.30755056,-1.19531977,0.45
 120293\N,0,-0.08136841,-0.50645894,0.13062392\C,0,1.17137497,-1.002382
 37,0.15592496\C,0,2.07263427,-0.04164294,-0.22475735\C,0,1.40385535,1.
 17562383,-0.58351339\C,0,0.02964453,0.85101227,-0.24360254\N,0,-1.1282
 2328,1.49709017,-0.72900116\H,0,-2.08032642,-0.88905656,-0.2542067\H,0
 ,-1.15408202,-2.26956309,0.36128937\H,0,-1.64461726,-0.97328251,1.4671

 Normal termination of Gaussian 16 at Wed Apr  9 19:24:16 2025.
