 Gaussian 16, Revision C.01,

 ----------------------------------------------------------------------
 #t hf aug-cc-pvdz symm=none int=(grid=ultrafine) guess=(read,tcheck) s
 table=(opt,rrhf)
 ----------------------------------------------------------------------
 -----
 title
 -----
 Symbolic Z-matrix:
 Charge =  0 Multiplicity = 1

 SCF Done:  E(RHF) =  -338.558554200     A.U. after   18 cycles
 Normal termination of Gaussian 16 at Wed Apr  9 03:52:48 2025.
 Gaussian 16:  ES64L-G16RevC.01  3-Jul-2019

 ----------------------------------------------------------------------
 #t hf aug-cc-pvdz iop(5/13=1,5/36=2,99/5=2) pseudo=read geom=check gue
 ss=(read,tcheck) scf=(maxcycle=1)
 ----------------------------------------------------------------------
 -----
 title
 -----
 Structure from the checkpoint file:  "Grambow2020_wb97xd3_008308_reverse_mol2.chk"
 Charge =  0 Multiplicity = 1

                         Standard orientation:
 ---------------------------------------------------------------------
 Center     Atomic      Atomic             Coordinates (Angstroms)
 Number     Number       Type             X           Y           Z
 ---------------------------------------------------------------------
      1          6           0        2.416087    0.688400    0.015865
      2          8           0        1.590655   -0.494604    0.012419
      3          6           0        0.320693   -0.323971    0.017238
      4          6           0       -0.612884   -1.563661    0.022982
      5          7           0       -1.727658   -0.886351    0.061963
      6          6           0       -1.608873    0.575607   -0.182946
      7          7           0       -0.288387    0.837229   -0.038094
      8          1           0        2.196892    1.283556   -0.868439
      9          1           0        3.438308    0.324406    0.008067
     10          1           0        2.209258    1.273723    0.909457
     11          1           0       -3.629100    3.559199    0.310981
     12          1           0       -2.634965   -1.324025    0.017620
     13          1           0       -3.283457    2.925581    0.117048
 ---------------------------------------------------------------------

 SCF Done:  E(RHF) =  -340.071975812     A.U. after    2 cycles

 The electronic state is 1-A.
 Alpha  occ. eigenvalues --  -21.15009 -15.80711 -15.73519 -11.52497 -11.44509
 Alpha  occ. eigenvalues --  -11.43282 -11.42644  -1.87558  -1.54919  -1.30637
 Alpha  occ. eigenvalues --   -1.08288  -0.97233  -0.86566  -0.76349  -0.68083
 Alpha  occ. eigenvalues --   -0.66997  -0.65964  -0.59069  -0.58967  -0.55081
 Alpha  occ. eigenvalues --   -0.48633  -0.47086  -0.45116  -0.37795  -0.36965
 Alpha  occ. eigenvalues --   -0.33514
 Alpha virt. eigenvalues --    0.01504   0.03107   0.05332   0.05637   0.06254
 Alpha virt. eigenvalues --    0.07037   0.08327   0.09249   0.10499   0.10990
 Alpha virt. eigenvalues --    0.11709   0.12284   0.13123   0.14066   0.14678

 Mulliken charges:
               1
     1  C   -3.085029
     2  O   -3.152268
     3  C    5.170195
     4  C   -0.802961
     5  N   -1.337806
     6  C    0.518231
     7  N   -2.144826
     8  H    1.333816
     9  H    1.372771
    10  H    1.339365
    11  H    0.281157
    12  H    0.834933
    13  H   -0.327578
 Sum of Mulliken charges =  -0.00000

 Dipole moment (field-independent basis, Debye):
    X=              3.3025    Y=             -0.5876    Z=              0.5327  Tot=              3.3964

 Test job not archived.
 1\1\GINC-SE109\SP\RHF\Aug-CC-pVDZ\C4H6N2O1\OHZDE\09-Apr-2025\0\\#t hf
 aug-cc-pvdz iop(5/13=1,5/36=2,99/5=2) pseudo=read geom=check guess=(re
 ad,tcheck) scf=(maxcycle=1)\\title\\0,1\C,0,2.46597916,0.56612278,-0.2
 5724703\O,0,1.79860498,-0.22208238,0.74982522\C,0,0.53190657,-0.374899
 88,0.63124154\C,0,-0.23616196,-1.20647733,1.69283517\N,0,-1.41659249,-
 1.03325786,1.16409374\C,0,-1.43737248,-0.4403892,-0.1995368\N,0,-0.195
 95551,0.07428118,-0.36418776\H,0,2.31610047,0.1069345,-1.23240407\H,0,
 3.51331481,0.56617568,0.02661094\H,0,2.05525666,1.57368092,-0.26195146

 Normal termination of Gaussian 16 at Wed Apr  9 03:52:55 2025.
