 Gaussian 16, Revision C.01,

 ----------------------------------------------------------------------
 #t hf aug-cc-pvdz symm=none int=(grid=ultrafine) guess=(read,tcheck) s
 table=(opt,rrhf)
 ----------------------------------------------------------------------
 -----
 title
 -----
 Symbolic Z-matrix:
 Charge =  0 Multiplicity = 1

 SCF Done:  E(RHF) =  -309.069999543     A.U. after   13 cycles

 1\1\GINC-SE117\Stability\RHF\Aug-CC-pVDZ\C6H12O1\OHZDE\09-Apr-2025\0\\
 #t hf aug-cc-pvdz symm=none int=(grid=ultrafine) guess=(read,tcheck) s
 table=(opt,rrhf)\\title\\0,1\C,0,-2.26573271,-1.02814287,0.30959792\C,
 0,-0.97981851,-0.2431769,0.29730909\C,0,-1.20372755,1.23945894,0.40204
 703\C,0,0.1787612,-0.89735183,0.21075597\O,0,2.23573547,-1.14129871,-0
 .95937945\C,0,1.62575255,-0.47632693,0.14832846\C,0,1.975199,1.0015816
 3,0.11722772\H,0,-2.93400974,-0.69027219,-0.48801745\H,0,-2.09272047,-
 2.09628174,0.18185042\H,0,-2.80032109,-0.87782483,1.25235034\H,0,1.727

 Normal termination of Gaussian 16 at Wed Apr  9 18:50:02 2025.
 Gaussian 16:  ES64L-G16RevC.01  3-Jul-2019

 ----------------------------------------------------------------------
 #t hf aug-cc-pvdz iop(5/13=1,5/36=2,99/5=2) pseudo=read geom=check gue
 ss=(read,tcheck) scf=(maxcycle=1)
 ----------------------------------------------------------------------
 -----
 title
 -----
 Structure from the checkpoint file:  "Grambow2020_wb97xd3_007701_reverse_mol2.chk"
 Charge =  0 Multiplicity = 1

                         Standard orientation:
 ---------------------------------------------------------------------
 Center     Atomic      Atomic             Coordinates (Angstroms)
 Number     Number       Type             X           Y           Z
 ---------------------------------------------------------------------
      1          6           0        2.491017   -0.872140   -0.000060
      2          6           0        1.223877   -0.058062   -0.039178
      3          6           0        1.464576    1.403275    0.217480
      4          6           0        0.067238   -0.670081   -0.294837
      5          8           0       -2.163367   -1.075825    0.426027
      6          6           0       -1.367740   -0.215751   -0.391612
      7          6           0       -1.715338    1.234560   -0.103398
      8          1           0        3.009500   -0.737048    0.953809
      9          1           0        2.296920   -1.935546   -0.136688
     10          1           0        3.182834   -0.546636   -0.782747
     11          1           0       -1.800734   -1.049066    1.314948
     12          1           0        2.232674    1.774737   -0.466804
     13          1           0        1.858244    1.542666    1.228704
     14          1           0        0.586040    2.027754    0.109809
     15          1           0        0.125838   -1.744814   -0.457341
     16          1           0       -1.704432   -0.444386   -1.408489
     17          1           0       -1.404323    1.529909    0.901183
     18          1           0       -2.798049    1.346533   -0.167991
     19          1           0       -1.259350    1.911689   -0.826981
 ---------------------------------------------------------------------

 SCF Done:  E(RHF) =  -310.584923344     A.U. after    2 cycles

 The electronic state is 1-A.
 Alpha  occ. eigenvalues --  -21.05753 -11.46999 -11.44224 -11.39605 -11.39255
 Alpha  occ. eigenvalues --  -11.38094 -11.35507  -1.70761  -1.26059  -1.11801
 Alpha  occ. eigenvalues --   -1.01927  -0.99454  -0.86361  -0.73546  -0.65566
 Alpha  occ. eigenvalues --   -0.61519  -0.60566  -0.59168  -0.56415  -0.54237
 Alpha  occ. eigenvalues --   -0.53345  -0.50050  -0.49625  -0.48952  -0.43859
 Alpha  occ. eigenvalues --   -0.38497  -0.33529  -0.30006
 Alpha virt. eigenvalues --    0.03407   0.05151   0.05410   0.05463   0.05679
 Alpha virt. eigenvalues --    0.05894   0.06514   0.06728   0.07283   0.08887
 Alpha virt. eigenvalues --    0.09174   0.09522   0.10867   0.12771   0.13476

 Mulliken charges:
               1
     1  C   -5.443326
     2  C    2.720540
     3  C   -5.119737
     4  C    0.317338
     5  O   -3.173741
     6  C    0.622963
     7  C   -4.378845
     8  H    1.134271
     9  H    1.277983
    10  H    1.093528
    11  H    0.899757
    12  H    1.079218
    13  H    1.039848
    14  H    1.596029
    15  H    1.433478
    16  H    1.399698
    17  H    1.258388
    18  H    0.976058
    19  H    1.266552
 Sum of Mulliken charges =   0.00000

 Dipole moment (field-independent basis, Debye):
    X=              0.8466    Y=              0.6212    Z=              0.0846  Tot=              1.0535

 Test job not archived.
 1\1\GINC-SE117\SP\RHF\Aug-CC-pVDZ\C6H12O1\OHZDE\09-Apr-2025\0\\#t hf a
 ug-cc-pvdz iop(5/13=1,5/36=2,99/5=2) pseudo=read geom=check guess=(rea
 d,tcheck) scf=(maxcycle=1)\\title\\0,1\C,0,-2.26573271,-1.02814287,0.3
 0959792\C,0,-0.97981851,-0.2431769,0.29730909\C,0,-1.20372755,1.239458
 94,0.40204703\C,0,0.1787612,-0.89735183,0.21075597\O,0,2.23573547,-1.1
 4129871,-0.95937945\C,0,1.62575255,-0.47632693,0.14832846\C,0,1.975199
 ,1.00158163,0.11722772\H,0,-2.93400974,-0.69027219,-0.48801745\H,0,-2.
 09272047,-2.09628174,0.18185042\H,0,-2.80032109,-0.87782483,1.25235034

 Normal termination of Gaussian 16 at Wed Apr  9 18:50:10 2025.
