 Gaussian 16, Revision C.01,

 ----------------------------------------------------------------------
 #t hf aug-cc-pvdz symm=none int=(grid=ultrafine) guess=(read,tcheck) s
 table=(opt,rrhf)
 ----------------------------------------------------------------------
 -----
 title
 -----
 Symbolic Z-matrix:
 Charge =  0 Multiplicity = 1

 SCF Done:  E(RHF) =  -337.533117582     A.U. after   15 cycles
 Normal termination of Gaussian 16 at Wed Apr  9 04:04:27 2025.
 Gaussian 16:  ES64L-G16RevC.01  3-Jul-2019

 ----------------------------------------------------------------------
 #t hf aug-cc-pvdz iop(5/13=1,5/36=2,99/5=2) pseudo=read geom=check gue
 ss=(read,tcheck) scf=(maxcycle=1)
 ----------------------------------------------------------------------
 -----
 title
 -----
 Structure from the checkpoint file:  "Grambow2020_wb97xd3_009181_reverse_mol2.chk"
 Charge =  0 Multiplicity = 1

                         Standard orientation:
 ---------------------------------------------------------------------
 Center     Atomic      Atomic             Coordinates (Angstroms)
 Number     Number       Type             X           Y           Z
 ---------------------------------------------------------------------
      1          8           0       -2.155771   -0.124374   -0.361535
      2          6           0       -1.031596   -0.058688    0.045787
      3          6           0       -0.296641    1.224996    0.321554
      4          6           0        1.127139    1.280238   -0.148838
      5          7           0        1.629984    0.059025   -0.263598
      6          6           0        0.969858   -1.138676    0.081204
      7          7           0       -0.274079   -1.239071    0.270378
      8          1           0       -0.209321    1.359406    1.411420
      9          1           0       -0.868735    2.079370   -0.036386
     10          1           0        2.599015   -0.027794   -0.534545
     11          1           0        1.621312   -2.002892    0.206095
 ---------------------------------------------------------------------

 SCF Done:  E(RHF) =  -339.015242685     A.U. after    2 cycles

 The electronic state is 1-A.
 Alpha  occ. eigenvalues --  -21.05919 -15.83243 -15.76045 -11.51111 -11.49451
 Alpha  occ. eigenvalues --  -11.43762 -11.40061  -1.73181  -1.53467  -1.34371
 Alpha  occ. eigenvalues --   -1.16747  -0.95970  -0.87919  -0.78088  -0.68737
 Alpha  occ. eigenvalues --   -0.67975  -0.65011  -0.56618  -0.55139  -0.51670
 Alpha  occ. eigenvalues --   -0.48184  -0.43601  -0.37926  -0.35851  -0.27870
 Alpha virt. eigenvalues --    0.02361   0.05026   0.05078   0.06497   0.06723
 Alpha virt. eigenvalues --    0.08889   0.09643   0.10569   0.10754   0.11965
 Alpha virt. eigenvalues --    0.12476   0.12958   0.13961   0.14616   0.15456

 Mulliken charges:
               1
     1  O   -3.200875
     2  C    4.518204
     3  C   -2.698971
     4  C   -0.032127
     5  N   -2.446444
     6  C    1.286654
     7  N   -2.822503
     8  H    1.461833
     9  H    1.438682
    10  H    0.837284
    11  H    1.658264
 Sum of Mulliken charges =  -0.00000

 Dipole moment (field-independent basis, Debye):
    X=              2.8005    Y=             -1.2292    Z=              0.3956  Tot=              3.0839

 Test job not archived.
 1\1\GINC-SE292\SP\RHF\Aug-CC-pVDZ\C4H4N2O1\OHZDE\09-Apr-2025\0\\#t hf
 aug-cc-pvdz iop(5/13=1,5/36=2,99/5=2) pseudo=read geom=check guess=(re
 ad,tcheck) scf=(maxcycle=1)\\title\\0,1\O,0,2.0592415,-0.9653092,1.160
 64273\C,0,1.17888899,-0.61793781,0.42694794\C,0,0.98155838,0.79084202,
 -0.06340898\C,0,-0.43086994,1.29723343,-0.05422889\N,0,-1.29009231,0.2
 8867567,-0.09818708\C,0,-0.95277151,-1.07520589,-0.22141407\N,0,0.2004
 8161,-1.54638708,-0.01833458\H,0,1.26238499,0.84119759,-1.12741078\H,0
 ,1.65407216,1.47446182,0.45210645\H,0,-2.27462757,0.51009978,-0.138585

 Normal termination of Gaussian 16 at Wed Apr  9 04:04:31 2025.
