 Gaussian 16, Revision C.01,

 ----------------------------------------------------------------------
 #t hf aug-cc-pvdz symm=none int=(grid=ultrafine) guess=(read,tcheck) s
 table=(opt,rrhf)
 ----------------------------------------------------------------------
 -----
 title
 -----
 Symbolic Z-matrix:
 Charge =  0 Multiplicity = 1

 SCF Done:  E(RHF) =  -341.324466914     A.U. after   17 cycles
 Normal termination of Gaussian 16 at Wed Apr  9 19:29:54 2025.
 Gaussian 16:  ES64L-G16RevC.01  3-Jul-2019

 ----------------------------------------------------------------------
 #t hf aug-cc-pvdz iop(5/13=1,5/36=2,99/5=2) pseudo=read geom=check gue
 ss=(read,tcheck) scf=(maxcycle=1)
 ----------------------------------------------------------------------
 -----
 title
 -----
 Structure from the checkpoint file:  "Grambow2020_wb97xd3_009088_forward_mol1.chk"
 Charge =  0 Multiplicity = 1

                         Standard orientation:
 ---------------------------------------------------------------------
 Center     Atomic      Atomic             Coordinates (Angstroms)
 Number     Number       Type             X           Y           Z
 ---------------------------------------------------------------------
      1          8           0       -0.730233    2.028846   -0.377630
      2          6           0       -0.440748    1.003135   -0.001471
      3          6           0        1.866653    0.355145    0.608699
      4          6           0        1.570115   -0.587182   -0.315827
      5          6           0        0.337079   -1.297642   -0.348524
      6          6           0       -0.832476   -0.713932    0.065176
      7          8           0       -1.968804   -0.896657    0.361783
      8          1           0        2.732359    0.995921    0.493097
      9          1           0        1.344904    0.409126    1.554911
     10          1           0        2.271889   -0.764429   -1.126874
     11          1           0        0.239414   -2.255271   -0.842677
 ---------------------------------------------------------------------

 SCF Done:  E(RHF) =  -342.849557874     A.U. after    2 cycles

 The electronic state is 1-A.
 Alpha  occ. eigenvalues --  -21.20098 -21.07404 -11.57200 -11.54023 -11.45523
 Alpha  occ. eigenvalues --  -11.41334 -11.39249  -1.83467  -1.73449  -1.26468
 Alpha  occ. eigenvalues --   -1.05612  -0.90347  -0.81981  -0.70352  -0.68344
 Alpha  occ. eigenvalues --   -0.62697  -0.58822  -0.57450  -0.55540  -0.53429
 Alpha  occ. eigenvalues --   -0.51853  -0.49843  -0.40049  -0.34514  -0.25367
 Alpha virt. eigenvalues --    0.03523   0.05060   0.05464   0.06141   0.08749
 Alpha virt. eigenvalues --    0.09428   0.09729   0.10220   0.10910   0.12493
 Alpha virt. eigenvalues --    0.12870   0.12982   0.14212   0.14775   0.15026

 Mulliken charges:
               1
     1  O   -2.537470
     2  C    2.247075
     3  C   -3.246879
     4  C   -0.336305
     5  C   -1.150508
     6  C    2.906636
     7  O   -3.198583
     8  H    1.248343
     9  H    1.461867
    10  H    1.256906
    11  H    1.348919
 Sum of Mulliken charges =   0.00000

 Dipole moment (field-independent basis, Debye):
    X=              0.1323    Y=              2.1100    Z=             -0.7262  Tot=              2.2354

 Test job not archived.
 1\1\GINC-SE112\SP\RHF\Aug-CC-pVDZ\C5H4O2\OHZDE\09-Apr-2025\0\\#t hf au
 g-cc-pvdz iop(5/13=1,5/36=2,99/5=2) pseudo=read geom=check guess=(read
 ,tcheck) scf=(maxcycle=1)\\title\\0,1\O,0,-0.68733549,2.21534607,1.130
 31789\C,0,-0.17881075,1.46207663,0.45847903\C,0,-1.33277702,-0.4608301
 9,-0.58415581\C,0,-0.33550067,-1.0883009,0.08096157\C,0,1.01714565,-0.
 64503703,0.07273746\C,0,1.32973655,0.68663897,-0.02026403\O,0,2.193032
 5,1.48061211,-0.21244073\H,0,-2.36952865,-0.72050478,-0.40774731\H,0,-
 1.13344468,0.21063928,-1.40868497\H,0,-0.58224913,-1.93167976,0.720904

 Normal termination of Gaussian 16 at Wed Apr  9 19:29:58 2025.
