 Gaussian 16, Revision C.01,

 ----------------------------------------------------------------------
 #t hf aug-cc-pvdz symm=none int=(grid=ultrafine) guess=(read,tcheck) s
 table=(opt,rrhf)
 ----------------------------------------------------------------------
 -----
 title
 -----
 Symbolic Z-matrix:
 Charge =  0 Multiplicity = 1

 SCF Done:  E(RHF) =  -342.501716371     A.U. after   15 cycles
 Normal termination of Gaussian 16 at Wed Apr  9 03:59:08 2025.
 Gaussian 16:  ES64L-G16RevC.01  3-Jul-2019

 ----------------------------------------------------------------------
 #t hf aug-cc-pvdz iop(5/13=1,5/36=2,99/5=2) pseudo=read geom=check gue
 ss=(read,tcheck) scf=(maxcycle=1)
 ----------------------------------------------------------------------
 -----
 title
 -----
 Structure from the checkpoint file:  "Grambow2020_wb97xd3_008762_forward_mol2.chk"
 Charge =  0 Multiplicity = 1

                         Standard orientation:
 ---------------------------------------------------------------------
 Center     Atomic      Atomic             Coordinates (Angstroms)
 Number     Number       Type             X           Y           Z
 ---------------------------------------------------------------------
      1          8           0        2.559644   -0.364132    0.098038
      2          6           0        1.543642    0.024878   -0.406365
      3          6           0        0.351002    0.462538    0.408511
      4          8           0       -0.618350    1.235159   -0.320300
      5          6           0       -1.651005    0.331073    0.067277
      6          6           0       -1.417425   -1.012451   -0.516411
      7          6           0       -0.687649   -0.603887    0.740136
      8          1           0        1.413271    0.061137   -1.506805
      9          1           0        0.693898    1.000054    1.296112
     10          1           0       -2.603474    0.742121    0.372001
     11          1           0       -2.204894   -1.735957   -0.345338
     12          1           0       -0.908505   -1.104308   -1.468182
     13          1           0       -0.752026   -1.144163    1.671418
 ---------------------------------------------------------------------

 SCF Done:  E(RHF) =  -344.018574836     A.U. after    2 cycles

 The electronic state is 1-A.
 Alpha  occ. eigenvalues --  -21.07259 -21.06183 -11.50067 -11.48229 -11.47065
 Alpha  occ. eigenvalues --  -11.43419 -11.39451  -1.81650  -1.71474  -1.27248
 Alpha  occ. eigenvalues --   -1.07902  -0.91133  -0.84675  -0.79197  -0.74485
 Alpha  occ. eigenvalues --   -0.64924  -0.63819  -0.57375  -0.55226  -0.49748
 Alpha  occ. eigenvalues --   -0.47004  -0.46150  -0.41550  -0.37321  -0.29905
 Alpha  occ. eigenvalues --   -0.28868
 Alpha virt. eigenvalues --    0.03753   0.04648   0.05055   0.05484   0.06375
 Alpha virt. eigenvalues --    0.07074   0.09340   0.09801   0.11189   0.12354
 Alpha virt. eigenvalues --    0.12946   0.13486   0.14020   0.14464   0.14668

 Mulliken charges:
               1
     1  O   -2.871239
     2  C    1.388088
     3  C   -0.369204
     4  O   -3.192166
     5  C    1.640583
     6  C   -3.264314
     7  C   -1.129458
     8  H    1.408820
     9  H    1.374257
    10  H    1.282383
    11  H    1.330602
    12  H    1.276478
    13  H    1.125170
 Sum of Mulliken charges =  -0.00000

 Dipole moment (field-independent basis, Debye):
    X=             -1.8751    Y=             -0.2799    Z=              0.3234  Tot=              1.9232

 Test job not archived.
 1\1\GINC-SE135\SP\RHF\Aug-CC-pVDZ\C5H6O2\OHZDE\09-Apr-2025\0\\#t hf au
 g-cc-pvdz iop(5/13=1,5/36=2,99/5=2) pseudo=read geom=check guess=(read
 ,tcheck) scf=(maxcycle=1)\\title\\0,1\O,0,2.11377063,1.47445767,-1.327
 51095\C,0,1.64548745,0.93622584,-0.36364959\C,0,0.83417032,-0.3328706,
 -0.45914154\O,0,0.67266616,-1.03279148,0.78656198\C,0,-0.74426447,-1.0
 223148,0.62481702\C,0,-1.26578267,0.36578602,0.66357083\C,0,-0.6750348
 9,-0.17758829,-0.61477591\H,0,1.76138199,1.3570087,0.65556112\H,0,1.26
 6534,-0.98490969,-1.22219043\H,0,-1.29368898,-1.92172987,0.86606288\H,

 Normal termination of Gaussian 16 at Wed Apr  9 03:59:12 2025.
