 Gaussian 16, Revision C.01,

 ----------------------------------------------------------------------
 #t hf aug-cc-pvdz symm=none int=(grid=ultrafine) guess=(read,tcheck) s
 table=(opt,rrhf)
 ----------------------------------------------------------------------
 -----
 title
 -----
 Symbolic Z-matrix:
 Charge =  0 Multiplicity = 1

 SCF Done:  E(RHF) =  -245.723607183     A.U. after   16 cycles
 Normal termination of Gaussian 16 at Wed Apr  9 17:35:21 2025.
 Gaussian 16:  ES64L-G16RevC.01  3-Jul-2019

 ----------------------------------------------------------------------
 #t hf aug-cc-pvdz iop(5/13=1,5/36=2,99/5=2) pseudo=read geom=check gue
 ss=(read,tcheck) scf=(maxcycle=1)
 ----------------------------------------------------------------------
 -----
 title
 -----
 Structure from the checkpoint file:  "Grambow2020_b97d3_007196_forward_mol1.chk"
 Charge =  0 Multiplicity = 1

                         Standard orientation:
 ---------------------------------------------------------------------
 Center     Atomic      Atomic             Coordinates (Angstroms)
 Number     Number       Type             X           Y           Z
 ---------------------------------------------------------------------
      1          8           0        1.520712   -0.767511    0.186911
      2          6           0        1.177342    0.377328   -0.134103
      3          6           0       -0.144535    0.946094   -0.150082
      4          6           0       -1.244461   -0.756792   -0.387025
      5          7           0       -1.247897    0.272644    0.490769
      6          1           0        1.945748    1.147141   -0.395438
      7          1           0       -0.319634    1.965514   -0.497511
      8          1           0       -1.584788   -0.555527   -1.399426
      9          1           0       -1.013925   -1.785145   -0.097653
     10          1           0       -1.187903    0.059819    1.486619
 ---------------------------------------------------------------------

 SCF Done:  E(RHF) =  -246.831876397     A.U. after    2 cycles

 The electronic state is 1-A.
 Alpha  occ. eigenvalues --  -21.00630 -15.80014 -11.49480 -11.46092 -11.39262
 Alpha  occ. eigenvalues --   -1.65850  -1.45789  -1.03411  -0.94992  -0.79643
 Alpha  occ. eigenvalues --   -0.70109  -0.67814  -0.61750  -0.55429  -0.47671
 Alpha  occ. eigenvalues --   -0.45413  -0.41248  -0.27383  -0.25314
 Alpha virt. eigenvalues --    0.03218   0.04484   0.05282   0.05879   0.06481
 Alpha virt. eigenvalues --    0.07051   0.11222   0.11543   0.12753   0.12856
 Alpha virt. eigenvalues --    0.14338   0.15118   0.15506   0.16105   0.17551

 Mulliken charges:
               1
     1  O   -2.764162
     2  C    1.368872
     3  C   -0.458458
     4  C   -1.827863
     5  N   -2.749260
     6  H    1.496240
     7  H    1.422463
     8  H    1.399385
     9  H    1.475994
    10  H    0.636790
 Sum of Mulliken charges =   0.00000

 Dipole moment (field-independent basis, Debye):
    X=             -2.7872    Y=             -0.7120    Z=              0.3128  Tot=              2.8937

 Test job not archived.
 1\1\GINC-SE362\SP\RHF\Aug-CC-pVDZ\C3H5N1O1\OHZDE\09-Apr-2025\0\\#t hf
 aug-cc-pvdz iop(5/13=1,5/36=2,99/5=2) pseudo=read geom=check guess=(re
 ad,tcheck) scf=(maxcycle=1)\\title\\0,1\O,0,0.97894567,-0.98333328,1.3
 7218393\C,0,1.30641641,-0.46446109,0.297408\C,0,0.52563432,0.38390767,
 -0.56384621\C,0,-1.34826672,-0.23334664,-0.041074\N,0,-0.71558383,0.96
 063581,-0.10734346\H,0,2.35130778,-0.57013886,-0.08780602\H,0,0.920989
 99,0.74566853,-1.51432303\H,0,-1.59252655,-0.7257477,-0.97871186\H,0,-
 1.7068882,-0.66584192,0.89633237\H,0,-0.71123488,1.55289249,0.72321328

 Normal termination of Gaussian 16 at Wed Apr  9 17:35:23 2025.
