 Gaussian 16, Revision C.01,

 ----------------------------------------------------------------------
 #t hf aug-cc-pvdz symm=none int=(grid=ultrafine) guess=(read,tcheck) s
 table=(opt,rrhf)
 ----------------------------------------------------------------------
 -----
 title
 -----
 Symbolic Z-matrix:
 Charge =  0 Multiplicity = 1

 SCF Done:  E(RHF) =  -302.832097820     A.U. after   14 cycles
 Normal termination of Gaussian 16 at Wed Apr  9 19:29:12 2025.
 Gaussian 16:  ES64L-G16RevC.01  3-Jul-2019

 ----------------------------------------------------------------------
 #t hf aug-cc-pvdz iop(5/13=1,5/36=2,99/5=2) pseudo=read geom=check gue
 ss=(read,tcheck) scf=(maxcycle=1)
 ----------------------------------------------------------------------
 -----
 title
 -----
 Structure from the checkpoint file:  "Grambow2020_wb97xd3_009048_reverse_mol2.chk"
 Charge =  0 Multiplicity = 1

                         Standard orientation:
 ---------------------------------------------------------------------
 Center     Atomic      Atomic             Coordinates (Angstroms)
 Number     Number       Type             X           Y           Z
 ---------------------------------------------------------------------
      1          7           0        0.464072    1.912884    0.081728
      2          6           0        0.402170    0.490154    0.368119
      3          6           0       -0.942727   -0.108324    0.102359
      4          7           0       -2.043500    0.219306   -0.380985
      5          6           0        1.438208   -0.258479   -0.430533
      6          6           0       -1.879285   -1.209095    0.123808
      7          6           0        2.297128   -1.123074    0.079480
      8          1           0       -0.251181    2.405598    0.601507
      9          1           0        0.271259    2.079428   -0.898737
     10          1           0        0.615432    0.336559    1.430704
     11          1           0        1.437048   -0.055603   -1.499151
     12          1           0       -2.409945   -1.465578    1.035950
     13          1           0       -1.832487   -1.988841   -0.630235
     14          1           0        3.013713   -1.640504   -0.545990
     15          1           0        2.319192   -1.343485    1.141354
 ---------------------------------------------------------------------

 SCF Done:  E(RHF) =  -304.273379339     A.U. after    2 cycles

 The electronic state is 1-A.
 Alpha  occ. eigenvalues --  -15.75215 -15.74353 -11.50300 -11.46150 -11.43379
 Alpha  occ. eigenvalues --  -11.41400 -11.38624  -1.47540  -1.35812  -1.16779
 Alpha  occ. eigenvalues --   -1.00327  -0.91765  -0.82997  -0.75064  -0.67644
 Alpha  occ. eigenvalues --   -0.65620  -0.63463  -0.62187  -0.56502  -0.54793
 Alpha  occ. eigenvalues --   -0.49784  -0.46211  -0.40073  -0.38457  -0.36619
 Alpha  occ. eigenvalues --   -0.33595
 Alpha virt. eigenvalues --    0.03731   0.05079   0.05603   0.05765   0.05901
 Alpha virt. eigenvalues --    0.06014   0.06341   0.08968   0.09651   0.10372
 Alpha virt. eigenvalues --    0.12164   0.12606   0.13171   0.13681   0.14090

 Mulliken charges:
               1
     1  N   -2.617451
     2  C   -2.514388
     3  C    4.489270
     4  N   -2.323319
     5  C   -0.278909
     6  C   -2.786885
     7  C   -2.925209
     8  H    0.603535
     9  H    0.600752
    10  H    1.130946
    11  H    1.368757
    12  H    1.237369
    13  H    1.231616
    14  H    1.355298
    15  H    1.428617
 Sum of Mulliken charges =   0.00000

 Dipole moment (field-independent basis, Debye):
    X=              1.0183    Y=             -0.5562    Z=              0.4709  Tot=              1.2522

 Test job not archived.
 1\1\GINC-SE231\SP\RHF\Aug-CC-pVDZ\C5H8N2\OHZDE\09-Apr-2025\0\\#t hf au
 g-cc-pvdz iop(5/13=1,5/36=2,99/5=2) pseudo=read geom=check guess=(read
 ,tcheck) scf=(maxcycle=1)\\title\\0,1\N,0,2.00047892,-0.49918446,0.004
 9705\C,0,0.5792558,-0.35448215,0.26802274\C,0,0.1435015,1.07096218,0.3
 9363955\N,0,0.612705,2.2174065,0.25882196\C,0,-0.23209521,-1.02153105,
 -0.81291538\C,0,-0.85011622,2.08512482,0.66473971\C,0,-1.20990553,-1.8
 8229259,-0.59301248\H,0,2.53836328,-0.02675211,0.72052079\H,0,2.239166
 69,-0.05404237,-0.87315439\H,0,0.34682006,-0.84417325,1.21898892\H,0,0

 Normal termination of Gaussian 16 at Wed Apr  9 19:29:16 2025.
