 Gaussian 16, Revision C.01,

 ----------------------------------------------------------------------
 #t hf aug-cc-pvdz symm=none int=(grid=ultrafine) guess=(read,tcheck) s
 table=(opt,rrhf)
 ----------------------------------------------------------------------
 -----
 title
 -----
 Symbolic Z-matrix:
 Charge =  0 Multiplicity = 1

 SCF Done:  E(RHF) =  -308.836928981     A.U. after   16 cycles

 1\1\GINC-SE131\Stability\RHF\Aug-CC-pVDZ\C6H12O1\OHZDE\09-Apr-2025\0\\
 #t hf aug-cc-pvdz symm=none int=(grid=ultrafine) guess=(read,tcheck) s
 table=(opt,rrhf)\\title\\0,1\C,0,2.8005515,0.9454214,-0.04070638\C,0,1
 .74395108,-0.13548429,-0.16128275\O,0,0.63513984,0.13985637,0.67218799
 \C,0,-0.94635833,-1.04721298,0.2897068\C,0,-2.17247023,-0.83358418,1.0
 5536893\C,0,-2.1038342,-0.58570939,-0.43675234\C,0,-1.49579926,0.76368
 089,-0.66303629\H,0,3.1285792,1.04416553,0.99474091\H,0,2.4005041,1.90
 698373,-0.36642763\H,0,3.66701536,0.70619699,-0.66139492\H,0,2.1555872

 Normal termination of Gaussian 16 at Wed Apr  9 19:34:41 2025.
 Gaussian 16:  ES64L-G16RevC.01  3-Jul-2019

 ----------------------------------------------------------------------
 #t hf aug-cc-pvdz iop(5/13=1,5/36=2,99/5=2) pseudo=read geom=check gue
 ss=(read,tcheck) scf=(maxcycle=1)
 ----------------------------------------------------------------------
 -----
 title
 -----
 Structure from the checkpoint file:  "Grambow2020_wb97xd3_009428_forward_mol1.chk"
 Charge =  0 Multiplicity = 1

                         Standard orientation:
 ---------------------------------------------------------------------
 Center     Atomic      Atomic             Coordinates (Angstroms)
 Number     Number       Type             X           Y           Z
 ---------------------------------------------------------------------
      1          6           0       -3.076104    0.186926   -0.176877
      2          6           0       -1.792181   -0.292935    0.471641
      3          8           0       -0.748445   -0.394437   -0.477180
      4          6           0        1.057717   -0.667627    0.371177
      5          6           0        2.227105   -0.744567   -0.501656
      6          6           0        2.030851    0.391459    0.479929
      7          6           0        1.098933    1.389509   -0.134229
      8          1           0       -3.370350   -0.485598   -0.983496
      9          1           0       -2.941094    1.185512   -0.595606
     10          1           0       -3.884370    0.228812    0.556739
     11          1           0       -1.937849   -1.284682    0.912048
     12          1           0       -1.494931    0.390587    1.280539
     13          1           0        0.605304   -1.391133    1.029033
     14          1           0        2.158048   -0.549068   -1.564322
     15          1           0        2.916462   -1.540022   -0.230067
     16          1           0        2.716809    0.557629    1.305924
     17          1           0        0.654591    2.049212    0.607587
     18          1           0        1.468759    1.894883   -1.025567
     19          1           0       -0.181751    0.522773   -0.535277
 ---------------------------------------------------------------------

 SCF Done:  E(RHF) =  -310.363545535     A.U. after    2 cycles

 The electronic state is 1-A.
 Alpha  occ. eigenvalues --  -21.02790 -11.51089 -11.44637 -11.42418 -11.40413
 Alpha  occ. eigenvalues --  -11.35666 -11.31874  -1.70312  -1.35639  -1.10587
 Alpha  occ. eigenvalues --   -0.98590  -0.87361  -0.86100  -0.80629  -0.71319
 Alpha  occ. eigenvalues --   -0.65741  -0.62041  -0.59822  -0.55789  -0.53139
 Alpha  occ. eigenvalues --   -0.51920  -0.49323  -0.48902  -0.44607  -0.40270
 Alpha  occ. eigenvalues --   -0.37942  -0.33196  -0.21874
 Alpha virt. eigenvalues --    0.03970   0.04622   0.04879   0.05058   0.05563
 Alpha virt. eigenvalues --    0.06441   0.06487   0.06879   0.06907   0.08380
 Alpha virt. eigenvalues --    0.08633   0.10286   0.11356   0.11905   0.13306

 Mulliken charges:
               1
     1  C   -3.717458
     2  C   -1.940281
     3  O   -2.798680
     4  C   -0.555799
     5  C   -2.735433
     6  C   -1.190182
     7  C   -3.462248
     8  H    1.264090
     9  H    1.279754
    10  H    1.087353
    11  H    1.504521
    12  H    1.783938
    13  H    1.226065
    14  H    1.259164
    15  H    1.269895
    16  H    1.195904
    17  H    1.183713
    18  H    1.065646
    19  H    2.280039
 Sum of Mulliken charges =   0.00000

 Dipole moment (field-independent basis, Debye):
    X=             -0.4048    Y=             -2.5390    Z=              0.9241  Tot=              2.7321

 Test job not archived.
 1\1\GINC-SE131\SP\RHF\Aug-CC-pVDZ\C6H12O1\OHZDE\09-Apr-2025\0\\#t hf a
 ug-cc-pvdz iop(5/13=1,5/36=2,99/5=2) pseudo=read geom=check guess=(rea
 d,tcheck) scf=(maxcycle=1)\\title\\0,1\C,0,2.8005515,0.9454214,-0.0407
 0638\C,0,1.74395108,-0.13548429,-0.16128275\O,0,0.63513984,0.13985637,
 0.67218799\C,0,-0.94635833,-1.04721298,0.2897068\C,0,-2.17247023,-0.83
 358418,1.05536893\C,0,-2.1038342,-0.58570939,-0.43675234\C,0,-1.495799
 26,0.76368089,-0.66303629\H,0,3.1285792,1.04416553,0.99474091\H,0,2.40
 05041,1.90698373,-0.36642763\H,0,3.66701536,0.70619699,-0.66139492\H,0

 Normal termination of Gaussian 16 at Wed Apr  9 19:34:48 2025.
