 Gaussian 16, Revision C.01,

 ----------------------------------------------------------------------
 #t hf aug-cc-pvdz symm=none int=(grid=ultrafine) guess=(read,tcheck) s
 table=(opt,rrhf)
 ----------------------------------------------------------------------
 -----
 title
 -----
 Symbolic Z-matrix:
 Charge =  0 Multiplicity = 1

 SCF Done:  E(RHF) =  -307.696511566     A.U. after   16 cycles

 1\1\GINC-SE097\Stability\RHF\Aug-CC-pVDZ\C6H10O1\OHZDE\09-Apr-2025\0\\
 #t hf aug-cc-pvdz symm=none int=(grid=ultrafine) guess=(read,tcheck) s
 table=(opt,rrhf)\\title\\0,1\C,0,2.31278694,0.55417325,0.33747409\C,0,
 0.40075873,-0.29396815,-0.26210643\C,0,-0.05640869,-1.22083545,0.53924
 823\C,0,-1.5481711,-1.03094929,0.47266773\C,0,-1.71371507,0.03267953,-
 0.63977347\C,0,-0.37938442,0.91744402,-0.77684842\O,0,-0.22365638,1.91
 727084,0.02673428\H,0,2.66215454,0.4993074,1.36774147\H,0,3.0031715,1.
 09371991,-0.31011442\H,0,2.31861999,-0.47877016,-0.04614536\H,0,0.4929

 Normal termination of Gaussian 16 at Wed Apr  9 18:53:02 2025.
 Gaussian 16:  ES64L-G16RevC.01  3-Jul-2019

 ----------------------------------------------------------------------
 #t hf aug-cc-pvdz iop(5/13=1,5/36=2,99/5=2) pseudo=read geom=check gue
 ss=(read,tcheck) scf=(maxcycle=1)
 ----------------------------------------------------------------------
 -----
 title
 -----
 Structure from the checkpoint file:  "Grambow2020_wb97xd3_007733_forward_mol1.chk"
 Charge =  0 Multiplicity = 1

                         Standard orientation:
 ---------------------------------------------------------------------
 Center     Atomic      Atomic             Coordinates (Angstroms)
 Number     Number       Type             X           Y           Z
 ---------------------------------------------------------------------
      1          6           0       -2.438809   -0.507802    0.014306
      2          6           0       -0.311922   -0.455230    0.470686
      3          6           0        0.378275   -1.437671   -0.047669
      4          6           0        1.710850   -0.804571   -0.346452
      5          6           0        1.578075    0.600785    0.288830
      6          6           0        0.033299    1.032849    0.383823
      7          8           0       -0.520785    1.554770   -0.660322
      8          1           0       -2.823201   -1.053094   -0.846751
      9          1           0       -3.223423    0.007792    0.567167
     10          1           0       -2.055557   -1.267076    0.714871
     11          1           0        0.052736   -2.434685   -0.298394
     12          1           0        1.818917   -0.746732   -1.432303
     13          1           0        2.564882   -1.357756    0.047431
     14          1           0        1.974047    0.585670    1.304631
     15          1           0        2.076475    1.378094   -0.285858
     16          1           0       -0.110312    1.542553    1.354748
     17          1           0       -1.806890    0.336919   -0.424105
 ---------------------------------------------------------------------

 SCF Done:  E(RHF) =  -309.197783792     A.U. after    2 cycles

 The electronic state is 1-A.
 Alpha  occ. eigenvalues --  -20.93474 -11.51698 -11.49831 -11.45084 -11.43363
 Alpha  occ. eigenvalues --  -11.38260 -11.38124  -1.62057  -1.33216  -1.08943
 Alpha  occ. eigenvalues --   -1.03590  -0.99772  -0.83199  -0.76076  -0.67017
 Alpha  occ. eigenvalues --   -0.65795  -0.62268  -0.57595  -0.56694  -0.54452
 Alpha  occ. eigenvalues --   -0.50778  -0.49095  -0.45293  -0.44542  -0.36964
 Alpha  occ. eigenvalues --   -0.23319  -0.22238
 Alpha virt. eigenvalues --    0.03147   0.04062   0.04635   0.05030   0.05169
 Alpha virt. eigenvalues --    0.05719   0.06648   0.07208   0.08154   0.08658
 Alpha virt. eigenvalues --    0.10066   0.11036   0.11706   0.12517   0.13385

 Mulliken charges:
               1
     1  C   -5.419952
     2  C    1.266427
     3  C   -1.065125
     4  C   -3.181160
     5  C   -2.980137
     6  C    1.027925
     7  O   -3.130672
     8  H    1.005507
     9  H    0.987388
    10  H    1.403641
    11  H    1.377769
    12  H    1.360065
    13  H    1.242908
    14  H    1.320949
    15  H    1.276989
    16  H    1.329804
    17  H    2.177676
 Sum of Mulliken charges =  -0.00000

 Dipole moment (field-independent basis, Debye):
    X=              0.6751    Y=             -3.7098    Z=              0.5710  Tot=              3.8137

 Test job not archived.
 1\1\GINC-SE097\SP\RHF\Aug-CC-pVDZ\C6H10O1\OHZDE\09-Apr-2025\0\\#t hf a
 ug-cc-pvdz iop(5/13=1,5/36=2,99/5=2) pseudo=read geom=check guess=(rea
 d,tcheck) scf=(maxcycle=1)\\title\\0,1\C,0,2.31278694,0.55417325,0.337
 47409\C,0,0.40075873,-0.29396815,-0.26210643\C,0,-0.05640869,-1.220835
 45,0.53924823\C,0,-1.5481711,-1.03094929,0.47266773\C,0,-1.71371507,0.
 03267953,-0.63977347\C,0,-0.37938442,0.91744402,-0.77684842\O,0,-0.223
 65638,1.91727084,0.02673428\H,0,2.66215454,0.4993074,1.36774147\H,0,3.
 0031715,1.09371991,-0.31011442\H,0,2.31861999,-0.47877016,-0.04614536\

 Normal termination of Gaussian 16 at Wed Apr  9 18:53:08 2025.
