 Gaussian 16, Revision C.01,

 ----------------------------------------------------------------------
 #t hf aug-cc-pvdz symm=none int=(grid=ultrafine) guess=(read,tcheck) s
 table=(opt,rrhf)
 ----------------------------------------------------------------------
 -----
 title
 -----
 Symbolic Z-matrix:
 Charge =  0 Multiplicity = 1

 SCF Done:  E(RHF) =  -357.255782403     A.U. after   21 cycles
 Normal termination of Gaussian 16 at Wed Apr  9 03:58:23 2025.
 Gaussian 16:  ES64L-G16RevC.01  3-Jul-2019

 ----------------------------------------------------------------------
 #t hf aug-cc-pvdz iop(5/13=1,5/36=2,99/5=2) pseudo=read geom=check gue
 ss=(read,tcheck) scf=(maxcycle=1)
 ----------------------------------------------------------------------
 -----
 title
 -----
 Structure from the checkpoint file:  "Grambow2020_wb97xd3_008753_forward_mol1.chk"
 Charge =  0 Multiplicity = 1

                         Standard orientation:
 ---------------------------------------------------------------------
 Center     Atomic      Atomic             Coordinates (Angstroms)
 Number     Number       Type             X           Y           Z
 ---------------------------------------------------------------------
      1          8           0        2.460017   -0.724466   -0.200805
      2          6           0        1.942762    0.328453   -0.008587
      3          6           0        0.411736    0.443411    0.028992
      4          7           0       -0.245601    1.483345    0.090110
      5          8           0       -2.467958    0.226477   -0.177447
      6          6           0       -1.759133   -0.746571   -0.028490
      7          6           0       -0.371508   -0.750512    0.280152
      8          1           0        2.491492    1.268544    0.152782
      9          1           0       -2.149679   -1.764715   -0.229266
     10          1           0        0.097781   -1.552017    0.839325
 ---------------------------------------------------------------------

 SCF Done:  E(RHF) =  -358.760630810     A.U. after    2 cycles

 The electronic state is 1-A.
 Alpha  occ. eigenvalues --  -21.11957 -21.06654 -15.83496 -11.53631 -11.50210
 Alpha  occ. eigenvalues --  -11.48651 -11.44305  -1.76970  -1.71330  -1.39982
 Alpha  occ. eigenvalues --   -1.11619  -0.98078  -0.87158  -0.75461  -0.70537
 Alpha  occ. eigenvalues --   -0.62482  -0.59144  -0.57157  -0.54114  -0.51276
 Alpha  occ. eigenvalues --   -0.47851  -0.44925  -0.36298  -0.32307  -0.27638
 Alpha virt. eigenvalues --    0.01279   0.03282   0.05199   0.05743   0.08637
 Alpha virt. eigenvalues --    0.09400   0.09852   0.10456   0.11348   0.11463
 Alpha virt. eigenvalues --    0.12655   0.12795   0.13609   0.14100   0.15148

 Mulliken charges:
               1
     1  O   -2.705749
     2  C    0.766980
     3  C    2.679919
     4  N   -2.703420
     5  O   -2.661995
     6  C    1.443015
     7  C   -1.331133
     8  H    1.536179
     9  H    1.444075
    10  H    1.532129
 Sum of Mulliken charges =   0.00000

 Dipole moment (field-independent basis, Debye):
    X=              1.6821    Y=             -0.9260    Z=              0.2808  Tot=              1.9405

 Test job not archived.
 1\1\GINC-SE461\SP\RHF\Aug-CC-pVDZ\C4H3N1O2\OHZDE\09-Apr-2025\0\\#t hf
 aug-cc-pvdz iop(5/13=1,5/36=2,99/5=2) pseudo=read geom=check guess=(re
 ad,tcheck) scf=(maxcycle=1)\\title\\0,1\O,0,-1.87293705,1.29827704,-1.
 00461661\C,0,-1.74573465,0.12139589,-0.89548788\C,0,-0.44640467,-0.467
 29082,-0.32640164\N,0,-0.13815874,-1.65899373,-0.28037711\O,0,2.215121
 59,-1.13163112,0.59947354\C,0,1.75765463,-0.01333349,0.70707688\C,0,0.
 41228127,0.38272293,0.47493361\H,0,-2.51358828,-0.61412887,-1.17889585
 \H,0,2.42164054,0.84982514,0.91572754\H,0,-0.04802564,1.21345904,0.997

 Normal termination of Gaussian 16 at Wed Apr  9 03:58:27 2025.
