 Gaussian 16, Revision C.01,

 ----------------------------------------------------------------------
 #t hf aug-cc-pvdz symm=none int=(grid=ultrafine) guess=(read,tcheck) s
 table=(opt,rrhf)
 ----------------------------------------------------------------------
 -----
 title
 -----
 Symbolic Z-matrix:
 Charge =  0 Multiplicity = 1

 SCF Done:  E(RHF) =  -306.555902059     A.U. after   16 cycles
 Normal termination of Gaussian 16 at Wed Apr  9 19:09:00 2025.
 Gaussian 16:  ES64L-G16RevC.01  3-Jul-2019

 ----------------------------------------------------------------------
 #t hf aug-cc-pvdz iop(5/13=1,5/36=2,99/5=2) pseudo=read geom=check gue
 ss=(read,tcheck) scf=(maxcycle=1)
 ----------------------------------------------------------------------
 -----
 title
 -----
 Structure from the checkpoint file:  "Grambow2020_wb97xd3_008152_reverse_mol1.chk"
 Charge =  0 Multiplicity = 1

                         Standard orientation:
 ---------------------------------------------------------------------
 Center     Atomic      Atomic             Coordinates (Angstroms)
 Number     Number       Type             X           Y           Z
 ---------------------------------------------------------------------
      1          8           0        1.986104   -0.647772   -0.324377
      2          6           0        1.151663    0.048501    0.432606
      3          6           0        0.526012    1.299988   -0.098024
      4          6           0       -0.881412    0.854561    0.303697
      5          6           0       -1.479343   -0.026513   -0.823141
      6          6           0       -0.946760   -1.199268   -0.062967
      7          6           0       -0.518357   -0.471521    1.027612
      8          1           0        1.987543   -0.343184   -1.244135
      9          1           0        0.631294    1.523646   -1.171265
     10          1           0        0.894549    2.155455    0.473353
     11          1           0       -1.519310    1.598205    0.778675
     12          1           0       -2.572074    0.015334   -0.862391
     13          1           0       -1.096549    0.181573   -1.831995
     14          1           0       -0.886736   -2.253303   -0.300422
     15          1           0       -0.438366   -0.730039    2.074496
 ---------------------------------------------------------------------

 SCF Done:  E(RHF) =  -308.027081651     A.U. after    2 cycles

 The electronic state is 1-A.
 Alpha  occ. eigenvalues --  -21.11321 -11.51150 -11.46797 -11.42315 -11.40422
 Alpha  occ. eigenvalues --  -11.38116 -11.35150  -1.76344  -1.39053  -1.09765
 Alpha  occ. eigenvalues --   -0.97012  -0.88711  -0.80651  -0.73329  -0.70533
 Alpha  occ. eigenvalues --   -0.64112  -0.62941  -0.59170  -0.51524  -0.49715
 Alpha  occ. eigenvalues --   -0.46207  -0.43078  -0.41381  -0.39974  -0.36380
 Alpha  occ. eigenvalues --   -0.23834
 Alpha virt. eigenvalues --    0.03916   0.04542   0.05283   0.05597   0.06036
 Alpha virt. eigenvalues --    0.06287   0.06624   0.06770   0.09705   0.11190
 Alpha virt. eigenvalues --    0.12278   0.12705   0.13356   0.13640   0.14482

 Mulliken charges:
               1
     1  O   -2.925673
     2  C    2.613842
     3  C   -3.185410
     4  C   -1.331213
     5  C   -2.941489
     6  C   -0.573949
     7  C   -1.507624
     8  H    0.576668
     9  H    1.374243
    10  H    1.478852
    11  H    1.329978
    12  H    1.308900
    13  H    1.364972
    14  H    1.232175
    15  H    1.185726
 Sum of Mulliken charges =   0.00000

 Dipole moment (field-independent basis, Debye):
    X=             -0.1297    Y=              0.5990    Z=             -1.0671  Tot=              1.2306

 Test job not archived.
 1\1\GINC-SE045\SP\RHF\Aug-CC-pVDZ\C6H8O1\OHZDE\09-Apr-2025\0\\#t hf au
 g-cc-pvdz iop(5/13=1,5/36=2,99/5=2) pseudo=read geom=check guess=(read
 ,tcheck) scf=(maxcycle=1)\\title\\0,1\O,0,2.17769074,0.84758716,0.0070
 6942\C,0,1.32533429,0.05069774,-0.61948242\C,0,0.76364487,-1.14530072,
 0.08288568\C,0,-0.67470638,-0.78032369,-0.28935523\C,0,-1.23836893,0.2
 106262,0.76130226\C,0,-0.77921094,1.30003648,-0.15478862\C,0,-0.387254
 48,0.46174866,-1.17760294\H,0,2.23526411,0.65058942,0.95396373\H,0,0.9
 3051454,-1.24200991,1.16720801\H,0,1.12627577,-2.05222801,-0.40711071\

 Normal termination of Gaussian 16 at Wed Apr  9 19:09:05 2025.
