 Gaussian 16, Revision C.01,

 ----------------------------------------------------------------------
 #t hf aug-cc-pvdz symm=none int=(grid=ultrafine) guess=(read,tcheck) s
 table=(opt,rrhf)
 ----------------------------------------------------------------------
 -----
 title
 -----
 Symbolic Z-matrix:
 Charge =  0 Multiplicity = 1

 SCF Done:  E(RHF) =  -324.890476797     A.U. after   18 cycles
 Normal termination of Gaussian 16 at Wed Apr  9 19:11:23 2025.
 Gaussian 16:  ES64L-G16RevC.01  3-Jul-2019

 ----------------------------------------------------------------------
 #t hf aug-cc-pvdz iop(5/13=1,5/36=2,99/5=2) pseudo=read geom=check gue
 ss=(read,tcheck) scf=(maxcycle=1)
 ----------------------------------------------------------------------
 -----
 title
 -----
 Structure from the checkpoint file:  "Grambow2020_wb97xd3_008238_reverse_mol1.chk"
 Charge =  0 Multiplicity = 1

                         Standard orientation:
 ---------------------------------------------------------------------
 Center     Atomic      Atomic             Coordinates (Angstroms)
 Number     Number       Type             X           Y           Z
 ---------------------------------------------------------------------
      1          6           0        2.566433    0.439062    0.087766
      2          6           0        1.518140   -0.626132   -0.214573
      3          6           0        0.337630   -0.612888    0.738151
      4          7           0       -2.039756   -0.082399    0.891773
      5          6           0       -1.095912   -0.164497   -0.067212
      6          8           0       -1.204437   -0.793225   -1.145987
      7          6           0       -0.751111    1.431106   -0.385665
      8          1           0        3.392914    0.380587   -0.622123
      9          1           0        2.152620    1.447880    0.027897
     10          1           0        2.982801    0.313628    1.089976
     11          1           0        1.144098   -0.540356   -1.237689
     12          1           0        1.979171   -1.615786   -0.165580
     13          1           0        0.073169   -1.604117    1.093061
     14          1           0        0.475392    0.055636    1.586370
     15          1           0       -1.675104    0.493021    1.648523
     16          1           0        0.067437    1.375277   -1.095033
     17          1           0       -0.486756    1.989314    0.507459
     18          1           0       -1.643036    1.827611   -0.858188
 ---------------------------------------------------------------------

 SCF Done:  E(RHF) =  -326.442849775     A.U. after    2 cycles

 The electronic state is 1-A.
 Alpha  occ. eigenvalues --  -20.96684 -15.81081 -11.48301 -11.46505 -11.43313
 Alpha  occ. eigenvalues --  -11.41146 -11.37100  -1.66324  -1.34064  -1.21822
 Alpha  occ. eigenvalues --   -1.06762  -1.02074  -0.87062  -0.77259  -0.69198
 Alpha  occ. eigenvalues --   -0.65291  -0.62566  -0.61701  -0.59276  -0.57988
 Alpha  occ. eigenvalues --   -0.52176  -0.50825  -0.49084  -0.46402  -0.45593
 Alpha  occ. eigenvalues --   -0.38518  -0.24933  -0.24296
 Alpha virt. eigenvalues --   -0.00085   0.03389   0.04294   0.05034   0.05173
 Alpha virt. eigenvalues --    0.05284   0.05554   0.06744   0.07379   0.08582
 Alpha virt. eigenvalues --    0.08909   0.09155   0.11464   0.12532   0.13223

 Mulliken charges:
               1
     1  C   -3.610333
     2  C   -3.362820
     3  C   -3.349874
     4  N   -3.320758
     5  C    7.293127
     6  O   -3.587349
     7  C   -4.536703
     8  H    1.139073
     9  H    1.398887
    10  H    1.283096
    11  H    1.782482
    12  H    1.180149
    13  H    1.376376
    14  H    1.671694
    15  H    0.689162
    16  H    1.449178
    17  H    1.349756
    18  H    1.154857
 Sum of Mulliken charges =   0.00000

 Dipole moment (field-independent basis, Debye):
    X=              2.9869    Y=              2.0582    Z=              1.5555  Tot=              3.9468

 Test job not archived.
 1\1\GINC-SE222\SP\RHF\Aug-CC-pVDZ\C5H11N1O1\OHZDE\09-Apr-2025\0\\#t hf
  aug-cc-pvdz iop(5/13=1,5/36=2,99/5=2) pseudo=read geom=check guess=(r
 ead,tcheck) scf=(maxcycle=1)\\title\\0,1\C,0,-1.81257512,-0.17309403,-
 1.00679814\C,0,-1.091419,0.84473458,-0.12991461\C,0,-0.37813529,0.2324
 936,1.06081998\N,0,1.8331328,-0.26604641,1.96565888\C,0,1.31155616,0.4
 0413583,0.91873589\O,0,1.60375362,1.5759677,0.58368013\C,0,1.59152061,
 -0.62535926,-0.35719928\H,0,-2.31133477,0.32078108,-1.8421168\H,0,-1.1
 2535403,-0.91176493,-1.42468875\H,0,-2.57418351,-0.71551566,-0.4417747

 Normal termination of Gaussian 16 at Wed Apr  9 19:11:30 2025.
