 Gaussian 16, Revision C.01,

 ----------------------------------------------------------------------
 #t hf aug-cc-pvdz symm=none int=(grid=ultrafine) guess=(read,tcheck) s
 table=(opt,rrhf)
 ----------------------------------------------------------------------
 -----
 title
 -----
 Symbolic Z-matrix:
 Charge =  0 Multiplicity = 1

 SCF Done:  E(RHF) =  -355.924719528     A.U. after   13 cycles
 Normal termination of Gaussian 16 at Wed Apr  9 19:27:04 2025.
 Gaussian 16:  ES64L-G16RevC.01  3-Jul-2019

 ----------------------------------------------------------------------
 #t hf aug-cc-pvdz iop(5/13=1,5/36=2,99/5=2) pseudo=read geom=check gue
 ss=(read,tcheck) scf=(maxcycle=1)
 ----------------------------------------------------------------------
 -----
 title
 -----
 Structure from the checkpoint file:  "Grambow2020_wb97xd3_008991_reverse_mol2.chk"
 Charge =  0 Multiplicity = 1

                         Standard orientation:
 ---------------------------------------------------------------------
 Center     Atomic      Atomic             Coordinates (Angstroms)
 Number     Number       Type             X           Y           Z
 ---------------------------------------------------------------------
      1          6           0       -3.437221   -0.715584   -0.005593
      2          7           0       -2.223235   -0.383512    0.011546
      3          6           0        1.774902   -1.072133   -0.000741
      4          8           0        2.933043   -0.739415    0.001789
      5          7           0        0.707302   -0.216127   -0.002494
      6          6           0        0.849623    1.155048   -0.002511
      7          7           0       -0.165225    1.914494   -0.001518
      8          1           0       -3.703378   -1.772798   -0.020191
      9          1           0       -4.263499    0.000749   -0.007655
     10          1           0        1.458207   -2.128455   -0.002042
     11          1           0       -2.077194    0.629430    0.022183
     12          1           0       -0.244363   -0.587763   -0.002027
     13          1           0        1.889966    1.479339   -0.002650
     14          1           0        0.120199    2.886858   -0.001596
 ---------------------------------------------------------------------

 SCF Done:  E(RHF) =  -357.517824440     A.U. after    2 cycles

 The electronic state is 1-A.
 Alpha  occ. eigenvalues --  -21.04366 -15.77386 -15.75319 -15.73438 -11.49381
 Alpha  occ. eigenvalues --  -11.45602 -11.43492  -1.71858  -1.45158  -1.34085
 Alpha  occ. eigenvalues --   -1.27917  -0.93483  -0.89305  -0.82155  -0.73193
 Alpha  occ. eigenvalues --   -0.68584  -0.65418  -0.59678  -0.58399  -0.57812
 Alpha  occ. eigenvalues --   -0.51148  -0.44765  -0.44109  -0.41257  -0.40539
 Alpha  occ. eigenvalues --   -0.31295  -0.30345
 Alpha virt. eigenvalues --    0.03334   0.04580   0.04813   0.05961   0.07166
 Alpha virt. eigenvalues --    0.08494   0.09159   0.10136   0.10747   0.10968
 Alpha virt. eigenvalues --    0.10990   0.13738   0.14247   0.14514   0.14984

 Mulliken charges:
               1
     1  C   -1.130929
     2  N   -2.696652
     3  C    2.253638
     4  O   -2.803459
     5  N   -2.827996
     6  C    1.526883
     7  N   -3.088117
     8  H    1.494708
     9  H    1.477843
    10  H    1.668694
    11  H    0.691486
    12  H    0.986419
    13  H    1.795417
    14  H    0.652063
 Sum of Mulliken charges =   0.00000

 Dipole moment (field-independent basis, Debye):
    X=             -2.3873    Y=              0.1778    Z=             -0.0141  Tot=              2.3939

 Test job not archived.
 1\1\GINC-SE084\SP\RHF\Aug-CC-pVDZ\C3H7N3O1\OHZDE\09-Apr-2025\0\\#t hf
 aug-cc-pvdz iop(5/13=1,5/36=2,99/5=2) pseudo=read geom=check guess=(re
 ad,tcheck) scf=(maxcycle=1)\\title\\0,1\C,0,2.39851003,0.09118817,1.74
 904088\N,0,1.3909069,0.07441209,0.99486448\C,0,-0.52289322,0.13621805,
 -2.58186518\O,0,-1.49551388,0.10481056,-3.29251449\N,0,-0.53904749,0.0
 4478218,-1.21661842\C,0,-1.70277415,-0.09780008,-0.49150735\N,0,-1.675
 75255,-0.17642717,0.77331096\H,0,3.39303318,0.18649851,1.31247009\H,0,
 2.34381808,0.01412118,2.83851036\H,0,0.50087873,0.24463014,-2.97715012

 Normal termination of Gaussian 16 at Wed Apr  9 19:27:08 2025.
