 Gaussian 16, Revision C.01,

 ----------------------------------------------------------------------
 #t hf aug-cc-pvdz symm=none int=(grid=ultrafine) guess=(read,tcheck) s
 table=(opt,rrhf)
 ----------------------------------------------------------------------
 -----
 title
 -----
 Symbolic Z-matrix:
 Charge =  0 Multiplicity = 1

 SCF Done:  E(RHF) =  -306.568941077     A.U. after   16 cycles
 Normal termination of Gaussian 16 at Wed Apr  9 19:29:15 2025.
 Gaussian 16:  ES64L-G16RevC.01  3-Jul-2019

 ----------------------------------------------------------------------
 #t hf aug-cc-pvdz iop(5/13=1,5/36=2,99/5=2) pseudo=read geom=check gue
 ss=(read,tcheck) scf=(maxcycle=1)
 ----------------------------------------------------------------------
 -----
 title
 -----
 Structure from the checkpoint file:  "Grambow2020_wb97xd3_009024_forward_mol1.chk"
 Charge =  0 Multiplicity = 1

                         Standard orientation:
 ---------------------------------------------------------------------
 Center     Atomic      Atomic             Coordinates (Angstroms)
 Number     Number       Type             X           Y           Z
 ---------------------------------------------------------------------
      1          6           0       -2.080103   -0.309525   -0.398558
      2          6           0       -0.706729    0.019001    0.088412
      3          8           0        0.101539   -1.233434    0.245145
      4          6           0        1.312962   -0.886716    0.196062
      5          6           0        1.612074    0.405348   -0.462280
      6          6           0        0.262743    1.072320   -0.385999
      7          6           0       -0.224452    1.028468    1.032842
      8          1           0       -2.636609   -0.860102    0.362121
      9          1           0       -2.610959    0.622331   -0.591283
     10          1           0       -2.072275   -0.895435   -1.320228
     11          1           0        2.042929   -1.667124    0.400321
     12          1           0        2.375362    0.972019    0.070267
     13          1           0        2.012690    0.161589   -1.463369
     14          1           0       -0.023146    1.781470   -1.158837
     15          1           0       -0.959275    1.779347    1.316984
 ---------------------------------------------------------------------

 SCF Done:  E(RHF) =  -308.013764358     A.U. after    2 cycles

 The electronic state is 1-A.
 Alpha  occ. eigenvalues --  -21.15050 -11.55481 -11.46998 -11.43772 -11.39158
 Alpha  occ. eigenvalues --  -11.37496 -11.29534  -1.87857  -1.29615  -1.15906
 Alpha  occ. eigenvalues --   -1.03317  -0.90066  -0.80674  -0.75054  -0.72763
 Alpha  occ. eigenvalues --   -0.65002  -0.58755  -0.57500  -0.56054  -0.52342
 Alpha  occ. eigenvalues --   -0.51703  -0.48790  -0.43737  -0.36313  -0.34379
 Alpha  occ. eigenvalues --   -0.23531
 Alpha virt. eigenvalues --    0.03192   0.04314   0.04875   0.05534   0.05846
 Alpha virt. eigenvalues --    0.06563   0.07044   0.07252   0.08051   0.10494
 Alpha virt. eigenvalues --    0.11111   0.11948   0.12382   0.13472   0.13993

 Mulliken charges:
               1
     1  C   -5.051405
     2  C    3.819967
     3  O   -3.713876
     4  C    0.795841
     5  C   -3.760667
     6  C   -0.601319
     7  C   -1.992322
     8  H    1.215940
     9  H    0.978348
    10  H    1.255468
    11  H    1.718004
    12  H    1.462086
    13  H    1.341688
    14  H    1.352438
    15  H    1.179811
 Sum of Mulliken charges =  -0.00000

 Dipole moment (field-independent basis, Debye):
    X=              0.9724    Y=             -2.7262    Z=             -2.8714  Tot=              4.0771

 Test job not archived.
 1\1\GINC-SE018\SP\RHF\Aug-CC-pVDZ\C6H8O1\OHZDE\09-Apr-2025\0\\#t hf au
 g-cc-pvdz iop(5/13=1,5/36=2,99/5=2) pseudo=read geom=check guess=(read
 ,tcheck) scf=(maxcycle=1)\\title\\0,1\C,0,2.00933136,0.26219791,-0.232
 73556\C,0,0.56992752,0.26937287,0.16637559\O,0,-0.19405329,1.25503643,
 -0.66504281\C,0,-1.40277079,0.89800989,-0.62377591\C,0,-1.6704163,-0.5
 156338,-0.27407644\C,0,-0.37497738,-0.88187258,0.4034708\C,0,-0.078977
 28,0.13019569,1.47141018\H,0,2.48443529,1.21089236,0.02362729\H,0,2.51
 803936,-0.52620705,0.32128794\H,0,2.15065509,0.07615653,-1.29962034\H,

 Normal termination of Gaussian 16 at Wed Apr  9 19:29:20 2025.
