 Gaussian 16, Revision C.01,

 ----------------------------------------------------------------------
 #t hf aug-cc-pvdz symm=none int=(grid=ultrafine) guess=(read,tcheck) s
 table=(opt,rrhf)
 ----------------------------------------------------------------------
 -----
 title
 -----
 Symbolic Z-matrix:
 Charge =  0 Multiplicity = 1

 SCF Done:  E(RHF) =  -281.269937601     A.U. after   16 cycles
 Normal termination of Gaussian 16 at Wed Apr  9 03:05:12 2025.
 Gaussian 16:  ES64L-G16RevC.01  3-Jul-2019

 ----------------------------------------------------------------------
 #t hf aug-cc-pvdz iop(5/13=1,5/36=2,99/5=2) pseudo=read geom=check gue
 ss=(read,tcheck) scf=(maxcycle=1)
 ----------------------------------------------------------------------
 -----
 title
 -----
 Structure from the checkpoint file:  "Grambow2020_b97d3_006503_reverse_mol2.chk"
 Charge =  0 Multiplicity = 1

                         Standard orientation:
 ---------------------------------------------------------------------
 Center     Atomic      Atomic             Coordinates (Angstroms)
 Number     Number       Type             X           Y           Z
 ---------------------------------------------------------------------
      1          8           0       -2.502490   -0.639885    0.000329
      2          6           0       -1.498612   -0.020496   -0.000320
      3          6           0       -0.534465    0.871022   -0.000613
      4          6           0        0.807879    0.936568    0.000299
      5          6           0        2.410316   -1.074506   -0.000309
      6          7           0        1.653036   -0.149897    0.000318
      7          1           0        1.337963    1.892826    0.000798
 ---------------------------------------------------------------------

 SCF Done:  E(RHF) =  -282.459962095     A.U. after    2 cycles

 The electronic state is 1-A.
 Alpha  occ. eigenvalues --  -21.16153 -15.82021 -11.58106 -11.54092 -11.48198
 Alpha  occ. eigenvalues --  -11.42343  -1.78333  -1.45265  -1.18651  -1.01369
 Alpha  occ. eigenvalues --   -0.80042  -0.72198  -0.62286  -0.58385  -0.55993
 Alpha  occ. eigenvalues --   -0.53419  -0.50340  -0.48450  -0.36339  -0.32550
 Alpha virt. eigenvalues --    0.02533   0.02871   0.07098   0.08689   0.09094
 Alpha virt. eigenvalues --    0.09156   0.09808   0.11026   0.12134   0.12139
 Alpha virt. eigenvalues --    0.13775   0.14075   0.14526   0.15202   0.16078

 Mulliken charges:
               1
     1  O   -2.337396
     2  C    2.363868
     3  C    0.781402
     4  C   -0.031779
     5  C   -0.759603
     6  N   -1.445505
     7  H    1.429014
 Sum of Mulliken charges =  -0.00000

 Dipole moment (field-independent basis, Debye):
    X=             -1.6937    Y=              0.6008    Z=              0.0018  Tot=              1.7971

 Test job not archived.
 1\1\GINC-SE165\SP\RHF\Aug-CC-pVDZ\C4H1N1O1\OHZDE\09-Apr-2025\0\\#t hf
 aug-cc-pvdz iop(5/13=1,5/36=2,99/5=2) pseudo=read geom=check guess=(re
 ad,tcheck) scf=(maxcycle=1)\\title\\0,1\O,0,-0.70735497,-2.77518438,0.
 28148724\C,0,-0.16659985,-1.73409318,0.15849505\C,0,0.64790645,-0.7135
 4725,0.01902908\C,0,0.61196839,0.62522222,-0.09317838\C,0,-1.50979645,
 2.07783657,-0.0774491\N,0,-0.53277238,1.38953332,-0.08339402\H,0,1.523
 5338,1.2187617,-0.20352788\\Version=ES64L-G16RevC.01\State=1-A\HF=-282
 .4599621\RMSD=5.289e-01\Dipole=0.2853458,-0.6459211,0.0354853\Quadrupo

 Normal termination of Gaussian 16 at Wed Apr  9 03:05:15 2025.
