 Gaussian 16, Revision C.01,

 ----------------------------------------------------------------------
 #t hf aug-cc-pvdz symm=none int=(grid=ultrafine) guess=(read,tcheck) s
 table=(opt,rrhf)
 ----------------------------------------------------------------------
 -----
 title
 -----
 Symbolic Z-matrix:
 Charge =  0 Multiplicity = 1

 SCF Done:  E(RHF) =  -358.267995727     A.U. after   18 cycles
 Normal termination of Gaussian 16 at Wed Apr  9 18:40:18 2025.
 Gaussian 16:  ES64L-G16RevC.01  3-Jul-2019

 ----------------------------------------------------------------------
 #t hf aug-cc-pvdz iop(5/13=1,5/36=2,99/5=2) pseudo=read geom=check gue
 ss=(read,tcheck) scf=(maxcycle=1)
 ----------------------------------------------------------------------
 -----
 title
 -----
 Structure from the checkpoint file:  "Grambow2020_wb97xd3_007455_reverse_mol1.chk"
 Charge =  0 Multiplicity = 1

                         Standard orientation:
 ---------------------------------------------------------------------
 Center     Atomic      Atomic             Coordinates (Angstroms)
 Number     Number       Type             X           Y           Z
 ---------------------------------------------------------------------
      1          8           0       -2.067636   -0.914449   -0.119118
      2          6           0       -1.977430    0.463108    0.152387
      3          6           0       -0.693358    1.176805    0.034396
      4          7           0        0.762009   -1.015649   -0.039355
      5          8           0        2.140931   -0.549384    0.130285
      6          6           0        1.862372    0.681036    0.006405
      7          6           0        0.428548    0.365795   -0.150754
      8          1           0       -1.322105   -1.379314    0.278544
      9          1           0       -2.742239    0.958452   -0.449966
     10          1           0       -2.248091    0.703728    1.200420
     11          1           0        2.577902    1.489965    0.084813
     12          1           0        0.093325    0.926920   -1.182265
 ---------------------------------------------------------------------

 SCF Done:  E(RHF) =  -359.819230352     A.U. after    2 cycles

 The electronic state is 1-A.
 Alpha  occ. eigenvalues --  -21.18859 -21.06254 -15.72472 -11.57403 -11.49043
 Alpha  occ. eigenvalues --  -11.44624 -11.40908  -1.94794  -1.71151  -1.29190
 Alpha  occ. eigenvalues --   -1.13033  -1.04421  -0.91339  -0.79008  -0.70731
 Alpha  occ. eigenvalues --   -0.65190  -0.63308  -0.60188  -0.56416  -0.49068
 Alpha  occ. eigenvalues --   -0.48203  -0.43354  -0.40385  -0.33967  -0.31732
 Alpha  occ. eigenvalues --   -0.29854
 Alpha virt. eigenvalues --    0.02561   0.04316   0.05356   0.06071   0.06462
 Alpha virt. eigenvalues --    0.07809   0.08538   0.08938   0.10081   0.12485
 Alpha virt. eigenvalues --    0.12583   0.12960   0.13412   0.14156   0.14612

 Mulliken charges:
               1
     1  O   -2.822349
     2  C   -0.872842
     3  C   -1.308746
     4  N   -1.049360
     5  O   -2.303508
     6  C   -0.477721
     7  C    2.673748
     8  H    1.029553
     9  H    1.239345
    10  H    1.221123
    11  H    1.143031
    12  H    1.527727
 Sum of Mulliken charges =  -0.00000

 Dipole moment (field-independent basis, Debye):
    X=              2.5891    Y=              0.7551    Z=              0.0959  Tot=              2.6987

 Test job not archived.
 1\1\GINC-SE229\SP\RHF\Aug-CC-pVDZ\C4H5N1O2\OHZDE\09-Apr-2025\0\\#t hf
 aug-cc-pvdz iop(5/13=1,5/36=2,99/5=2) pseudo=read geom=check guess=(re
 ad,tcheck) scf=(maxcycle=1)\\title\\0,1\O,0,-2.04773902,0.6631521,-0.0
 2702214\C,0,-1.6020852,-0.65784746,0.162368\C,0,-0.16950694,-0.9573452
 4,0.33599515\N,0,0.64419703,1.39727145,-0.5149169\O,0,2.08906557,1.242
 27972,-0.70449403\C,0,2.15738357,0.1069507,-0.14482105\C,0,0.69977816,
 0.10787844,0.09036741\H,0,-1.47262142,1.11966604,-0.6522308\H,0,-2.178
 7196,-1.07403908,0.99146636\H,0,-1.84299772,-1.31072973,-0.70090187\H,

 Normal termination of Gaussian 16 at Wed Apr  9 18:40:22 2025.
