 Gaussian 16, Revision C.01,

 ----------------------------------------------------------------------
 #t hf aug-cc-pvdz symm=none int=(grid=ultrafine) guess=(read,tcheck) s
 table=(opt,rrhf)
 ----------------------------------------------------------------------
 -----
 title
 -----
 Symbolic Z-matrix:
 Charge =  0 Multiplicity = 1

 SCF Done:  E(RHF) =  -353.488047125     A.U. after   16 cycles
 Normal termination of Gaussian 16 at Wed Apr  9 17:58:46 2025.
 Gaussian 16:  ES64L-G16RevC.01  3-Jul-2019

 ----------------------------------------------------------------------
 #t hf aug-cc-pvdz iop(5/13=1,5/36=2,99/5=2) pseudo=read geom=check gue
 ss=(read,tcheck) scf=(maxcycle=1)
 ----------------------------------------------------------------------
 -----
 title
 -----
 Structure from the checkpoint file:  "Grambow2020_wb97xd3_006536_forward_mol1.chk"
 Charge =  0 Multiplicity = 1

                         Standard orientation:
 ---------------------------------------------------------------------
 Center     Atomic      Atomic             Coordinates (Angstroms)
 Number     Number       Type             X           Y           Z
 ---------------------------------------------------------------------
      1          8           0       -2.147136    0.067547    0.000787
      2          6           0       -0.893062    0.231670   -0.000590
      3          7           0       -0.376692   -1.026944   -0.000655
      4          7           0        0.883967   -1.308342    0.000020
      5          6           0        1.678274   -0.250916    0.000074
      6          6           0        1.154125    1.053776   -0.000013
      7          7           0       -0.133206    1.334232   -0.000573
      8          1           0       -1.655502   -1.198818    0.001244
      9          1           0        2.742088   -0.441050    0.002077
     10          1           0        1.835991    1.899692    0.002014
 ---------------------------------------------------------------------

 SCF Done:  E(RHF) =  -355.059892847     A.U. after    2 cycles

 The electronic state is 1-A.
 Alpha  occ. eigenvalues --  -21.05868 -15.84440 -15.80406 -15.78006 -11.51821
 Alpha  occ. eigenvalues --  -11.50618 -11.43490  -1.79720  -1.59778  -1.41480
 Alpha  occ. eigenvalues --   -1.22196  -1.02764  -0.93831  -0.76491  -0.73846
 Alpha  occ. eigenvalues --   -0.66709  -0.66672  -0.57273  -0.52788  -0.51046
 Alpha  occ. eigenvalues --   -0.49863  -0.46575  -0.37072  -0.36430  -0.29648
 Alpha virt. eigenvalues --    0.02811   0.04911   0.06224   0.06419   0.09695
 Alpha virt. eigenvalues --    0.10291   0.10297   0.11046   0.11379   0.13248
 Alpha virt. eigenvalues --    0.13788   0.13809   0.14401   0.15391   0.15508

 Mulliken charges:
               1
     1  O   -2.832850
     2  C    4.665756
     3  N   -1.340268
     4  N   -1.561345
     5  C    0.397458
     6  C    0.080962
     7  N   -2.877295
     8  H    0.400726
     9  H    1.478974
    10  H    1.587883
 Sum of Mulliken charges =  -0.00000

 Dipole moment (field-independent basis, Debye):
    X=              2.0981    Y=              0.0824    Z=              0.0030  Tot=              2.0997

 Test job not archived.
 1\1\GINC-SE220\SP\RHF\Aug-CC-pVDZ\C3H3N3O1\OHZDE\09-Apr-2025\0\\#t hf
 aug-cc-pvdz iop(5/13=1,5/36=2,99/5=2) pseudo=read geom=check guess=(re
 ad,tcheck) scf=(maxcycle=1)\\title\\0,1\O,0,2.32989536,-0.74256674,0.2
 4336897\C,0,1.08891424,-0.53700365,0.11165382\N,0,0.95867826,0.8171472
 ,0.10394729\N,0,-0.1608642,1.45108569,-0.01091964\C,0,-1.22075145,0.66
 855762,-0.12651708\C,0,-1.09632289,-0.73195122,-0.11978789\N,0,0.04887
 158,-1.37270111,-0.00212345\H,0,2.22538123,0.61184849,0.23890839\H,0,-
 2.17922301,1.15820027,-0.22366475\H,0,-1.98863111,-1.34453454,-0.21490

 Normal termination of Gaussian 16 at Wed Apr  9 17:58:50 2025.
