 Gaussian 16, Revision C.01,

 ----------------------------------------------------------------------
 #t hf aug-cc-pvdz symm=none int=(grid=ultrafine) guess=(read,tcheck) s
 table=(opt,rrhf)
 ----------------------------------------------------------------------
 -----
 title
 -----
 Symbolic Z-matrix:
 Charge =  0 Multiplicity = 1

 SCF Done:  E(RHF) =  -359.548589268     A.U. after   15 cycles
 Normal termination of Gaussian 16 at Wed Apr  9 03:51:47 2025.
 Gaussian 16:  ES64L-G16RevC.01  3-Jul-2019

 ----------------------------------------------------------------------
 #t hf aug-cc-pvdz iop(5/13=1,5/36=2,99/5=2) pseudo=read geom=check gue
 ss=(read,tcheck) scf=(maxcycle=1)
 ----------------------------------------------------------------------
 -----
 title
 -----
 Structure from the checkpoint file:  "Grambow2020_wb97xd3_008286_forward_mol1.chk"
 Charge =  0 Multiplicity = 1

                         Standard orientation:
 ---------------------------------------------------------------------
 Center     Atomic      Atomic             Coordinates (Angstroms)
 Number     Number       Type             X           Y           Z
 ---------------------------------------------------------------------
      1          6           0        2.202089   -0.254278   -0.422074
      2          6           0        0.757316   -1.043570    0.582889
      3          6           0        0.948053    1.092250    0.122486
      4          7           0       -0.489097    1.084309    0.177959
      5          6           0       -1.236204   -0.033641   -0.049784
      6          8           0       -2.412042   -0.096878   -0.235024
      7          8           0       -0.404108   -1.127718   -0.092513
      8          1           0        1.989943   -0.833637   -1.315450
      9          1           0        2.892574   -0.782711    0.224966
     10          1           0        2.742160    0.646031   -0.741781
     11          1           0        0.621501   -0.491860    1.525180
     12          1           0        1.236594    1.745781   -0.696346
     13          1           0        1.404238    1.421904    1.052808
     14          1           0       -0.961654    1.936536   -0.075892
 ---------------------------------------------------------------------

 SCF Done:  E(RHF) =  -361.177964356     A.U. after    2 cycles

 The electronic state is 1-A.
 Alpha  occ. eigenvalues --  -21.11042 -21.04549 -15.78776 -11.52951 -11.46776
 Alpha  occ. eigenvalues --  -11.43499 -11.41488  -1.87446  -1.68705  -1.42141
 Alpha  occ. eigenvalues --   -1.14208  -0.97346  -0.91821  -0.83620  -0.69138
 Alpha  occ. eigenvalues --   -0.69063  -0.63683  -0.62580  -0.58250  -0.56535
 Alpha  occ. eigenvalues --   -0.51310  -0.49979  -0.45188  -0.38356  -0.35948
 Alpha  occ. eigenvalues --   -0.32339  -0.27583
 Alpha virt. eigenvalues --    0.03012   0.04187   0.04531   0.04847   0.05986
 Alpha virt. eigenvalues --    0.06316   0.07599   0.10478   0.10797   0.11185
 Alpha virt. eigenvalues --    0.12233   0.12566   0.13188   0.13453   0.14852

 Mulliken charges:
               1
     1  C   -3.473334
     2  C   -0.255816
     3  C   -1.535982
     4  N   -2.595685
     5  C    5.972934
     6  O   -3.186720
     7  O   -2.947352
     8  H    1.214464
     9  H    1.220068
    10  H    0.956636
    11  H    1.417207
    12  H    1.303900
    13  H    1.357097
    14  H    0.552584
 Sum of Mulliken charges =   0.00000

 Dipole moment (field-independent basis, Debye):
    X=              2.5175    Y=              3.0413    Z=             -0.3378  Tot=              3.9625

 Test job not archived.
 1\1\GINC-SE292\SP\RHF\Aug-CC-pVDZ\C4H7N1O2\OHZDE\09-Apr-2025\0\\#t hf
 aug-cc-pvdz iop(5/13=1,5/36=2,99/5=2) pseudo=read geom=check guess=(re
 ad,tcheck) scf=(maxcycle=1)\\title\\0,1\C,0,-1.56615046,-0.5666588,0.1
 1240321\C,0,-0.01339877,-1.0533867,-0.9231443\C,0,-0.28640234,0.863206
 32,0.10749583\N,0,1.14886254,0.85301474,0.19942673\C,0,1.8879072,-0.29
 282386,0.1727264\O,0,3.03971649,-0.42160406,0.45140156\O,0,1.07457936,
 -1.34247077,-0.18497848\H,0,-1.43610398,-1.38039833,0.81929802\H,0,-2.
 17812714,-0.87859637,-0.72595789\H,0,-2.15122563,0.21114954,0.61949972

 Normal termination of Gaussian 16 at Wed Apr  9 03:51:52 2025.
