 Gaussian 16, Revision C.01,

 ----------------------------------------------------------------------
 #t hf aug-cc-pvdz symm=none int=(grid=ultrafine) guess=(read,tcheck) s
 table=(opt,rrhf)
 ----------------------------------------------------------------------
 -----
 title
 -----
 Symbolic Z-matrix:
 Charge =  0 Multiplicity = 1

 SCF Done:  E(RHF) =  -305.844790107     A.U. after   12 cycles
 Normal termination of Gaussian 16 at Wed Apr  9 17:43:43 2025.
 Gaussian 16:  ES64L-G16RevC.01  3-Jul-2019

 ----------------------------------------------------------------------
 #t hf aug-cc-pvdz iop(5/13=1,5/36=2,99/5=2) pseudo=read geom=check gue
 ss=(read,tcheck) scf=(maxcycle=1)
 ----------------------------------------------------------------------
 -----
 title
 -----
 Structure from the checkpoint file:  "Grambow2020_wb97xd3_006135_forward_mol2.chk"
 Charge =  0 Multiplicity = 1

                         Standard orientation:
 ---------------------------------------------------------------------
 Center     Atomic      Atomic             Coordinates (Angstroms)
 Number     Number       Type             X           Y           Z
 ---------------------------------------------------------------------
      1          8           0        2.253729    0.352429    0.067560
      2          6           0        1.222975   -0.553936   -0.275325
      3          6           0        0.002140   -0.198221    0.535336
      4          6           0       -0.730468    1.071939    0.086429
      5          8           0       -1.834243    0.305295   -0.424794
      6          6           0       -1.286827   -0.909012    0.104176
      7          1           0        3.012585    0.191541   -0.494193
      8          1           0        1.521022   -1.589425   -0.061045
      9          1           0        0.979585   -0.487803   -1.344917
     10          1           0        0.236060   -0.248242    1.598469
     11          1           0       -1.044371    1.739014    0.894000
     12          1           0       -0.235193    1.655487   -0.694134
     13          1           0       -1.894813   -1.307051    0.922104
     14          1           0       -1.177677   -1.679933   -0.666103
 ---------------------------------------------------------------------

 SCF Done:  E(RHF) =  -307.228586717     A.U. after    2 cycles

 The electronic state is 1-A.
 Alpha  occ. eigenvalues --  -21.07517 -21.02998 -11.45413 -11.44249 -11.42339
 Alpha  occ. eigenvalues --  -11.36668  -1.77041  -1.71205  -1.16316  -0.99157
 Alpha  occ. eigenvalues --   -0.94217  -0.79093  -0.70178  -0.66916  -0.63056
 Alpha  occ. eigenvalues --   -0.58469  -0.56404  -0.51257  -0.48456  -0.42747
 Alpha  occ. eigenvalues --   -0.41197  -0.34859  -0.32828  -0.28728
 Alpha virt. eigenvalues --    0.03869   0.05113   0.05199   0.05550   0.06101
 Alpha virt. eigenvalues --    0.06526   0.06894   0.07083   0.11133   0.12389
 Alpha virt. eigenvalues --    0.13388   0.13544   0.14590   0.15239   0.15775

 Mulliken charges:
               1
     1  O   -2.638395
     2  C   -1.252198
     3  C   -2.740780
     4  C   -0.733767
     5  O   -2.626933
     6  C   -0.619320
     7  H    0.747003
     8  H    1.347121
     9  H    1.469231
    10  H    1.238191
    11  H    1.430993
    12  H    1.517185
    13  H    1.384508
    14  H    1.477161
 Sum of Mulliken charges =  -0.00000

 Dipole moment (field-independent basis, Debye):
    X=              0.9788    Y=             -0.6039    Z=             -0.0056  Tot=              1.1501

 Test job not archived.
 1\1\GINC-SE173\SP\RHF\Aug-CC-pVDZ\C4H8O2\OHZDE\09-Apr-2025\0\\#t hf au
 g-cc-pvdz iop(5/13=1,5/36=2,99/5=2) pseudo=read geom=check guess=(read
 ,tcheck) scf=(maxcycle=1)\\title\\0,1\O,0,1.96616355,1.05446411,0.0359
 8558\C,0,1.24508265,-0.15735937,0.15021517\C,0,-0.19149502,0.18340869,
 0.4572419\C,0,-0.99299128,0.74906569,-0.72139145\O,0,-1.76322766,-0.45
 998655,-0.83247923\C,0,-1.16850321,-0.99469469,0.35680837\H,0,2.863792
 22,0.8608691,-0.23622111\H,0,1.65587749,-0.78658717,0.95165394\H,0,1.2
 8915942,-0.73198604,-0.78546708\H,0,-0.24570113,0.76476153,1.37732958\

 Normal termination of Gaussian 16 at Wed Apr  9 17:43:47 2025.
