 Gaussian 16, Revision C.01,

 ----------------------------------------------------------------------
 #t hf aug-cc-pvdz symm=none int=(grid=ultrafine) guess=(read,tcheck) s
 table=(opt,rrhf)
 ----------------------------------------------------------------------
 -----
 title
 -----
 Symbolic Z-matrix:
 Charge =  0 Multiplicity = 1

 SCF Done:  E(RHF) =  -358.449640239     A.U. after   16 cycles
 Normal termination of Gaussian 16 at Wed Apr  9 03:33:36 2025.
 Gaussian 16:  ES64L-G16RevC.01  3-Jul-2019

 ----------------------------------------------------------------------
 #t hf aug-cc-pvdz iop(5/13=1,5/36=2,99/5=2) pseudo=read geom=check gue
 ss=(read,tcheck) scf=(maxcycle=1)
 ----------------------------------------------------------------------
 -----
 title
 -----
 Structure from the checkpoint file:  "Grambow2020_wb97xd3_007066_reverse_mol1.chk"
 Charge =  0 Multiplicity = 1

                         Standard orientation:
 ---------------------------------------------------------------------
 Center     Atomic      Atomic             Coordinates (Angstroms)
 Number     Number       Type             X           Y           Z
 ---------------------------------------------------------------------
      1          8           0        2.219008   -0.209081   -0.022490
      2          6           0        1.032744   -0.022981    0.096026
      3          7           0        0.401322    1.173120   -0.064311
      4          6           0       -1.039812    1.197003   -0.029438
      5          6           0       -1.439991   -0.224106    0.281880
      6          8           0       -0.886137   -1.158332   -0.618282
      7          6           0        0.098396   -1.219655    0.390787
      8          1           0        0.938180    1.959146   -0.392089
      9          1           0       -1.466440    1.504419   -0.989338
     10          1           0       -1.415611    1.867788    0.749253
     11          1           0       -2.489616   -0.439337    0.467211
     12          1           0       -0.946753   -0.546120    1.305773
 ---------------------------------------------------------------------

 SCF Done:  E(RHF) =  -360.022418970     A.U. after    2 cycles

 The electronic state is 1-A.
 Alpha  occ. eigenvalues --  -21.10342 -21.04138 -15.78001 -11.53905 -11.50825
 Alpha  occ. eigenvalues --  -11.46603 -11.44447  -1.85011  -1.71059  -1.42935
 Alpha  occ. eigenvalues --   -1.12137  -1.02318  -0.92649  -0.80807  -0.71985
 Alpha  occ. eigenvalues --   -0.68237  -0.62791  -0.59955  -0.57380  -0.52228
 Alpha  occ. eigenvalues --   -0.50299  -0.47579  -0.41298  -0.33638  -0.32525
 Alpha  occ. eigenvalues --   -0.26856
 Alpha virt. eigenvalues --    0.02855   0.04246   0.04772   0.05255   0.05997
 Alpha virt. eigenvalues --    0.09314   0.09430   0.10465   0.11038   0.12608
 Alpha virt. eigenvalues --    0.13142   0.13303   0.14169   0.14466   0.14781

 Mulliken charges:
               1
     1  O   -3.161187
     2  C    5.418616
     3  N   -2.748822
     4  C   -1.879053
     5  C   -0.847528
     6  O   -2.462879
     7  C   -0.886732
     8  H    0.784648
     9  H    1.460504
    10  H    1.410532
    11  H    1.201190
    12  H    1.710711
 Sum of Mulliken charges =  -0.00000

 Dipole moment (field-independent basis, Debye):
    X=             -3.6478    Y=              3.2454    Z=             -0.8334  Tot=              4.9531

 Test job not archived.
 1\1\GINC-SE396\SP\RHF\Aug-CC-pVDZ\C4H5N1O2\OHZDE\09-Apr-2025\0\\#t hf
 aug-cc-pvdz iop(5/13=1,5/36=2,99/5=2) pseudo=read geom=check guess=(re
 ad,tcheck) scf=(maxcycle=1)\\title\\0,1\O,0,1.22527213,2.22065103,0.85
 720334\C,0,0.60970469,1.26834816,0.44477449\N,0,1.15096745,0.19664594,
 -0.19830204\C,0,0.2965059,-0.92504636,-0.49889774\C,0,-1.07547663,-0.4
 9646833,-0.03998809\O,0,-1.09692314,-0.08195668,1.30817441\C,0,-0.9133
 7415,1.17677926,0.69728947\H,0,2.1533398,0.13515181,-0.26872686\H,0,0.
 60515206,-1.82843994,0.03639878\H,0,0.2778134,-1.14488156,-1.57074644\

 Normal termination of Gaussian 16 at Wed Apr  9 03:33:40 2025.
