 Gaussian 16, Revision C.01,

 ----------------------------------------------------------------------
 #t hf aug-cc-pvdz symm=none int=(grid=ultrafine) guess=(read,tcheck) s
 table=(opt,rrhf)
 ----------------------------------------------------------------------
 -----
 title
 -----
 Symbolic Z-matrix:
 Charge =  0 Multiplicity = 1

 SCF Done:  E(RHF) =  -262.626838833     A.U. after   15 cycles
 Normal termination of Gaussian 16 at Wed Apr  9 17:00:57 2025.
 Gaussian 16:  ES64L-G16RevC.01  3-Jul-2019

 ----------------------------------------------------------------------
 #t hf aug-cc-pvdz iop(5/13=1,5/36=2,99/5=2) pseudo=read geom=check gue
 ss=(read,tcheck) scf=(maxcycle=1)
 ----------------------------------------------------------------------
 -----
 title
 -----
 Structure from the checkpoint file:  "Grambow2020_b97d3_006901_reverse_mol2.chk"
 Charge =  0 Multiplicity = 1

                         Standard orientation:
 ---------------------------------------------------------------------
 Center     Atomic      Atomic             Coordinates (Angstroms)
 Number     Number       Type             X           Y           Z
 ---------------------------------------------------------------------
      1          6           0       -1.072710   -0.899354    0.001374
      2          6           0        0.248033   -1.482177    0.000100
      3          7           0        1.180780   -0.492928   -0.001505
      4          7           0        1.089166    0.866469    0.001567
      5          6           0       -0.153613    1.318750    0.000230
      6          6           0       -1.286223    0.466876   -0.002230
      7          1           0       -1.927243   -1.579512    0.005757
      8          1           0        2.162566   -0.770107   -0.002531
      9          1           0       -0.251593    2.405019    0.003748
     10          1           0       -2.286271    0.905244   -0.004245
 ---------------------------------------------------------------------

 SCF Done:  E(RHF) =  -263.832657617     A.U. after    2 cycles

 The electronic state is 1-A.
 Alpha  occ. eigenvalues --  -15.83247 -15.79788 -11.48600 -11.44487 -11.40981
 Alpha  occ. eigenvalues --  -11.38435  -1.57441  -1.23940  -1.20264  -0.93737
 Alpha  occ. eigenvalues --   -0.90470  -0.76621  -0.65924  -0.63780  -0.59229
 Alpha  occ. eigenvalues --   -0.56277  -0.55931  -0.42497  -0.40489  -0.36804
 Alpha  occ. eigenvalues --   -0.32290
 Alpha virt. eigenvalues --    0.03034   0.05065   0.05527   0.06195   0.07806
 Alpha virt. eigenvalues --    0.09986   0.10111   0.11325   0.12556   0.13738
 Alpha virt. eigenvalues --    0.13758   0.14089   0.14169   0.15285   0.16190

 Mulliken charges:
               1
     1  C    0.816335
     2  C   -1.591691
     3  N   -1.797778
     4  N   -1.730870
     5  C   -0.600552
     6  C   -0.421995
     7  H    1.552578
     8  H    0.824304
     9  H    1.447265
    10  H    1.502404
 Sum of Mulliken charges =   0.00000

 Dipole moment (field-independent basis, Debye):
    X=             -0.9603    Y=              2.7971    Z=              0.0003  Tot=              2.9574

 Test job not archived.
 1\1\GINC-SE229\SP\RHF\Aug-CC-pVDZ\C4H4N2\OHZDE\09-Apr-2025\0\\#t hf au
 g-cc-pvdz iop(5/13=1,5/36=2,99/5=2) pseudo=read geom=check guess=(read
 ,tcheck) scf=(maxcycle=1)\\title\\0,1\C,0,0.66665149,1.05202146,-0.266
 98466\C,0,1.6104402,-0.03293825,-0.13982072\N,0,0.94464766,-1.18194907
 ,0.15194752\N,0,-0.37559825,-1.46779982,0.3297195\C,0,-1.1720034,-0.42
 011672,0.19872599\C,0,-0.69541335,0.88045657,-0.10106021\H,0,1.0612606
 ,2.0423056,-0.5046404\H,0,1.49778855,-2.03110826,0.26897568\H,0,-2.234
 38792,-0.62539784,0.33580911\H,0,-1.40696959,1.70335134,-0.19485781\\V

 Normal termination of Gaussian 16 at Wed Apr  9 17:01:00 2025.
