 Gaussian 16, Revision C.01,

 ----------------------------------------------------------------------
 #t hf aug-cc-pvdz symm=none int=(grid=ultrafine) guess=(read,tcheck) s
 table=(opt,rrhf)
 ----------------------------------------------------------------------
 -----
 title
 -----
 Symbolic Z-matrix:
 Charge =  0 Multiplicity = 1

 SCF Done:  E(RHF) =  -357.240950696     A.U. after   17 cycles
 Normal termination of Gaussian 16 at Wed Apr  9 19:19:45 2025.
 Gaussian 16:  ES64L-G16RevC.01  3-Jul-2019

 ----------------------------------------------------------------------
 #t hf aug-cc-pvdz iop(5/13=1,5/36=2,99/5=2) pseudo=read geom=check gue
 ss=(read,tcheck) scf=(maxcycle=1)
 ----------------------------------------------------------------------
 -----
 title
 -----
 Structure from the checkpoint file:  "Grambow2020_wb97xd3_008633_reverse_mol1.chk"
 Charge =  0 Multiplicity = 1

                         Standard orientation:
 ---------------------------------------------------------------------
 Center     Atomic      Atomic             Coordinates (Angstroms)
 Number     Number       Type             X           Y           Z
 ---------------------------------------------------------------------
      1          7           0        2.225327    0.162028    0.212035
      2          6           0        0.988170    0.057961    0.010224
      3          6           0        0.071422    1.206226   -0.076639
      4          6           0       -1.220011    0.824364   -0.203872
      5          6           0       -1.043398   -0.786786   -0.448107
      6          8           0       -1.495355   -0.373455    0.704567
      7          8           0        0.321883   -1.100329   -0.297629
      8          1           0        2.674823   -0.749395    0.253266
      9          1           0        0.455553    2.206833   -0.212454
     10          1           0       -2.096981    1.388045   -0.470200
 ---------------------------------------------------------------------

 SCF Done:  E(RHF) =  -358.778022080     A.U. after    2 cycles

 The electronic state is 1-A.
 Alpha  occ. eigenvalues --  -21.14322 -21.10366 -15.75587 -11.56297 -11.51812
 Alpha  occ. eigenvalues --  -11.49464 -11.45229  -1.93934  -1.74736  -1.34515
 Alpha  occ. eigenvalues --   -1.20163  -0.94207  -0.86769  -0.81239  -0.74878
 Alpha  occ. eigenvalues --   -0.64291  -0.60732  -0.58772  -0.55780  -0.50095
 Alpha  occ. eigenvalues --   -0.47124  -0.41679  -0.38888  -0.33204  -0.29412
 Alpha virt. eigenvalues --    0.03099   0.03293   0.04723   0.06174   0.08644
 Alpha virt. eigenvalues --    0.10135   0.10625   0.10984   0.12040   0.12392
 Alpha virt. eigenvalues --    0.13315   0.13847   0.13916   0.15255   0.15901

 Mulliken charges:
               1
     1  N   -3.589987
     2  C    4.467414
     3  C   -0.526445
     4  C    0.343403
     5  C    0.875315
     6  O   -2.009795
     7  O   -3.094511
     8  H    0.796505
     9  H    1.506409
    10  H    1.231692
 Sum of Mulliken charges =   0.00000

 Dipole moment (field-independent basis, Debye):
    X=             -1.1266    Y=              1.2192    Z=              0.9591  Tot=              1.9172

 Test job not archived.
 1\1\GINC-SE224\SP\RHF\Aug-CC-pVDZ\C4H3N1O2\OHZDE\09-Apr-2025\0\\#t hf
 aug-cc-pvdz iop(5/13=1,5/36=2,99/5=2) pseudo=read geom=check guess=(re
 ad,tcheck) scf=(maxcycle=1)\\title\\0,1\N,0,2.132016,-0.26229784,-0.16
 613289\C,0,0.92633097,0.06073323,-0.01092484\C,0,-0.18929552,-0.899233
 85,-0.02897841\C,0,-1.39326165,-0.28985935,0.06554882\C,0,-0.93617702,
 1.24621486,0.40934753\O,0,-1.39585517,0.98114227,-0.78321134\O,0,0.469
 43428,1.30655863,0.33477652\H,0,2.74306073,0.55019733,-0.13586756\H,0,
 -0.00342666,-1.95934059,0.06505849\H,0,-2.37162495,-0.69237869,0.26183

 Normal termination of Gaussian 16 at Wed Apr  9 19:19:48 2025.
