 Gaussian 16, Revision C.01,

 ----------------------------------------------------------------------
 #t hf aug-cc-pvdz symm=none int=(grid=ultrafine) guess=(read,tcheck) s
 table=(opt,rrhf)
 ----------------------------------------------------------------------
 -----
 title
 -----
 Symbolic Z-matrix:
 Charge =  0 Multiplicity = 1

 SCF Done:  E(RHF) =  -339.732003074     A.U. after   15 cycles
 Normal termination of Gaussian 16 at Wed Apr  9 03:33:27 2025.
 Gaussian 16:  ES64L-G16RevC.01  3-Jul-2019

 ----------------------------------------------------------------------
 #t hf aug-cc-pvdz iop(5/13=1,5/36=2,99/5=2) pseudo=read geom=check gue
 ss=(read,tcheck) scf=(maxcycle=1)
 ----------------------------------------------------------------------
 -----
 title
 -----
 Structure from the checkpoint file:  "Grambow2020_wb97xd3_007005_forward_mol1.chk"
 Charge =  0 Multiplicity = 1

                         Standard orientation:
 ---------------------------------------------------------------------
 Center     Atomic      Atomic             Coordinates (Angstroms)
 Number     Number       Type             X           Y           Z
 ---------------------------------------------------------------------
      1          6           0        0.027042    1.456248   -0.828073
      2          6           0        0.148267    0.245660    0.092479
      3          8           0       -0.132037    0.568693    1.425309
      4          6           0       -0.875951   -0.869462   -0.246809
      5          7           0       -2.178609   -0.442148   -0.070322
      6          6           0        1.510004   -0.316636    0.021268
      7          7           0        2.552269   -0.778734   -0.097858
      8          1           0        0.677152    2.246476   -0.456869
      9          1           0       -1.006847    1.801061   -0.814485
     10          1           0        0.320516    1.211767   -1.850823
     11          1           0       -1.104992    0.582628    1.464639
     12          1           0       -0.554375   -1.869961    0.056253
     13          1           0       -0.532747   -1.043436   -1.616286
     14          1           0       -2.770711   -1.238908    0.132923
     15          1           0       -1.443496   -0.787854   -1.373764
 ---------------------------------------------------------------------

 SCF Done:  E(RHF) =  -341.314330929     A.U. after    2 cycles

 The electronic state is 1-A.
 Alpha  occ. eigenvalues --  -21.09329 -15.77586 -15.70749 -11.56042 -11.51489
 Alpha  occ. eigenvalues --  -11.44726 -11.40719  -1.76971  -1.38793  -1.31900
 Alpha  occ. eigenvalues --   -1.16776  -1.01361  -0.91260  -0.77638  -0.75217
 Alpha  occ. eigenvalues --   -0.67133  -0.61726  -0.60301  -0.58157  -0.54701
 Alpha  occ. eigenvalues --   -0.50928  -0.46969  -0.44942  -0.43354  -0.40960
 Alpha  occ. eigenvalues --   -0.34742  -0.33119
 Alpha virt. eigenvalues --    0.02998   0.04608   0.04988   0.05429   0.06112
 Alpha virt. eigenvalues --    0.06690   0.06736   0.08310   0.09614   0.11338
 Alpha virt. eigenvalues --    0.12323   0.13045   0.13364   0.13850   0.14375

 Mulliken charges:
               1
     1  C   -4.062471
     2  C    3.936104
     3  O   -3.666405
     4  C   -1.453792
     5  N   -2.547326
     6  C    2.680429
     7  N   -2.651109
     8  H    1.087636
     9  H    1.221749
    10  H    1.253195
    11  H    0.738591
    12  H    1.374034
    13  H    0.270465
    14  H    0.544319
    15  H    1.274582
 Sum of Mulliken charges =  -0.00000

 Dipole moment (field-independent basis, Debye):
    X=             -2.1768    Y=             -0.2775    Z=             -0.7396  Tot=              2.3157

 Test job not archived.
 1\1\GINC-SE106\SP\RHF\Aug-CC-pVDZ\C4H8N2O1\OHZDE\09-Apr-2025\0\\#t hf
 aug-cc-pvdz iop(5/13=1,5/36=2,99/5=2) pseudo=read geom=check guess=(re
 ad,tcheck) scf=(maxcycle=1)\\title\\0,1\C,0,0.54531891,1.45277599,-0.1
 2891251\C,0,0.59319078,-0.01644779,0.27940878\O,0,0.63149204,-0.174617
 07,1.66968623\C,0,-0.67476801,-0.79955956,-0.15262109\N,0,-1.81300681,
 -0.31604373,0.46486491\C,0,1.78113277,-0.67013911,-0.30115645\N,0,2.67
 227329,-1.1760106,-0.81497033\H,0,1.3949619,1.96866779,0.31477488\H,0,
 -0.38019026,1.88819717,0.24771654\H,0,0.59208866,1.56801314,-1.2135543

 Normal termination of Gaussian 16 at Wed Apr  9 03:33:32 2025.
