 Gaussian 16, Revision C.01,

 ----------------------------------------------------------------------
 #t hf aug-cc-pvdz symm=none int=(grid=ultrafine) guess=(read,tcheck) s
 table=(opt,rrhf)
 ----------------------------------------------------------------------
 -----
 title
 -----
 Symbolic Z-matrix:
 Charge =  0 Multiplicity = 1

 SCF Done:  E(RHF) =  -306.586713481     A.U. after   16 cycles
 Normal termination of Gaussian 16 at Wed Apr  9 19:09:01 2025.
 Gaussian 16:  ES64L-G16RevC.01  3-Jul-2019

 ----------------------------------------------------------------------
 #t hf aug-cc-pvdz iop(5/13=1,5/36=2,99/5=2) pseudo=read geom=check gue
 ss=(read,tcheck) scf=(maxcycle=1)
 ----------------------------------------------------------------------
 -----
 title
 -----
 Structure from the checkpoint file:  "Grambow2020_wb97xd3_008170_reverse_mol2.chk"
 Charge =  0 Multiplicity = 1

                         Standard orientation:
 ---------------------------------------------------------------------
 Center     Atomic      Atomic             Coordinates (Angstroms)
 Number     Number       Type             X           Y           Z
 ---------------------------------------------------------------------
      1          6           0        0.910711    1.202476   -0.054973
      2          6           0        1.473251    0.050844   -0.809588
      3          8           0        1.203687   -1.035337   -0.146477
      4          6           0        0.383630   -0.859572    0.878381
      5          6           0       -2.163579   -0.488975   -0.535474
      6          6           0       -1.536858    0.544837    0.000568
      7          6           0       -0.217972    0.509409    0.751349
      8          1           0        1.675622    1.573757    0.649437
      9          1           0        0.572056    2.036484   -0.668430
     10          1           0        2.270690   -0.005150   -1.531312
     11          1           0       -0.058131   -1.763249    1.265895
     12          1           0       -3.097389   -0.364921   -1.069238
     13          1           0       -1.763416   -1.494742   -0.466222
     14          1           0       -1.968944    1.539115   -0.102044
     15          1           0       -0.355090    1.007284    1.712155
 ---------------------------------------------------------------------

 SCF Done:  E(RHF) =  -308.055857553     A.U. after    2 cycles

 The electronic state is 1-A.
 Alpha  occ. eigenvalues --  -21.18086 -11.46172 -11.43778 -11.40847 -11.40274
 Alpha  occ. eigenvalues --  -11.38319 -11.36248  -1.88679  -1.25724  -1.11115
 Alpha  occ. eigenvalues --   -1.03984  -0.88395  -0.80854  -0.76675  -0.72424
 Alpha  occ. eigenvalues --   -0.66219  -0.61343  -0.57166  -0.54294  -0.50986
 Alpha  occ. eigenvalues --   -0.49890  -0.48645  -0.46734  -0.41403  -0.34646
 Alpha  occ. eigenvalues --   -0.24007
 Alpha virt. eigenvalues --    0.03672   0.05038   0.05201   0.05542   0.05801
 Alpha virt. eigenvalues --    0.06565   0.07067   0.07373   0.10561   0.10817
 Alpha virt. eigenvalues --    0.11551   0.11999   0.13278   0.13313   0.14044

 Mulliken charges:
               1
     1  C   -3.555944
     2  C    0.895469
     3  O   -3.484050
     4  C    0.138942
     5  C   -2.942053
     6  C   -0.783327
     7  C   -2.018343
     8  H    1.247528
     9  H    1.557674
    10  H    1.618535
    11  H    1.588095
    12  H    1.366928
    13  H    1.486266
    14  H    1.324207
    15  H    1.560071
 Sum of Mulliken charges =   0.00000

 Dipole moment (field-independent basis, Debye):
    X=              0.0157    Y=              0.6066    Z=             -0.4116  Tot=              0.7332

 Test job not archived.
 1\1\GINC-SE015\SP\RHF\Aug-CC-pVDZ\C6H8O1\OHZDE\09-Apr-2025\0\\#t hf au
 g-cc-pvdz iop(5/13=1,5/36=2,99/5=2) pseudo=read geom=check guess=(read
 ,tcheck) scf=(maxcycle=1)\\title\\0,1\C,0,-1.49980841,-0.08701479,0.09
 912484\C,0,-1.01986406,-1.35895793,0.70241967\O,0,-0.07162839,-1.83032
 794,-0.05311317\C,0,0.32352711,-1.00572138,-1.01102622\C,0,1.85696051,
 0.9426644,0.56281441\C,0,0.65511437,1.24807189,0.10327141\C,0,-0.25324
 794,0.34758789,-0.71428208\H,0,-2.32172268,-0.31407715,-0.60232538\H,0
 ,-1.84946783,0.65965634,0.81102726\H,0,-1.49828643,-2.05319271,1.37255

 Normal termination of Gaussian 16 at Wed Apr  9 19:09:06 2025.
