 Gaussian 16, Revision C.01,

 ----------------------------------------------------------------------
 #t hf aug-cc-pvdz symm=none int=(grid=ultrafine) guess=(read,tcheck) s
 table=(opt,rrhf)
 ----------------------------------------------------------------------
 -----
 title
 -----
 Symbolic Z-matrix:
 Charge =  0 Multiplicity = 1

 SCF Done:  E(RHF) =  -322.666978111     A.U. after   15 cycles
 Normal termination of Gaussian 16 at Wed Apr  9 18:10:12 2025.
 Gaussian 16:  ES64L-G16RevC.01  3-Jul-2019

 ----------------------------------------------------------------------
 #t hf aug-cc-pvdz iop(5/13=1,5/36=2,99/5=2) pseudo=read geom=check gue
 ss=(read,tcheck) scf=(maxcycle=1)
 ----------------------------------------------------------------------
 -----
 title
 -----
 Structure from the checkpoint file:  "Grambow2020_wb97xd3_006624_forward_mol2.chk"
 Charge =  0 Multiplicity = 1

                         Standard orientation:
 ---------------------------------------------------------------------
 Center     Atomic      Atomic             Coordinates (Angstroms)
 Number     Number       Type             X           Y           Z
 ---------------------------------------------------------------------
      1          8           0       -1.789604   -0.943688    0.002370
      2          6           0       -1.650904    0.246919    0.104295
      3          6           0       -0.409216    1.034546   -0.108369
      4          6           0        0.859546    0.769902    0.622055
      5          6           0        1.127320   -0.711475    0.823677
      6          6           0        1.032714   -0.822248   -0.709226
      7          7           0        0.793430    0.652061   -0.856828
      8          1           0       -2.510134    0.882051    0.406595
      9          1           0       -0.620102    2.089401   -0.252582
     10          1           0        1.377354    1.584784    1.114604
     11          1           0        0.396808   -1.266392    1.411024
     12          1           0        2.126100   -0.905475    1.209843
     13          1           0        0.250509   -1.451871   -1.123145
     14          1           0        1.985529   -1.053281   -1.182095
 ---------------------------------------------------------------------

 SCF Done:  E(RHF) =  -324.144653102     A.U. after    2 cycles

 The electronic state is 1-A.
 Alpha  occ. eigenvalues --  -21.06692 -15.73083 -11.51777 -11.49463 -11.44441
 Alpha  occ. eigenvalues --  -11.41584 -11.37565  -1.72205  -1.53565  -1.12962
 Alpha  occ. eigenvalues --   -1.02518  -0.96759  -0.79498  -0.78306  -0.72908
 Alpha  occ. eigenvalues --   -0.63724  -0.62711  -0.57668  -0.54855  -0.51568
 Alpha  occ. eigenvalues --   -0.47757  -0.46627  -0.41455  -0.40338  -0.32370
 Alpha  occ. eigenvalues --   -0.29186
 Alpha virt. eigenvalues --    0.03654   0.04985   0.05479   0.05546   0.06240
 Alpha virt. eigenvalues --    0.06905   0.07596   0.09802   0.10277   0.11341
 Alpha virt. eigenvalues --    0.12528   0.12923   0.13103   0.14408   0.14482

 Mulliken charges:
               1
     1  O   -2.864896
     2  C    0.832543
     3  C   -0.289211
     4  C   -0.028138
     5  C   -3.015818
     6  C   -2.610579
     7  N   -1.643865
     8  H    1.491301
     9  H    1.479924
    10  H    1.314495
    11  H    1.254298
    12  H    1.114652
    13  H    1.651152
    14  H    1.314142
 Sum of Mulliken charges =   0.00000

 Dipole moment (field-independent basis, Debye):
    X=              0.5673    Y=              0.0916    Z=              0.9649  Tot=              1.1231

 Test job not archived.
 1\1\GINC-SE226\SP\RHF\Aug-CC-pVDZ\C5H7N1O1\OHZDE\09-Apr-2025\0\\#t hf
 aug-cc-pvdz iop(5/13=1,5/36=2,99/5=2) pseudo=read geom=check guess=(re
 ad,tcheck) scf=(maxcycle=1)\\title\\0,1\O,0,1.11654185,0.94542389,1.66
 778989\C,0,1.3011379,1.25127489,0.51907253\C,0,0.44497192,0.9292141,-0
 .65166562\C,0,0.06434197,-0.45935261,-1.0262544\C,0,-0.22793239,-1.337
 22289,0.17821655\C,0,-1.28083644,-0.27809788,0.55326443\N,0,-0.9703631
 7,0.54255448,-0.66442446\H,0,2.20829616,1.8259633,0.2364947\H,0,0.6663
 0238,1.56732961,-1.50126044\H,0,0.20746881,-0.80069272,-2.04496188\H,0

 Normal termination of Gaussian 16 at Wed Apr  9 18:10:16 2025.
