 Gaussian 16, Revision C.01,

 ----------------------------------------------------------------------
 #t hf aug-cc-pvdz symm=none int=(grid=ultrafine) guess=(read,tcheck) s
 table=(opt,rrhf)
 ----------------------------------------------------------------------
 -----
 title
 -----
 Symbolic Z-matrix:
 Charge =  0 Multiplicity = 1

 SCF Done:  E(RHF) =  -336.677397325     A.U. after   14 cycles
 Normal termination of Gaussian 16 at Wed Apr  9 17:22:07 2025.
 Gaussian 16:  ES64L-G16RevC.01  3-Jul-2019

 ----------------------------------------------------------------------
 #t hf aug-cc-pvdz iop(5/13=1,5/36=2,99/5=2) pseudo=read geom=check gue
 ss=(read,tcheck) scf=(maxcycle=1)
 ----------------------------------------------------------------------
 -----
 title
 -----
 Structure from the checkpoint file:  "Grambow2020_b97d3_007116_forward_mol1.chk"
 Charge =  0 Multiplicity = 1

                         Standard orientation:
 ---------------------------------------------------------------------
 Center     Atomic      Atomic             Coordinates (Angstroms)
 Number     Number       Type             X           Y           Z
 ---------------------------------------------------------------------
      1          7           0        1.499370   -0.987236    0.024707
      2          6           0        0.810138    0.185220   -0.005720
      3          8           0        1.298837    1.312104   -0.025352
      4          6           0       -0.691676   -0.026588   -0.005027
      5          8           0       -1.269238   -1.194522   -0.028584
      6          7           0       -1.614045    0.895232    0.027774
      7          1           0        1.004459   -1.872474    0.036592
      8          1           0        2.512964   -0.970193    0.033776
      9          1           0       -2.260587   -0.298488    0.006267
     10          1           0       -1.401684    1.892740    0.051971
 ---------------------------------------------------------------------

 SCF Done:  E(RHF) =  -338.143867957     A.U. after    2 cycles

 The electronic state is 1-A.
 Alpha  occ. eigenvalues --  -21.06514 -21.06107 -15.80581 -15.76376 -11.55677
 Alpha  occ. eigenvalues --  -11.49723  -1.77457  -1.71704  -1.36947  -1.31447
 Alpha  occ. eigenvalues --   -0.98780  -0.78996  -0.77266  -0.69904  -0.60371
 Alpha  occ. eigenvalues --   -0.58438  -0.52044  -0.51255  -0.49121  -0.37644
 Alpha  occ. eigenvalues --   -0.35185  -0.31580  -0.31130
 Alpha virt. eigenvalues --    0.03476   0.05471   0.06454   0.06648   0.10194
 Alpha virt. eigenvalues --    0.10332   0.11579   0.11996   0.12746   0.13976
 Alpha virt. eigenvalues --    0.14879   0.15704   0.16426   0.17502   0.19594

 Mulliken charges:
               1
     1  N   -2.895751
     2  C    5.084718
     3  O   -3.232410
     4  C    4.261174
     5  O   -2.996582
     6  N   -3.274178
     7  H    0.764587
     8  H    0.743224
     9  H    0.730410
    10  H    0.814807
 Sum of Mulliken charges =   0.00000

 Dipole moment (field-independent basis, Debye):
    X=              1.2220    Y=             -1.4456    Z=              0.0756  Tot=              1.8944

 Test job not archived.
 1\1\GINC-SE229\SP\RHF\Aug-CC-pVDZ\C2H4N2O2\OHZDE\09-Apr-2025\0\\#t hf
 aug-cc-pvdz iop(5/13=1,5/36=2,99/5=2) pseudo=read geom=check guess=(re
 ad,tcheck) scf=(maxcycle=1)\\title\\0,1\N,0,-1.71255567,0.08710715,0.3
 4361845\C,0,-0.52672753,0.69015692,0.05942793\O,0,-0.34382071,1.896466
 7,-0.08354201\C,0,0.60902468,-0.30506254,-0.08168023\O,0,0.48752721,-1
 .5896687,0.10060407\N,0,1.84515136,-0.04405664,-0.40642757\H,0,-1.7634
 2834,-0.92069739,0.44591708\H,0,-2.546345,0.653049,0.45430173\H,0,1.76
 707572,-1.38794121,-0.22943406\H,0,2.18108627,0.89951671,-0.6001304\\V

 Normal termination of Gaussian 16 at Wed Apr  9 17:22:10 2025.
