 Gaussian 16, Revision C.01,

 ----------------------------------------------------------------------
 #t hf aug-cc-pvdz symm=none int=(grid=ultrafine) guess=(read,tcheck) s
 table=(opt,rrhf)
 ----------------------------------------------------------------------
 -----
 title
 -----
 Symbolic Z-matrix:
 Charge =  0 Multiplicity = 1

 SCF Done:  E(RHF) =  -309.054654237     A.U. after   15 cycles

 1\1\GINC-SE114\Stability\RHF\Aug-CC-pVDZ\C6H12O1\OHZDE\09-Apr-2025\0\\
 #t hf aug-cc-pvdz symm=none int=(grid=ultrafine) guess=(read,tcheck) s
 table=(opt,rrhf)\\title\\0,1\C,0,3.27078701,0.81563952,0.01064774\C,0,
 0.12462411,-1.20036545,0.88681139\O,0,0.90248328,-1.3917853,1.78479772
 \C,0,-0.25064612,0.13398535,0.38795327\C,0,-0.55356802,0.29100067,-1.0
 8837462\C,0,-1.65804802,0.41798722,-0.1064863\C,0,-2.7726443,-0.595139
 83,-0.03210489\H,0,2.79080244,0.44220576,-0.89339288\H,0,4.35184869,0.
 73871711,-0.09689668\H,0,2.99770935,1.85950471,0.16274427\H,0,-0.34814

 Normal termination of Gaussian 16 at Wed Apr  9 18:44:00 2025.
 Gaussian 16:  ES64L-G16RevC.01  3-Jul-2019

 ----------------------------------------------------------------------
 #t hf aug-cc-pvdz iop(5/13=1,5/36=2,99/5=2) pseudo=read geom=check gue
 ss=(read,tcheck) scf=(maxcycle=1)
 ----------------------------------------------------------------------
 -----
 title
 -----
 Structure from the checkpoint file:  "Grambow2020_wb97xd3_007578_reverse_mol2.chk"
 Charge =  0 Multiplicity = 1

                         Standard orientation:
 ---------------------------------------------------------------------
 Center     Atomic      Atomic             Coordinates (Angstroms)
 Number     Number       Type             X           Y           Z
 ---------------------------------------------------------------------
      1          6           0        3.384115   -0.780477   -0.015058
      2          6           0        0.101884    1.187975    0.272060
      3          8           0        0.931050    1.977168   -0.099080
      4          6           0       -0.143250   -0.116337   -0.367359
      5          6           0       -0.563806   -1.279096    0.508474
      6          6           0       -1.542861   -0.700430   -0.443736
      7          6           0       -2.767158    0.041034    0.031248
      8          1           0        2.775017   -1.167914    0.801042
      9          1           0        4.430650   -0.776389    0.286479
     10          1           0        3.264737   -1.416592   -0.891679
     11          1           0       -0.526213    1.417968    1.158264
     12          1           0        3.067269    0.234051   -0.252288
     13          1           0        0.522107   -0.325840   -1.194938
     14          1           0       -0.708272   -1.067724    1.562046
     15          1           0       -0.108855   -2.237474    0.299115
     16          1           0       -1.700204   -1.271539   -1.351994
     17          1           0       -2.605118    0.533142    0.990874
     18          1           0       -3.597047   -0.656188    0.160762
     19          1           0       -3.076012    0.801143   -0.688813
 ---------------------------------------------------------------------

 SCF Done:  E(RHF) =  -310.555644043     A.U. after    2 cycles

 The electronic state is 1-A.
 Alpha  occ. eigenvalues --  -21.05327 -11.48811 -11.44598 -11.43104 -11.39769
 Alpha  occ. eigenvalues --  -11.37716 -11.34886  -1.70534  -1.34759  -1.06950
 Alpha  occ. eigenvalues --   -1.02146  -0.95553  -0.85378  -0.79081  -0.69154
 Alpha  occ. eigenvalues --   -0.64132  -0.58573  -0.56217  -0.54738  -0.53095
 Alpha  occ. eigenvalues --   -0.52862  -0.52804  -0.50869  -0.49314  -0.48349
 Alpha  occ. eigenvalues --   -0.40697  -0.36111  -0.28601
 Alpha virt. eigenvalues --    0.03458   0.04645   0.05038   0.05260   0.05388
 Alpha virt. eigenvalues --    0.05686   0.05983   0.06602   0.07838   0.08207
 Alpha virt. eigenvalues --    0.08864   0.09679   0.11867   0.12417   0.12968

 Mulliken charges:
               1
     1  C   -5.256277
     2  C    1.198304
     3  O   -2.971067
     4  C   -1.335332
     5  C   -2.464756
     6  C   -0.614975
     7  C   -4.532649
     8  H    1.336031
     9  H    1.210765
    10  H    1.304165
    11  H    1.453245
    12  H    1.355629
    13  H    1.440559
    14  H    1.584206
    15  H    1.260751
    16  H    1.251511
    17  H    1.372111
    18  H    1.129837
    19  H    1.277941
 Sum of Mulliken charges =   0.00000

 Dipole moment (field-independent basis, Debye):
    X=             -1.4940    Y=             -1.5777    Z=              0.0660  Tot=              2.1739

 Test job not archived.
 1\1\GINC-SE114\SP\RHF\Aug-CC-pVDZ\C6H12O1\OHZDE\09-Apr-2025\0\\#t hf a
 ug-cc-pvdz iop(5/13=1,5/36=2,99/5=2) pseudo=read geom=check guess=(rea
 d,tcheck) scf=(maxcycle=1)\\title\\0,1\C,0,3.27078701,0.81563952,0.010
 64774\C,0,0.12462411,-1.20036545,0.88681139\O,0,0.90248328,-1.3917853,
 1.78479772\C,0,-0.25064612,0.13398535,0.38795327\C,0,-0.55356802,0.291
 00067,-1.08837462\C,0,-1.65804802,0.41798722,-0.1064863\C,0,-2.7726443
 ,-0.59513983,-0.03210489\H,0,2.79080244,0.44220576,-0.89339288\H,0,4.3
 5184869,0.73871711,-0.09689668\H,0,2.99770935,1.85950471,0.16274427\H,

 Normal termination of Gaussian 16 at Wed Apr  9 18:44:07 2025.
