 Gaussian 16, Revision C.01,

 ----------------------------------------------------------------------
 #t hf aug-cc-pvdz symm=none int=(grid=ultrafine) guess=(read,tcheck) s
 table=(opt,rrhf)
 ----------------------------------------------------------------------
 -----
 title
 -----
 Symbolic Z-matrix:
 Charge =  0 Multiplicity = 1

 SCF Done:  E(RHF) =  -270.843560083     A.U. after   12 cycles
 Normal termination of Gaussian 16 at Wed Apr  9 03:53:48 2025.
 Gaussian 16:  ES64L-G16RevC.01  3-Jul-2019

 ----------------------------------------------------------------------
 #t hf aug-cc-pvdz iop(5/13=1,5/36=2,99/5=2) pseudo=read geom=check gue
 ss=(read,tcheck) scf=(maxcycle=1)
 ----------------------------------------------------------------------
 -----
 title
 -----
 Structure from the checkpoint file:  "Grambow2020_wb97xd3_008381_forward_mol2.chk"
 Charge =  0 Multiplicity = 1

                         Standard orientation:
 ---------------------------------------------------------------------
 Center     Atomic      Atomic             Coordinates (Angstroms)
 Number     Number       Type             X           Y           Z
 ---------------------------------------------------------------------
      1          6           0       -2.135056    0.175463   -0.000332
      2          6           0       -0.634512    0.053237    0.000269
      3          6           0        0.148572   -0.787404   -1.056784
      4          6           0        1.280405   -0.648636   -0.000002
      5          6           0        0.149227   -0.786123    1.057800
      6          6           0        1.468164    0.868318   -0.001013
      7          6           0        0.221437    1.326254   -0.000463
      8          1           0       -2.485428    0.708331    0.886930
      9          1           0       -2.482974    0.722267   -0.880028
     10          1           0       -2.608514   -0.808490   -0.008478
     11          1           0        0.314383   -0.337019   -2.036248
     12          1           0       -0.231385   -1.808134   -1.151442
     13          1           0        2.160425   -1.287816   -0.000532
     14          1           0        0.314199   -0.334614    2.036808
     15          1           0       -0.229793   -1.807049    1.154246
     16          1           0        2.406617    1.403247   -0.000432
     17          1           0       -0.146949    2.342621    0.002325
 ---------------------------------------------------------------------

 SCF Done:  E(RHF) =  -272.217147104     A.U. after    2 cycles

 The electronic state is 1-A.
 Alpha  occ. eigenvalues --  -11.46888 -11.44558 -11.41030 -11.39738 -11.38893
 Alpha  occ. eigenvalues --  -11.38079 -11.33507  -1.44404  -1.08869  -1.05216
 Alpha  occ. eigenvalues --   -0.95090  -0.91473  -0.77877  -0.74397  -0.67015
 Alpha  occ. eigenvalues --   -0.64600  -0.58009  -0.55536  -0.55474  -0.53010
 Alpha  occ. eigenvalues --   -0.44671  -0.44114  -0.42134  -0.42055  -0.37752
 Alpha  occ. eigenvalues --   -0.30105
 Alpha virt. eigenvalues --    0.04032   0.04888   0.05031   0.05459   0.05828
 Alpha virt. eigenvalues --    0.05911   0.06315   0.06656   0.07404   0.08456
 Alpha virt. eigenvalues --    0.11979   0.11999   0.12565   0.12936   0.13090

 Mulliken charges:
               1
     1  C   -5.664313
     2  C    1.348781
     3  C   -2.149711
     4  C   -3.401292
     5  C   -2.142761
     6  C    0.032540
     7  C   -1.458182
     8  H    1.270157
     9  H    1.269065
    10  H    1.315340
    11  H    1.437524
    12  H    1.254553
    13  H    1.547072
    14  H    1.434777
    15  H    1.251548
    16  H    1.299946
    17  H    1.354956
 Sum of Mulliken charges =  -0.00000

 Dipole moment (field-independent basis, Debye):
    X=             -0.0580    Y=             -0.1875    Z=              0.0043  Tot=              0.1963

 Test job not archived.
 1\1\GINC-SE174\SP\RHF\Aug-CC-pVDZ\C7H10\OHZDE\09-Apr-2025\0\\#t hf aug
 -cc-pvdz iop(5/13=1,5/36=2,99/5=2) pseudo=read geom=check guess=(read,
 tcheck) scf=(maxcycle=1)\\title\\0,1\C,0,2.0015635,-0.04188028,0.03503
 847\C,0,0.4986546,0.04384625,0.01298663\C,0,-0.41163275,-0.76545613,0.
 98954467\C,0,-1.49375692,-0.38566909,-0.06015027\C,0,-0.37208605,-0.58
 963698,-1.11734658\C,0,-1.47284551,1.13738891,0.0673754\C,0,-0.1755256
 9,1.41802192,0.11470207\H,0,2.43806928,0.50912114,-0.80150408\H,0,2.40
 409822,0.37743008,0.96026808\H,0,2.3361541,-1.07887248,-0.03629728\H,0

 Normal termination of Gaussian 16 at Wed Apr  9 03:53:54 2025.
