 Gaussian 16, Revision C.01,

 ----------------------------------------------------------------------
 #t hf aug-cc-pvdz symm=none int=(grid=ultrafine) guess=(read,tcheck) s
 table=(opt,rrhf)
 ----------------------------------------------------------------------
 -----
 title
 -----
 Symbolic Z-matrix:
 Charge =  0 Multiplicity = 1

 SCF Done:  E(RHF) =  -245.710239008     A.U. after   15 cycles
 Normal termination of Gaussian 16 at Wed Apr  9 17:41:25 2025.
 Gaussian 16:  ES64L-G16RevC.01  3-Jul-2019

 ----------------------------------------------------------------------
 #t hf aug-cc-pvdz iop(5/13=1,5/36=2,99/5=2) pseudo=read geom=check gue
 ss=(read,tcheck) scf=(maxcycle=1)
 ----------------------------------------------------------------------
 -----
 title
 -----
 Structure from the checkpoint file:  "Grambow2020_wb97xd3_006116_reverse_mol2.chk"
 Charge =  0 Multiplicity = 1

                         Standard orientation:
 ---------------------------------------------------------------------
 Center     Atomic      Atomic             Coordinates (Angstroms)
 Number     Number       Type             X           Y           Z
 ---------------------------------------------------------------------
      1          6           0       -0.484192    0.916250    0.034413
      2          6           0       -0.960062   -0.485152    0.060516
      3          7           0        0.186071   -1.244758    0.015386
      4          6           0        1.204203   -0.419292   -0.033212
      5          8           0        0.981486    0.859134   -0.030376
      6          1           0       -0.839850    1.458952   -0.843575
      7          1           0       -0.759183    1.464078    0.937859
      8          1           0       -3.817314   -0.300308   -0.093338
      9          1           0       -4.542796   -0.129399   -0.159685
     10          1           0        2.245065   -0.723926   -0.076248
 ---------------------------------------------------------------------

 SCF Done:  E(RHF) =  -246.809219997     A.U. after    2 cycles

 The electronic state is 1-A.
 Alpha  occ. eigenvalues --  -21.14066 -15.74043 -11.51241 -11.45197 -11.39619
 Alpha  occ. eigenvalues --   -1.88296  -1.38291  -1.11897  -0.88014  -0.78402
 Alpha  occ. eigenvalues --   -0.71570  -0.68553  -0.59009  -0.56652  -0.52764
 Alpha  occ. eigenvalues --   -0.48973  -0.40504  -0.38306  -0.32585
 Alpha virt. eigenvalues --    0.02863   0.05245   0.05888   0.06721   0.06856
 Alpha virt. eigenvalues --    0.08995   0.09474   0.10460   0.10615   0.11222
 Alpha virt. eigenvalues --    0.13456   0.14900   0.15014   0.16308   0.17817

 Mulliken charges:
               1
     1  C   -1.194922
     2  C   -0.340025
     3  N   -2.488936
     4  C    2.176757
     5  O   -2.749527
     6  H    1.454170
     7  H    1.454784
     8  H   -0.278870
     9  H    0.252981
    10  H    1.713588
 Sum of Mulliken charges =   0.00000

 Dipole moment (field-independent basis, Debye):
    X=              3.5687    Y=              3.3146    Z=             -0.1414  Tot=              4.8726

 Test job not archived.
 1\1\GINC-SE162\SP\RHF\Aug-CC-pVDZ\C3H5N1O1\OHZDE\09-Apr-2025\0\\#t hf
 aug-cc-pvdz iop(5/13=1,5/36=2,99/5=2) pseudo=read geom=check guess=(re
 ad,tcheck) scf=(maxcycle=1)\\title\\0,1\C,0,-0.30023299,-0.71752493,0.
 01142365\C,0,0.03348716,0.72389702,-0.03322618\N,0,1.35156461,0.765910
 34,-0.42509903\C,0,1.75323957,-0.47174744,-0.59004848\O,0,0.9171659,-1
 .44090992,-0.37629534\H,0,-0.58395853,-1.04693352,1.01285776\H,0,-1.08
 801337,-0.98253679,-0.69647633\H,0,-2.28861713,2.05419688,0.99626934\H
 ,0,-2.93334558,2.28495463,1.29795352\H,0,2.75271034,-0.76095026,-0.899

 Normal termination of Gaussian 16 at Wed Apr  9 17:41:28 2025.
