 Gaussian 16, Revision C.01,

 ----------------------------------------------------------------------
 #t hf aug-cc-pvdz symm=none int=(grid=ultrafine) guess=(read,tcheck) s
 table=(opt,rrhf)
 ----------------------------------------------------------------------
 -----
 title
 -----
 Symbolic Z-matrix:
 Charge =  0 Multiplicity = 1

 SCF Done:  E(RHF) =  -302.685109987     A.U. after   18 cycles
 Normal termination of Gaussian 16 at Wed Apr  9 19:24:14 2025.
 Gaussian 16:  ES64L-G16RevC.01  3-Jul-2019

 ----------------------------------------------------------------------
 #t hf aug-cc-pvdz iop(5/13=1,5/36=2,99/5=2) pseudo=read geom=check gue
 ss=(read,tcheck) scf=(maxcycle=1)
 ----------------------------------------------------------------------
 -----
 title
 -----
 Structure from the checkpoint file:  "Grambow2020_wb97xd3_008874_forward_mol1.chk"
 Charge =  0 Multiplicity = 1

                         Standard orientation:
 ---------------------------------------------------------------------
 Center     Atomic      Atomic             Coordinates (Angstroms)
 Number     Number       Type             X           Y           Z
 ---------------------------------------------------------------------
      1          6           0        2.281662   -0.640415    0.154184
      2          7           0        1.047717   -0.212562   -0.024113
      3          6           0        0.751429    1.154827   -0.023722
      4          6           0       -0.587654    1.250192    0.102820
      5          6           0       -1.160626   -0.096868    0.032247
      6          7           0       -2.515306   -0.333330   -0.069567
      7          6           0       -0.138043   -0.976558   -0.117776
      8          1           0        2.933646    0.978661   -0.763787
      9          1           0        2.950742   -0.116286    0.813924
     10          1           0        2.489429   -1.678046   -0.084502
     11          1           0        2.202375    1.451853   -0.519141
     12          1           0       -1.170810    2.156431    0.025045
     13          1           0       -3.096398    0.232618    0.525061
     14          1           0       -2.799674   -1.297436   -0.096531
     15          1           0       -0.116789   -2.053622   -0.130823
 ---------------------------------------------------------------------

 SCF Done:  E(RHF) =  -304.161503340     A.U. after    2 cycles

 The electronic state is 1-A.
 Alpha  occ. eigenvalues --  -15.80422 -15.76760 -11.49655 -11.47339 -11.40032
 Alpha  occ. eigenvalues --  -11.38861 -11.34264  -1.54997  -1.36214  -1.17004
 Alpha  occ. eigenvalues --   -1.03739  -0.95178  -0.80857  -0.77877  -0.71295
 Alpha  occ. eigenvalues --   -0.67945  -0.65157  -0.61409  -0.57738  -0.53440
 Alpha  occ. eigenvalues --   -0.50112  -0.49719  -0.45121  -0.33320  -0.28560
 Alpha  occ. eigenvalues --   -0.26428
 Alpha virt. eigenvalues --    0.03078   0.04389   0.04995   0.05197   0.05767
 Alpha virt. eigenvalues --    0.06437   0.07966   0.08245   0.09337   0.10504
 Alpha virt. eigenvalues --    0.10764   0.12365   0.12854   0.13784   0.14621

 Mulliken charges:
               1
     1  C   -1.968549
     2  N   -2.554452
     3  C   -1.367015
     4  C   -0.616360
     5  C    3.211822
     6  N   -3.679560
     7  C   -0.553680
     8  H    0.015931
     9  H    1.491156
    10  H    1.542976
    11  H    0.165746
    12  H    1.547833
    13  H    0.611303
    14  H    0.721688
    15  H    1.431161
 Sum of Mulliken charges =   0.00000

 Dipole moment (field-independent basis, Debye):
    X=             -1.8966    Y=             -3.8355    Z=              1.6715  Tot=              4.5937

 Test job not archived.
 1\1\GINC-SE016\SP\RHF\Aug-CC-pVDZ\C5H8N2\OHZDE\09-Apr-2025\0\\#t hf au
 g-cc-pvdz iop(5/13=1,5/36=2,99/5=2) pseudo=read geom=check guess=(read
 ,tcheck) scf=(maxcycle=1)\\title\\0,1\C,0,2.14276129,0.36675049,-0.147
 41462\N,0,0.86581277,0.08311465,0.01513309\C,0,0.39984452,-1.23178516,
 -0.09188225\C,0,-0.94128502,-1.14831353,-0.20436486\C,0,-1.33982013,0.
 24926585,-0.01518256\N,0,-2.65339129,0.6438577,0.12717498\C,0,-0.21385
 813,0.9788553,0.1896306\H,0,2.59100902,-1.3914937,0.62512184\H,0,2.736
 86469,-0.18041667,-0.85824953\H,0,2.48076404,1.34694412,0.17163191\H,0

 Normal termination of Gaussian 16 at Wed Apr  9 19:24:19 2025.
