 Gaussian 16, Revision C.01,

 ----------------------------------------------------------------------
 #t hf aug-cc-pvdz symm=none int=(grid=ultrafine) guess=(read,tcheck) s
 table=(opt,rrhf)
 ----------------------------------------------------------------------
 -----
 title
 -----
 Symbolic Z-matrix:
 Charge =  0 Multiplicity = 1

 SCF Done:  E(RHF) =  -284.677762292     A.U. after   16 cycles
 Normal termination of Gaussian 16 at Wed Apr  9 17:38:38 2025.
 Gaussian 16:  ES64L-G16RevC.01  3-Jul-2019

 ----------------------------------------------------------------------
 #t hf aug-cc-pvdz iop(5/13=1,5/36=2,99/5=2) pseudo=read geom=check gue
 ss=(read,tcheck) scf=(maxcycle=1)
 ----------------------------------------------------------------------
 -----
 title
 -----
 Structure from the checkpoint file:  "Grambow2020_b97d3_007211_forward_mol1.chk"
 Charge =  0 Multiplicity = 1

                         Standard orientation:
 ---------------------------------------------------------------------
 Center     Atomic      Atomic             Coordinates (Angstroms)
 Number     Number       Type             X           Y           Z
 ---------------------------------------------------------------------
      1          6           0       -1.533554    1.323320    0.279976
      2          6           0       -1.086674   -0.570832   -0.855324
      3          8           0       -0.490726   -1.273176    0.095365
      4          6           0        0.431129   -0.533806    0.854719
      5          6           0        1.484274    0.093370    0.117990
      6          7           0        2.255298    0.698885   -0.531414
      7          1           0       -1.976741    1.550341    1.262736
      8          1           0       -0.913173    2.159659   -0.067438
      9          1           0       -2.386620    1.240300   -0.405977
     10          1           0       -0.483373    0.041974   -1.526983
     11          1           0       -1.987139   -1.044581   -1.245626
     12          1           0        0.697607   -1.088216    1.752216
     13          1           0       -0.582896    0.561416    0.803878
 ---------------------------------------------------------------------

 SCF Done:  E(RHF) =  -286.017987168     A.U. after    2 cycles

 The electronic state is 1-A.
 Alpha  occ. eigenvalues --  -21.14870 -15.75529 -11.50975 -11.46141 -11.41966
 Alpha  occ. eigenvalues --  -11.38239  -1.85604  -1.29347  -1.07413  -1.05814
 Alpha  occ. eigenvalues --   -0.92790  -0.74006  -0.70391  -0.67631  -0.59529
 Alpha  occ. eigenvalues --   -0.56902  -0.55432  -0.52390  -0.47511  -0.44461
 Alpha  occ. eigenvalues --   -0.42334  -0.38298  -0.30465
 Alpha virt. eigenvalues --    0.02866   0.04125   0.05113   0.05784   0.06311
 Alpha virt. eigenvalues --    0.07074   0.08611   0.09253   0.09970   0.10615
 Alpha virt. eigenvalues --    0.11873   0.12893   0.13829   0.14639   0.14792

 Mulliken charges:
               1
     1  C   -4.956030
     2  C   -1.362124
     3  O   -2.772194
     4  C   -1.001237
     5  C    1.734318
     6  N   -2.342218
     7  H    0.529286
     8  H    0.832103
     9  H    1.190542
    10  H    1.528031
    11  H    1.394585
    12  H    1.358400
    13  H    3.866538
 Sum of Mulliken charges =   0.00000

 Dipole moment (field-independent basis, Debye):
    X=             -3.4977    Y=             -1.9490    Z=              0.2426  Tot=              4.0114

 Test job not archived.
 1\1\GINC-SE454\SP\RHF\Aug-CC-pVDZ\C4H7N1O1\OHZDE\09-Apr-2025\0\\#t hf
 aug-cc-pvdz iop(5/13=1,5/36=2,99/5=2) pseudo=read geom=check guess=(re
 ad,tcheck) scf=(maxcycle=1)\\title\\0,1\C,0,-1.45629291,0.36435082,-0.
 39393324\C,0,-0.04999787,-1.32088314,0.11472993\O,0,0.77709591,-0.6904
 755,0.93372558\C,0,1.15358465,0.58733749,0.48813265\C,0,1.76915712,0.6
 4107804,-0.80160223\N,0,2.14989856,0.66167228,-1.91401611\H,0,-1.99798
 229,1.123938,0.19204629\H,0,-1.33694731,0.69115487,-1.43507967\H,0,-2.
 11356479,-0.51491765,-0.39915985\H,0,0.18422007,-1.37044227,-0.9498430

 Normal termination of Gaussian 16 at Wed Apr  9 17:38:42 2025.
