 Gaussian 16, Revision C.01,

 ----------------------------------------------------------------------
 #t hf aug-cc-pvdz symm=none int=(grid=ultrafine) guess=(read,tcheck) s
 table=(opt,rrhf)
 ----------------------------------------------------------------------
 -----
 title
 -----
 Symbolic Z-matrix:
 Charge =  0 Multiplicity = 1

 SCF Done:  E(RHF) =  -325.034195055     A.U. after   14 cycles
 Normal termination of Gaussian 16 at Wed Apr  9 19:11:11 2025.
 Gaussian 16:  ES64L-G16RevC.01  3-Jul-2019

 ----------------------------------------------------------------------
 #t hf aug-cc-pvdz iop(5/13=1,5/36=2,99/5=2) pseudo=read geom=check gue
 ss=(read,tcheck) scf=(maxcycle=1)
 ----------------------------------------------------------------------
 -----
 title
 -----
 Structure from the checkpoint file:  "Grambow2020_wb97xd3_008231_reverse_mol2.chk"
 Charge =  0 Multiplicity = 1

                         Standard orientation:
 ---------------------------------------------------------------------
 Center     Atomic      Atomic             Coordinates (Angstroms)
 Number     Number       Type             X           Y           Z
 ---------------------------------------------------------------------
      1          6           0       -2.370112   -0.864138    0.593149
      2          6           0       -3.367970   -0.507028   -0.198615
      3          6           0       -0.412093    1.736968   -0.530431
      4          7           0        0.447365    1.891746    0.380610
      5          6           0        1.615747   -0.831683    0.252431
      6          8           0        0.925984   -1.259115   -0.637651
      7          6           0        3.024282   -0.359766    0.078432
      8          1           0       -2.453686   -0.786871    1.671895
      9          1           0       -1.433005   -1.242027    0.196959
     10          1           0        1.220318   -0.777347    1.285022
     11          1           0       -3.289474   -0.584915   -1.277574
     12          1           0       -4.304699   -0.128496    0.195526
     13          1           0       -0.334442    0.868710   -1.184087
     14          1           0       -1.247280    2.419057   -0.711363
     15          1           0        0.261690    2.731909    0.925232
     16          1           0        3.687063   -0.951126    0.715824
     17          1           0        3.081625    0.678054    0.411631
     18          1           0        3.333335   -0.442361   -0.961927
 ---------------------------------------------------------------------

 SCF Done:  E(RHF) =  -326.565685044     A.U. after    2 cycles

 The electronic state is 1-A.
 Alpha  occ. eigenvalues --  -21.04881 -15.74694 -11.47569 -11.42068 -11.39905
 Alpha  occ. eigenvalues --  -11.37960 -11.36289  -1.70171  -1.33166  -1.12878
 Alpha  occ. eigenvalues --   -1.10488  -0.87536  -0.81345  -0.80758  -0.67501
 Alpha  occ. eigenvalues --   -0.63923  -0.62786  -0.58727  -0.57188  -0.55144
 Alpha  occ. eigenvalues --   -0.54816  -0.49033  -0.48171  -0.43435  -0.41479
 Alpha  occ. eigenvalues --   -0.39688  -0.35305  -0.28673
 Alpha virt. eigenvalues --    0.03917   0.04816   0.05098   0.05412   0.05839
 Alpha virt. eigenvalues --    0.06206   0.06605   0.07663   0.07937   0.08202
 Alpha virt. eigenvalues --    0.08947   0.11308   0.11716   0.13002   0.13167

 Mulliken charges:
               1
     1  C   -2.948869
     2  C   -2.869943
     3  C   -1.337359
     4  N   -2.434927
     5  C    1.102687
     6  O   -2.623699
     7  C   -4.038013
     8  H    1.316168
     9  H    1.755531
    10  H    1.713391
    11  H    1.336090
    12  H    1.375169
    13  H    1.753523
    14  H    1.358587
    15  H    0.747109
    16  H    1.170136
    17  H    1.333266
    18  H    1.291152
 Sum of Mulliken charges =  -0.00000

 Dipole moment (field-independent basis, Debye):
    X=             -0.3616    Y=              1.5541    Z=              0.2676  Tot=              1.6179

 Test job not archived.
 1\1\GINC-SE131\SP\RHF\Aug-CC-pVDZ\C5H11N1O1\OHZDE\09-Apr-2025\0\\#t hf
  aug-cc-pvdz iop(5/13=1,5/36=2,99/5=2) pseudo=read geom=check guess=(r
 ead,tcheck) scf=(maxcycle=1)\\title\\0,1\C,0,-2.25184778,0.58222543,-0
 .75384963\C,0,-3.00485128,1.3852658,-0.02019283\C,0,-0.18107864,-0.084
 05717,1.91635805\N,0,0.38216684,-1.16996846,1.60624264\C,0,1.66499116,
 -0.21965669,-0.89373396\O,0,1.27132907,0.91789511,-0.85222806\C,0,3.04
 271805,-0.65233669,-0.504361\H,0,-2.6363465,-0.35951549,-1.13058912\H,
 0,-1.22496049,0.83043413,-1.00250915\H,0,0.99528364,-1.02711434,-1.247

 Normal termination of Gaussian 16 at Wed Apr  9 19:11:17 2025.
