 Gaussian 16, Revision C.01,

 ----------------------------------------------------------------------
 #t hf aug-cc-pvdz symm=none int=(grid=ultrafine) guess=(read,tcheck) s
 table=(opt,rrhf)
 ----------------------------------------------------------------------
 -----
 title
 -----
 Symbolic Z-matrix:
 Charge =  0 Multiplicity = 1

 SCF Done:  E(RHF) =  -344.921270980     A.U. after   13 cycles

 1\1\GINC-SE049\Stability\RHF\Aug-CC-pVDZ\C5H10O2\OHZDE\09-Apr-2025\0\\
 #t hf aug-cc-pvdz symm=none int=(grid=ultrafine) guess=(read,tcheck) s
 table=(opt,rrhf)\\title\\0,1\C,0,2.08033406,-0.11094612,-0.46797205\C,
 0,0.76779097,0.26243557,0.17271379\O,0,0.02274839,1.10101797,-0.701989
 84\C,0,-1.28260879,1.20673177,-0.15082519\C,0,-1.5246901,-0.09371611,0
 .64345615\C,0,-0.21689013,-0.87385813,0.45778052\O,0,-0.28932251,-1.79
 883573,-0.60769854\H,0,2.6646752,0.78535196,-0.67700485\H,0,1.92234559
 ,-0.64884046,-1.40211179\H,0,2.65605999,-0.75245783,0.20094358\H,0,0.9

 Normal termination of Gaussian 16 at Wed Apr  9 03:39:39 2025.
 Gaussian 16:  ES64L-G16RevC.01  3-Jul-2019

 ----------------------------------------------------------------------
 #t hf aug-cc-pvdz iop(5/13=1,5/36=2,99/5=2) pseudo=read geom=check gue
 ss=(read,tcheck) scf=(maxcycle=1)
 ----------------------------------------------------------------------
 -----
 title
 -----
 Structure from the checkpoint file:  "Grambow2020_wb97xd3_007398_forward_mol2.chk"
 Charge =  0 Multiplicity = 1

                         Standard orientation:
 ---------------------------------------------------------------------
 Center     Atomic      Atomic             Coordinates (Angstroms)
 Number     Number       Type             X           Y           Z
 ---------------------------------------------------------------------
      1          6           0       -2.114738   -0.435985    0.084066
      2          6           0       -0.653489   -0.458612    0.454066
      3          8           0        0.081824   -1.189304   -0.520008
      4          6           0        1.457481   -0.961075   -0.247254
      5          6           0        1.542301    0.425433    0.424350
      6          6           0        0.079595    0.884475    0.481024
      7          8           0       -0.268808    1.706143   -0.614217
      8          1           0       -2.506420   -1.452352    0.038422
      9          1           0       -2.267293    0.039354   -0.884277
     10          1           0       -2.682800    0.121721    0.830200
     11          1           0       -0.526355   -0.936962    1.439175
     12          1           0        1.998575   -1.021824   -1.191909
     13          1           0        1.838252   -1.747063    0.415329
     14          1           0        1.964309    0.350464    1.427316
     15          1           0        2.140911    1.140500   -0.138397
     16          1           0       -0.146081    1.466140    1.375070
     17          1           0       -0.184124    1.179890   -1.414652
 ---------------------------------------------------------------------

 SCF Done:  E(RHF) =  -346.514643592     A.U. after    2 cycles

 The electronic state is 1-A.
 Alpha  occ. eigenvalues --  -21.06397 -21.04014 -11.50177 -11.43944 -11.42557
 Alpha  occ. eigenvalues --  -11.38608 -11.35873  -1.78676  -1.69948  -1.16604
 Alpha  occ. eigenvalues --   -1.13736  -0.97819  -0.85080  -0.81297  -0.70752
 Alpha  occ. eigenvalues --   -0.66468  -0.63080  -0.59390  -0.56012  -0.53367
 Alpha  occ. eigenvalues --   -0.52147  -0.47479  -0.46576  -0.45953  -0.40341
 Alpha  occ. eigenvalues --   -0.37238  -0.32774  -0.28374
 Alpha virt. eigenvalues --    0.04132   0.04722   0.05243   0.05260   0.05622
 Alpha virt. eigenvalues --    0.06111   0.06462   0.06935   0.07349   0.09369
 Alpha virt. eigenvalues --    0.12071   0.12525   0.13423   0.13803   0.14436

 Mulliken charges:
               1
     1  C   -3.822169
     2  C    0.217209
     3  O   -3.426321
     4  C   -1.341777
     5  C   -3.506745
     6  C    2.154069
     7  O   -3.512790
     8  H    1.170802
     9  H    1.281297
    10  H    1.155840
    11  H    1.744066
    12  H    1.433116
    13  H    1.407656
    14  H    1.240450
    15  H    1.315098
    16  H    1.782219
    17  H    0.707981
 Sum of Mulliken charges =  -0.00000

 Dipole moment (field-independent basis, Debye):
    X=              0.3567    Y=             -0.2160    Z=              0.4335  Tot=              0.6015

 Test job not archived.
 1\1\GINC-SE049\SP\RHF\Aug-CC-pVDZ\C5H10O2\OHZDE\09-Apr-2025\0\\#t hf a
 ug-cc-pvdz iop(5/13=1,5/36=2,99/5=2) pseudo=read geom=check guess=(rea
 d,tcheck) scf=(maxcycle=1)\\title\\0,1\C,0,2.08033406,-0.11094612,-0.4
 6797205\C,0,0.76779097,0.26243557,0.17271379\O,0,0.02274839,1.10101797
 ,-0.70198984\C,0,-1.28260879,1.20673177,-0.15082519\C,0,-1.5246901,-0.
 09371611,0.64345615\C,0,-0.21689013,-0.87385813,0.45778052\O,0,-0.2893
 2251,-1.79883573,-0.60769854\H,0,2.6646752,0.78535196,-0.67700485\H,0,
 1.92234559,-0.64884046,-1.40211179\H,0,2.65605999,-0.75245783,0.200943

 Normal termination of Gaussian 16 at Wed Apr  9 03:39:45 2025.
