 Gaussian 16, Revision C.01,

 ----------------------------------------------------------------------
 #t hf aug-cc-pvdz symm=none int=(grid=ultrafine) guess=(read,tcheck) s
 table=(opt,rrhf)
 ----------------------------------------------------------------------
 -----
 title
 -----
 Symbolic Z-matrix:
 Charge =  0 Multiplicity = 1

 SCF Done:  E(RHF) =  -304.478709637     A.U. after   16 cycles
 Normal termination of Gaussian 16 at Wed Apr  9 03:21:57 2025.
 Gaussian 16:  ES64L-G16RevC.01  3-Jul-2019

 ----------------------------------------------------------------------
 #t hf aug-cc-pvdz iop(5/13=1,5/36=2,99/5=2) pseudo=read geom=check gue
 ss=(read,tcheck) scf=(maxcycle=1)
 ----------------------------------------------------------------------
 -----
 title
 -----
 Structure from the checkpoint file:  "Grambow2020_wb97xd3_006105_reverse_mol1.chk"
 Charge =  0 Multiplicity = 1

                         Standard orientation:
 ---------------------------------------------------------------------
 Center     Atomic      Atomic             Coordinates (Angstroms)
 Number     Number       Type             X           Y           Z
 ---------------------------------------------------------------------
      1          6           0        0.725691    1.131370    0.054131
      2          8           0        1.351157   -0.106651   -0.282243
      3          6           0        0.650943   -1.175263    0.088880
      4          6           0       -1.147263   -0.327302   -0.830582
      5          8           0       -0.939078   -0.359230    0.780235
      6          6           0       -0.747257    0.805191    0.005242
      7          1           0        1.022915    1.455878    1.056913
      8          1           0        1.044410    1.864250   -0.686474
      9          1           0        0.622914   -1.954485   -0.660832
     10          1           0        0.789085   -1.511465    1.116008
     11          1           0       -2.233419   -0.338504   -0.971669
     12          1           0       -1.435215    1.607402    0.256098
 ---------------------------------------------------------------------

 SCF Done:  E(RHF) =  -305.847758166     A.U. after    2 cycles

 The electronic state is 1-A.
 Alpha  occ. eigenvalues --  -21.09688 -21.05359 -11.52461 -11.47502 -11.42117
 Alpha  occ. eigenvalues --  -11.35786  -1.86381  -1.71898  -1.11533  -0.96302
 Alpha  occ. eigenvalues --   -0.92442  -0.80663  -0.73038  -0.69718  -0.63916
 Alpha  occ. eigenvalues --   -0.57520  -0.54635  -0.47135  -0.43350  -0.37423
 Alpha  occ. eigenvalues --   -0.35343  -0.33200  -0.25823
 Alpha virt. eigenvalues --    0.03811   0.05071   0.05114   0.05846   0.06334
 Alpha virt. eigenvalues --    0.06488   0.09513   0.10031   0.10091   0.12865
 Alpha virt. eigenvalues --    0.13360   0.13804   0.14580   0.15689   0.16332

 Mulliken charges:
               1
     1  C   -1.226991
     2  O   -2.921073
     3  C   -0.639242
     4  C   -1.595554
     5  O   -2.120545
     6  C    0.346792
     7  H    1.355753
     8  H    1.455109
     9  H    1.364018
    10  H    1.375536
    11  H    1.099725
    12  H    1.506472
 Sum of Mulliken charges =  -0.00000

 Dipole moment (field-independent basis, Debye):
    X=              1.1496    Y=              0.8119    Z=              2.2064  Tot=              2.6170

 Test job not archived.
 1\1\GINC-SE120\SP\RHF\Aug-CC-pVDZ\C4H6O2\OHZDE\09-Apr-2025\0\\#t hf au
 g-cc-pvdz iop(5/13=1,5/36=2,99/5=2) pseudo=read geom=check guess=(read
 ,tcheck) scf=(maxcycle=1)\\title\\0,1\C,0,-1.24518137,-0.31041607,-0.0
 6043385\O,0,-0.78918461,0.77611723,-0.86576949\C,0,0.34844761,1.316251
 08,-0.43680329\C,0,1.25087931,-0.67466228,-0.29581727\O,0,0.78764217,0
 .15426033,1.0222836\C,0,0.03179008,-0.90740591,0.47929433\H,0,-1.88388
 724,0.05098994,0.75237667\H,0,-1.80894076,-0.97833298,-0.71101183\H,0,
 1.04787182,1.53731441,-1.23177293\H,0,0.26115502,2.07409402,0.34111723

 Normal termination of Gaussian 16 at Wed Apr  9 03:22:02 2025.
