 Gaussian 16, Revision C.01,

 ----------------------------------------------------------------------
 #t hf aug-cc-pvdz symm=none int=(grid=ultrafine) guess=(read,tcheck) s
 table=(opt,rrhf)
 ----------------------------------------------------------------------
 -----
 title
 -----
 Symbolic Z-matrix:
 Charge =  0 Multiplicity = 1

 SCF Done:  E(RHF) =  -268.819113373     A.U. after   13 cycles
 Normal termination of Gaussian 16 at Wed Apr  9 17:48:48 2025.
 Gaussian 16:  ES64L-G16RevC.01  3-Jul-2019

 ----------------------------------------------------------------------
 #t hf aug-cc-pvdz iop(5/13=1,5/36=2,99/5=2) pseudo=read geom=check gue
 ss=(read,tcheck) scf=(maxcycle=1)
 ----------------------------------------------------------------------
 -----
 title
 -----
 Structure from the checkpoint file:  "Grambow2020_wb97xd3_006181_forward_mol2.chk"
 Charge =  0 Multiplicity = 1

                         Standard orientation:
 ---------------------------------------------------------------------
 Center     Atomic      Atomic             Coordinates (Angstroms)
 Number     Number       Type             X           Y           Z
 ---------------------------------------------------------------------
      1          8           0       -1.774522   -0.509570   -0.375269
      2          6           0       -0.522601   -0.126983    0.068464
      3          6           0       -0.246755    1.237563    0.605541
      4          6           0        0.465430    0.767509   -0.636281
      5          6           0        1.607458   -0.162594   -0.238907
      6          6           0        0.579963   -1.105625    0.451430
      7          1           0       -2.380316   -0.499746    0.368476
      8          1           0       -1.038536    1.953939    0.423116
      9          1           0        0.300435    1.380354    1.533299
     10          1           0        0.361041    1.291169   -1.576348
     11          1           0        2.098974   -0.633263   -1.089131
     12          1           0        2.366795    0.280988    0.408630
     13          1           0        0.476200   -2.048499   -0.084647
     14          1           0        0.710619   -1.307604    1.517268
 ---------------------------------------------------------------------

 SCF Done:  E(RHF) =  -270.093436809     A.U. after    2 cycles

 The electronic state is 1-A.
 Alpha  occ. eigenvalues --  -21.07748 -11.50447 -11.42878 -11.40157 -11.37962
 Alpha  occ. eigenvalues --  -11.34735  -1.72873  -1.37371  -1.06662  -0.93401
 Alpha  occ. eigenvalues --   -0.84540  -0.75396  -0.69154  -0.62595  -0.60527
 Alpha  occ. eigenvalues --   -0.56801  -0.52325  -0.50815  -0.44646  -0.43451
 Alpha  occ. eigenvalues --   -0.38419  -0.33347  -0.30543
 Alpha virt. eigenvalues --    0.04117   0.05172   0.05531   0.05991   0.06175
 Alpha virt. eigenvalues --    0.06269   0.06616   0.06957   0.10869   0.12354
 Alpha virt. eigenvalues --    0.12896   0.13508   0.14644   0.15023   0.15289

 Mulliken charges:
               1
     1  O   -3.642480
     2  C    4.588623
     3  C   -3.019975
     4  C   -1.048363
     5  C   -3.012758
     6  C   -3.272265
     7  H    0.555413
     8  H    1.219580
     9  H    1.355926
    10  H    1.212237
    11  H    1.310932
    12  H    1.168538
    13  H    1.266417
    14  H    1.318175
 Sum of Mulliken charges =  -0.00000

 Dipole moment (field-independent basis, Debye):
    X=              0.0007    Y=              0.2400    Z=              0.4491  Tot=              0.5092

 Test job not archived.
 1\1\GINC-SE112\SP\RHF\Aug-CC-pVDZ\C5H8O1\OHZDE\09-Apr-2025\0\\#t hf au
 g-cc-pvdz iop(5/13=1,5/36=2,99/5=2) pseudo=read geom=check guess=(read
 ,tcheck) scf=(maxcycle=1)\\title\\0,1\O,0,1.19449594,0.73745275,1.5839
 2844\C,0,0.53802167,0.22577241,0.48038628\C,0,0.68256054,0.81733043,-0
 .88185283\C,0,-0.6689876,0.80121579,-0.21601774\C,0,-1.2746116,-0.5932
 5733,-0.3420767\C,0,-0.04723767,-1.17891979,0.41434385\H,0,2.13917247,
 0.62940282,1.45684138\H,0,1.16341735,1.78789842,-0.89469363\H,0,0.8754
 1655,0.19490233,-1.75129539\H,0,-1.20390864,1.71735607,-0.00771465\H,0

 Normal termination of Gaussian 16 at Wed Apr  9 17:48:51 2025.
