 Gaussian 16, Revision C.01,

 ----------------------------------------------------------------------
 #t hf aug-cc-pvdz symm=none int=(grid=ultrafine) guess=(read,tcheck) s
 table=(opt,rrhf)
 ----------------------------------------------------------------------
 -----
 title
 -----
 Symbolic Z-matrix:
 Charge =  0 Multiplicity = 1

 SCF Done:  E(RHF) =  -284.662804127     A.U. after   15 cycles
 Normal termination of Gaussian 16 at Wed Apr  9 03:06:51 2025.
 Gaussian 16:  ES64L-G16RevC.01  3-Jul-2019

 ----------------------------------------------------------------------
 #t hf aug-cc-pvdz iop(5/13=1,5/36=2,99/5=2) pseudo=read geom=check gue
 ss=(read,tcheck) scf=(maxcycle=1)
 ----------------------------------------------------------------------
 -----
 title
 -----
 Structure from the checkpoint file:  "Grambow2020_b97d3_006560_reverse_mol1.chk"
 Charge =  0 Multiplicity = 1

                         Standard orientation:
 ---------------------------------------------------------------------
 Center     Atomic      Atomic             Coordinates (Angstroms)
 Number     Number       Type             X           Y           Z
 ---------------------------------------------------------------------
      1          8           0        1.617674   -0.758206   -0.301344
      2          6           0        1.021351    0.224157    0.333532
      3          6           0        0.067431    1.222462   -0.490511
      4          7           0       -1.183013    0.574686    0.141592
      5          6           0       -1.137109   -0.926570   -0.451745
      6          6           0       -0.357411   -0.152380    0.987175
      7          1           0       -0.058208   -1.387452   -0.480427
      8          1           0        1.624006    0.776928    1.105009
      9          1           0        0.112591    1.130552   -1.579895
     10          1           0        0.072040    2.275516   -0.177874
     11          1           0       -1.271019   -0.714563   -1.517754
     12          1           0       -1.956134   -1.517383   -0.040757
     13          1           0       -0.749145   -0.726755    1.840609
 ---------------------------------------------------------------------

 SCF Done:  E(RHF) =  -285.989333781     A.U. after    2 cycles

 The electronic state is 1-A.
 Alpha  occ. eigenvalues --  -20.93100 -15.79666 -11.54816 -11.47744 -11.44852
 Alpha  occ. eigenvalues --  -11.40074  -1.63320  -1.49978  -1.09177  -0.98759
 Alpha  occ. eigenvalues --   -0.96078  -0.79772  -0.73768  -0.64494  -0.63515
 Alpha  occ. eigenvalues --   -0.56619  -0.55524  -0.49785  -0.48490  -0.45412
 Alpha  occ. eigenvalues --   -0.39601  -0.22593  -0.21229
 Alpha virt. eigenvalues --    0.03320   0.03996   0.04955   0.05244   0.05814
 Alpha virt. eigenvalues --    0.07510   0.07769   0.08552   0.10479   0.11197
 Alpha virt. eigenvalues --    0.12430   0.13002   0.13944   0.14020   0.14986

 Mulliken charges:
               1
     1  O   -2.965581
     2  C    1.181244
     3  C   -2.586028
     4  N   -1.843807
     5  C   -3.037760
     6  C    0.127015
     7  H    1.339533
     8  H    1.269386
     9  H    1.391615
    10  H    1.428494
    11  H    1.089790
    12  H    1.182403
    13  H    1.423696
 Sum of Mulliken charges =  -0.00000

 Dipole moment (field-independent basis, Debye):
    X=             -3.9211    Y=              0.4224    Z=              0.9631  Tot=              4.0597

 Test job not archived.
 1\1\GINC-SE071\SP\RHF\Aug-CC-pVDZ\C4H7N1O1\OHZDE\09-Apr-2025\0\\#t hf
 aug-cc-pvdz iop(5/13=1,5/36=2,99/5=2) pseudo=read geom=check guess=(re
 ad,tcheck) scf=(maxcycle=1)\\title\\0,1\O,0,-1.51297394,-0.90885732,0.
 8463095\C,0,-1.26999391,0.0073324,-0.06213058\C,0,-0.31291311,1.244266
 07,0.31152063\N,0,0.8209274,0.6474018,-0.54925646\C,0,1.17641198,-0.71
 71715,0.23782439\C,0,-0.06400854,-0.31324197,-1.01755934\H,0,0.2321006
 ,-1.29087851,0.63329625\H,0,-2.13341169,0.33628912,-0.70261754\H,0,-0.
 0599116,1.34511752,1.37126683\H,0,-0.57060934,2.21567825,-0.13191688\H

 Normal termination of Gaussian 16 at Wed Apr  9 03:06:54 2025.
