 Gaussian 16, Revision C.01,

 ----------------------------------------------------------------------
 #t hf aug-cc-pvdz symm=none int=(grid=ultrafine) guess=(read,tcheck) s
 table=(opt,rrhf)
 ----------------------------------------------------------------------
 -----
 title
 -----
 Symbolic Z-matrix:
 Charge =  0 Multiplicity = 1

 SCF Done:  E(RHF) =  -338.539130861     A.U. after   16 cycles
 Normal termination of Gaussian 16 at Wed Apr  9 19:17:58 2025.
 Gaussian 16:  ES64L-G16RevC.01  3-Jul-2019

 ----------------------------------------------------------------------
 #t hf aug-cc-pvdz iop(5/13=1,5/36=2,99/5=2) pseudo=read geom=check gue
 ss=(read,tcheck) scf=(maxcycle=1)
 ----------------------------------------------------------------------
 -----
 title
 -----
 Structure from the checkpoint file:  "Grambow2020_wb97xd3_008560_reverse_mol2.chk"
 Charge =  0 Multiplicity = 1

                         Standard orientation:
 ---------------------------------------------------------------------
 Center     Atomic      Atomic             Coordinates (Angstroms)
 Number     Number       Type             X           Y           Z
 ---------------------------------------------------------------------
      1          7           0       -0.059111   -0.914564   -0.416555
      2          6           0        1.046326   -0.930544    0.424653
      3          8           0        1.929923    0.019677    0.347582
      4          6           0        1.969317    1.055868   -0.416868
      5          6           0       -1.889956    0.648057    0.756332
      6          6           0       -1.169140   -0.193517   -0.149751
      7          7           0       -2.275834    0.134948   -0.634421
      8          1           0       -0.017453   -1.353223   -1.327361
      9          1           0        1.249405   -1.685123    1.163367
     10          1           0        1.174223    1.240307   -1.124139
     11          1           0        2.822258    1.694854   -0.267119
     12          1           0       -2.418779    0.220368    1.604243
     13          1           0       -1.643711    1.703534    0.840985
 ---------------------------------------------------------------------

 SCF Done:  E(RHF) =  -340.106906655     A.U. after    2 cycles

 The electronic state is 1-A.
 Alpha  occ. eigenvalues --  -21.21477 -15.79519 -15.72907 -11.48951 -11.43652
 Alpha  occ. eigenvalues --  -11.43145 -11.41830  -1.90263  -1.49688  -1.35969
 Alpha  occ. eigenvalues --   -1.04634  -0.92182  -0.86262  -0.80012  -0.74249
 Alpha  occ. eigenvalues --   -0.69377  -0.64555  -0.62755  -0.61100  -0.55874
 Alpha  occ. eigenvalues --   -0.49744  -0.47527  -0.44262  -0.36370  -0.32519
 Alpha  occ. eigenvalues --   -0.28988
 Alpha virt. eigenvalues --    0.03122   0.05112   0.05507   0.05778   0.06601
 Alpha virt. eigenvalues --    0.06723   0.08860   0.09864   0.10870   0.11917
 Alpha virt. eigenvalues --    0.12250   0.13066   0.13850   0.14481   0.14734

 Mulliken charges:
               1
     1  N   -3.626755
     2  C    1.552051
     3  O   -3.317672
     4  C   -1.774118
     5  C   -2.441522
     6  C    3.674465
     7  N   -2.370501
     8  H    0.712408
     9  H    1.838666
    10  H    1.584602
    11  H    1.459195
    12  H    1.347978
    13  H    1.361203
 Sum of Mulliken charges =   0.00000

 Dipole moment (field-independent basis, Debye):
    X=              2.7109    Y=             -0.5592    Z=              0.4098  Tot=              2.7982

 Test job not archived.
 1\1\GINC-SE222\SP\RHF\Aug-CC-pVDZ\C4H6N2O1\OHZDE\09-Apr-2025\0\\#t hf
 aug-cc-pvdz iop(5/13=1,5/36=2,99/5=2) pseudo=read geom=check guess=(re
 ad,tcheck) scf=(maxcycle=1)\\title\\0,1\N,0,-0.53106883,0.7781703,-0.4
 9802042\C,0,-1.38872689,-0.04348186,0.22252514\O,0,-1.31077631,-1.3340
 2003,0.08821692\C,0,-0.52058405,-2.04624199,-0.63839453\C,0,1.73783024
 ,0.94124374,0.9144048\C,0,0.72602971,1.05682308,-0.09143367\N,0,1.7733
 9664,1.64394126,-0.44623081\H,0,-0.78463136,1.09922983,-1.42341311\H,0
 ,-2.1421359,0.30029128,0.90847237\H,0,0.23023024,-1.57069036,-1.252033

 Normal termination of Gaussian 16 at Wed Apr  9 19:18:02 2025.
