 Gaussian 16, Revision C.01,

 ----------------------------------------------------------------------
 #t hf aug-cc-pvdz symm=none int=(grid=ultrafine) guess=(read,tcheck) s
 table=(opt,rrhf)
 ----------------------------------------------------------------------
 -----
 title
 -----
 Symbolic Z-matrix:
 Charge =  0 Multiplicity = 1

 SCF Done:  E(RHF) =  -308.928147444     A.U. after   15 cycles

 1\1\GINC-SE284\Stability\RHF\Aug-CC-pVDZ\C6H12O1\OHZDE\09-Apr-2025\0\\
 #t hf aug-cc-pvdz symm=none int=(grid=ultrafine) guess=(read,tcheck) s
 table=(opt,rrhf)\\title\\0,1\C,0,-0.96800785,-1.67614444,-0.81482524\C
 ,0,-0.77835209,-0.17927972,-0.74555483\C,0,-1.00893983,0.44333273,0.61
 877502\C,0,-0.15295455,1.70861531,0.82250143\O,0,0.74808638,1.81595716
 ,-0.28269367\C,0,1.25370116,0.65517656,-0.74747964\C,0,1.88487158,-0.2
 5372464,0.27412515\H,0,-1.99843384,-1.95128878,-0.57201139\H,0,-0.7491
 0461,-2.06223956,-1.81147293\H,0,-0.31781906,-2.18547104,-0.09956364\H

 Normal termination of Gaussian 16 at Wed Apr  9 03:29:16 2025.
 Gaussian 16:  ES64L-G16RevC.01  3-Jul-2019

 ----------------------------------------------------------------------
 #t hf aug-cc-pvdz iop(5/13=1,5/36=2,99/5=2) pseudo=read geom=check gue
 ss=(read,tcheck) scf=(maxcycle=1)
 ----------------------------------------------------------------------
 -----
 title
 -----
 Structure from the checkpoint file:  "Grambow2020_wb97xd3_006736_forward_mol1.chk"
 Charge =  0 Multiplicity = 1

                         Standard orientation:
 ---------------------------------------------------------------------
 Center     Atomic      Atomic             Coordinates (Angstroms)
 Number     Number       Type             X           Y           Z
 ---------------------------------------------------------------------
      1          6           0        2.348160    0.216687   -0.017056
      2          6           0        1.037197   -0.370092   -0.484430
      3          6           0        0.282767   -1.183706    0.550500
      4          6           0       -1.240491   -1.127794    0.323093
      5          8           0       -1.499701   -0.166039   -0.702914
      6          6           0       -0.718617    0.933457   -0.692853
      7          6           0       -0.623314    1.671727    0.616356
      8          1           0        3.052885   -0.572506    0.260394
      9          1           0        2.817516    0.819969   -0.795548
     10          1           0        2.201886    0.846896    0.863398
     11          1           0        1.146205   -0.933730   -1.416232
     12          1           0        0.531940   -0.811702    1.546349
     13          1           0        0.617340   -2.223196    0.514498
     14          1           0       -1.769651   -0.878553    1.247062
     15          1           0       -1.641357   -2.068249   -0.053437
     16          1           0        0.412649    0.583548   -1.118736
     17          1           0       -0.567123    1.080351    1.538336
     18          1           0        0.214528    2.368363    0.588995
     19          1           0       -1.533416    2.275446    0.674562
 ---------------------------------------------------------------------

 SCF Done:  E(RHF) =  -310.459060130     A.U. after    2 cycles

 The electronic state is 1-A.
 Alpha  occ. eigenvalues --  -21.05447 -11.47118 -11.43509 -11.41758 -11.39724
 Alpha  occ. eigenvalues --  -11.37229 -11.36384  -1.77925  -1.23933  -1.11446
 Alpha  occ. eigenvalues --   -1.06599  -0.95164  -0.84546  -0.77768  -0.67565
 Alpha  occ. eigenvalues --   -0.65351  -0.62014  -0.59920  -0.56006  -0.55467
 Alpha  occ. eigenvalues --   -0.53916  -0.53246  -0.49130  -0.46661  -0.45624
 Alpha  occ. eigenvalues --   -0.38383  -0.31885  -0.27097
 Alpha virt. eigenvalues --    0.03765   0.04830   0.04882   0.05222   0.05303
 Alpha virt. eigenvalues --    0.05461   0.06357   0.06722   0.07812   0.08629
 Alpha virt. eigenvalues --    0.08968   0.09824   0.11559   0.12596   0.13240

 Mulliken charges:
               1
     1  C   -4.036120
     2  C   -1.953914
     3  C   -2.971011
     4  C   -1.704078
     5  O   -3.084156
     6  C   -0.434714
     7  C   -3.851539
     8  H    1.192169
     9  H    1.121702
    10  H    1.487265
    11  H    1.342036
    12  H    1.684991
    13  H    1.150742
    14  H    1.501957
    15  H    1.331853
    16  H    3.174348
    17  H    1.509211
    18  H    1.359213
    19  H    1.180045
 Sum of Mulliken charges =   0.00000

 Dipole moment (field-independent basis, Debye):
    X=              1.6784    Y=             -1.7882    Z=              1.5243  Tot=              2.8876

 Test job not archived.
 1\1\GINC-SE284\SP\RHF\Aug-CC-pVDZ\C6H12O1\OHZDE\09-Apr-2025\0\\#t hf a
 ug-cc-pvdz iop(5/13=1,5/36=2,99/5=2) pseudo=read geom=check guess=(rea
 d,tcheck) scf=(maxcycle=1)\\title\\0,1\C,0,-0.96800785,-1.67614444,-0.
 81482524\C,0,-0.77835209,-0.17927972,-0.74555483\C,0,-1.00893983,0.443
 33273,0.61877502\C,0,-0.15295455,1.70861531,0.82250143\O,0,0.74808638,
 1.81595716,-0.28269367\C,0,1.25370116,0.65517656,-0.74747964\C,0,1.884
 87158,-0.25372464,0.27412515\H,0,-1.99843384,-1.95128878,-0.57201139\H
 ,0,-0.74910461,-2.06223956,-1.81147293\H,0,-0.31781906,-2.18547104,-0.

 Normal termination of Gaussian 16 at Wed Apr  9 03:29:23 2025.
