 Gaussian 16, Revision C.01,

 ----------------------------------------------------------------------
 #t hf aug-cc-pvdz symm=none int=(grid=ultrafine) guess=(read,tcheck) s
 table=(opt,rrhf)
 ----------------------------------------------------------------------
 -----
 title
 -----
 Symbolic Z-matrix:
 Charge =  0 Multiplicity = 1

 SCF Done:  E(RHF) =  -262.604480987     A.U. after   15 cycles
 Normal termination of Gaussian 16 at Wed Apr  9 17:03:24 2025.
 Gaussian 16:  ES64L-G16RevC.01  3-Jul-2019

 ----------------------------------------------------------------------
 #t hf aug-cc-pvdz iop(5/13=1,5/36=2,99/5=2) pseudo=read geom=check gue
 ss=(read,tcheck) scf=(maxcycle=1)
 ----------------------------------------------------------------------
 -----
 title
 -----
 Structure from the checkpoint file:  "Grambow2020_b97d3_006915_reverse_mol2.chk"
 Charge =  0 Multiplicity = 1

                         Standard orientation:
 ---------------------------------------------------------------------
 Center     Atomic      Atomic             Coordinates (Angstroms)
 Number     Number       Type             X           Y           Z
 ---------------------------------------------------------------------
      1          6           0       -1.390051    1.254704    0.000427
      2          6           0        2.102899    1.007367   -0.000689
      3          7           0        1.351290    0.075670    0.000008
      4          7           0        0.746559   -1.109632    0.000169
      5          6           0       -0.557870   -1.136554    0.000558
      6          6           0       -1.569274   -0.086847   -0.000170
      7          1           0       -2.258691    1.913372   -0.001722
      8          1           0       -0.411882    1.725220    0.003673
      9          1           0       -0.937000   -2.161091   -0.000635
     10          1           0       -2.591596   -0.471789   -0.003315
 ---------------------------------------------------------------------

 SCF Done:  E(RHF) =  -263.797912768     A.U. after    2 cycles

 The electronic state is 1-A.
 Alpha  occ. eigenvalues --  -15.81341 -15.80413 -11.49538 -11.45761 -11.45044
 Alpha  occ. eigenvalues --  -11.41563  -1.54630  -1.27053  -1.16718  -0.97306
 Alpha  occ. eigenvalues --   -0.84729  -0.71768  -0.68209  -0.59945  -0.58727
 Alpha  occ. eigenvalues --   -0.55379  -0.52757  -0.46603  -0.44364  -0.37916
 Alpha  occ. eigenvalues --   -0.34720
 Alpha virt. eigenvalues --    0.02815   0.04663   0.04687   0.05269   0.06662
 Alpha virt. eigenvalues --    0.09411   0.10138   0.11170   0.12863   0.13028
 Alpha virt. eigenvalues --    0.13373   0.13394   0.13930   0.14137   0.15145

 Mulliken charges:
               1
     1  C   -2.893202
     2  C   -0.280447
     3  N   -0.694564
     4  N   -1.438871
     5  C   -0.869216
     6  C    0.359669
     7  H    1.351462
     8  H    1.641177
     9  H    1.568538
    10  H    1.255454
 Sum of Mulliken charges =   0.00000

 Dipole moment (field-independent basis, Debye):
    X=             -4.3054    Y=             -1.2628    Z=             -0.0003  Tot=              4.4868

 Test job not archived.
 1\1\GINC-SE113\SP\RHF\Aug-CC-pVDZ\C4H4N2\OHZDE\09-Apr-2025\0\\#t hf au
 g-cc-pvdz iop(5/13=1,5/36=2,99/5=2) pseudo=read geom=check guess=(read
 ,tcheck) scf=(maxcycle=1)\\title\\0,1\C,0,0.80318782,1.16017066,-0.141
 05478\C,0,1.89348835,-2.1663358,-0.054577\N,0,0.75201822,-1.81809214,0
 .03895733\N,0,-0.56759369,-1.70052161,0.16322048\C,0,-1.0846062,-0.502
 77121,0.14442452\C,0,-0.4997949,0.82540515,0.00742702\H,0,1.08166877,2
 .2101405,-0.23268782\H,0,1.60589331,0.43026958,-0.17451266\H,0,-2.1711
 8395,-0.53416685,0.2529578\H,0,-1.24035674,1.62812974,0.0305281\\Versi

 Normal termination of Gaussian 16 at Wed Apr  9 17:03:31 2025.
