 Gaussian 16, Revision C.01,

 ----------------------------------------------------------------------
 #t hf aug-cc-pvdz symm=none int=(grid=ultrafine) guess=(read,tcheck) s
 table=(opt,rrhf)
 ----------------------------------------------------------------------
 -----
 title
 -----
 Symbolic Z-matrix:
 Charge =  0 Multiplicity = 1

 SCF Done:  E(RHF) =  -315.425875721     A.U. after   23 cycles
 Normal termination of Gaussian 16 at Wed Apr  9 03:09:42 2025.
 Gaussian 16:  ES64L-G16RevC.01  3-Jul-2019

 ----------------------------------------------------------------------
 #t hf aug-cc-pvdz iop(5/13=1,5/36=2,99/5=2) pseudo=read geom=check gue
 ss=(read,tcheck) scf=(maxcycle=1)
 ----------------------------------------------------------------------
 -----
 title
 -----
 Structure from the checkpoint file:  "Grambow2020_b97d3_006687_reverse_mol1.chk"
 Charge =  0 Multiplicity = 1

                         Standard orientation:
 ---------------------------------------------------------------------
 Center     Atomic      Atomic             Coordinates (Angstroms)
 Number     Number       Type             X           Y           Z
 ---------------------------------------------------------------------
      1          8           0       -1.494574    1.071562   -0.578069
      2          6           0       -0.715466   -0.583560    0.103068
      3          7           0       -1.755100   -0.556832    0.712398
      4          7           0        1.742992    0.713166    0.574656
      5          7           0        1.617172   -0.197513   -0.293811
      6          6           0        0.523481   -0.981129   -0.396513
      7          1           0       -1.257644    1.673506    0.165184
      8          1           0        2.525723    1.317994    0.257229
      9          1           0        0.604974   -1.887611   -0.989891
 ---------------------------------------------------------------------

 SCF Done:  E(RHF) =  -316.796036191     A.U. after    2 cycles

 The electronic state is 1-A.
 Alpha  occ. eigenvalues --  -21.12254 -15.89430 -15.82180 -15.80315 -11.54682
 Alpha  occ. eigenvalues --  -11.45665  -1.63775  -1.54085  -1.36697  -1.16648
 Alpha  occ. eigenvalues --   -0.92496  -0.75936  -0.65477  -0.64287  -0.60919
 Alpha  occ. eigenvalues --   -0.58493  -0.53973  -0.51704  -0.47375  -0.38173
 Alpha  occ. eigenvalues --   -0.35435  -0.26475
 Alpha virt. eigenvalues --    0.02026   0.03865   0.05373   0.06899   0.09594
 Alpha virt. eigenvalues --    0.10556   0.11177   0.11973   0.12815   0.13111
 Alpha virt. eigenvalues --    0.13594   0.14946   0.15705   0.16963   0.18802

 Mulliken charges:
               1
     1  O   -0.999157
     2  C    2.217189
     3  N   -2.073896
     4  N   -1.506126
     5  N   -1.313466
     6  C    0.648047
     7  H    0.881325
     8  H    0.730750
     9  H    1.415334
 Sum of Mulliken charges =   0.00000

 Dipole moment (field-independent basis, Debye):
    X=             -1.2587    Y=              1.4415    Z=             -1.1195  Tot=              2.2171

 Test job not archived.
 1\1\GINC-SE247\SP\RHF\Aug-CC-pVDZ\C2H3N3O1\OHZDE\09-Apr-2025\0\\#t hf
 aug-cc-pvdz iop(5/13=1,5/36=2,99/5=2) pseudo=read geom=check guess=(re
 ad,tcheck) scf=(maxcycle=1)\\title\\0,1\O,0,-1.80566727,-0.72671271,0.
 6076798\C,0,-0.76133262,0.08182965,-0.82968199\N,0,-1.49622751,-0.6349
 8394,-1.4613011\N,0,1.6394923,-0.47083751,0.54090583\N,0,1.23382032,0.
 71032566,0.34168646\C,0,0.21437254,1.0165077,-0.48761521\H,0,-1.331608
 68,-1.5874518,0.68043137\H,0,2.2205027,-0.44242301,1.40164017\H,0,0.10
 378821,2.05382396,-0.79124833\\Version=ES64L-G16RevC.01\State=1-A\HF=-

 Normal termination of Gaussian 16 at Wed Apr  9 03:09:44 2025.
