 Gaussian 16, Revision C.01,

 ----------------------------------------------------------------------
 #t hf aug-cc-pvdz symm=none int=(grid=ultrafine) guess=(read,tcheck) s
 table=(opt,rrhf)
 ----------------------------------------------------------------------
 -----
 title
 -----
 Symbolic Z-matrix:
 Charge =  0 Multiplicity = 1

 SCF Done:  E(RHF) =  -359.594909568     A.U. after   16 cycles
 Normal termination of Gaussian 16 at Wed Apr  9 04:06:00 2025.
 Gaussian 16:  ES64L-G16RevC.01  3-Jul-2019

 ----------------------------------------------------------------------
 #t hf aug-cc-pvdz iop(5/13=1,5/36=2,99/5=2) pseudo=read geom=check gue
 ss=(read,tcheck) scf=(maxcycle=1)
 ----------------------------------------------------------------------
 -----
 title
 -----
 Structure from the checkpoint file:  "Grambow2020_wb97xd3_009246_forward_mol1.chk"
 Charge =  0 Multiplicity = 1

                         Standard orientation:
 ---------------------------------------------------------------------
 Center     Atomic      Atomic             Coordinates (Angstroms)
 Number     Number       Type             X           Y           Z
 ---------------------------------------------------------------------
      1          6           0        0.606374    1.668134    0.010004
      2          6           0        0.187602    0.254478   -0.135650
      3          6           0        1.224063   -0.815280    0.135269
      4          8           0        2.369066   -0.671761   -0.180610
      5          6           0       -1.210054   -0.154097    0.090686
      6          8           0       -1.202122   -0.185320    1.349891
      7          7           0       -1.968855   -0.371022   -0.916162
      8          1           0        0.631280    1.886371    1.080722
      9          1           0        1.616325    1.794600   -0.380143
     10          1           0       -0.095030    2.344864   -0.473420
     11          1           0        0.175313    0.130880   -1.831451
     12          1           0        0.833820   -1.724949    0.618385
     13          1           0       -0.641610   -0.062018   -1.850209
     14          1           0       -2.921578   -0.635359   -0.706854
 ---------------------------------------------------------------------

 SCF Done:  E(RHF) =  -361.219820136     A.U. after    2 cycles

 The electronic state is 1-A.
 Alpha  occ. eigenvalues --  -21.12167 -21.02882 -15.72367 -11.56920 -11.52993
 Alpha  occ. eigenvalues --  -11.49084 -11.43409  -1.77164  -1.70789  -1.32874
 Alpha  occ. eigenvalues --   -1.22754  -1.03074  -0.89137  -0.78274  -0.72764
 Alpha  occ. eigenvalues --   -0.68247  -0.62381  -0.60908  -0.59283  -0.55058
 Alpha  occ. eigenvalues --   -0.52858  -0.50225  -0.49097  -0.39565  -0.34601
 Alpha  occ. eigenvalues --   -0.29713  -0.29344
 Alpha virt. eigenvalues --    0.03493   0.04429   0.05485   0.05820   0.06149
 Alpha virt. eigenvalues --    0.06403   0.07812   0.08466   0.09522   0.10542
 Alpha virt. eigenvalues --    0.11155   0.12843   0.13818   0.14197   0.14836

 Mulliken charges:
               1
     1  C   -4.296907
     2  C   -0.459903
     3  C    1.373458
     4  O   -2.818218
     5  C    6.302447
     6  O   -2.979517
     7  N   -3.451147
     8  H    1.208012
     9  H    1.313545
    10  H    1.334111
    11  H   -0.434667
    12  H    1.510456
    13  H    0.551135
    14  H    0.847193
 Sum of Mulliken charges =  -0.00000

 Dipole moment (field-independent basis, Debye):
    X=              1.7166    Y=              1.2280    Z=              0.1148  Tot=              2.1137

 Test job not archived.
 1\1\GINC-SE092\SP\RHF\Aug-CC-pVDZ\C4H7N1O2\OHZDE\09-Apr-2025\0\\#t hf
 aug-cc-pvdz iop(5/13=1,5/36=2,99/5=2) pseudo=read geom=check guess=(re
 ad,tcheck) scf=(maxcycle=1)\\title\\0,1\C,0,-0.82787582,-1.10717336,0.
 7393999\C,0,-0.20967518,0.06178543,0.0712899\C,0,-1.0512638,1.31169183
 ,-0.07531771\O,0,-2.22314692,1.25337718,-0.30919141\C,0,1.2457238,0.28
 739076,0.12148172\O,0,1.32600609,0.78317438,1.27663864\N,0,1.96034269,
 -0.01261976,-0.89630663\H,0,-0.8147261,-0.90635717,1.81373049\H,0,-1.8
 6890039,-1.19976237,0.4297175\H,0,-0.27103789,-2.02090627,0.54279175\H

 Normal termination of Gaussian 16 at Wed Apr  9 04:06:08 2025.
