 Gaussian 16, Revision C.01,

 ----------------------------------------------------------------------
 #t hf aug-cc-pvdz symm=none int=(grid=ultrafine) guess=(read,tcheck) s
 table=(opt,rrhf)
 ----------------------------------------------------------------------
 -----
 title
 -----
 Symbolic Z-matrix:
 Charge =  0 Multiplicity = 1

 SCF Done:  E(RHF) =  -323.658696005     A.U. after   16 cycles
 Normal termination of Gaussian 16 at Wed Apr  9 18:45:47 2025.
 Gaussian 16:  ES64L-G16RevC.01  3-Jul-2019

 ----------------------------------------------------------------------
 #t hf aug-cc-pvdz iop(5/13=1,5/36=2,99/5=2) pseudo=read geom=check gue
 ss=(read,tcheck) scf=(maxcycle=1)
 ----------------------------------------------------------------------
 -----
 title
 -----
 Structure from the checkpoint file:  "Grambow2020_wb97xd3_007609_reverse_mol1.chk"
 Charge =  0 Multiplicity = 1

                         Standard orientation:
 ---------------------------------------------------------------------
 Center     Atomic      Atomic             Coordinates (Angstroms)
 Number     Number       Type             X           Y           Z
 ---------------------------------------------------------------------
      1          6           0       -1.531282    1.448797   -0.515185
      2          6           0       -1.327226    0.258702    0.196510
      3          7           0       -1.597955   -1.113979   -0.051926
      4          6           0       -0.251945   -0.712250    0.407627
      5          6           0        0.855426   -0.830122   -0.599063
      6          6           0        2.037111    0.044311   -0.284667
      7          8           0        2.107091    0.776528    0.663847
      8          1           0       -0.708012    2.138734   -0.626699
      9          1           0       -2.466611    1.612212   -1.029736
     10          1           0       -1.820550    1.166115    0.955870
     11          1           0       -1.826292    0.342125    1.675654
     12          1           0       -2.130821   -1.552385    0.688531
     13          1           0        0.011590   -0.922380    1.436814
     14          1           0        0.495082   -0.567604   -1.597853
     15          1           0        1.206308   -1.865735   -0.673140
     16          1           0        2.875757   -0.022080   -1.008064
 ---------------------------------------------------------------------

 SCF Done:  E(RHF) =  -325.191915887     A.U. after    2 cycles

 The electronic state is 1-A.
 Alpha  occ. eigenvalues --  -21.07250 -15.76586 -11.57113 -11.49738 -11.46815
 Alpha  occ. eigenvalues --  -11.42375 -11.36496  -1.72405  -1.50479  -1.15964
 Alpha  occ. eigenvalues --   -1.12550  -0.93592  -0.83771  -0.78255  -0.77288
 Alpha  occ. eigenvalues --   -0.66641  -0.62928  -0.60013  -0.58504  -0.54931
 Alpha  occ. eigenvalues --   -0.50097  -0.48154  -0.46339  -0.43837  -0.37925
 Alpha  occ. eigenvalues --   -0.30352  -0.27179
 Alpha virt. eigenvalues --    0.03618   0.04971   0.05047   0.05681   0.05704
 Alpha virt. eigenvalues --    0.06216   0.06734   0.07168   0.09529   0.10806
 Alpha virt. eigenvalues --    0.11773   0.11850   0.12193   0.13008   0.13828

 Mulliken charges:
               1
     1  C   -3.702497
     2  C    1.623562
     3  N   -2.404537
     4  C   -0.142598
     5  C   -3.844917
     6  C    1.321821
     7  O   -2.763455
     8  H    1.153313
     9  H    1.078227
    10  H    1.382974
    11  H   -0.065707
    12  H    0.591818
    13  H    1.493010
    14  H    1.547166
    15  H    1.305050
    16  H    1.426770
 Sum of Mulliken charges =  -0.00000

 Dipole moment (field-independent basis, Debye):
    X=              0.3271    Y=             -1.3674    Z=             -0.2401  Tot=              1.4264

 Test job not archived.
 1\1\GINC-SE232\SP\RHF\Aug-CC-pVDZ\C5H9N1O1\OHZDE\09-Apr-2025\0\\#t hf
 aug-cc-pvdz iop(5/13=1,5/36=2,99/5=2) pseudo=read geom=check guess=(re
 ad,tcheck) scf=(maxcycle=1)\\title\\0,1\C,0,-1.36919046,0.02460237,1.4
 3478566\C,0,-1.10648995,0.18358432,0.06723743\N,0,-0.87724514,1.298052
 95,-0.78404009\C,0,0.04986727,0.14798091,-0.83004687\C,0,1.42736195,0.
 38389819,-0.28192323\C,0,2.12715638,-0.88238838,0.12632202\O,0,1.64990
 777,-1.98035185,0.04014256\H,0,-0.78730628,-0.68887233,1.99922073\H,0,
 -2.067931,0.68484592,1.92687021\H,0,-2.06867471,-0.64257835,0.25445531

 Normal termination of Gaussian 16 at Wed Apr  9 18:45:52 2025.
