 Gaussian 16, Revision C.01,

 ----------------------------------------------------------------------
 #t hf aug-cc-pvdz symm=none int=(grid=ultrafine) guess=(read,tcheck) s
 table=(opt,rrhf)
 ----------------------------------------------------------------------
 -----
 title
 -----
 Symbolic Z-matrix:
 Charge =  0 Multiplicity = 1

 SCF Done:  E(RHF) =  -318.851256547     A.U. after   14 cycles
 Normal termination of Gaussian 16 at Wed Apr  9 18:21:16 2025.
 Gaussian 16:  ES64L-G16RevC.01  3-Jul-2019

 ----------------------------------------------------------------------
 #t hf aug-cc-pvdz iop(5/13=1,5/36=2,99/5=2) pseudo=read geom=check gue
 ss=(read,tcheck) scf=(maxcycle=1)
 ----------------------------------------------------------------------
 -----
 title
 -----
 Structure from the checkpoint file:  "Grambow2020_wb97xd3_006924_reverse_mol2.chk"
 Charge =  0 Multiplicity = 1

                         Standard orientation:
 ---------------------------------------------------------------------
 Center     Atomic      Atomic             Coordinates (Angstroms)
 Number     Number       Type             X           Y           Z
 ---------------------------------------------------------------------
      1          7           0        2.442857   -0.398795    0.009910
      2          6           0        1.002149   -0.099556   -0.006685
      3          6           0       -0.069845   -0.978889   -0.025524
      4          6           0       -1.174810   -0.103173   -0.013198
      5          7           0       -2.533062   -0.501748   -0.081109
      6          6           0       -0.662219    1.190991    0.011707
      7          7           0        0.699917    1.187053    0.010474
      8          1           0        2.738010   -0.908083    0.841975
      9          1           0        2.756146   -0.911441   -0.813214
     10          1           0       -0.074293   -2.058023   -0.072876
     11          1           0       -3.146868    0.297831   -0.033216
     12          1           0       -2.775626   -1.131079    0.670541
     13          1           0       -1.213693    2.121291    0.021204
     14          1           0        2.876701    0.527694    0.012853
 ---------------------------------------------------------------------

 SCF Done:  E(RHF) =  -320.366925598     A.U. after    2 cycles

 The electronic state is 1-A.
 Alpha  occ. eigenvalues --  -15.91151 -15.71225 -15.67314 -11.43458 -11.39607
 Alpha  occ. eigenvalues --  -11.35396 -11.30930  -1.52020  -1.38793  -1.27421
 Alpha  occ. eigenvalues --   -1.04384  -0.96980  -0.78550  -0.77047  -0.76676
 Alpha  occ. eigenvalues --   -0.71454  -0.65925  -0.61099  -0.52024  -0.50489
 Alpha  occ. eigenvalues --   -0.48317  -0.45575  -0.39975  -0.34181  -0.25787
 Alpha  occ. eigenvalues --   -0.22164
 Alpha virt. eigenvalues --    0.01169   0.04235   0.04514   0.05261   0.06524
 Alpha virt. eigenvalues --    0.07197   0.08650   0.09878   0.11342   0.12590
 Alpha virt. eigenvalues --    0.13200   0.14144   0.14611   0.15304   0.15840

 Mulliken charges:
               1
     1  N   -3.665318
     2  C    4.216332
     3  C   -2.978310
     4  C    4.041934
     5  N   -3.525802
     6  C   -0.342912
     7  N   -3.665388
     8  H    0.522767
     9  H    0.508968
    10  H    1.438462
    11  H    0.732020
    12  H    0.452903
    13  H    1.457751
    14  H    0.806593
 Sum of Mulliken charges =   0.00000

 Dipole moment (field-independent basis, Debye):
    X=              6.3197    Y=             -2.8277    Z=              0.8754  Tot=              6.9786

 Test job not archived.
 1\1\GINC-SE117\SP\RHF\Aug-CC-pVDZ\C4H7N3\OHZDE\09-Apr-2025\0\\#t hf au
 g-cc-pvdz iop(5/13=1,5/36=2,99/5=2) pseudo=read geom=check guess=(read
 ,tcheck) scf=(maxcycle=1)\\title\\0,1\N,0,-2.40448353,-0.05427002,-0.0
 6287701\C,0,-0.94358207,0.11308061,-0.00614478\C,0,0.03619578,-0.84829
 179,0.19020419\C,0,1.2204487,-0.08611507,0.12230776\N,0,2.52942306,-0.
 59239473,0.3187467\C,0,0.83743989,1.23302475,-0.10442006\N,0,-0.517436
 89,1.35228282,-0.17871087\H,0,-2.71166465,-0.64530019,-0.83433354\H,0,
 -2.80111694,-0.41739305,0.80275177\H,0,-0.06616073,-1.90637891,0.38195

 Normal termination of Gaussian 16 at Wed Apr  9 18:21:21 2025.
