 Gaussian 16, Revision C.01,

 ----------------------------------------------------------------------
 #t hf aug-cc-pvdz symm=none int=(grid=ultrafine) guess=(read,tcheck) s
 table=(opt,rrhf)
 ----------------------------------------------------------------------
 -----
 title
 -----
 Symbolic Z-matrix:
 Charge =  0 Multiplicity = 1

 SCF Done:  E(RHF) =  -232.008938190     A.U. after   15 cycles

 1\1\GINC-SE226\Stability\RHF\Aug-CC-pVDZ\C4H10O1\OHZDE\09-Apr-2025\0\\
 #t hf aug-cc-pvdz symm=none int=(grid=ultrafine) guess=(read,tcheck) s
 table=(opt,rrhf)\\title\\0,1\C,0,2.04859374,-0.42231614,-0.46980419\O,
 0,0.6905072,-0.86024344,-0.63145236\C,0,-0.20170034,0.15135489,-0.7086
 7154\C,0,-1.58339293,-0.39827533,-0.94619961\C,0,-0.50134384,0.8253652
 8,1.57790192\H,0,2.67837294,-1.31498232,-0.54967504\H,0,2.17191167,0.0
 3448715,0.52363007\H,0,2.313663,0.30970284,-1.24388666\H,0,-0.10201444
 ,1.00664205,0.12571214\H,0,-1.83215885,-1.27286705,-0.32162796\H,0,-1.

 Normal termination of Gaussian 16 at Wed Apr  9 15:41:50 2025.
 Gaussian 16:  ES64L-G16RevC.01  3-Jul-2019

 ----------------------------------------------------------------------
 #t hf aug-cc-pvdz iop(5/13=1,5/36=2,99/5=2) pseudo=read geom=check gue
 ss=(read,tcheck) scf=(maxcycle=1)
 ----------------------------------------------------------------------
 -----
 title
 -----
 Structure from the checkpoint file:  "Grambow2020_b97d3_006608_forward_mol1.chk"
 Charge =  0 Multiplicity = 1

                         Standard orientation:
 ---------------------------------------------------------------------
 Center     Atomic      Atomic             Coordinates (Angstroms)
 Number     Number       Type             X           Y           Z
 ---------------------------------------------------------------------
      1          6           0        1.991237    0.243348   -0.077980
      2          8           0        0.854601   -0.518804    0.357327
      3          6           0       -0.209308   -0.430000   -0.470646
      4          6           0       -1.323615   -1.312153    0.027061
      5          6           0       -1.191494    1.690898    0.085770
      6          1           0        2.816549   -0.010085    0.596174
      7          1           0        1.764148    1.317443   -0.003556
      8          1           0        2.248526   -0.004521   -1.116094
      9          1           0       -0.516355    0.676013   -0.817212
     10          1           0       -1.496253   -1.246860    1.114635
     11          1           0       -1.051681   -2.356751   -0.194098
     12          1           0       -2.255030   -1.084623   -0.503929
     13          1           0       -2.261877    1.559768   -0.092258
     14          1           0       -0.782349    2.604859   -0.356199
     15          1           0       -0.903397    1.542635    1.128695
 ---------------------------------------------------------------------

 SCF Done:  E(RHF) =  -233.149956451     A.U. after    2 cycles

 The electronic state is 1-A.
 Alpha  occ. eigenvalues --  -21.08358 -11.43845 -11.41345 -11.37216 -11.36040
 Alpha  occ. eigenvalues --   -1.78564  -1.12511  -0.99877  -0.98143  -0.80392
 Alpha  occ. eigenvalues --   -0.64101  -0.62672  -0.61387  -0.57106  -0.54588
 Alpha  occ. eigenvalues --   -0.54078  -0.52248  -0.47992  -0.43896  -0.37760
 Alpha  occ. eigenvalues --   -0.23881
 Alpha virt. eigenvalues --    0.04011   0.05054   0.05479   0.05810   0.05856
 Alpha virt. eigenvalues --    0.06612   0.06892   0.07129   0.07332   0.09480
 Alpha virt. eigenvalues --    0.10934   0.12749   0.14092   0.14376   0.14829

 Mulliken charges:
               1
     1  C   -2.944361
     2  O   -2.905726
     3  C    0.171058
     4  C   -3.935092
     5  C   -4.544351
     6  H    1.274239
     7  H    1.456887
     8  H    1.317762
     9  H    2.564211
    10  H    1.307255
    11  H    1.294558
    12  H    1.297527
    13  H    1.146727
    14  H    1.109317
    15  H    1.389990
 Sum of Mulliken charges =  -0.00000

 Dipole moment (field-independent basis, Debye):
    X=              0.9920    Y=             -0.4493    Z=              0.4551  Tot=              1.1803

 Test job not archived.
 1\1\GINC-SE226\SP\RHF\Aug-CC-pVDZ\C4H10O1\OHZDE\09-Apr-2025\0\\#t hf a
 ug-cc-pvdz iop(5/13=1,5/36=2,99/5=2) pseudo=read geom=check guess=(rea
 d,tcheck) scf=(maxcycle=1)\\title\\0,1\C,0,2.04859374,-0.42231614,-0.4
 6980419\O,0,0.6905072,-0.86024344,-0.63145236\C,0,-0.20170034,0.151354
 89,-0.70867154\C,0,-1.58339293,-0.39827533,-0.94619961\C,0,-0.50134384
 ,0.82536528,1.57790192\H,0,2.67837294,-1.31498232,-0.54967504\H,0,2.17
 191167,0.03448715,0.52363007\H,0,2.313663,0.30970284,-1.24388666\H,0,-
 0.10201444,1.00664205,0.12571214\H,0,-1.83215885,-1.27286705,-0.321627

 Normal termination of Gaussian 16 at Wed Apr  9 15:41:54 2025.
