 Gaussian 16, Revision C.01,

 ----------------------------------------------------------------------
 #t hf aug-cc-pvdz symm=none int=(grid=ultrafine) guess=(read,tcheck) s
 table=(opt,rrhf)
 ----------------------------------------------------------------------
 -----
 title
 -----
 Symbolic Z-matrix:
 Charge =  0 Multiplicity = 1

 SCF Done:  E(RHF) =  -357.297103413     A.U. after   17 cycles
 Normal termination of Gaussian 16 at Wed Apr  9 19:19:44 2025.
 Gaussian 16:  ES64L-G16RevC.01  3-Jul-2019

 ----------------------------------------------------------------------
 #t hf aug-cc-pvdz iop(5/13=1,5/36=2,99/5=2) pseudo=read geom=check gue
 ss=(read,tcheck) scf=(maxcycle=1)
 ----------------------------------------------------------------------
 -----
 title
 -----
 Structure from the checkpoint file:  "Grambow2020_wb97xd3_008639_reverse_mol1.chk"
 Charge =  0 Multiplicity = 1

                         Standard orientation:
 ---------------------------------------------------------------------
 Center     Atomic      Atomic             Coordinates (Angstroms)
 Number     Number       Type             X           Y           Z
 ---------------------------------------------------------------------
      1          7           0        1.830970    0.656119    0.783472
      2          6           0        1.525309   -0.241308   -0.020312
      3          6           0       -0.099674    1.079872   -0.644561
      4          6           0       -1.373607    1.134588   -0.123848
      5          6           0       -1.723187   -0.154737    0.144621
      6          8           0       -1.968175   -1.242020    0.347859
      7          8           0        1.510740   -1.250341   -0.614381
      8          1           0        2.631544    0.436587    1.365347
      9          1           0        0.303075    2.052419   -0.936729
     10          1           0       -2.064972    1.946567    0.083855
 ---------------------------------------------------------------------

 SCF Done:  E(RHF) =  -358.843500014     A.U. after    2 cycles

 The electronic state is 1-A.
 Alpha  occ. eigenvalues --  -21.20803 -21.08161 -15.73588 -11.61745 -11.54605
 Alpha  occ. eigenvalues --  -11.45769 -11.40811  -1.84463  -1.73747  -1.32684
 Alpha  occ. eigenvalues --   -1.23349  -0.90845  -0.76447  -0.73797  -0.67815
 Alpha  occ. eigenvalues --   -0.61627  -0.60865  -0.58712  -0.56288  -0.55281
 Alpha  occ. eigenvalues --   -0.51532  -0.39980  -0.36436  -0.32117  -0.31120
 Alpha virt. eigenvalues --    0.02909   0.05251   0.05654   0.07592   0.07936
 Alpha virt. eigenvalues --    0.10388   0.11177   0.11503   0.11740   0.12122
 Alpha virt. eigenvalues --    0.12661   0.13457   0.14089   0.14577   0.15662

 Mulliken charges:
               1
     1  N   -2.464721
     2  C    4.367455
     3  C   -2.569633
     4  C   -0.046264
     5  C    2.153930
     6  O   -2.341413
     7  O   -2.463536
     8  H    0.778364
     9  H    1.285877
    10  H    1.299941
 Sum of Mulliken charges =  -0.00000

 Dipole moment (field-independent basis, Debye):
    X=             -3.5839    Y=             -1.1128    Z=              0.6474  Tot=              3.8081

 Test job not archived.
 1\1\GINC-SE174\SP\RHF\Aug-CC-pVDZ\C4H3N1O2\OHZDE\09-Apr-2025\0\\#t hf
 aug-cc-pvdz iop(5/13=1,5/36=2,99/5=2) pseudo=read geom=check guess=(re
 ad,tcheck) scf=(maxcycle=1)\\title\\0,1\N,0,1.87095663,-0.24112091,-0.
 43418026\C,0,1.45851124,0.57865735,0.40410599\C,0,-0.30740631,-0.69905
 722,0.56144115\C,0,-1.4634381,-0.61528365,-0.18261095\C,0,-1.70340271,
 0.71532152,-0.35157065\O,0,-1.86117058,1.83170693,-0.46248593\O,0,1.37
 543929,1.51418134,1.10351518\H,0,2.77414994,-0.00891868,-0.8316911\H,0
 ,-0.00656062,-1.72146476,0.80142437\H,0,-2.13707778,-1.35402292,-0.607

 Normal termination of Gaussian 16 at Wed Apr  9 19:19:47 2025.
