 Gaussian 16, Revision C.01,

 ----------------------------------------------------------------------
 #t hf aug-cc-pvdz symm=none int=(grid=ultrafine) guess=(read,tcheck) s
 table=(opt,rrhf)
 ----------------------------------------------------------------------
 -----
 title
 -----
 Symbolic Z-matrix:
 Charge =  0 Multiplicity = 1

 SCF Done:  E(RHF) =  -264.889448117     A.U. after   17 cycles
 Normal termination of Gaussian 16 at Wed Apr  9 16:52:17 2025.
 Gaussian 16:  ES64L-G16RevC.01  3-Jul-2019

 ----------------------------------------------------------------------
 #t hf aug-cc-pvdz iop(5/13=1,5/36=2,99/5=2) pseudo=read geom=check gue
 ss=(read,tcheck) scf=(maxcycle=1)
 ----------------------------------------------------------------------
 -----
 title
 -----
 Structure from the checkpoint file:  "Grambow2020_b97d3_006847_forward_mol1.chk"
 Charge =  0 Multiplicity = 1

                         Standard orientation:
 ---------------------------------------------------------------------
 Center     Atomic      Atomic             Coordinates (Angstroms)
 Number     Number       Type             X           Y           Z
 ---------------------------------------------------------------------
      1          6           0       -2.317308   -0.409783   -0.071290
      2          7           0       -0.941495   -0.744871    0.261165
      3          6           0        0.068551   -0.191239   -0.450581
      4          6           0        0.309770    2.081444    0.120725
      5          6           0        1.400136   -0.554190   -0.114167
      6          7           0        2.510571   -0.891707    0.085948
      7          1           0       -2.583996    0.602282    0.282043
      8          1           0       -2.997330   -1.137044    0.388656
      9          1           0       -2.435624   -0.442890   -1.160120
     10          1           0       -0.777281   -1.019523    1.230892
     11          1           0       -0.035005    0.916386   -0.834876
     12          1           0        1.335671    2.334823   -0.155310
     13          1           0       -0.443373    2.771599   -0.274293
     14          1           0        0.186518    1.873017    1.185091
 ---------------------------------------------------------------------

 SCF Done:  E(RHF) =  -266.167422312     A.U. after    2 cycles

 The electronic state is 1-A.
 Alpha  occ. eigenvalues --  -15.78572 -15.76212 -11.47486 -11.43021 -11.41626
 Alpha  occ. eigenvalues --  -11.39392  -1.44790  -1.28852  -1.09375  -1.01615
 Alpha  occ. eigenvalues --   -0.92096  -0.75712  -0.66947  -0.63206  -0.59375
 Alpha  occ. eigenvalues --   -0.57483  -0.57012  -0.55797  -0.51345  -0.48377
 Alpha  occ. eigenvalues --   -0.43381  -0.39691  -0.26792
 Alpha virt. eigenvalues --    0.02859   0.04283   0.05129   0.05392   0.05811
 Alpha virt. eigenvalues --    0.06395   0.07380   0.08211   0.09330   0.10247
 Alpha virt. eigenvalues --    0.10493   0.12869   0.13657   0.13922   0.14925

 Mulliken charges:
               1
     1  C   -3.565945
     2  N   -2.483054
     3  C   -0.698250
     4  C   -4.354474
     5  C    2.384674
     6  N   -2.374376
     7  H    1.440915
     8  H    1.284837
     9  H    1.356435
    10  H    0.759016
    11  H    2.529442
    12  H    1.186687
    13  H    1.125858
    14  H    1.408235
 Sum of Mulliken charges =  -0.00000

 Dipole moment (field-independent basis, Debye):
    X=             -4.4149    Y=              0.8805    Z=              0.8234  Tot=              4.5765

 Test job not archived.
 1\1\GINC-SE125\SP\RHF\Aug-CC-pVDZ\C4H8N2\OHZDE\09-Apr-2025\0\\#t hf au
 g-cc-pvdz iop(5/13=1,5/36=2,99/5=2) pseudo=read geom=check guess=(read
 ,tcheck) scf=(maxcycle=1)\\title\\0,1\C,0,1.90751642,-0.47450967,0.352
 67393\N,0,0.83163146,0.39653302,0.79924493\C,0,-0.02955282,0.91005571,
 -0.1106667\C,0,-1.4881809,-0.77106925,-0.8826053\C,0,-1.05725611,1.773
 19952,0.3549902\N,0,-1.87187995,2.55273815,0.69519177\H,0,1.53276488,-
 1.48138182,0.09574549\H,0,2.66152058,-0.56750443,1.14369707\H,0,2.3706
 1744,-0.03553534,-0.53810392\H,0,0.51509124,0.24875957,1.7587953\H,0,-

 Normal termination of Gaussian 16 at Wed Apr  9 16:52:22 2025.
