 Gaussian 16, Revision C.01,

 ----------------------------------------------------------------------
 #t hf aug-cc-pvdz symm=none int=(grid=ultrafine) guess=(read,tcheck) s
 table=(opt,rrhf)
 ----------------------------------------------------------------------
 -----
 title
 -----
 Symbolic Z-matrix:
 Charge =  0 Multiplicity = 1

 SCF Done:  E(RHF) =  -323.841667201     A.U. after   14 cycles
 Normal termination of Gaussian 16 at Wed Apr  9 18:18:14 2025.
 Gaussian 16:  ES64L-G16RevC.01  3-Jul-2019

 ----------------------------------------------------------------------
 #t hf aug-cc-pvdz iop(5/13=1,5/36=2,99/5=2) pseudo=read geom=check gue
 ss=(read,tcheck) scf=(maxcycle=1)
 ----------------------------------------------------------------------
 -----
 title
 -----
 Structure from the checkpoint file:  "Grambow2020_wb97xd3_006864_reverse_mol2.chk"
 Charge =  0 Multiplicity = 1

                         Standard orientation:
 ---------------------------------------------------------------------
 Center     Atomic      Atomic             Coordinates (Angstroms)
 Number     Number       Type             X           Y           Z
 ---------------------------------------------------------------------
      1          6           0       -2.423376   -0.949199   -0.716777
      2          7           0       -1.347076   -0.264797   -0.029665
      3          6           0       -1.734363    0.677802    0.999394
      4          6           0       -1.206529    1.151125   -0.300344
      5          6           0        2.600215   -0.159882    0.003263
      6          8           0        3.308157    0.448430   -0.682268
      7          6           0        1.788921   -0.838814    0.768275
      8          1           0       -2.707097   -1.836493   -0.148744
      9          1           0       -2.078065   -1.266378   -1.701931
     10          1           0       -3.316054   -0.319746   -0.847973
     11          1           0       -2.796708    0.809168    1.185012
     12          1           0       -1.105259    0.699363    1.881698
     13          1           0       -1.911174    1.602270   -0.993035
     14          1           0        2.180646   -1.325104    1.648292
     15          1           0       -0.190154    1.521419   -0.371286
     16          1           0        0.738929   -0.904557    0.490900
 ---------------------------------------------------------------------

 SCF Done:  E(RHF) =  -325.353628111     A.U. after    2 cycles

 The electronic state is 1-A.
 Alpha  occ. eigenvalues --  -21.12426 -15.72532 -11.53278 -11.45156 -11.39100
 Alpha  occ. eigenvalues --  -11.38707 -11.38173  -1.76247  -1.48475  -1.11012
 Alpha  occ. eigenvalues --   -1.08297  -0.89600  -0.85923  -0.71438  -0.69643
 Alpha  occ. eigenvalues --   -0.63767  -0.62245  -0.59749  -0.57437  -0.56095
 Alpha  occ. eigenvalues --   -0.54909  -0.52430  -0.46382  -0.44028  -0.42544
 Alpha  occ. eigenvalues --   -0.33982  -0.28059
 Alpha virt. eigenvalues --    0.03749   0.04936   0.05355   0.05572   0.06217
 Alpha virt. eigenvalues --    0.06343   0.06870   0.07722   0.08734   0.10086
 Alpha virt. eigenvalues --    0.11411   0.12532   0.13083   0.13817   0.13965

 Mulliken charges:
               1
     1  C   -3.370830
     2  N   -2.077229
     3  C   -2.254447
     4  C   -2.333273
     5  C    1.726103
     6  O   -2.429532
     7  C   -2.491981
     8  H    1.401636
     9  H    1.427546
    10  H    1.358003
    11  H    1.417163
    12  H    1.447794
    13  H    1.408323
    14  H    1.267716
    15  H    1.566797
    16  H    1.936211
 Sum of Mulliken charges =  -0.00000

 Dipole moment (field-independent basis, Debye):
    X=             -1.2247    Y=              0.5880    Z=             -0.3262  Tot=              1.3972

 Test job not archived.
 1\1\GINC-SE340\SP\RHF\Aug-CC-pVDZ\C5H9N1O1\OHZDE\09-Apr-2025\0\\#t hf
 aug-cc-pvdz iop(5/13=1,5/36=2,99/5=2) pseudo=read geom=check guess=(re
 ad,tcheck) scf=(maxcycle=1)\\title\\0,1\C,0,1.23353151,0.06120517,-1.8
 0739319\N,0,0.59107668,-0.00385478,-0.51048629\C,0,1.42886409,-0.38856
 107,0.60645532\C,0,0.42064024,-1.32452982,0.05927184\C,0,-2.95166932,0
 .62876182,1.11491965\O,0,-3.852793,-0.09597133,1.17750616\C,0,-1.92687
 74,1.4337905,1.03669413\H,0,1.6873329,1.04506403,-1.93598923\H,0,0.484
 29571,-0.07758777,-2.58826052\H,0,2.01508699,-0.70217651,-1.93669179\H

 Normal termination of Gaussian 16 at Wed Apr  9 18:18:18 2025.
