 Gaussian 16, Revision C.01,

 ----------------------------------------------------------------------
 #t hf aug-cc-pvdz symm=none int=(grid=ultrafine) guess=(read,tcheck) s
 table=(opt,rrhf)
 ----------------------------------------------------------------------
 -----
 title
 -----
 Symbolic Z-matrix:
 Charge =  0 Multiplicity = 1

 SCF Done:  E(RHF) =  -344.734264932     A.U. after   17 cycles

 1\1\GINC-SE247\Stability\RHF\Aug-CC-pVDZ\C5H10O2\OHZDE\09-Apr-2025\0\\
 #t hf aug-cc-pvdz symm=none int=(grid=ultrafine) guess=(read,tcheck) s
 table=(opt,rrhf)\\title\\0,1\C,0,-2.37108712,-0.5132304,-0.23795889\C,
 0,-1.15224942,0.34168817,-0.55556356\C,0,0.14482361,-0.2889931,-0.0628
 1093\O,0,0.30130362,-1.51598241,-0.72325632\C,0,1.29513213,0.67776302,
 -0.35291008\C,0,2.9148757,0.82698176,0.41044532\O,0,2.54382788,-0.3958
 1953,0.23926044\H,0,-3.28208923,-0.04079633,-0.60796046\H,0,-2.2840058
 ,-1.49605298,-0.70019279\H,0,-2.48099703,-0.65554742,0.83975299\H,0,-1

 Normal termination of Gaussian 16 at Wed Apr  9 03:45:50 2025.
 Gaussian 16:  ES64L-G16RevC.01  3-Jul-2019

 ----------------------------------------------------------------------
 #t hf aug-cc-pvdz iop(5/13=1,5/36=2,99/5=2) pseudo=read geom=check gue
 ss=(read,tcheck) scf=(maxcycle=1)
 ----------------------------------------------------------------------
 -----
 title
 -----
 Structure from the checkpoint file:  "Grambow2020_wb97xd3_007828_reverse_mol1.chk"
 Charge =  0 Multiplicity = 1

                         Standard orientation:
 ---------------------------------------------------------------------
 Center     Atomic      Atomic             Coordinates (Angstroms)
 Number     Number       Type             X           Y           Z
 ---------------------------------------------------------------------
      1          6           0        2.802999   -0.136656    0.332886
      2          6           0        1.522984   -0.703213   -0.265360
      3          6           0        0.284729    0.070701    0.171384
      4          8           0        0.421476    1.389187   -0.285859
      5          6           0       -0.950025   -0.620972   -0.410815
      6          6           0       -2.665988   -0.587551    0.121067
      7          8           0       -2.085266    0.560555    0.203764
      8          1           0        3.671478   -0.705384   -0.002249
      9          1           0        2.940263    0.902806    0.036475
     10          1           0        2.777287   -0.175871    1.424489
     11          1           0        1.577120   -0.678476   -1.358224
     12          1           0        1.405495   -1.750406    0.029349
     13          1           0        0.211418    0.039951    1.268300
     14          1           0       -0.398996    1.852508   -0.098738
     15          1           0       -0.965400   -1.644283   -0.005824
     16          1           0       -1.024236   -0.577575   -1.489204
     17          1           0       -2.852307   -0.995059    1.157412
 ---------------------------------------------------------------------

 SCF Done:  E(RHF) =  -346.319939491     A.U. after    2 cycles

 The electronic state is 1-A.
 Alpha  occ. eigenvalues --  -21.10580 -21.07136 -11.51085 -11.46303 -11.42316
 Alpha  occ. eigenvalues --  -11.40692 -11.36509  -1.78544  -1.71683  -1.21973
 Alpha  occ. eigenvalues --   -1.08751  -0.94195  -0.86242  -0.82363  -0.70833
 Alpha  occ. eigenvalues --   -0.64667  -0.61952  -0.60163  -0.56487  -0.54741
 Alpha  occ. eigenvalues --   -0.53729  -0.48963  -0.48378  -0.46024  -0.43798
 Alpha  occ. eigenvalues --   -0.40041  -0.32904  -0.25067
 Alpha virt. eigenvalues --    0.03940   0.04620   0.04901   0.05633   0.05758
 Alpha virt. eigenvalues --    0.06456   0.06831   0.07354   0.08537   0.09077
 Alpha virt. eigenvalues --    0.09951   0.11003   0.11596   0.12950   0.13930

 Mulliken charges:
               1
     1  C   -3.991136
     2  C   -2.799724
     3  C    1.056585
     4  O   -3.139617
     5  C   -2.189400
     6  C   -0.780137
     7  O   -1.540706
     8  H    1.061327
     9  H    1.346936
    10  H    1.273462
    11  H    1.417210
    12  H    1.388871
    13  H    1.925892
    14  H    0.801835
    15  H    1.508979
    16  H    1.463877
    17  H    1.195746
 Sum of Mulliken charges =  -0.00000

 Dipole moment (field-independent basis, Debye):
    X=              2.2047    Y=              0.5446    Z=              0.6901  Tot=              2.3735

 Test job not archived.
 1\1\GINC-SE247\SP\RHF\Aug-CC-pVDZ\C5H10O2\OHZDE\09-Apr-2025\0\\#t hf a
 ug-cc-pvdz iop(5/13=1,5/36=2,99/5=2) pseudo=read geom=check guess=(rea
 d,tcheck) scf=(maxcycle=1)\\title\\0,1\C,0,-2.37108712,-0.5132304,-0.2
 3795889\C,0,-1.15224942,0.34168817,-0.55556356\C,0,0.14482361,-0.28899
 31,-0.06281093\O,0,0.30130362,-1.51598241,-0.72325632\C,0,1.29513213,0
 .67776302,-0.35291008\C,0,2.9148757,0.82698176,0.41044532\O,0,2.543827
 88,-0.39581953,0.23926044\H,0,-3.28208923,-0.04079633,-0.60796046\H,0,
 -2.2840058,-1.49605298,-0.70019279\H,0,-2.48099703,-0.65554742,0.83975

 Normal termination of Gaussian 16 at Wed Apr  9 03:45:55 2025.
