 Gaussian 16, Revision C.01,

 ----------------------------------------------------------------------
 #t hf aug-cc-pvdz symm=none int=(grid=ultrafine) guess=(read,tcheck) s
 table=(opt,rrhf)
 ----------------------------------------------------------------------
 -----
 title
 -----
 Symbolic Z-matrix:
 Charge =  0 Multiplicity = 1

 SCF Done:  E(RHF) =  -262.497601811     A.U. after   18 cycles
 Normal termination of Gaussian 16 at Wed Apr  9 17:00:58 2025.
 Gaussian 16:  ES64L-G16RevC.01  3-Jul-2019

 ----------------------------------------------------------------------
 #t hf aug-cc-pvdz iop(5/13=1,5/36=2,99/5=2) pseudo=read geom=check gue
 ss=(read,tcheck) scf=(maxcycle=1)
 ----------------------------------------------------------------------
 -----
 title
 -----
 Structure from the checkpoint file:  "Grambow2020_b97d3_006903_forward_mol1.chk"
 Charge =  0 Multiplicity = 1

                         Standard orientation:
 ---------------------------------------------------------------------
 Center     Atomic      Atomic             Coordinates (Angstroms)
 Number     Number       Type             X           Y           Z
 ---------------------------------------------------------------------
      1          6           0       -1.218282    0.628871   -0.160600
      2          6           0       -1.065390   -0.790905    0.157069
      3          7           0        0.135891   -1.310829   -0.005054
      4          7           0        1.232041   -0.627055   -0.242930
      5          6           0        1.176367    0.693839    0.189141
      6          6           0       -0.001989    1.362882   -0.082830
      7          1           0       -2.060985    1.021648   -0.740353
      8          1           0       -1.840188   -1.429170    0.579263
      9          1           0        2.117565    1.152471    0.488281
     10          1           0       -1.136158    1.452112    0.792014
 ---------------------------------------------------------------------

 SCF Done:  E(RHF) =  -263.705855902     A.U. after    2 cycles

 The electronic state is 1-A.
 Alpha  occ. eigenvalues --  -15.79713 -15.79145 -11.48904 -11.45346 -11.44875
 Alpha  occ. eigenvalues --  -11.40388  -1.56989  -1.24253  -1.20636  -0.95162
 Alpha  occ. eigenvalues --   -0.88168  -0.72994  -0.68743  -0.65169  -0.62832
 Alpha  occ. eigenvalues --   -0.57331  -0.48340  -0.44930  -0.40128  -0.34443
 Alpha  occ. eigenvalues --   -0.31111
 Alpha virt. eigenvalues --    0.02493   0.04980   0.05328   0.05848   0.06101
 Alpha virt. eigenvalues --    0.08912   0.09802   0.11083   0.11531   0.12133
 Alpha virt. eigenvalues --    0.13002   0.13490   0.14022   0.14630   0.15678

 Mulliken charges:
               1
     1  C   -1.297325
     2  C   -0.467715
     3  N   -1.664486
     4  N   -1.542959
     5  C   -0.514056
     6  C   -0.129220
     7  H    1.310625
     8  H    1.381172
     9  H    1.409075
    10  H    1.514890
 Sum of Mulliken charges =  -0.00000

 Dipole moment (field-independent basis, Debye):
    X=             -2.4097    Y=              0.1895    Z=              1.1639  Tot=              2.6828

 Test job not archived.
 1\1\GINC-SE163\SP\RHF\Aug-CC-pVDZ\C4H4N2\OHZDE\09-Apr-2025\0\\#t hf au
 g-cc-pvdz iop(5/13=1,5/36=2,99/5=2) pseudo=read geom=check guess=(read
 ,tcheck) scf=(maxcycle=1)\\title\\0,1\C,0,0.53457265,0.92049903,0.1027
 2282\C,0,1.22519171,-0.31798371,-0.25680578\N,0,0.6372488,-1.44795569,
 0.08549127\N,0,-0.58811664,-1.55554421,0.54655717\C,0,-1.42150125,-0.5
 0377882,0.18076246\C,0,-0.8681831,0.75902699,0.27704919\H,0,1.04788827
 ,1.78109514,0.54591359\H,0,2.14232972,-0.38143266,-0.84056382\H,0,-2.4
 8113054,-0.73111815,0.07501509\H,0,-0.19162562,1.46011108,-0.77670799\

 Normal termination of Gaussian 16 at Wed Apr  9 17:01:01 2025.
