 Gaussian 16, Revision C.01,

 ----------------------------------------------------------------------
 #t hf aug-cc-pvdz symm=none int=(grid=ultrafine) guess=(read,tcheck) s
 table=(opt,rrhf)
 ----------------------------------------------------------------------
 -----
 title
 -----
 Symbolic Z-matrix:
 Charge =  0 Multiplicity = 1

 SCF Done:  E(RHF) =  -358.418616954     A.U. after   17 cycles
 Normal termination of Gaussian 16 at Wed Apr  9 18:12:56 2025.
 Gaussian 16:  ES64L-G16RevC.01  3-Jul-2019

 ----------------------------------------------------------------------
 #t hf aug-cc-pvdz iop(5/13=1,5/36=2,99/5=2) pseudo=read geom=check gue
 ss=(read,tcheck) scf=(maxcycle=1)
 ----------------------------------------------------------------------
 -----
 title
 -----
 Structure from the checkpoint file:  "Grambow2020_wb97xd3_006775_reverse_mol1.chk"
 Charge =  0 Multiplicity = 1

                         Standard orientation:
 ---------------------------------------------------------------------
 Center     Atomic      Atomic             Coordinates (Angstroms)
 Number     Number       Type             X           Y           Z
 ---------------------------------------------------------------------
      1          8           0       -2.961592   -0.227131    0.092711
      2          6           0       -1.802416   -0.441856   -0.105320
      3          6           0       -0.751245    0.652440   -0.097723
      4          6           0        0.586448    0.292736    0.757932
      5          7           0        0.360066    0.549307   -0.836727
      6          6           0        1.719931   -0.532955   -0.003242
      7          8           0        2.838900   -0.139805   -0.057837
      8          1           0       -1.415695   -1.449543   -0.371219
      9          1           0       -1.143552    1.632036    0.209354
     10          1           0        0.165462   -0.512661    1.371527
     11          1           0        0.950254    1.145538    1.316122
     12          1           0        1.388299   -1.547227   -0.257574
 ---------------------------------------------------------------------

 SCF Done:  E(RHF) =  -359.982895486     A.U. after    2 cycles

 The electronic state is 1-A.
 Alpha  occ. eigenvalues --  -21.10261 -21.07144 -15.76311 -11.54840 -11.53072
 Alpha  occ. eigenvalues --  -11.50454 -11.46378  -1.75165  -1.73405  -1.47839
 Alpha  occ. eigenvalues --   -1.06678  -0.99603  -0.89579  -0.81888  -0.70539
 Alpha  occ. eigenvalues --   -0.67566  -0.60247  -0.58730  -0.57351  -0.54929
 Alpha  occ. eigenvalues --   -0.52644  -0.48036  -0.40147  -0.35997  -0.31573
 Alpha  occ. eigenvalues --   -0.30634
 Alpha virt. eigenvalues --    0.03307   0.04944   0.05053   0.05902   0.06051
 Alpha virt. eigenvalues --    0.09263   0.09609   0.10875   0.11206   0.11429
 Alpha virt. eigenvalues --    0.12184   0.12496   0.13276   0.13832   0.14327

 Mulliken charges:
               1
     1  O   -2.902430
     2  C    2.007335
     3  C   -0.321112
     4  C   -3.117310
     5  N   -2.058820
     6  C    2.052823
     7  O   -2.955769
     8  H    1.382853
     9  H    1.585693
    10  H    1.912408
    11  H    1.167499
    12  H    1.246832
 Sum of Mulliken charges =   0.00000

 Dipole moment (field-independent basis, Debye):
    X=             -0.7650    Y=             -0.4360    Z=              1.6208  Tot=              1.8445

 Test job not archived.
 1\1\GINC-SE362\SP\RHF\Aug-CC-pVDZ\C4H5N1O2\OHZDE\09-Apr-2025\0\\#t hf
 aug-cc-pvdz iop(5/13=1,5/36=2,99/5=2) pseudo=read geom=check guess=(re
 ad,tcheck) scf=(maxcycle=1)\\title\\0,1\O,0,2.94015537,0.00727857,-0.3
 7270859\C,0,1.80286969,-0.35587985,-0.31180059\C,0,0.78978941,0.270332
 13,0.62842734\C,0,-0.64162679,0.62103846,-0.06367561\N,0,-0.23890349,-
 0.43878916,1.10875428\C,0,-1.71140866,-0.56100936,-0.1289904\O,0,-2.80
 601829,-0.42821493,0.31127488\H,0,1.41702484,-1.22044443,-0.89432943\H
 ,0,1.17596045,1.14950343,1.16297196\H,0,-0.31256614,0.61724794,-1.1096

 Normal termination of Gaussian 16 at Wed Apr  9 18:13:00 2025.
