 Gaussian 16, Revision C.01,

 ----------------------------------------------------------------------
 #t hf aug-cc-pvdz symm=none int=(grid=ultrafine) guess=(read,tcheck) s
 table=(opt,rrhf)
 ----------------------------------------------------------------------
 -----
 title
 -----
 Symbolic Z-matrix:
 Charge =  0 Multiplicity = 1

 SCF Done:  E(RHF) =  -320.213798290     A.U. after   17 cycles
 Normal termination of Gaussian 16 at Wed Apr  9 19:33:32 2025.
 Gaussian 16:  ES64L-G16RevC.01  3-Jul-2019

 ----------------------------------------------------------------------
 #t hf aug-cc-pvdz iop(5/13=1,5/36=2,99/5=2) pseudo=read geom=check gue
 ss=(read,tcheck) scf=(maxcycle=1)
 ----------------------------------------------------------------------
 -----
 title
 -----
 Structure from the checkpoint file:  "Grambow2020_wb97xd3_009379_forward_mol1.chk"
 Charge =  0 Multiplicity = 1

                         Standard orientation:
 ---------------------------------------------------------------------
 Center     Atomic      Atomic             Coordinates (Angstroms)
 Number     Number       Type             X           Y           Z
 ---------------------------------------------------------------------
      1          8           0       -1.390512   -1.489099   -0.275654
      2          6           0       -0.695878   -0.473679    0.025747
      3          6           0        0.642338   -0.856135    0.302831
      4          6           0        1.777678   -0.034004    0.050720
      5          6           0        2.732825    0.647844   -0.193848
      6          6           0       -1.277709    0.843547    0.034553
      7          7           0       -1.718136    1.902691    0.052120
      8          1           0       -0.184229   -1.947086   -0.269869
      9          1           0        0.679710   -1.479847    1.198346
     10          1           0        3.580038    1.255450   -0.408097
 ---------------------------------------------------------------------

 SCF Done:  E(RHF) =  -321.654297586     A.U. after    2 cycles

 The electronic state is 1-A.
 Alpha  occ. eigenvalues --  -21.13216 -15.82110 -11.59744 -11.48058 -11.46297
 Alpha  occ. eigenvalues --  -11.41946 -11.41702  -1.82187  -1.35612  -1.21886
 Alpha  occ. eigenvalues --   -1.07022  -0.99045  -0.80799  -0.70710  -0.66269
 Alpha  occ. eigenvalues --   -0.62543  -0.59848  -0.55551  -0.50597  -0.48258
 Alpha  occ. eigenvalues --   -0.44207  -0.42606  -0.38713  -0.29710
 Alpha virt. eigenvalues --    0.02723   0.04336   0.04954   0.06926   0.08337
 Alpha virt. eigenvalues --    0.09128   0.09714   0.10409   0.11432   0.11522
 Alpha virt. eigenvalues --    0.12212   0.12379   0.13680   0.14488   0.14883

 Mulliken charges:
               1
     1  O   -2.916829
     2  C    3.730666
     3  C   -2.290221
     4  C    3.152452
     5  C   -3.618120
     6  C    1.439736
     7  N   -2.521219
     8  H    1.246139
     9  H    1.027679
    10  H    0.749715
 Sum of Mulliken charges =  -0.00000

 Dipole moment (field-independent basis, Debye):
    X=             -0.0834    Y=             -1.8625    Z=              0.0601  Tot=              1.8654

 Test job not archived.
 1\1\GINC-SE138\SP\RHF\Aug-CC-pVDZ\C5H3N1O1\OHZDE\09-Apr-2025\0\\#t hf
 aug-cc-pvdz iop(5/13=1,5/36=2,99/5=2) pseudo=read geom=check guess=(re
 ad,tcheck) scf=(maxcycle=1)\\title\\0,1\O,0,-1.9716524,-0.3363006,-1.0
 5300887\C,0,-1.06578514,0.22794666,-0.37075869\C,0,-0.17315645,-0.7393
 5318,0.15972655\C,0,1.2118083,-0.50540522,0.39551746\C,0,2.38367389,-0
 .31487106,0.56123829\C,0,-1.02769077,1.66101646,-0.2345657\N,0,-0.9771
 7521,2.80009535,-0.10799521\H,0,-1.13271663,-1.2906153,-0.82856785\H,0
 ,-0.69061122,-1.37696519,0.87948421\H,0,3.42337562,-0.1435739,0.711355

 Normal termination of Gaussian 16 at Wed Apr  9 19:33:36 2025.
