 Gaussian 16, Revision C.01,

 ----------------------------------------------------------------------
 #t hf aug-cc-pvdz symm=none int=(grid=ultrafine) guess=(read,tcheck) s
 table=(opt,rrhf)
 ----------------------------------------------------------------------
 -----
 title
 -----
 Symbolic Z-matrix:
 Charge =  0 Multiplicity = 1

 SCF Done:  E(RHF) =  -232.900943741     A.U. after   15 cycles
 Normal termination of Gaussian 16 at Wed Apr  9 03:07:58 2025.
 Gaussian 16:  ES64L-G16RevC.01  3-Jul-2019

 ----------------------------------------------------------------------
 #t hf aug-cc-pvdz iop(5/13=1,5/36=2,99/5=2) pseudo=read geom=check gue
 ss=(read,tcheck) scf=(maxcycle=1)
 ----------------------------------------------------------------------
 -----
 title
 -----
 Structure from the checkpoint file:  "Grambow2020_b97d3_006589_reverse_mol2.chk"
 Charge =  0 Multiplicity = 1

                         Standard orientation:
 ---------------------------------------------------------------------
 Center     Atomic      Atomic             Coordinates (Angstroms)
 Number     Number       Type             X           Y           Z
 ---------------------------------------------------------------------
      1          6           0        1.078365   -0.908503   -0.686349
      2          6           0        1.623860   -0.312991    0.563881
      3          6           0        0.258261    0.223662   -0.065299
      4          6           0       -1.028229   -0.162946    0.659939
      5          6           0       -2.226390   -0.069792   -0.294891
      6          6           0        0.625018    1.599694   -0.160528
      7          1           0        0.647167   -1.909495   -0.623137
      8          1           0        1.611202   -0.688355   -1.610902
      9          1           0        2.525485    0.295538    0.522270
     10          1           0        1.448290   -0.794029    1.525318
     11          1           0       -1.167153    0.528755    1.502059
     12          1           0       -0.952805   -1.184023    1.067958
     13          1           0       -3.163433   -0.323696    0.219915
     14          1           0       -2.108091   -0.754150   -1.147866
     15          1           0       -2.314390    0.952887   -0.687802
     16          1           0        1.488425    1.661831   -0.868322
 ---------------------------------------------------------------------

 SCF Done:  E(RHF) =  -234.069828671     A.U. after    2 cycles

 The electronic state is 1-A.
 Alpha  occ. eigenvalues --  -11.46476 -11.44506 -11.40748 -11.39731 -11.37925
 Alpha  occ. eigenvalues --  -11.35705  -1.36561  -1.13590  -0.98046  -0.90165
 Alpha  occ. eigenvalues --   -0.87898  -0.74826  -0.65508  -0.63712  -0.60455
 Alpha  occ. eigenvalues --   -0.55201  -0.52973  -0.50327  -0.49069  -0.45253
 Alpha  occ. eigenvalues --   -0.42758  -0.38746  -0.31297
 Alpha virt. eigenvalues --    0.03936   0.05117   0.05242   0.05323   0.05481
 Alpha virt. eigenvalues --    0.06174   0.06476   0.06875   0.07646   0.08924
 Alpha virt. eigenvalues --    0.10726   0.11865   0.12212   0.13043   0.13311

 Mulliken charges:
               1
     1  C   -2.745916
     2  C   -2.444420
     3  C    2.750539
     4  C   -3.440682
     5  C   -3.881621
     6  C   -3.089861
     7  H    1.417760
     8  H    1.194111
     9  H    1.266824
    10  H    1.301501
    11  H    1.370977
    12  H    1.396753
    13  H    1.118923
    14  H    1.321186
    15  H    1.359361
    16  H    1.104564
 Sum of Mulliken charges =   0.00000

 Dipole moment (field-independent basis, Debye):
    X=              1.0341    Y=             -3.1012    Z=             -0.3290  Tot=              3.2856

 Test job not archived.
 1\1\GINC-SE365\SP\RHF\Aug-CC-pVDZ\C6H10\OHZDE\09-Apr-2025\0\\#t hf aug
 -cc-pvdz iop(5/13=1,5/36=2,99/5=2) pseudo=read geom=check guess=(read,
 tcheck) scf=(maxcycle=1)\\title\\0,1\C,0,-1.21044207,0.42745653,0.8990
 875\C,0,-1.76612829,0.00067914,-0.41405675\C,0,-0.21438685,0.3423198,-
 0.2587967\C,0,0.75088465,-0.84035492,-0.26363973\C,0,2.0713352,-0.4527
 8171,0.41618639\C,0,-0.13397559,1.31935987,-1.29608672\H,0,-1.11355028
 ,-0.33167996,1.67769936\H,0,-1.48252282,1.42248113,1.24990994\H,0,-2.4
 2474275,0.6705952,-0.9639719\H,0,-1.91323836,-1.05629472,-0.63257146\H

 Normal termination of Gaussian 16 at Wed Apr  9 03:08:02 2025.
