 Gaussian 16, Revision C.01,

 ----------------------------------------------------------------------
 #t hf aug-cc-pvdz symm=none int=(grid=ultrafine) guess=(read,tcheck) s
 table=(opt,rrhf)
 ----------------------------------------------------------------------
 -----
 title
 -----
 Symbolic Z-matrix:
 Charge =  0 Multiplicity = 1

 SCF Done:  E(RHF) =  -302.179125559     A.U. after   16 cycles
 Normal termination of Gaussian 16 at Wed Apr  9 16:04:36 2025.
 Gaussian 16:  ES64L-G16RevC.01  3-Jul-2019

 ----------------------------------------------------------------------
 #t hf aug-cc-pvdz iop(5/13=1,5/36=2,99/5=2) pseudo=read geom=check gue
 ss=(read,tcheck) scf=(maxcycle=1)
 ----------------------------------------------------------------------
 -----
 title
 -----
 Structure from the checkpoint file:  "Grambow2020_b97d3_006716_reverse_mol2.chk"
 Charge =  0 Multiplicity = 1

                         Standard orientation:
 ---------------------------------------------------------------------
 Center     Atomic      Atomic             Coordinates (Angstroms)
 Number     Number       Type             X           Y           Z
 ---------------------------------------------------------------------
      1          8           0       -2.857023   -0.395515    0.067851
      2          6           0       -1.969666    0.438573   -0.029637
      3          6           0       -0.555460    0.118013   -0.034290
      4          6           0        0.645591   -0.091785   -0.035012
      5          6           0        2.876973    0.477485    0.097905
      6          8           0        1.909457   -0.478537   -0.055041
      7          1           0       -2.184285    1.525859   -0.123492
      8          1           0        3.780183   -0.187152    0.027229
 ---------------------------------------------------------------------

 SCF Done:  E(RHF) =  -303.439444760     A.U. after    2 cycles

 The electronic state is 1-A.
 Alpha  occ. eigenvalues --  -21.20498 -21.08475 -11.53577 -11.50122 -11.48558
 Alpha  occ. eigenvalues --  -11.43722  -1.88683  -1.71767  -1.14769  -0.98727
 Alpha  occ. eigenvalues --   -0.89656  -0.71814  -0.66003  -0.64077  -0.58808
 Alpha  occ. eigenvalues --   -0.54842  -0.49166  -0.41511  -0.37071  -0.35746
 Alpha  occ. eigenvalues --   -0.32158
 Alpha virt. eigenvalues --    0.02666   0.03523   0.04970   0.08168   0.09696
 Alpha virt. eigenvalues --    0.10131   0.10671   0.11417   0.11702   0.12067
 Alpha virt. eigenvalues --    0.14256   0.14560   0.15531   0.16316   0.17457

 Mulliken charges:
               1
     1  O   -2.505024
     2  C    0.702864
     3  C    1.254926
     4  C    2.594950
     5  C   -1.513168
     6  O   -3.314792
     7  H    1.125540
     8  H    1.654704
 Sum of Mulliken charges =  -0.00000

 Dipole moment (field-independent basis, Debye):
    X=              0.7561    Y=             -0.9670    Z=             -0.3113  Tot=              1.2663

 Test job not archived.
 1\1\GINC-SE138\SP\RHF\Aug-CC-pVDZ\C4H2O2\OHZDE\09-Apr-2025\0\\#t hf au
 g-cc-pvdz iop(5/13=1,5/36=2,99/5=2) pseudo=read geom=check guess=(read
 ,tcheck) scf=(maxcycle=1)\\title\\0,1\O,0,-2.92392806,-0.93978039,0.17
 181176\C,0,-1.8649142,-1.02816079,-0.4309226\C,0,-0.66042074,-0.311557
 68,-0.05885521\C,0,0.37797259,0.27169351,0.20209488\C,0,2.51742047,1.0
 3348628,-0.20192965\O,0,1.43302219,0.94430188,0.62848106\H,0,-1.743568
 08,-1.67645116,-1.32649829\H,0,3.18692283,1.64283535,0.46364306\\Versi
 on=ES64L-G16RevC.01\State=1-A\HF=-303.4394448\RMSD=7.348e-01\Dipole=0.

 Normal termination of Gaussian 16 at Wed Apr  9 16:04:39 2025.
