 Gaussian 16, Revision C.01,

 ----------------------------------------------------------------------
 #t hf aug-cc-pvdz symm=none int=(grid=ultrafine) guess=(read,tcheck) s
 table=(opt,rrhf)
 ----------------------------------------------------------------------
 -----
 title
 -----
 Symbolic Z-matrix:
 Charge =  0 Multiplicity = 1

 SCF Done:  E(RHF) =  -307.641351465     A.U. after   15 cycles

 1\1\GINC-SE029\Stability\RHF\Aug-CC-pVDZ\C6H10O1\OHZDE\09-Apr-2025\0\\
 #t hf aug-cc-pvdz symm=none int=(grid=ultrafine) guess=(read,tcheck) s
 table=(opt,rrhf)\\title\\0,1\C,0,1.89267896,-0.72274896,0.25778039\C,0
 ,0.75819442,0.1984796,0.65054201\C,0,0.23608387,1.2483202,-0.39539885\
 C,0,-1.1801716,0.92413443,0.11508118\O,0,-2.22187219,0.04521223,-0.588
 03894\C,0,-1.13333071,-0.99265777,-0.59966859\C,0,-0.69739036,-0.36641
 62,0.74083563\H,0,2.04669321,-1.48453808,1.02485907\H,0,2.82997756,-0.
 17469991,0.13506824\H,0,1.68509076,-1.23796634,-0.68413817\H,0,1.01196

 Normal termination of Gaussian 16 at Wed Apr  9 19:16:16 2025.
 Gaussian 16:  ES64L-G16RevC.01  3-Jul-2019

 ----------------------------------------------------------------------
 #t hf aug-cc-pvdz iop(5/13=1,5/36=2,99/5=2) pseudo=read geom=check gue
 ss=(read,tcheck) scf=(maxcycle=1)
 ----------------------------------------------------------------------
 -----
 title
 -----
 Structure from the checkpoint file:  "Grambow2020_wb97xd3_008505_reverse_mol1.chk"
 Charge =  0 Multiplicity = 1

                         Standard orientation:
 ---------------------------------------------------------------------
 Center     Atomic      Atomic             Coordinates (Angstroms)
 Number     Number       Type             X           Y           Z
 ---------------------------------------------------------------------
      1          6           0       -2.257011   -0.580123    0.106683
      2          6           0       -1.145606    0.298683   -0.424783
      3          6           0       -0.347879    1.204974    0.580715
      4          6           0        0.912908    0.840016   -0.224697
      5          8           0        1.992739   -0.169693    0.183316
      6          6           0        0.843819   -1.130157    0.323755
      7          6           0        0.213784   -0.348891   -0.847507
      8          1           0       -2.617497   -1.251694   -0.675299
      9          1           0       -3.104692    0.013587    0.457239
     10          1           0       -1.917139   -1.197278    0.942960
     11          1           0       -1.528847    0.915122   -1.241790
     12          1           0       -0.566539    2.273847    0.572414
     13          1           0       -0.382360    0.867158    1.614898
     14          1           0        1.405211    1.642610   -0.771413
     15          1           0        0.454204   -1.010167    1.336502
     16          1           0        1.189479   -2.150843    0.170521
     17          1           0        1.806171   -0.451807   -0.957554
 ---------------------------------------------------------------------

 SCF Done:  E(RHF) =  -309.171768493     A.U. after    2 cycles

 The electronic state is 1-A.
 Alpha  occ. eigenvalues --  -21.11803 -11.50827 -11.47002 -11.42372 -11.39340
 Alpha  occ. eigenvalues --  -11.36735 -11.33101  -1.84243  -1.30689  -1.06840
 Alpha  occ. eigenvalues --   -1.02361  -0.93317  -0.86134  -0.76269  -0.73408
 Alpha  occ. eigenvalues --   -0.61669  -0.60803  -0.58579  -0.54703  -0.52531
 Alpha  occ. eigenvalues --   -0.51060  -0.47590  -0.46892  -0.42187  -0.39812
 Alpha  occ. eigenvalues --   -0.32387  -0.26099
 Alpha virt. eigenvalues --    0.03960   0.04939   0.05238   0.05372   0.05688
 Alpha virt. eigenvalues --    0.06259   0.06341   0.06725   0.07936   0.08843
 Alpha virt. eigenvalues --    0.11020   0.11779   0.12716   0.13682   0.14505

 Mulliken charges:
               1
     1  C   -4.411426
     2  C    0.065236
     3  C   -3.038107
     4  C    0.514001
     5  O   -2.755394
     6  C   -1.716496
     7  C   -1.507367
     8  H    1.221412
     9  H    1.197493
    10  H    1.211312
    11  H    1.321301
    12  H    1.256992
    13  H    1.269000
    14  H    1.462361
    15  H    1.800749
    16  H    1.154294
    17  H    0.954639
 Sum of Mulliken charges =   0.00000

 Dipole moment (field-independent basis, Debye):
    X=              1.0517    Y=              0.8955    Z=              2.3501  Tot=              2.7260

 Test job not archived.
 1\1\GINC-SE029\SP\RHF\Aug-CC-pVDZ\C6H10O1\OHZDE\09-Apr-2025\0\\#t hf a
 ug-cc-pvdz iop(5/13=1,5/36=2,99/5=2) pseudo=read geom=check guess=(rea
 d,tcheck) scf=(maxcycle=1)\\title\\0,1\C,0,1.89267896,-0.72274896,0.25
 778039\C,0,0.75819442,0.1984796,0.65054201\C,0,0.23608387,1.2483202,-0
 .39539885\C,0,-1.1801716,0.92413443,0.11508118\O,0,-2.22187219,0.04521
 223,-0.58803894\C,0,-1.13333071,-0.99265777,-0.59966859\C,0,-0.6973903
 6,-0.3664162,0.74083563\H,0,2.04669321,-1.48453808,1.02485907\H,0,2.82
 997756,-0.17469991,0.13506824\H,0,1.68509076,-1.23796634,-0.68413817\H

 Normal termination of Gaussian 16 at Wed Apr  9 19:16:22 2025.
