 Gaussian 16, Revision C.01,

 ----------------------------------------------------------------------
 #t hf aug-cc-pvdz symm=none int=(grid=ultrafine) guess=(read,tcheck) s
 table=(opt,rrhf)
 ----------------------------------------------------------------------
 -----
 title
 -----
 Symbolic Z-matrix:
 Charge =  0 Multiplicity = 1

 SCF Done:  E(RHF) =  -289.121143455     A.U. after   14 cycles

 1\1\GINC-SE037\Stability\RHF\Aug-CC-pVDZ\C6H13N1\OHZDE\09-Apr-2025\0\\
 #t hf aug-cc-pvdz symm=none int=(grid=ultrafine) guess=(read,tcheck) s
 table=(opt,rrhf)\\title\\0,1\C,0,-1.11579086,1.83597959,0.66698891\C,0
 ,-0.41083317,0.50706212,0.74267385\N,0,-0.02711763,-0.20388532,-0.5057
 4476\C,0,-0.40915496,-1.60998731,-0.62270962\C,0,1.03256392,0.33032271
 ,0.49661402\C,0,1.71635538,-0.75528886,1.28543569\C,0,-0.08870139,0.48
 956161,-1.78812769\H,0,-2.13050263,1.75187428,0.26748898\H,0,-1.191744
 12,2.2347684,1.68064818\H,0,-0.54668174,2.55364533,0.07855716\H,0,-0.9

 Normal termination of Gaussian 16 at Wed Apr  9 19:31:41 2025.
 Gaussian 16:  ES64L-G16RevC.01  3-Jul-2019

 ----------------------------------------------------------------------
 #t hf aug-cc-pvdz iop(5/13=1,5/36=2,99/5=2) pseudo=read geom=check gue
 ss=(read,tcheck) scf=(maxcycle=1)
 ----------------------------------------------------------------------
 -----
 title
 -----
 Structure from the checkpoint file:  "Grambow2020_wb97xd3_009128_reverse_mol2.chk"
 Charge =  0 Multiplicity = 1

                         Standard orientation:
 ---------------------------------------------------------------------
 Center     Atomic      Atomic             Coordinates (Angstroms)
 Number     Number       Type             X           Y           Z
 ---------------------------------------------------------------------
      1          6           0        1.882659   -1.172042    0.294369
      2          6           0        0.442827   -0.755380    0.442669
      3          7           0        0.003209    0.583946   -0.030803
      4          6           0       -0.767588    1.406037    0.900216
      5          6           0       -0.521508   -0.729586   -0.672934
      6          6           0       -1.953647   -1.039727   -0.324865
      7          6           0        0.886859    1.387145   -0.869373
      8          1           0        2.555351   -0.597533    0.937594
      9          1           0        1.961237   -2.221028    0.587216
     10          1           0        2.211729   -1.099397   -0.740821
     11          1           0        0.077227   -0.903119    1.467397
     12          1           0       -1.411783    2.079914    0.332483
     13          1           0       -1.386143    0.780166    1.535365
     14          1           0       -0.096048    1.997066    1.527119
     15          1           0       -2.141705   -2.069969   -0.634989
     16          1           0       -2.235702   -0.979645    0.742166
     17          1           0       -2.649249   -0.419505   -0.895922
     18          1           0        1.340097    0.743380   -1.614961
     19          1           0        1.650676    1.885390   -0.264978
     20          1           0        0.284236    2.137976   -1.382536
 ---------------------------------------------------------------------

 SCF Done:  E(RHF) =  -290.605212754     A.U. after    2 cycles

 The electronic state is 1-A.
 Alpha  occ. eigenvalues --  -15.77641 -11.45123 -11.41018 -11.39674 -11.38068
 Alpha  occ. eigenvalues --  -11.36321 -11.32450  -1.53176  -1.16216  -1.07840
 Alpha  occ. eigenvalues --   -1.05064  -0.99176  -0.81626  -0.76942  -0.67239
 Alpha  occ. eigenvalues --   -0.64682  -0.62638  -0.57456  -0.56943  -0.55424
 Alpha  occ. eigenvalues --   -0.54147  -0.53653  -0.52519  -0.50169  -0.47290
 Alpha  occ. eigenvalues --   -0.39384  -0.36651  -0.25476
 Alpha virt. eigenvalues --    0.03802   0.05074   0.05274   0.05409   0.05557
 Alpha virt. eigenvalues --    0.05896   0.06328   0.06470   0.07428   0.08194
 Alpha virt. eigenvalues --    0.08496   0.08987   0.09390   0.11583   0.12752

 Mulliken charges:
               1
     1  C   -4.457795
     2  C    0.118168
     3  N   -1.888578
     4  C   -3.716208
     5  C   -0.255231
     6  C   -4.269382
     7  C   -3.609866
     8  H    1.207757
     9  H    1.115055
    10  H    1.274962
    11  H    1.692885
    12  H    1.421596
    13  H    1.629330
    14  H    1.419558
    15  H    1.180174
    16  H    1.281818
    17  H    1.268001
    18  H    1.753507
    19  H    1.465049
    20  H    1.369201
 Sum of Mulliken charges =   0.00000

 Dipole moment (field-independent basis, Debye):
    X=              0.8691    Y=              2.5526    Z=              2.2350  Tot=              3.5024

 Test job not archived.
 1\1\GINC-SE037\SP\RHF\Aug-CC-pVDZ\C6H13N1\OHZDE\09-Apr-2025\0\\#t hf a
 ug-cc-pvdz iop(5/13=1,5/36=2,99/5=2) pseudo=read geom=check guess=(rea
 d,tcheck) scf=(maxcycle=1)\\title\\0,1\C,0,-1.11579086,1.83597959,0.66
 698891\C,0,-0.41083317,0.50706212,0.74267385\N,0,-0.02711763,-0.203885
 32,-0.50574476\C,0,-0.40915496,-1.60998731,-0.62270962\C,0,1.03256392,
 0.33032271,0.49661402\C,0,1.71635538,-0.75528886,1.28543569\C,0,-0.088
 70139,0.48956161,-1.78812769\H,0,-2.13050263,1.75187428,0.26748898\H,0
 ,-1.19174412,2.2347684,1.68064818\H,0,-0.54668174,2.55364533,0.0785571

 Normal termination of Gaussian 16 at Wed Apr  9 19:31:49 2025.
