 Gaussian 16, Revision C.01,

 ----------------------------------------------------------------------
 #t hf aug-cc-pvdz symm=none int=(grid=ultrafine) guess=(read,tcheck) s
 table=(opt,rrhf)
 ----------------------------------------------------------------------
 -----
 title
 -----
 Symbolic Z-matrix:
 Charge =  0 Multiplicity = 1

 SCF Done:  E(RHF) =  -342.353121902     A.U. after   18 cycles
 Normal termination of Gaussian 16 at Wed Apr  9 03:59:12 2025.
 Gaussian 16:  ES64L-G16RevC.01  3-Jul-2019

 ----------------------------------------------------------------------
 #t hf aug-cc-pvdz iop(5/13=1,5/36=2,99/5=2) pseudo=read geom=check gue
 ss=(read,tcheck) scf=(maxcycle=1)
 ----------------------------------------------------------------------
 -----
 title
 -----
 Structure from the checkpoint file:  "Grambow2020_wb97xd3_008761_forward_mol1.chk"
 Charge =  0 Multiplicity = 1

                         Standard orientation:
 ---------------------------------------------------------------------
 Center     Atomic      Atomic             Coordinates (Angstroms)
 Number     Number       Type             X           Y           Z
 ---------------------------------------------------------------------
      1          8           0       -2.583660    0.446015   -0.123070
      2          6           0       -1.753303   -0.417219    0.038067
      3          6           0       -0.337923   -0.135841    0.198772
      4          8           0        0.520683   -1.164129    0.094115
      5          6           0        1.702441   -0.646526   -0.296195
      6          6           0        1.874755    0.749935    0.154684
      7          6           0        0.429455    1.067082   -0.165793
      8          1           0       -2.010285   -1.491517    0.086622
      9          1           0       -0.168340    0.758747    1.060717
     10          1           0        2.438036   -1.368826   -0.616371
     11          1           0        2.187046    0.893235    1.210395
     12          1           0        2.573000    1.302449   -0.472735
     13          1           0       -0.008184    1.946243   -0.614195
 ---------------------------------------------------------------------

 SCF Done:  E(RHF) =  -343.887030365     A.U. after    2 cycles

 The electronic state is 1-A.
 Alpha  occ. eigenvalues --  -21.14698 -21.06190 -11.51360 -11.48399 -11.46456
 Alpha  occ. eigenvalues --  -11.44707 -11.40629  -1.88463  -1.70955  -1.24898
 Alpha  occ. eigenvalues --   -1.13073  -0.93620  -0.85717  -0.78312  -0.73087
 Alpha  occ. eigenvalues --   -0.69818  -0.62357  -0.57141  -0.56263  -0.52713
 Alpha  occ. eigenvalues --   -0.51114  -0.46784  -0.43697  -0.37516  -0.30408
 Alpha  occ. eigenvalues --   -0.21978
 Alpha virt. eigenvalues --    0.03392   0.04925   0.05456   0.05718   0.06212
 Alpha virt. eigenvalues --    0.06353   0.07827   0.10061   0.10295   0.11526
 Alpha virt. eigenvalues --    0.11748   0.12326   0.13080   0.13791   0.14814

 Mulliken charges:
               1
     1  O   -2.946218
     2  C    0.897561
     3  C    2.528536
     4  O   -3.741426
     5  C    0.625605
     6  C   -4.022889
     7  C   -1.517909
     8  H    1.452906
     9  H    1.622041
    10  H    1.521426
    11  H    0.959624
    12  H    1.340919
    13  H    1.279823
 Sum of Mulliken charges =   0.00000

 Dipole moment (field-independent basis, Debye):
    X=              1.3537    Y=             -0.1886    Z=              0.3498  Tot=              1.4108

 Test job not archived.
 1\1\GINC-SE128\SP\RHF\Aug-CC-pVDZ\C5H6O2\OHZDE\09-Apr-2025\0\\#t hf au
 g-cc-pvdz iop(5/13=1,5/36=2,99/5=2) pseudo=read geom=check guess=(read
 ,tcheck) scf=(maxcycle=1)\\title\\0,1\O,0,2.24128052,1.33119486,-1.437
 00744\C,0,2.06139809,0.46284647,-0.61588452\C,0,0.74237786,-0.02169334
 ,-0.25022448\O,0,0.63765055,-0.77881151,0.85491667\C,0,-0.621672,-0.62
 919407,1.31156503\C,0,-1.57444411,-0.31877377,0.22576933\C,0,-0.575465
 05,0.61040607,-0.43061974\H,0,2.89176456,-0.03908507,-0.08572621\H,0,0
 .07778723,-0.28969048,-1.2790556\H,0,-0.80075717,-1.01646125,2.3031715

 Normal termination of Gaussian 16 at Wed Apr  9 03:59:17 2025.
