 Gaussian 16, Revision C.01,

 ----------------------------------------------------------------------
 #t hf aug-cc-pvdz symm=none int=(grid=ultrafine) guess=(read,tcheck) s
 table=(opt,rrhf)
 ----------------------------------------------------------------------
 -----
 title
 -----
 Symbolic Z-matrix:
 Charge =  0 Multiplicity = 1

 SCF Done:  E(RHF) =  -307.747276813     A.U. after   15 cycles

 1\1\GINC-SE131\Stability\RHF\Aug-CC-pVDZ\C6H10O1\OHZDE\09-Apr-2025\0\\
 #t hf aug-cc-pvdz symm=none int=(grid=ultrafine) guess=(read,tcheck) s
 table=(opt,rrhf)\\title\\0,1\C,0,2.16553058,0.03199345,0.04878861\C,0,
 0.68513374,-0.154336,0.01547857\C,0,0.03957224,-1.24334738,0.40604805\
 C,0,-1.44060001,-1.30342869,0.28288097\C,0,-1.61460709,0.7956099,-0.11
 591016\C,0,-0.15877807,0.99972183,-0.48915653\O,0,0.21587017,2.2257267
 4,0.13236634\H,0,2.42029148,0.91150651,0.64210556\H,0,2.5521325,0.2070
 4123,-0.95904126\H,0,2.66841234,-0.83987478,0.46677734\H,0,0.55491028,

 Normal termination of Gaussian 16 at Wed Apr  9 18:52:02 2025.
 Gaussian 16:  ES64L-G16RevC.01  3-Jul-2019

 ----------------------------------------------------------------------
 #t hf aug-cc-pvdz iop(5/13=1,5/36=2,99/5=2) pseudo=read geom=check gue
 ss=(read,tcheck) scf=(maxcycle=1)
 ----------------------------------------------------------------------
 -----
 title
 -----
 Structure from the checkpoint file:  "Grambow2020_wb97xd3_007730_forward_mol1.chk"
 Charge =  0 Multiplicity = 1

                         Standard orientation:
 ---------------------------------------------------------------------
 Center     Atomic      Atomic             Coordinates (Angstroms)
 Number     Number       Type             X           Y           Z
 ---------------------------------------------------------------------
      1          6           0       -1.684039   -1.374170    0.084924
      2          6           0       -0.362413   -0.680844    0.087538
      3          6           0        0.803217   -1.249446   -0.183087
      4          6           0        2.049143   -0.442186   -0.107663
      5          6           0        0.984005    1.414335    0.011028
      6          6           0       -0.345073    0.800918    0.408123
      7          8           0       -1.321934    1.506587   -0.351820
      8          1           0       -2.366934   -0.878659   -0.606881
      9          1           0       -2.144808   -1.323680    1.075361
     10          1           0       -1.584805   -2.421789   -0.198635
     11          1           0        0.890086   -2.299450   -0.441205
     12          1           0        2.512672   -0.193518   -1.056169
     13          1           0        2.803355   -0.898711    0.547606
     14          1           0        1.881039    0.479482    0.578655
     15          1           0        1.447280    1.984988    0.835306
     16          1           0       -0.653988    0.948683    1.452110
     17          1           0       -0.877458    1.738316   -1.176763
 ---------------------------------------------------------------------

 SCF Done:  E(RHF) =  -309.224093987     A.U. after    2 cycles

 The electronic state is 1-A.
 Alpha  occ. eigenvalues --  -21.05727 -11.46691 -11.45428 -11.43521 -11.39897
 Alpha  occ. eigenvalues --  -11.38982 -11.36549  -1.71193  -1.29958  -1.11286
 Alpha  occ. eigenvalues --   -1.03816  -0.96127  -0.84020  -0.75632  -0.66190
 Alpha  occ. eigenvalues --   -0.62868  -0.60027  -0.59133  -0.57531  -0.53521
 Alpha  occ. eigenvalues --   -0.51493  -0.48786  -0.46788  -0.40286  -0.34407
 Alpha  occ. eigenvalues --   -0.31873  -0.30261
 Alpha virt. eigenvalues --    0.03597   0.04659   0.05051   0.05306   0.05771
 Alpha virt. eigenvalues --    0.06359   0.07287   0.07517   0.08135   0.08606
 Alpha virt. eigenvalues --    0.11554   0.11868   0.12408   0.12672   0.13434

 Mulliken charges:
               1
     1  C   -4.742768
     2  C    3.609302
     3  C   -0.805921
     4  C   -5.179195
     5  C   -3.180208
     6  C    0.560649
     7  O   -2.903513
     8  H    1.217966
     9  H    1.140259
    10  H    1.334981
    11  H    1.660662
    12  H    1.083021
    13  H    0.712123
    14  H    2.529761
    15  H    0.830972
    16  H    1.428248
    17  H    0.703660
 Sum of Mulliken charges =  -0.00000

 Dipole moment (field-independent basis, Debye):
    X=              0.9078    Y=             -1.9350    Z=              1.0199  Tot=              2.3683

 Test job not archived.
 1\1\GINC-SE131\SP\RHF\Aug-CC-pVDZ\C6H10O1\OHZDE\09-Apr-2025\0\\#t hf a
 ug-cc-pvdz iop(5/13=1,5/36=2,99/5=2) pseudo=read geom=check guess=(rea
 d,tcheck) scf=(maxcycle=1)\\title\\0,1\C,0,2.16553058,0.03199345,0.048
 78861\C,0,0.68513374,-0.154336,0.01547857\C,0,0.03957224,-1.24334738,0
 .40604805\C,0,-1.44060001,-1.30342869,0.28288097\C,0,-1.61460709,0.795
 6099,-0.11591016\C,0,-0.15877807,0.99972183,-0.48915653\O,0,0.21587017
 ,2.22572674,0.13236634\H,0,2.42029148,0.91150651,0.64210556\H,0,2.5521
 325,0.20704123,-0.95904126\H,0,2.66841234,-0.83987478,0.46677734\H,0,0

 Normal termination of Gaussian 16 at Wed Apr  9 18:52:08 2025.
