 Gaussian 16, Revision C.01,

 ----------------------------------------------------------------------
 #t hf aug-cc-pvdz symm=none int=(grid=ultrafine) guess=(read,tcheck) s
 table=(opt,rrhf)
 ----------------------------------------------------------------------
 -----
 title
 -----
 Symbolic Z-matrix:
 Charge =  0 Multiplicity = 1

 SCF Done:  E(RHF) =  -231.672235885     A.U. after   15 cycles
 Normal termination of Gaussian 16 at Wed Apr  9 03:21:08 2025.
 Gaussian 16:  ES64L-G16RevC.01  3-Jul-2019

 ----------------------------------------------------------------------
 #t hf aug-cc-pvdz iop(5/13=1,5/36=2,99/5=2) pseudo=read geom=check gue
 ss=(read,tcheck) scf=(maxcycle=1)
 ----------------------------------------------------------------------
 -----
 title
 -----
 Structure from the checkpoint file:  "Grambow2020_wb97xd3_006056_reverse_mol1.chk"
 Charge =  0 Multiplicity = 1

                         Standard orientation:
 ---------------------------------------------------------------------
 Center     Atomic      Atomic             Coordinates (Angstroms)
 Number     Number       Type             X           Y           Z
 ---------------------------------------------------------------------
      1          6           0       -1.389365    0.292917    0.584688
      2          6           0       -0.983759   -0.972727   -0.162330
      3          6           0       -0.444247    0.869745   -0.378904
      4          6           0        0.982044    0.964670   -0.159615
      5          6           0        1.389436   -0.298447    0.585868
      6          6           0        0.445258   -0.860443   -0.387868
      7          1           0       -1.111542    0.350384    1.636648
      8          1           0       -2.424988    0.576956    0.435152
      9          1           0       -1.580561   -1.230272   -1.028188
     10          1           0       -0.861966    1.287562   -1.289991
     11          1           0        1.583714    1.244943   -1.014191
     12          1           0        2.426185   -0.577652    0.436470
     13          1           0        1.107100   -0.360659    1.636169
     14          1           0        0.865850   -1.265543   -1.303101
 ---------------------------------------------------------------------

 SCF Done:  E(RHF) =  -232.827634642     A.U. after    2 cycles

 The electronic state is 1-A.
 Alpha  occ. eigenvalues --  -11.50696 -11.47749 -11.41345 -11.40945 -11.36847
 Alpha  occ. eigenvalues --  -11.35138  -1.43376  -1.14136  -1.00566  -0.92333
 Alpha  occ. eigenvalues --   -0.78123  -0.77330  -0.73700  -0.61652  -0.58486
 Alpha  occ. eigenvalues --   -0.56886  -0.52268  -0.47416  -0.46530  -0.46165
 Alpha  occ. eigenvalues --   -0.40746  -0.19329
 Alpha virt. eigenvalues --    0.03793   0.04877   0.05184   0.05858   0.05915
 Alpha virt. eigenvalues --    0.06050   0.06837   0.08669   0.09870   0.10753
 Alpha virt. eigenvalues --    0.11679   0.12222   0.14034   0.14337   0.14693

 Mulliken charges:
               1
     1  C   -3.187458
     2  C   -2.147001
     3  C   -0.014880
     4  C   -2.096263
     5  C   -3.217777
     6  C    0.015959
     7  H    1.272012
     8  H    1.339586
     9  H    1.298130
    10  H    1.405375
    11  H    1.310051
    12  H    1.342065
    13  H    1.275955
    14  H    1.404246
 Sum of Mulliken charges =   0.00000

 Dipole moment (field-independent basis, Debye):
    X=              0.1115    Y=              0.1537    Z=             -1.2846  Tot=              1.2986

 Test job not archived.
 1\1\GINC-SE229\SP\RHF\Aug-CC-pVDZ\C6H8\OHZDE\09-Apr-2025\0\\#t hf aug-
 cc-pvdz iop(5/13=1,5/36=2,99/5=2) pseudo=read geom=check guess=(read,t
 check) scf=(maxcycle=1)\\title\\0,1\C,0,1.28705959,-0.74119667,-0.4267
 8594\C,0,1.00570537,-0.14959858,0.94989818\C,0,0.47845719,0.41911259,-
 0.81963778\C,0,-0.96556411,0.4130499,-0.89818648\C,0,-1.4570137,-0.455
 42953,0.25133437\C,0,-0.37915353,0.2827314,0.92126847\H,0,0.8644397,-1
 .72412973,-0.63255843\H,0,2.32974413,-0.69198905,-0.71994553\H,0,1.720
 71386,0.57704635,1.3145378\H,0,1.01392684,1.31825143,-1.10940016\H,0,-

 Normal termination of Gaussian 16 at Wed Apr  9 03:21:12 2025.
