 Gaussian 16, Revision C.01,

 ----------------------------------------------------------------------
 #t hf aug-cc-pvdz symm=none int=(grid=ultrafine) guess=(read,tcheck) s
 table=(opt,rrhf)
 ----------------------------------------------------------------------
 -----
 title
 -----
 Symbolic Z-matrix:
 Charge =  0 Multiplicity = 1

 SCF Done:  E(RHF) =  -317.421250917     A.U. after   18 cycles
 Normal termination of Gaussian 16 at Wed Apr  9 19:26:56 2025.
 Gaussian 16:  ES64L-G16RevC.01  3-Jul-2019

 ----------------------------------------------------------------------
 #t hf aug-cc-pvdz iop(5/13=1,5/36=2,99/5=2) pseudo=read geom=check gue
 ss=(read,tcheck) scf=(maxcycle=1)
 ----------------------------------------------------------------------
 -----
 title
 -----
 Structure from the checkpoint file:  "Grambow2020_wb97xd3_008979_reverse_mol1.chk"
 Charge =  0 Multiplicity = 1

                         Standard orientation:
 ---------------------------------------------------------------------
 Center     Atomic      Atomic             Coordinates (Angstroms)
 Number     Number       Type             X           Y           Z
 ---------------------------------------------------------------------
      1          7           0        1.452289    1.336961   -0.275248
      2          6           0        0.244711   -0.550664   -0.736386
      3          6           0        0.938911   -1.433559   -0.009684
      4          7           0        0.413083   -0.330254    0.709872
      5          6           0       -0.813656    0.097821    1.096823
      6          7           0       -1.624706    0.347776    0.087440
      7          6           0       -1.001170   -0.028156   -1.046950
      8          1           0        1.900583    1.443986    0.633631
      9          1           0        0.827583    2.142864   -0.343560
     10          1           0        1.880794   -1.934995    0.120174
     11          1           0       -1.026797    0.346585    2.124107
     12          1           0       -1.479592    0.007531   -2.011618
 ---------------------------------------------------------------------

 SCF Done:  E(RHF) =  -318.898415732     A.U. after    2 cycles

 The electronic state is 1-A.
 Alpha  occ. eigenvalues --  -15.83716 -15.77813 -15.70515 -11.51421 -11.49639
 Alpha  occ. eigenvalues --  -11.45862 -11.45084  -1.64523  -1.37349  -1.15262
 Alpha  occ. eigenvalues --   -1.13631  -0.97126  -0.84655  -0.81859  -0.72018
 Alpha  occ. eigenvalues --   -0.67757  -0.59001  -0.58169  -0.57501  -0.48386
 Alpha  occ. eigenvalues --   -0.47140  -0.41370  -0.40839  -0.32881  -0.24758
 Alpha virt. eigenvalues --    0.03307   0.05068   0.05246   0.05460   0.07196
 Alpha virt. eigenvalues --    0.07835   0.08586   0.09543   0.10343   0.10474
 Alpha virt. eigenvalues --    0.10969   0.12480   0.13295   0.14435   0.14975

 Mulliken charges:
               1
     1  N   -1.498066
     2  C    1.701241
     3  C   -1.663433
     4  N   -2.130956
     5  C    1.393786
     6  N   -3.198629
     7  C    0.069880
     8  H    0.631685
     9  H    0.652018
    10  H    1.103989
    11  H    1.637869
    12  H    1.300615
 Sum of Mulliken charges =   0.00000

 Dipole moment (field-independent basis, Debye):
    X=             -0.0089    Y=             -1.2619    Z=              1.1475  Tot=              1.7056

 Test job not archived.
 1\1\GINC-SE145\SP\RHF\Aug-CC-pVDZ\C4H5N3\OHZDE\09-Apr-2025\0\\#t hf au
 g-cc-pvdz iop(5/13=1,5/36=2,99/5=2) pseudo=read geom=check guess=(read
 ,tcheck) scf=(maxcycle=1)\\title\\0,1\N,0,-1.56260413,0.27500684,0.883
 07711\C,0,-0.26520385,-0.04506665,-0.97388964\C,0,0.05334208,1.2274174
 8,-1.23623759\N,0,0.41370382,0.76178061,0.05405644\C,0,1.32027195,-0.1
 0403047,0.57016994\N,0,1.16120895,-1.34345437,0.14867017\C,0,0.1915428
 8,-1.34059074,-0.78765337\H,0,-1.35818522,1.04436407,1.51930488\H,0,-1
 .49664056,-0.55968209,1.46903484\H,0,-0.31361397,2.19576626,-1.5244901

 Normal termination of Gaussian 16 at Wed Apr  9 19:27:00 2025.
