 Gaussian 16, Revision C.01,

 ----------------------------------------------------------------------
 #t hf aug-cc-pvdz symm=none int=(grid=ultrafine) guess=(read,tcheck) s
 table=(opt,rrhf)
 ----------------------------------------------------------------------
 -----
 title
 -----
 Symbolic Z-matrix:
 Charge =  0 Multiplicity = 1

 SCF Done:  E(RHF) =  -318.832331878     A.U. after   15 cycles
 Normal termination of Gaussian 16 at Wed Apr  9 18:21:19 2025.
 Gaussian 16:  ES64L-G16RevC.01  3-Jul-2019

 ----------------------------------------------------------------------
 #t hf aug-cc-pvdz iop(5/13=1,5/36=2,99/5=2) pseudo=read geom=check gue
 ss=(read,tcheck) scf=(maxcycle=1)
 ----------------------------------------------------------------------
 -----
 title
 -----
 Structure from the checkpoint file:  "Grambow2020_wb97xd3_006923_reverse_mol2.chk"
 Charge =  0 Multiplicity = 1

                         Standard orientation:
 ---------------------------------------------------------------------
 Center     Atomic      Atomic             Coordinates (Angstroms)
 Number     Number       Type             X           Y           Z
 ---------------------------------------------------------------------
      1          7           0        2.416209   -0.471893    0.038812
      2          6           0        1.129842   -0.079950   -0.012831
      3          6           0       -0.051933   -0.983840   -0.027662
      4          6           0       -1.180646    0.022852    0.029552
      5          7           0       -2.511442   -0.448459   -0.084194
      6          6           0       -0.775987    1.308294    0.023913
      7          7           0        0.692998    1.141225   -0.003840
      8          1           0        3.163608    0.194880   -0.020435
      9          1           0        2.644270   -1.435700   -0.112354
     10          1           0       -0.006299   -1.691694    0.806593
     11          1           0       -3.121012    0.348969   -0.210006
     12          1           0       -2.815232   -0.944589    0.744616
     13          1           0       -0.077068   -1.567342   -0.953435
     14          1           0        1.299723    1.945225    0.011740
 ---------------------------------------------------------------------

 SCF Done:  E(RHF) =  -320.334048029     A.U. after    2 cycles

 The electronic state is 1-A.
 Alpha  occ. eigenvalues --  -15.82693 -15.78864 -15.70819 -11.53756 -11.42914
 Alpha  occ. eigenvalues --  -11.34754 -11.29710  -1.53874  -1.36284  -1.29048
 Alpha  occ. eigenvalues --   -1.11733  -0.98351  -0.84873  -0.77325  -0.73127
 Alpha  occ. eigenvalues --   -0.69241  -0.65378  -0.61419  -0.54370  -0.53102
 Alpha  occ. eigenvalues --   -0.50482  -0.48284  -0.42961  -0.37585  -0.28154
 Alpha  occ. eigenvalues --   -0.23017
 Alpha virt. eigenvalues --    0.01958   0.03984   0.04543   0.06104   0.06523
 Alpha virt. eigenvalues --    0.07292   0.08355   0.09418   0.11145   0.11202
 Alpha virt. eigenvalues --    0.12961   0.13146   0.13512   0.14358   0.14923

 Mulliken charges:
               1
     1  N   -3.441288
     2  C    4.707818
     3  C   -4.472424
     4  C    5.821538
     5  N   -3.498189
     6  C   -2.488396
     7  N   -2.670500
     8  H    0.816861
     9  H    0.662612
    10  H    1.338948
    11  H    0.709271
    12  H    0.452598
    13  H    1.337162
    14  H    0.723988
 Sum of Mulliken charges =   0.00000

 Dipole moment (field-independent basis, Debye):
    X=              6.8969    Y=             -3.5038    Z=              0.4573  Tot=              7.7493

 Test job not archived.
 1\1\GINC-SE029\SP\RHF\Aug-CC-pVDZ\C4H7N3\OHZDE\09-Apr-2025\0\\#t hf au
 g-cc-pvdz iop(5/13=1,5/36=2,99/5=2) pseudo=read geom=check guess=(read
 ,tcheck) scf=(maxcycle=1)\\title\\0,1\N,0,-2.35840555,-0.32710362,0.14
 95735\C,0,-1.08032927,0.0543777,-0.02936381\C,0,0.11558462,-0.63144953
 ,0.53033268\C,0,1.22848607,0.17571222,-0.10262505\N,0,2.56380627,-0.09
 928529,0.28128427\C,0,0.80253514,1.20211399,-0.86499472\N,0,-0.6637186
 5,1.04361742,-0.75738916\H,0,-3.11797278,0.22387909,-0.20564148\H,0,-2
 .57400575,-1.01917084,0.84120086\H,0,0.10173646,-1.69712224,0.27879314

 Normal termination of Gaussian 16 at Wed Apr  9 18:21:24 2025.
