 Gaussian 16, Revision C.01,

 ----------------------------------------------------------------------
 #t hf aug-cc-pvdz symm=none int=(grid=ultrafine) guess=(read,tcheck) s
 table=(opt,rrhf)
 ----------------------------------------------------------------------
 -----
 title
 -----
 Symbolic Z-matrix:
 Charge =  0 Multiplicity = 1

 SCF Done:  E(RHF) =  -359.582369805     A.U. after   16 cycles
 Normal termination of Gaussian 16 at Wed Apr  9 18:34:28 2025.
 Gaussian 16:  ES64L-G16RevC.01  3-Jul-2019

 ----------------------------------------------------------------------
 #t hf aug-cc-pvdz iop(5/13=1,5/36=2,99/5=2) pseudo=read geom=check gue
 ss=(read,tcheck) scf=(maxcycle=1)
 ----------------------------------------------------------------------
 -----
 title
 -----
 Structure from the checkpoint file:  "Grambow2020_wb97xd3_007275_forward_mol1.chk"
 Charge =  0 Multiplicity = 1

                         Standard orientation:
 ---------------------------------------------------------------------
 Center     Atomic      Atomic             Coordinates (Angstroms)
 Number     Number       Type             X           Y           Z
 ---------------------------------------------------------------------
      1          8           0       -1.894775   -0.909900   -0.233062
      2          6           0       -0.693530   -0.553677    0.132769
      3          6           0        0.549610   -1.369817   -0.166860
      4          7           0        1.640296   -0.509443    0.266751
      5          6           0        1.318871    0.850876   -0.146663
      6          6           0       -0.185220    0.922292    0.013843
      7          8           0       -0.883793    1.887694    0.003864
      8          1           0       -1.497734   -0.767897    1.118275
      9          1           0       -0.655766   -0.558359    1.560258
     10          1           0        0.558759   -2.336130    0.333453
     11          1           0        0.501002   -1.542548   -1.255285
     12          1           0        2.542741   -0.821275   -0.055698
     13          1           0        1.545503    1.070006   -1.202416
     14          1           0        1.813574    1.601905    0.469209
 ---------------------------------------------------------------------

 SCF Done:  E(RHF) =  -361.209580987     A.U. after    2 cycles

 The electronic state is 1-A.
 Alpha  occ. eigenvalues --  -21.08497 -21.01042 -15.75479 -11.56718 -11.50014
 Alpha  occ. eigenvalues --  -11.45312 -11.42359  -1.74948  -1.68944  -1.45108
 Alpha  occ. eigenvalues --   -1.10116  -1.08120  -0.90903  -0.82178  -0.70659
 Alpha  occ. eigenvalues --   -0.69835  -0.65654  -0.60668  -0.59490  -0.54342
 Alpha  occ. eigenvalues --   -0.51736  -0.48957  -0.44688  -0.37041  -0.34185
 Alpha  occ. eigenvalues --   -0.30522  -0.25330
 Alpha virt. eigenvalues --    0.03150   0.04317   0.04713   0.05351   0.05810
 Alpha virt. eigenvalues --    0.06318   0.07239   0.09498   0.10406   0.11291
 Alpha virt. eigenvalues --    0.12363   0.12478   0.13582   0.14177   0.14337

 Mulliken charges:
               1
     1  O   -3.165582
     2  C    2.301454
     3  C   -2.370122
     4  N   -1.963568
     5  C   -2.531708
     6  C    4.464285
     7  O   -3.424207
     8  H    1.061376
     9  H   -0.096301
    10  H    1.269293
    11  H    1.232957
    12  H    0.674153
    13  H    1.250882
    14  H    1.297089
 Sum of Mulliken charges =  -0.00000

 Dipole moment (field-independent basis, Debye):
    X=              2.7016    Y=             -0.7178    Z=             -0.3503  Tot=              2.8172

 Test job not archived.
 1\1\GINC-SE219\SP\RHF\Aug-CC-pVDZ\C4H7N1O2\OHZDE\09-Apr-2025\0\\#t hf
 aug-cc-pvdz iop(5/13=1,5/36=2,99/5=2) pseudo=read geom=check guess=(re
 ad,tcheck) scf=(maxcycle=1)\\title\\0,1\O,0,2.34972908,-0.13225902,-0.
 27004829\C,0,1.06769563,-0.05067002,-0.03885439\C,0,0.23057438,1.16671
 983,-0.38301477\N,0,-1.13295772,0.73561605,-0.11322371\C,0,-1.26649566
 ,-0.63206716,-0.59933601\C,0,0.08984223,-1.24197254,-0.31382814\O,0,0.
 4017881,-2.39188308,-0.33617255\H,0,1.78361365,-0.1773179,1.02663956\H
 ,0,0.87892187,-0.09011491,1.37605901\H,0,0.50679768,2.05174597,0.18671

 Normal termination of Gaussian 16 at Wed Apr  9 18:34:33 2025.
