 Gaussian 16, Revision C.01,

 ----------------------------------------------------------------------
 #t hf aug-cc-pvdz symm=none int=(grid=ultrafine) guess=(read,tcheck) s
 table=(opt,rrhf)
 ----------------------------------------------------------------------
 -----
 title
 -----
 Symbolic Z-matrix:
 Charge =  0 Multiplicity = 1

 SCF Done:  E(RHF) =  -343.458456988     A.U. after   15 cycles
 Normal termination of Gaussian 16 at Wed Apr  9 19:31:14 2025.
 Gaussian 16:  ES64L-G16RevC.01  3-Jul-2019

 ----------------------------------------------------------------------
 #t hf aug-cc-pvdz iop(5/13=1,5/36=2,99/5=2) pseudo=read geom=check gue
 ss=(read,tcheck) scf=(maxcycle=1)
 ----------------------------------------------------------------------
 -----
 title
 -----
 Structure from the checkpoint file:  "Grambow2020_wb97xd3_009097_reverse_mol2.chk"
 Charge =  0 Multiplicity = 1

                         Standard orientation:
 ---------------------------------------------------------------------
 Center     Atomic      Atomic             Coordinates (Angstroms)
 Number     Number       Type             X           Y           Z
 ---------------------------------------------------------------------
      1          6           0       -0.036224    0.750665   -0.279475
      2          6           0       -0.793395   -0.007600    0.741719
      3          8           0       -2.008420   -0.364098    0.499172
      4          6           0       -2.709300   -0.161469   -0.582888
      5          6           0        2.060469   -1.196736   -0.256411
      6          8           0        2.241639    0.060632    0.019111
      7          6           0        1.371108    1.016058    0.075307
      8          1           0       -0.062684    0.179436   -1.237151
      9          1           0       -0.553243    1.700149   -0.497152
     10          1           0       -0.438300   -0.259551    1.728278
     11          1           0       -2.280516    0.356177   -1.425585
     12          1           0       -3.708340   -0.557832   -0.548078
     13          1           0        1.064043   -1.593211   -0.376773
     14          1           0        2.959280   -1.788044   -0.251465
     15          1           0        1.798058    1.985096    0.272156
 ---------------------------------------------------------------------

 SCF Done:  E(RHF) =  -345.091929535     A.U. after    2 cycles

 The electronic state is 1-A.
 Alpha  occ. eigenvalues --  -21.19773 -21.19369 -11.47003 -11.44267 -11.40672
 Alpha  occ. eigenvalues --  -11.39816 -11.39654  -1.89208  -1.87107  -1.18622
 Alpha  occ. eigenvalues --   -1.03382  -0.98962  -0.82960  -0.78933  -0.72796
 Alpha  occ. eigenvalues --   -0.70334  -0.64262  -0.62348  -0.59917  -0.56918
 Alpha  occ. eigenvalues --   -0.56658  -0.54043  -0.50556  -0.43278  -0.40820
 Alpha  occ. eigenvalues --   -0.27099  -0.25870
 Alpha virt. eigenvalues --    0.03427   0.04967   0.05368   0.05719   0.05996
 Alpha virt. eigenvalues --    0.06811   0.07350   0.08145   0.10766   0.10911
 Alpha virt. eigenvalues --    0.11524   0.11667   0.12922   0.13377   0.14638

 Mulliken charges:
               1
     1  C   -3.635205
     2  C    1.746547
     3  O   -3.952077
     4  C   -2.096915
     5  C   -1.772110
     6  O   -3.762890
     7  C    1.223571
     8  H    1.331581
     9  H    1.333450
    10  H    1.762742
    11  H    1.614748
    12  H    1.465163
    13  H    1.724307
    14  H    1.455786
    15  H    1.561302
 Sum of Mulliken charges =   0.00000

 Dipole moment (field-independent basis, Debye):
    X=              0.2450    Y=              0.3983    Z=              0.1713  Tot=              0.4980

 Test job not archived.
 1\1\GINC-SE041\SP\RHF\Aug-CC-pVDZ\C5H8O2\OHZDE\09-Apr-2025\0\\#t hf au
 g-cc-pvdz iop(5/13=1,5/36=2,99/5=2) pseudo=read geom=check guess=(read
 ,tcheck) scf=(maxcycle=1)\\title\\0,1\C,0,-0.60892582,0.0382804,0.4462
 0896\C,0,-0.46338901,0.24799178,-1.01185527\O,0,-0.27938682,1.43951891
 ,-1.46859571\C,0,-0.17769059,2.55491965,-0.79875754\C,0,1.53899848,-1.
 8526023,0.44855345\O,0,0.33232522,-2.13211911,0.84291204\C,0,-0.717442
 34,-1.37599785,0.85232564\H,0,0.27155535,0.4918062,0.95925035\H,0,-1.4
 801828,0.60286052,0.81819424\H,0,-0.54954002,-0.51606804,-1.76793747\H

 Normal termination of Gaussian 16 at Wed Apr  9 19:31:19 2025.
