 Gaussian 16, Revision C.01,

 ----------------------------------------------------------------------
 #t hf aug-cc-pvdz symm=none int=(grid=ultrafine) guess=(read,tcheck) s
 table=(opt,rrhf)
 ----------------------------------------------------------------------
 -----
 title
 -----
 Symbolic Z-matrix:
 Charge =  0 Multiplicity = 1

 SCF Done:  E(RHF) =  -234.170429989     A.U. after   12 cycles
 Normal termination of Gaussian 16 at Wed Apr  9 16:24:06 2025.
 Gaussian 16:  ES64L-G16RevC.01  3-Jul-2019

 ----------------------------------------------------------------------
 #t hf aug-cc-pvdz iop(5/13=1,5/36=2,99/5=2) pseudo=read geom=check gue
 ss=(read,tcheck) scf=(maxcycle=1)
 ----------------------------------------------------------------------
 -----
 title
 -----
 Structure from the checkpoint file:  "Grambow2020_b97d3_006796_reverse_mol2.chk"
 Charge =  0 Multiplicity = 1

                         Standard orientation:
 ---------------------------------------------------------------------
 Center     Atomic      Atomic             Coordinates (Angstroms)
 Number     Number       Type             X           Y           Z
 ---------------------------------------------------------------------
      1          6           0       -1.477158   -1.147396    0.765179
      2          6           0       -1.803974   -0.320452   -0.445420
      3          6           0       -2.307234    0.923124   -0.422235
      4          6           0        1.663153    0.215519   -0.453377
      5          6           0        1.478280    1.194413    0.670753
      6          6           0        2.431660   -0.883388   -0.404589
      7          1           0       -1.719281   -0.614118    1.694734
      8          1           0       -0.406301   -1.402490    0.776785
      9          1           0       -2.034546   -2.097487    0.757370
     10          1           0       -1.594708   -0.787933   -1.412768
     11          1           0       -2.530432    1.428842    0.519847
     12          1           0       -2.516345    1.475492   -1.339029
     13          1           0        1.105030    0.433451   -1.368586
     14          1           0        1.806194    2.203005    0.372539
     15          1           0        0.413734    1.274335    0.938642
     16          1           0        2.046348    0.897001    1.562824
     17          1           0        2.520809   -1.559992   -1.255394
     18          1           0        3.001136   -1.141023    0.491177
 ---------------------------------------------------------------------

 SCF Done:  E(RHF) =  -235.374258783     A.U. after    2 cycles

 The electronic state is 1-A.
 Alpha  occ. eigenvalues --  -11.41737 -11.41481 -11.38272 -11.38065 -11.36064
 Alpha  occ. eigenvalues --  -11.35883  -1.19438  -1.18521  -0.98617  -0.98465
 Alpha  occ. eigenvalues --   -0.78379  -0.77968  -0.63445  -0.63263  -0.56793
 Alpha  occ. eigenvalues --   -0.56228  -0.56064  -0.54986  -0.49769  -0.49674
 Alpha  occ. eigenvalues --   -0.46932  -0.46435  -0.34501  -0.33605
 Alpha virt. eigenvalues --    0.03724   0.05179   0.05555   0.05658   0.05741
 Alpha virt. eigenvalues --    0.05797   0.06204   0.06456   0.07652   0.08421
 Alpha virt. eigenvalues --    0.08757   0.09499   0.12098   0.12814   0.12930

 Mulliken charges:
               1
     1  C   -4.499893
     2  C   -0.781922
     3  C   -3.277765
     4  C   -0.941656
     5  C   -4.480526
     6  C   -3.160212
     7  H    1.378717
     8  H    1.549867
     9  H    1.187543
    10  H    1.500789
    11  H    1.546227
    12  H    1.403646
    13  H    1.593943
    14  H    1.217689
    15  H    1.552212
    16  H    1.319598
    17  H    1.418459
    18  H    1.473285
 Sum of Mulliken charges =  -0.00000

 Dipole moment (field-independent basis, Debye):
    X=             -0.0550    Y=             -0.0249    Z=              0.0904  Tot=              0.1087

 Test job not archived.
 1\1\GINC-SE100\SP\RHF\Aug-CC-pVDZ\C6H12\OHZDE\09-Apr-2025\0\\#t hf aug
 -cc-pvdz iop(5/13=1,5/36=2,99/5=2) pseudo=read geom=check guess=(read,
 tcheck) scf=(maxcycle=1)\\title\\0,1\C,0,-1.73678521,0.67985822,0.7135
 8946\C,0,-1.0668662,1.55717064,-0.30510014\C,0,-0.18572054,2.53101946,
 -0.03034347\C,0,0.96671301,-1.26926889,-0.73415612\C,0,1.68251251,-0.9
 0251037,0.5343861\C,0,0.32877891,-2.42881066,-0.95570248\H,0,-1.431085
 45,0.94317805,1.73549586\H,0,-1.48453689,-0.37659,0.53406622\H,0,-2.83
 315127,0.76474352,0.64884928\H,0,-1.32617826,1.35840418,-1.34977257\H,

 Normal termination of Gaussian 16 at Wed Apr  9 16:24:12 2025.
