 Gaussian 16, Revision C.01,

 ----------------------------------------------------------------------
 #t hf aug-cc-pvdz symm=none int=(grid=ultrafine) guess=(read,tcheck) s
 table=(opt,rrhf)
 ----------------------------------------------------------------------
 -----
 title
 -----
 Symbolic Z-matrix:
 Charge =  0 Multiplicity = 1

 SCF Done:  E(RHF) =  -394.338018301     A.U. after   15 cycles
 Normal termination of Gaussian 16 at Wed Apr  9 18:30:06 2025.
 Gaussian 16:  ES64L-G16RevC.01  3-Jul-2019

 ----------------------------------------------------------------------
 #t hf aug-cc-pvdz iop(5/13=1,5/36=2,99/5=2) pseudo=read geom=check gue
 ss=(read,tcheck) scf=(maxcycle=1)
 ----------------------------------------------------------------------
 -----
 title
 -----
 Structure from the checkpoint file:  "Grambow2020_wb97xd3_007205_forward_mol1.chk"
 Charge =  0 Multiplicity = 1

                         Standard orientation:
 ---------------------------------------------------------------------
 Center     Atomic      Atomic             Coordinates (Angstroms)
 Number     Number       Type             X           Y           Z
 ---------------------------------------------------------------------
      1          7           0        2.115702    0.198117    0.672637
      2          6           0        1.215111   -0.261235   -0.161196
      3          8           0        0.765293   -1.348758   -0.519064
      4          6           0       -1.552876   -0.175125   -0.220668
      5          8           0       -2.204326   -0.424464    0.715508
      6          6           0        0.499154    1.012961   -0.326576
      7          8           0       -0.775810    1.068513   -0.217864
      8          1           0        2.424324   -0.514025    1.335153
      9          1           0       -1.486214   -0.661756   -1.192499
     10          1           0        1.002383    1.967031   -0.429117
 ---------------------------------------------------------------------

 SCF Done:  E(RHF) =  -395.977920643     A.U. after    2 cycles

 The electronic state is 1-A.
 Alpha  occ. eigenvalues --  -21.19517 -21.13181 -21.02404 -15.74872 -11.57455
 Alpha  occ. eigenvalues --  -11.57297 -11.49282  -1.92956  -1.75770  -1.69604
 Alpha  occ. eigenvalues --   -1.33607  -1.05581  -0.92771  -0.82050  -0.74787
 Alpha  occ. eigenvalues --   -0.67301  -0.62832  -0.58980  -0.54904  -0.54669
 Alpha  occ. eigenvalues --   -0.49976  -0.47490  -0.39980  -0.36832  -0.29632
 Alpha  occ. eigenvalues --   -0.28360
 Alpha virt. eigenvalues --    0.02651   0.04508   0.05431   0.06559   0.08678
 Alpha virt. eigenvalues --    0.09178   0.09863   0.10311   0.11648   0.12460
 Alpha virt. eigenvalues --    0.13158   0.14183   0.14462   0.16154   0.16800

 Mulliken charges:
               1
     1  N   -2.502444
     2  C    4.638970
     3  O   -2.662469
     4  C    1.932889
     5  O   -2.405502
     6  C    0.434928
     7  O   -3.314102
     8  H    0.596420
     9  H    1.612576
    10  H    1.668735
 Sum of Mulliken charges =   0.00000

 Dipole moment (field-independent basis, Debye):
    X=             -2.5739    Y=              2.0709    Z=             -1.1283  Tot=              3.4909

 Test job not archived.
 1\1\GINC-SE454\SP\RHF\Aug-CC-pVDZ\C3H3N1O3\OHZDE\09-Apr-2025\0\\#t hf
 aug-cc-pvdz iop(5/13=1,5/36=2,99/5=2) pseudo=read geom=check guess=(re
 ad,tcheck) scf=(maxcycle=1)\\title\\0,1\N,0,-1.25436826,1.35090933,-0.
 8668461\C,0,-0.44142664,0.32463662,-0.92372559\O,0,0.60005184,0.009147
 96,-1.49722508\C,0,1.33265118,-0.80862534,0.87657068\O,0,2.08741512,-0
 .16767319,1.49503312\C,0,-0.91915441,-0.31459311,0.31186394\O,0,-0.093
 50466,-0.71570996,1.20508543\H,0,-0.84216125,2.19041828,-1.27505092\H,
 0,1.5001563,-1.58348022,0.13007852\H,0,-1.96675223,-0.37407936,0.58205

 Normal termination of Gaussian 16 at Wed Apr  9 18:30:09 2025.
