 Gaussian 16, Revision C.01,

 ----------------------------------------------------------------------
 #t hf aug-cc-pvdz symm=none int=(grid=ultrafine) guess=(read,tcheck) s
 table=(opt,rrhf)
 ----------------------------------------------------------------------
 -----
 title
 -----
 Symbolic Z-matrix:
 Charge =  0 Multiplicity = 1

 SCF Done:  E(RHF) =  -231.581096128     A.U. after   17 cycles
 Normal termination of Gaussian 16 at Wed Apr  9 16:55:10 2025.
 Gaussian 16:  ES64L-G16RevC.01  3-Jul-2019

 ----------------------------------------------------------------------
 #t hf aug-cc-pvdz iop(5/13=1,5/36=2,99/5=2) pseudo=read geom=check gue
 ss=(read,tcheck) scf=(maxcycle=1)
 ----------------------------------------------------------------------
 -----
 title
 -----
 Structure from the checkpoint file:  "Grambow2020_b97d3_006874_reverse_mol1.chk"
 Charge =  0 Multiplicity = 1

                         Standard orientation:
 ---------------------------------------------------------------------
 Center     Atomic      Atomic             Coordinates (Angstroms)
 Number     Number       Type             X           Y           Z
 ---------------------------------------------------------------------
      1          6           0       -1.442392   -0.436496   -0.120640
      2          6           0       -0.091651   -0.675061   -0.762651
      3          6           0        1.766467    0.082965   -0.013501
      4          6           0       -0.022989    1.304829   -0.332488
      5          6           0       -0.542144    0.403122    0.805595
      6          6           0        0.624819   -0.654151    0.582438
      7          1           0       -1.845780   -1.360084    0.323553
      8          1           0       -2.216626    0.105051   -0.685792
      9          1           0        0.199509   -1.205563   -1.670981
     10          1           0        2.331494   -0.630368   -0.664902
     11          1           0        0.708135    2.081845   -0.131816
     12          1           0       -0.788671    1.641390   -1.044866
     13          1           0       -0.855708    0.809422    1.775444
     14          1           0        0.714983   -1.592944    1.146839
 ---------------------------------------------------------------------

 SCF Done:  E(RHF) =  -232.747802858     A.U. after    2 cycles

 The electronic state is 1-A.
 Alpha  occ. eigenvalues --  -11.48857 -11.45151 -11.42754 -11.42543 -11.38806
 Alpha  occ. eigenvalues --  -11.36392  -1.43735  -1.05324  -0.98809  -0.88499
 Alpha  occ. eigenvalues --   -0.82626  -0.74664  -0.70348  -0.64092  -0.59873
 Alpha  occ. eigenvalues --   -0.51463  -0.47934  -0.46323  -0.43219  -0.40852
 Alpha  occ. eigenvalues --   -0.35457  -0.27853
 Alpha virt. eigenvalues --    0.04095   0.04667   0.05295   0.05495   0.05933
 Alpha virt. eigenvalues --    0.06254   0.06612   0.07634   0.09787   0.11103
 Alpha virt. eigenvalues --    0.11943   0.12556   0.12891   0.13354   0.13776

 Mulliken charges:
               1
     1  C   -2.574303
     2  C   -0.882427
     3  C   -2.327862
     4  C   -1.865250
     5  C   -1.922666
     6  C   -0.543303
     7  H    1.328501
     8  H    1.286339
     9  H    1.186263
    10  H    1.173963
    11  H    1.273196
    12  H    1.030568
    13  H    1.443568
    14  H    1.393413
 Sum of Mulliken charges =   0.00000

 Dipole moment (field-independent basis, Debye):
    X=             -1.8916    Y=             -1.3723    Z=              0.1254  Tot=              2.3402

 Test job not archived.
 1\1\GINC-SE454\SP\RHF\Aug-CC-pVDZ\C6H8\OHZDE\09-Apr-2025\0\\#t hf aug-
 cc-pvdz iop(5/13=1,5/36=2,99/5=2) pseudo=read geom=check guess=(read,t
 check) scf=(maxcycle=1)\\title\\0,1\C,0,-1.24019506,-0.31810979,0.5890
 5457\C,0,-0.23342496,0.80880456,0.48869833\C,0,1.42316107,0.84785717,-
 0.86873638\C,0,0.95186663,-0.83538944,0.45089251\C,0,-0.28262598,-0.89
 438717,-0.47126731\C,0,-0.030421,0.58248147,-1.00482025\H,0,-2.2287637
 4,-0.00935758,0.21429244\H,0,-1.32868352,-0.87556022,1.53431962\H,0,-0
 .1236596,1.7393637,1.04841475\H,0,1.55537845,1.94489749,-0.69141043\H,

 Normal termination of Gaussian 16 at Wed Apr  9 16:55:14 2025.
