 Gaussian 16, Revision C.01,

 ----------------------------------------------------------------------
 #t hf aug-cc-pvdz symm=none int=(grid=ultrafine) guess=(read,tcheck) s
 table=(opt,rrhf)
 ----------------------------------------------------------------------
 -----
 title
 -----
 Symbolic Z-matrix:
 Charge =  0 Multiplicity = 1

 SCF Done:  E(RHF) =  -338.636659637     A.U. after   17 cycles
 Normal termination of Gaussian 16 at Wed Apr  9 03:40:26 2025.
 Gaussian 16:  ES64L-G16RevC.01  3-Jul-2019

 ----------------------------------------------------------------------
 #t hf aug-cc-pvdz iop(5/13=1,5/36=2,99/5=2) pseudo=read geom=check gue
 ss=(read,tcheck) scf=(maxcycle=1)
 ----------------------------------------------------------------------
 -----
 title
 -----
 Structure from the checkpoint file:  "Grambow2020_wb97xd3_007481_reverse_mol1.chk"
 Charge =  0 Multiplicity = 1

                         Standard orientation:
 ---------------------------------------------------------------------
 Center     Atomic      Atomic             Coordinates (Angstroms)
 Number     Number       Type             X           Y           Z
 ---------------------------------------------------------------------
      1          6           0        2.399507   -0.549980    0.052887
      2          8           0        1.555788    0.585718   -0.014013
      3          6           0        0.216735    0.416171   -0.043840
      4          6           0       -0.361130   -0.918774   -0.085195
      5          7           0       -1.654706   -0.884367   -0.019668
      6          6           0       -2.523722   -0.068049    0.208251
      7          7           0       -0.577317    1.415002   -0.027449
      8          1           0        2.193795   -1.148189    0.944166
      9          1           0        3.414441   -0.163567    0.110081
     10          1           0        2.305294   -1.171926   -0.841139
     11          1           0        0.171496   -1.852383   -0.133524
     12          1           0       -3.215643    0.366887   -0.504025
     13          1           0       -0.079865    2.292782    0.073742
 ---------------------------------------------------------------------

 SCF Done:  E(RHF) =  -340.174711091     A.U. after    2 cycles

 The electronic state is 1-A.
 Alpha  occ. eigenvalues --  -21.08777 -15.81840 -15.71313 -11.49327 -11.44357
 Alpha  occ. eigenvalues --  -11.42504 -11.40840  -1.81272  -1.46650  -1.29263
 Alpha  occ. eigenvalues --   -1.06563  -1.01439  -0.85837  -0.75073  -0.70107
 Alpha  occ. eigenvalues --   -0.65177  -0.64030  -0.61277  -0.56754  -0.56288
 Alpha  occ. eigenvalues --   -0.49750  -0.47784  -0.39867  -0.39087  -0.31387
 Alpha  occ. eigenvalues --   -0.28983
 Alpha virt. eigenvalues --    0.03368   0.05178   0.05545   0.06120   0.06401
 Alpha virt. eigenvalues --    0.07003   0.08981   0.09220   0.10996   0.11763
 Alpha virt. eigenvalues --    0.12503   0.13789   0.14253   0.14709   0.14927

 Mulliken charges:
               1
     1  C   -3.110716
     2  O   -3.774503
     3  C    5.873638
     4  C    0.091656
     5  N   -2.637758
     6  C   -1.105471
     7  N   -3.377383
     8  H    1.417478
     9  H    1.371662
    10  H    1.421397
    11  H    1.458832
    12  H    1.522895
    13  H    0.848274
 Sum of Mulliken charges =   0.00000

 Dipole moment (field-independent basis, Debye):
    X=              2.1330    Y=             -0.9227    Z=             -0.9320  Tot=              2.5039

 Test job not archived.
 1\1\GINC-SE015\SP\RHF\Aug-CC-pVDZ\C4H6N2O1\OHZDE\09-Apr-2025\0\\#t hf
 aug-cc-pvdz iop(5/13=1,5/36=2,99/5=2) pseudo=read geom=check guess=(re
 ad,tcheck) scf=(maxcycle=1)\\title\\0,1\C,0,-2.13594264,0.07862768,-0.
 17836273\O,0,-1.15496244,-0.74988529,0.41946039\C,0,0.15066113,-0.4324
 1324,0.28809184\C,0,0.55953619,0.70470328,-0.52277444\N,0,1.83787572,0
 .90586064,-0.45796923\C,0,2.7804845,0.50752465,0.19496931\N,0,1.058814
 84,-1.11022465,0.87484376\H,0,-2.07846956,1.10231682,0.200197\H,0,-3.0
 9625669,-0.34991787,0.09880559\H,0,-2.04825122,0.08063564,-1.26798735\

 Normal termination of Gaussian 16 at Wed Apr  9 03:40:30 2025.
