 Gaussian 16, Revision C.01,

 ----------------------------------------------------------------------
 #t hf aug-cc-pvdz symm=none int=(grid=ultrafine) guess=(read,tcheck) s
 table=(opt,rrhf)
 ----------------------------------------------------------------------
 -----
 title
 -----
 Symbolic Z-matrix:
 Charge =  0 Multiplicity = 1

 SCF Done:  E(RHF) =  -272.077128880     A.U. after   13 cycles
 Normal termination of Gaussian 16 at Wed Apr  9 03:39:49 2025.
 Gaussian 16:  ES64L-G16RevC.01  3-Jul-2019

 ----------------------------------------------------------------------
 #t hf aug-cc-pvdz iop(5/13=1,5/36=2,99/5=2) pseudo=read geom=check gue
 ss=(read,tcheck) scf=(maxcycle=1)
 ----------------------------------------------------------------------
 -----
 title
 -----
 Structure from the checkpoint file:  "Grambow2020_wb97xd3_007446_reverse_mol2.chk"
 Charge =  0 Multiplicity = 1

                         Standard orientation:
 ---------------------------------------------------------------------
 Center     Atomic      Atomic             Coordinates (Angstroms)
 Number     Number       Type             X           Y           Z
 ---------------------------------------------------------------------
      1          6           0       -2.689324   -0.355877    0.027099
      2          6           0       -1.554928    0.606330   -0.300373
      3          6           0       -0.242717    0.254015    0.396359
      4          6           0        0.362526   -1.099717   -0.034007
      5          6           0        1.889324   -0.900531   -0.037604
      6          6           0        2.031234    0.595434   -0.129148
      7          6           0        0.884399    1.214777    0.109777
      8          1           0       -3.616362   -0.057863   -0.465773
      9          1           0       -2.878959   -0.386199    1.103331
     10          1           0       -2.456479   -1.373386   -0.295135
     11          1           0       -1.383112    0.626977   -1.382400
     12          1           0       -1.847052    1.622747   -0.016885
     13          1           0       -0.430753    0.250211    1.480013
     14          1           0        0.027852   -1.324747   -1.051380
     15          1           0        0.045956   -1.927975    0.600733
     16          1           0        2.350864   -1.270123    0.885055
     17          1           0        2.975895    1.088582   -0.325055
     18          1           0        2.377862   -1.425478   -0.861709
     19          1           0        0.751204    2.290669    0.136590
 ---------------------------------------------------------------------

 SCF Done:  E(RHF) =  -273.471410940     A.U. after    2 cycles

 The electronic state is 1-A.
 Alpha  occ. eigenvalues --  -11.44678 -11.44290 -11.40791 -11.38609 -11.37429
 Alpha  occ. eigenvalues --  -11.36086 -11.33529  -1.34486  -1.15718  -1.02791
 Alpha  occ. eigenvalues --   -1.00709  -0.88095  -0.79806  -0.75096  -0.68378
 Alpha  occ. eigenvalues --   -0.63731  -0.60497  -0.56852  -0.53495  -0.50148
 Alpha  occ. eigenvalues --   -0.48719  -0.48057  -0.45615  -0.44655  -0.41841
 Alpha  occ. eigenvalues --   -0.41016  -0.32052
 Alpha virt. eigenvalues --    0.04184   0.05068   0.05195   0.05424   0.05726
 Alpha virt. eigenvalues --    0.06058   0.06220   0.06549   0.07457   0.08040
 Alpha virt. eigenvalues --    0.08447   0.09082   0.11970   0.12855   0.13742

 Mulliken charges:
               1
     1  C   -3.997122
     2  C   -3.226846
     3  C   -0.963651
     4  C   -2.894011
     5  C   -4.410497
     6  C   -0.140624
     7  C   -1.032517
     8  H    1.055755
     9  H    1.245833
    10  H    1.396663
    11  H    1.430238
    12  H    1.376727
    13  H    1.673850
    14  H    1.653455
    15  H    1.420795
    16  H    1.274733
    17  H    1.377171
    18  H    1.183312
    19  H    1.576737
 Sum of Mulliken charges =   0.00000

 Dipole moment (field-independent basis, Debye):
    X=              0.0237    Y=             -0.0603    Z=              0.1216  Tot=              0.1378

 Test job not archived.
 1\1\GINC-SE082\SP\RHF\Aug-CC-pVDZ\C7H12\OHZDE\09-Apr-2025\0\\#t hf aug
 -cc-pvdz iop(5/13=1,5/36=2,99/5=2) pseudo=read geom=check guess=(read,
 tcheck) scf=(maxcycle=1)\\title\\0,1\C,0,2.44945058,0.4136937,-0.44431
 864\C,0,1.28437822,-0.53286157,-0.70234\C,0,0.15638045,-0.39592325,0.3
 176243\C,0,-0.54902151,0.97753288,0.30539401\C,0,-2.03493989,0.6945508
 8,0.5930866\C,0,-2.17239761,-0.7624521,0.23998731\C,0,-0.9924716,-1.34
 840711,0.0974023\H,0,3.24690203,0.26893833,-1.17524419\H,0,2.87456459,
 0.24996703,0.54947616\H,0,2.13595047,1.4586561,-0.50040796\H,0,0.87519

 Normal termination of Gaussian 16 at Wed Apr  9 03:39:56 2025.
