 Gaussian 16, Revision C.01,

 ----------------------------------------------------------------------
 #t hf aug-cc-pvdz symm=none int=(grid=ultrafine) guess=(read,tcheck) s
 table=(opt,rrhf)
 ----------------------------------------------------------------------
 -----
 title
 -----
 Symbolic Z-matrix:
 Charge =  0 Multiplicity = 1

 SCF Done:  E(RHF) =  -321.420808406     A.U. after   16 cycles
 Normal termination of Gaussian 16 at Wed Apr  9 03:40:13 2025.
 Gaussian 16:  ES64L-G16RevC.01  3-Jul-2019

 ----------------------------------------------------------------------
 #t hf aug-cc-pvdz iop(5/13=1,5/36=2,99/5=2) pseudo=read geom=check gue
 ss=(read,tcheck) scf=(maxcycle=1)
 ----------------------------------------------------------------------
 -----
 title
 -----
 Structure from the checkpoint file:  "Grambow2020_wb97xd3_007493_reverse_mol2.chk"
 Charge =  0 Multiplicity = 1

                         Standard orientation:
 ---------------------------------------------------------------------
 Center     Atomic      Atomic             Coordinates (Angstroms)
 Number     Number       Type             X           Y           Z
 ---------------------------------------------------------------------
      1          8           0        0.250609    1.680868    0.205045
      2          6           0        0.381573    0.502001   -0.114000
      3          6           0        1.688113   -0.151104   -0.058199
      4          6           0        2.751409   -0.696696    0.024858
      5          6           0       -0.683837   -0.324127   -0.594801
      6          6           0       -1.445608   -1.186049    0.309771
      7          7           0       -1.989230    0.148347   -0.054409
      8          1           0        3.701699   -1.171822    0.093362
      9          1           0       -2.772930    0.212769   -0.685913
     10          1           0       -1.213645   -1.260444    1.370661
     11          1           0       -2.017142   -2.024467   -0.077628
     12          1           0       -1.928138    0.894446    0.634245
 ---------------------------------------------------------------------

 SCF Done:  E(RHF) =  -322.871959361     A.U. after    2 cycles

 The electronic state is 1-A.
 Alpha  occ. eigenvalues --  -21.02731 -15.84908 -11.51148 -11.46875 -11.42442
 Alpha  occ. eigenvalues --  -11.40204 -11.37979  -1.69658  -1.51273  -1.13443
 Alpha  occ. eigenvalues --   -1.04784  -0.96569  -0.84742  -0.78093  -0.72198
 Alpha  occ. eigenvalues --   -0.66079  -0.59638  -0.55403  -0.51373  -0.50761
 Alpha  occ. eigenvalues --   -0.44498  -0.37739  -0.36321  -0.29900  -0.26829
 Alpha virt. eigenvalues --    0.02858   0.04403   0.04774   0.05468   0.06485
 Alpha virt. eigenvalues --    0.08620   0.09546   0.10907   0.11088   0.11873
 Alpha virt. eigenvalues --    0.12808   0.13378   0.14266   0.14488   0.15221

 Mulliken charges:
               1
     1  O   -3.256158
     2  C    3.941009
     3  C    3.532101
     4  C   -4.118011
     5  C   -0.838763
     6  C   -1.983511
     7  N   -2.125166
     8  H    0.739957
     9  H    0.669744
    10  H    1.365769
    11  H    1.405346
    12  H    0.667683
 Sum of Mulliken charges =   0.00000

 Dipole moment (field-independent basis, Debye):
    X=             -3.6039    Y=             -1.1119    Z=              1.7517  Tot=              4.1585

 Test job not archived.
 1\1\GINC-SE338\SP\RHF\Aug-CC-pVDZ\C5H5N1O1\OHZDE\09-Apr-2025\0\\#t hf
 aug-cc-pvdz iop(5/13=1,5/36=2,99/5=2) pseudo=read geom=check guess=(re
 ad,tcheck) scf=(maxcycle=1)\\title\\0,1\O,0,0.43827928,1.00090646,1.76
 875626\C,0,0.62003869,0.64219688,0.60817072\C,0,1.93566394,0.19137845,
 0.15806171\C,0,3.00414632,-0.21486191,-0.20038327\C,0,-0.38924366,0.66
 039612,-0.40660689\C,0,-1.18899521,-0.52812665,-0.70538325\N,0,-1.7397
 5415,0.51031366,0.20405036\H,0,3.95914841,-0.56647479,-0.51315704\H,0,
 -2.48006206,1.11456277,-0.11837654\H,0,-1.02792293,-1.47702613,-0.1969

 Normal termination of Gaussian 16 at Wed Apr  9 03:40:17 2025.
