 Gaussian 16, Revision C.01,

 ----------------------------------------------------------------------
 #t hf aug-cc-pvdz symm=none int=(grid=ultrafine) guess=(read,tcheck) s
 table=(opt,rrhf)
 ----------------------------------------------------------------------
 -----
 title
 -----
 Symbolic Z-matrix:
 Charge =  0 Multiplicity = 1

 SCF Done:  E(RHF) =  -322.710974614     A.U. after   13 cycles
 Normal termination of Gaussian 16 at Wed Apr  9 18:40:32 2025.
 Gaussian 16:  ES64L-G16RevC.01  3-Jul-2019

 ----------------------------------------------------------------------
 #t hf aug-cc-pvdz iop(5/13=1,5/36=2,99/5=2) pseudo=read geom=check gue
 ss=(read,tcheck) scf=(maxcycle=1)
 ----------------------------------------------------------------------
 -----
 title
 -----
 Structure from the checkpoint file:  "Grambow2020_wb97xd3_007390_reverse_mol2.chk"
 Charge =  0 Multiplicity = 1

                         Standard orientation:
 ---------------------------------------------------------------------
 Center     Atomic      Atomic             Coordinates (Angstroms)
 Number     Number       Type             X           Y           Z
 ---------------------------------------------------------------------
      1          6           0       -1.397926    0.560580    0.344576
      2          6           0       -0.341050    1.403007   -0.373341
      3          6           0        0.996694    0.719193   -0.327693
      4          8           0        1.306953    0.038477    0.878424
      5          6           0        1.011795   -0.743604   -0.270471
      6          7           0       -0.197387   -1.502798   -0.286145
      7          6           0       -1.271158   -0.896554    0.000476
      8          1           0       -1.278225    0.662475    1.426723
      9          1           0       -2.404222    0.907190    0.104250
     10          1           0       -0.615197    1.542280   -1.423704
     11          1           0       -0.278638    2.396278    0.075502
     12          1           0        1.835189    1.237820   -0.786416
     13          1           0        1.862250   -1.298215   -0.650368
     14          1           0       -2.185205   -1.491793   -0.011652
 ---------------------------------------------------------------------

 SCF Done:  E(RHF) =  -324.192501411     A.U. after    2 cycles

 The electronic state is 1-A.
 Alpha  occ. eigenvalues --  -21.05979 -15.72921 -11.52930 -11.45548 -11.44014
 Alpha  occ. eigenvalues --  -11.41381 -11.38197  -1.80168  -1.38854  -1.19556
 Alpha  occ. eigenvalues --   -1.04523  -0.93007  -0.88284  -0.75350  -0.71345
 Alpha  occ. eigenvalues --   -0.63655  -0.61367  -0.60347  -0.56346  -0.53234
 Alpha  occ. eigenvalues --   -0.47321  -0.46018  -0.43016  -0.36723  -0.32319
 Alpha  occ. eigenvalues --   -0.30737
 Alpha virt. eigenvalues --    0.03636   0.04794   0.05342   0.05626   0.05762
 Alpha virt. eigenvalues --    0.06496   0.06787   0.09870   0.10958   0.12314
 Alpha virt. eigenvalues --    0.12449   0.12770   0.13980   0.14672   0.14910

 Mulliken charges:
               1
     1  C   -2.707266
     2  C   -2.992595
     3  C    1.015929
     4  O   -2.835968
     5  C    0.694504
     6  N   -3.543287
     7  C    0.468561
     8  H    1.349490
     9  H    1.246134
    10  H    1.295358
    11  H    1.319776
    12  H    1.532749
    13  H    1.533951
    14  H    1.622663
 Sum of Mulliken charges =   0.00000

 Dipole moment (field-independent basis, Debye):
    X=             -0.7206    Y=              1.9492    Z=              0.1212  Tot=              2.0816

 Test job not archived.
 1\1\GINC-SE035\SP\RHF\Aug-CC-pVDZ\C5H7N1O1\OHZDE\09-Apr-2025\0\\#t hf
 aug-cc-pvdz iop(5/13=1,5/36=2,99/5=2) pseudo=read geom=check guess=(re
 ad,tcheck) scf=(maxcycle=1)\\title\\0,1\C,0,-1.26942953,-0.26194333,0.
 13657148\C,0,-0.54627718,1.02844776,-0.25587743\C,0,0.91344962,0.93984
 927,0.09138715\O,0,1.2252461,0.27280809,1.30472725\C,0,1.53556146,-0.3
 8537029,0.08438525\N,0,0.79521132,-1.55461854,-0.26701428\C,0,-0.46794
 991,-1.47875013,-0.23047973\H,0,-1.43191252,-0.27954984,1.21779351\H,0
 ,-2.25351332,-0.3170027,-0.33148326\H,0,-0.62885184,1.19759026,-1.3340

 Normal termination of Gaussian 16 at Wed Apr  9 18:40:36 2025.
