 Gaussian 16, Revision C.01,

 ----------------------------------------------------------------------
 #t hf aug-cc-pvdz symm=none int=(grid=ultrafine) guess=(read,tcheck) s
 table=(opt,rrhf)
 ----------------------------------------------------------------------
 -----
 title
 -----
 Symbolic Z-matrix:
 Charge =  0 Multiplicity = 1

 SCF Done:  E(RHF) =  -322.484473662     A.U. after   15 cycles
 Normal termination of Gaussian 16 at Wed Apr  9 03:27:18 2025.
 Gaussian 16:  ES64L-G16RevC.01  3-Jul-2019

 ----------------------------------------------------------------------
 #t hf aug-cc-pvdz iop(5/13=1,5/36=2,99/5=2) pseudo=read geom=check gue
 ss=(read,tcheck) scf=(maxcycle=1)
 ----------------------------------------------------------------------
 -----
 title
 -----
 Structure from the checkpoint file:  "Grambow2020_wb97xd3_006650_reverse_mol2.chk"
 Charge =  0 Multiplicity = 1

                         Standard orientation:
 ---------------------------------------------------------------------
 Center     Atomic      Atomic             Coordinates (Angstroms)
 Number     Number       Type             X           Y           Z
 ---------------------------------------------------------------------
      1          6           0        1.724304    0.809773    0.077397
      2          7           0        1.626713   -0.675942   -0.057471
      3          6           0        0.411860    0.185150    0.060209
      4          6           0       -0.842704   -0.097208    0.836619
      5          6           0       -1.524697    0.937639   -0.046826
      6          6           0       -0.654949    0.053268   -1.046064
      7          8           0       -1.147633   -1.147590   -0.077050
      8          1           0        2.190118    1.124557    1.003591
      9          1           0        2.079193    1.300244   -0.822652
     10          1           0        1.913815   -1.261656    0.711475
     11          1           0       -0.940331   -0.293075    1.915850
     12          1           0       -1.246131    1.990295    0.063306
     13          1           0       -2.598300    0.799545   -0.156325
     14          1           0        1.712828   -1.079326   -0.984554
 ---------------------------------------------------------------------

 SCF Done:  E(RHF) =  -323.991705761     A.U. after    2 cycles

 The electronic state is 1-A.
 Alpha  occ. eigenvalues --  -20.98153 -15.86823 -11.52293 -11.48832 -11.43840
 Alpha  occ. eigenvalues --  -11.38496 -11.34812  -1.73996  -1.52810  -1.16723
 Alpha  occ. eigenvalues --   -1.04910  -0.92783  -0.88734  -0.78791  -0.77701
 Alpha  occ. eigenvalues --   -0.63720  -0.62344  -0.58184  -0.56849  -0.54437
 Alpha  occ. eigenvalues --   -0.45095  -0.43005  -0.40774  -0.32013  -0.24182
 Alpha  occ. eigenvalues --   -0.22836
 Alpha virt. eigenvalues --    0.02222   0.03606   0.04383   0.04986   0.05707
 Alpha virt. eigenvalues --    0.06128   0.07700   0.09737   0.09992   0.11017
 Alpha virt. eigenvalues --    0.11808   0.13091   0.13693   0.14105   0.14405

 Mulliken charges:
               1
     1  C   -2.555481
     2  N   -2.653558
     3  C    4.375850
     4  C   -0.799548
     5  C   -2.598429
     6  C   -0.919538
     7  O   -2.441417
     8  H    1.246911
     9  H    1.340407
    10  H    0.665614
    11  H    1.158932
    12  H    1.228993
    13  H    1.298784
    14  H    0.652480
 Sum of Mulliken charges =  -0.00000

 Dipole moment (field-independent basis, Debye):
    X=              6.4463    Y=             -0.3943    Z=              3.5927  Tot=              7.3904

 Test job not archived.
 1\1\GINC-SE090\SP\RHF\Aug-CC-pVDZ\C5H7N1O1\OHZDE\09-Apr-2025\0\\#t hf
 aug-cc-pvdz iop(5/13=1,5/36=2,99/5=2) pseudo=read geom=check guess=(re
 ad,tcheck) scf=(maxcycle=1)\\title\\0,1\C,0,-1.38328224,-0.81303342,-0
 .44349769\N,0,-1.54476481,0.66333631,-0.27227327\C,0,-0.22456952,-0.01
 06453,-0.08780465\C,0,0.81668876,0.27838278,0.95560905\C,0,1.81061535,
 -0.42237742,0.04043528\C,0,0.95982158,0.51988663,-0.92151127\O,0,1.060
 43204,1.53772384,0.3345423\H,0,-1.92234751,-1.39019779,0.29825501\H,0,
 -1.49379656,-1.14069819,-1.47161228\H,0,-2.05385714,1.01554007,0.52368

 Normal termination of Gaussian 16 at Wed Apr  9 03:27:23 2025.
