 Gaussian 16, Revision C.01,

 ----------------------------------------------------------------------
 #t hf aug-cc-pvdz symm=none int=(grid=ultrafine) guess=(read,tcheck) s
 table=(opt,rrhf)
 ----------------------------------------------------------------------
 -----
 title
 -----
 Symbolic Z-matrix:
 Charge =  0 Multiplicity = 1

 SCF Done:  E(RHF) =  -263.687423832     A.U. after   16 cycles
 Normal termination of Gaussian 16 at Wed Apr  9 16:52:55 2025.
 Gaussian 16:  ES64L-G16RevC.01  3-Jul-2019

 ----------------------------------------------------------------------
 #t hf aug-cc-pvdz iop(5/13=1,5/36=2,99/5=2) pseudo=read geom=check gue
 ss=(read,tcheck) scf=(maxcycle=1)
 ----------------------------------------------------------------------
 -----
 title
 -----
 Structure from the checkpoint file:  "Grambow2020_b97d3_006863_forward_mol1.chk"
 Charge =  0 Multiplicity = 1

                         Standard orientation:
 ---------------------------------------------------------------------
 Center     Atomic      Atomic             Coordinates (Angstroms)
 Number     Number       Type             X           Y           Z
 ---------------------------------------------------------------------
      1          6           0       -1.724570    0.101320    0.569637
      2          6           0       -0.381559    0.865080   -0.728274
      3          6           0        0.836393    1.062391   -0.012281
      4          7           0        1.360618   -0.147094    0.325872
      5          7           0        0.624932   -1.206310    0.008114
      6          6           0       -0.478801   -0.584527   -0.586784
      7          1           0       -1.684478   -0.758851    1.248136
      8          1           0       -1.590006    1.020376    1.138233
      9          1           0       -2.652223    0.130308   -0.000016
     10          1           0        1.380764    1.973615    0.224267
     11          1           0        2.263389   -0.322016    0.771333
     12          1           0       -1.125070   -1.235187   -1.173647
 ---------------------------------------------------------------------

 SCF Done:  E(RHF) =  -264.948389813     A.U. after    2 cycles

 The electronic state is 1-A.
 Alpha  occ. eigenvalues --  -15.86264 -15.74683 -11.43448 -11.42339 -11.41478
 Alpha  occ. eigenvalues --  -11.35543  -1.61445  -1.21107  -1.15118  -1.00084
 Alpha  occ. eigenvalues --   -0.83538  -0.79844  -0.72073  -0.62903  -0.59781
 Alpha  occ. eigenvalues --   -0.58267  -0.54008  -0.51308  -0.43803  -0.39292
 Alpha  occ. eigenvalues --   -0.32100  -0.29397
 Alpha virt. eigenvalues --    0.03229   0.04791   0.05337   0.06189   0.06535
 Alpha virt. eigenvalues --    0.06684   0.09340   0.09758   0.11209   0.12075
 Alpha virt. eigenvalues --    0.13385   0.14016   0.15043   0.15318   0.15858

 Mulliken charges:
               1
     1  C   -3.298909
     2  C   -1.205498
     3  C    0.480132
     4  N   -1.843883
     5  N   -2.069756
     6  C    0.248459
     7  H    1.177963
     8  H    1.330659
     9  H    1.185123
    10  H    1.512117
    11  H    0.927037
    12  H    1.556557
 Sum of Mulliken charges =  -0.00000

 Dipole moment (field-independent basis, Debye):
    X=              1.4510    Y=             -0.8397    Z=              2.6404  Tot=              3.1276

 Test job not archived.
 1\1\GINC-SE042\SP\RHF\Aug-CC-pVDZ\C4H6N2\OHZDE\09-Apr-2025\0\\#t hf au
 g-cc-pvdz iop(5/13=1,5/36=2,99/5=2) pseudo=read geom=check guess=(read
 ,tcheck) scf=(maxcycle=1)\\title\\0,1\C,0,-1.50004033,0.20306234,-0.07
 907582\C,0,-0.0291345,-0.84817748,0.81697797\C,0,0.96972566,-1.1057926
 9,-0.16836323\N,0,1.57059135,0.06451212,-0.51672963\N,0,1.07160118,1.1
 6070127,0.04319917\C,0,0.04525688,0.60966331,0.81890383\H,0,-1.4878367
 8,1.12171979,-0.67722382\H,0,-1.61678604,-0.65776917,-0.73589526\H,0,-
 2.28020416,0.21963443,0.68050011\H,0,1.32119062,-2.0425961,-0.59438788

 Normal termination of Gaussian 16 at Wed Apr  9 16:52:59 2025.
