 Gaussian 16, Revision C.01,

 ----------------------------------------------------------------------
 #t hf aug-cc-pvdz symm=none int=(grid=ultrafine) guess=(read,tcheck) s
 table=(opt,rrhf)
 ----------------------------------------------------------------------
 -----
 title
 -----
 Symbolic Z-matrix:
 Charge =  0 Multiplicity = 1

 SCF Done:  E(RHF) =  -352.281098902     A.U. after   18 cycles
 Normal termination of Gaussian 16 at Wed Apr  9 03:51:15 2025.
 Gaussian 16:  ES64L-G16RevC.01  3-Jul-2019

 ----------------------------------------------------------------------
 #t hf aug-cc-pvdz iop(5/13=1,5/36=2,99/5=2) pseudo=read geom=check gue
 ss=(read,tcheck) scf=(maxcycle=1)
 ----------------------------------------------------------------------
 -----
 title
 -----
 Structure from the checkpoint file:  "Grambow2020_wb97xd3_008226_forward_mol1.chk"
 Charge =  0 Multiplicity = 1

                         Standard orientation:
 ---------------------------------------------------------------------
 Center     Atomic      Atomic             Coordinates (Angstroms)
 Number     Number       Type             X           Y           Z
 ---------------------------------------------------------------------
      1          7           0        1.662122   -0.344718   -0.510295
      2          6           0        2.051433   -0.537930    0.615706
      3          6           0        0.254986   -0.126517   -0.113295
      4          6           0       -0.766546   -1.157171   -0.055112
      5          8           0       -1.939415   -0.926851    0.101719
      6          7           0       -0.561631    2.154297    0.057955
      7          7           0       -0.152226    1.122363   -0.023977
      8          1           0       -0.361774   -2.179073   -0.163315
 ---------------------------------------------------------------------

 SCF Done:  E(RHF) =  -353.797802732     A.U. after    2 cycles

 The electronic state is 1-A.
 Alpha  occ. eigenvalues --  -21.07139 -15.98127 -15.92488 -15.80523 -11.53441
 Alpha  occ. eigenvalues --  -11.49031 -11.48327  -1.73753  -1.67077  -1.47658
 Alpha  occ. eigenvalues --   -1.19805  -0.96911  -0.79071  -0.74102  -0.71517
 Alpha  occ. eigenvalues --   -0.67975  -0.63911  -0.60110  -0.54086  -0.50425
 Alpha  occ. eigenvalues --   -0.49290  -0.48513  -0.32295  -0.32043
 Alpha virt. eigenvalues --    0.04268   0.06141   0.07691   0.08127   0.08812
 Alpha virt. eigenvalues --    0.09510   0.09771   0.10269   0.11010   0.12452
 Alpha virt. eigenvalues --    0.13714   0.14084   0.14851   0.15061   0.17144

 Mulliken charges:
               1
     1  N   -1.817846
     2  C   -0.233959
     3  C    2.486053
     4  C    1.961682
     5  O   -2.972026
     6  N   -1.635381
     7  N    0.661447
     8  H    1.550031
 Sum of Mulliken charges =   0.00000

 Dipole moment (field-independent basis, Debye):
    X=             -0.3262    Y=              0.8790    Z=             -0.7743  Tot=              1.2160

 Test job not archived.
 1\1\GINC-SE094\SP\RHF\Aug-CC-pVDZ\C3H1N3O1\OHZDE\09-Apr-2025\0\\#t hf
 aug-cc-pvdz iop(5/13=1,5/36=2,99/5=2) pseudo=read geom=check guess=(re
 ad,tcheck) scf=(maxcycle=1)\\title\\0,1\N,0,1.61086821,-0.28950508,0.6
 4972118\C,0,2.00476997,-0.45558818,-0.47900736\C,0,0.19008845,-0.16230
 784,0.26183012\C,0,-0.48534249,1.08745654,-0.03990123\O,0,-1.67842288,
 1.18415775,-0.18298145\N,0,-1.26471641,-2.08720726,0.53861355\N,0,-0.5
 6820897,-1.22709995,0.41900479\H,0,0.20460613,1.94497701,-0.1318956\\V
 ersion=ES64L-G16RevC.01\State=1-A\HF=-353.7978027\RMSD=2.816e-01\Dipol

 Normal termination of Gaussian 16 at Wed Apr  9 03:51:17 2025.
