 Gaussian 16, Revision C.01,

 ----------------------------------------------------------------------
 #t hf aug-cc-pvdz symm=none int=(grid=ultrafine) guess=(read,tcheck) s
 table=(opt,rrhf)
 ----------------------------------------------------------------------
 -----
 title
 -----
 Symbolic Z-matrix:
 Charge =  0 Multiplicity = 1

 SCF Done:  E(RHF) =  -322.590607818     A.U. after   15 cycles
 Normal termination of Gaussian 16 at Wed Apr  9 03:26:47 2025.
 Gaussian 16:  ES64L-G16RevC.01  3-Jul-2019

 ----------------------------------------------------------------------
 #t hf aug-cc-pvdz iop(5/13=1,5/36=2,99/5=2) pseudo=read geom=check gue
 ss=(read,tcheck) scf=(maxcycle=1)
 ----------------------------------------------------------------------
 -----
 title
 -----
 Structure from the checkpoint file:  "Grambow2020_wb97xd3_006637_reverse_mol2.chk"
 Charge =  0 Multiplicity = 1

                         Standard orientation:
 ---------------------------------------------------------------------
 Center     Atomic      Atomic             Coordinates (Angstroms)
 Number     Number       Type             X           Y           Z
 ---------------------------------------------------------------------
      1          8           0       -1.800768   -0.751135   -0.073859
      2          6           0       -1.643879    0.497325    0.301040
      3          6           0       -0.366650    1.064350   -0.153029
      4          6           0        0.909432    0.777053    0.556760
      5          6           0        1.107052   -0.699221    0.861573
      6          6           0        0.982266   -0.913904   -0.658178
      7          7           0        0.791351    0.550209   -0.909855
      8          1           0       -2.642918   -1.058005    0.276985
      9          1           0       -0.481006    2.125259   -0.352516
     10          1           0        1.491091    1.588266    0.978451
     11          1           0        0.363481   -1.169175    1.504712
     12          1           0        2.100054   -0.920972    1.247634
     13          1           0        0.182748   -1.549519   -1.027473
     14          1           0        1.923915   -1.211856   -1.116929
 ---------------------------------------------------------------------

 SCF Done:  E(RHF) =  -324.064685842     A.U. after    2 cycles

 The electronic state is 1-A.
 Alpha  occ. eigenvalues --  -21.14496 -15.72107 -11.50444 -11.44476 -11.42974
 Alpha  occ. eigenvalues --  -11.40553 -11.37187  -1.79727  -1.52578  -1.12279
 Alpha  occ. eigenvalues --   -1.02062  -0.95340  -0.78642  -0.77563  -0.70371
 Alpha  occ. eigenvalues --   -0.65480  -0.59302  -0.58201  -0.54764  -0.52841
 Alpha  occ. eigenvalues --   -0.47320  -0.45351  -0.42105  -0.40401  -0.32955
 Alpha  occ. eigenvalues --   -0.29467
 Alpha virt. eigenvalues --    0.03721   0.05161   0.05515   0.05891   0.06066
 Alpha virt. eigenvalues --    0.06800   0.06940   0.09529   0.10513   0.11172
 Alpha virt. eigenvalues --    0.11817   0.13156   0.13561   0.13819   0.14690

 Mulliken charges:
               1
     1  O   -2.587078
     2  C   -0.596776
     3  C    1.426855
     4  C   -0.192214
     5  C   -3.041383
     6  C   -2.735421
     7  N   -1.828399
     8  H    1.147994
     9  H    1.651299
    10  H    1.284615
    11  H    1.314796
    12  H    1.109129
    13  H    1.727478
    14  H    1.319105
 Sum of Mulliken charges =  -0.00000

 Dipole moment (field-independent basis, Debye):
    X=              0.5698    Y=             -2.4840    Z=              0.2238  Tot=              2.5583

 Test job not archived.
 1\1\GINC-SE029\SP\RHF\Aug-CC-pVDZ\C5H7N1O1\OHZDE\09-Apr-2025\0\\#t hf
 aug-cc-pvdz iop(5/13=1,5/36=2,99/5=2) pseudo=read geom=check guess=(re
 ad,tcheck) scf=(maxcycle=1)\\title\\0,1\O,0,1.22383885,1.18033203,1.26
 065002\C,0,1.54597876,1.20224897,-0.01197042\C,0,0.40273965,0.90665103
 ,-0.88640465\C,0,-0.06439314,-0.48800305,-1.11323772\C,0,-0.20700434,-
 1.28916254,0.17095689\C,0,-1.18883688,-0.18912593,0.61506056\N,0,-1.01
 636928,0.56599105,-0.66691904\H,0,2.02239926,1.35922018,1.7673811\H,0,
 0.49884601,1.45110807,-1.82060538\H,0,-0.07607356,-0.90086334,-2.11504

 Normal termination of Gaussian 16 at Wed Apr  9 03:26:52 2025.
