 Gaussian 16, Revision C.01,

 ----------------------------------------------------------------------
 #t hf aug-cc-pvdz symm=none int=(grid=ultrafine) guess=(read,tcheck) s
 table=(opt,rrhf)
 ----------------------------------------------------------------------
 -----
 title
 -----
 Symbolic Z-matrix:
 Charge =  0 Multiplicity = 1

 SCF Done:  E(RHF) =  -267.456477501     A.U. after   17 cycles
 Normal termination of Gaussian 16 at Wed Apr  9 16:46:51 2025.
 Gaussian 16:  ES64L-G16RevC.01  3-Jul-2019

 ----------------------------------------------------------------------
 #t hf aug-cc-pvdz iop(5/13=1,5/36=2,99/5=2) pseudo=read geom=check gue
 ss=(read,tcheck) scf=(maxcycle=1)
 ----------------------------------------------------------------------
 -----
 title
 -----
 Structure from the checkpoint file:  "Grambow2020_b97d3_006836_forward_mol1.chk"
 Charge =  0 Multiplicity = 1

                         Standard orientation:
 ---------------------------------------------------------------------
 Center     Atomic      Atomic             Coordinates (Angstroms)
 Number     Number       Type             X           Y           Z
 ---------------------------------------------------------------------
      1          6           0       -2.946815   -0.039032    0.201672
      2          6           0       -1.653876    0.116840   -0.518801
      3          6           0       -0.435748   -0.115485   -0.116439
      4          6           0        0.940459   -0.052589   -0.055503
      5          6           0        2.278060   -0.598661   -0.028227
      6          8           0        1.931654    0.855430    0.144326
      7          1           0       -3.501085    0.912331    0.150484
      8          1           0       -3.578908   -0.770932   -0.326470
      9          1           0       -2.882849   -0.338161    1.264758
     10          1           0       -0.061511   -0.627497    0.950276
     11          1           0        2.798625   -0.819802   -0.963813
     12          1           0        2.680015   -1.065815    0.873945
 ---------------------------------------------------------------------

 SCF Done:  E(RHF) =  -268.684462816     A.U. after    2 cycles

 The electronic state is 1-A.
 Alpha  occ. eigenvalues --  -21.13365 -11.57048 -11.51022 -11.43170 -11.38825
 Alpha  occ. eigenvalues --  -11.36461  -1.83934  -1.20770  -1.07340  -1.02251
 Alpha  occ. eigenvalues --   -0.87580  -0.74382  -0.71052  -0.59925  -0.56902
 Alpha  occ. eigenvalues --   -0.55415  -0.54020  -0.49837  -0.45355  -0.40378
 Alpha  occ. eigenvalues --   -0.32668  -0.25989
 Alpha virt. eigenvalues --    0.02579   0.04799   0.04908   0.05922   0.07168
 Alpha virt. eigenvalues --    0.07460   0.08677   0.09720   0.10677   0.11156
 Alpha virt. eigenvalues --    0.12091   0.12298   0.13213   0.14418   0.15701

 Mulliken charges:
               1
     1  C   -4.639855
     2  C   -2.615111
     3  C    1.294417
     4  C    3.902391
     5  C   -2.515235
     6  O   -2.561765
     7  H    1.127194
     8  H    1.133021
     9  H    1.232672
    10  H    1.171152
    11  H    1.256153
    12  H    1.214967
 Sum of Mulliken charges =  -0.00000

 Dipole moment (field-independent basis, Debye):
    X=              4.4051    Y=             -0.5288    Z=              1.8598  Tot=              4.8108

 Test job not archived.
 1\1\GINC-SE229\SP\RHF\Aug-CC-pVDZ\C5H6O1\OHZDE\09-Apr-2025\0\\#t hf au
 g-cc-pvdz iop(5/13=1,5/36=2,99/5=2) pseudo=read geom=check guess=(read
 ,tcheck) scf=(maxcycle=1)\\title\\0,1\C,0,-2.59453818,0.12896903,0.363
 87837\C,0,-1.33340851,-0.65169614,0.24065947\C,0,-0.0937694,-0.2479990
 9,0.23524372\C,0,1.26636614,-0.25048988,0.00799847\C,0,2.65823827,-0.1
 4196715,0.38086508\O,0,2.14746841,-0.30249921,-1.02537008\H,0,-3.25531
 321,-0.12430992,-0.48119712\H,0,-3.14162545,-0.19148167,1.26507876\H,0
 ,-2.48889427,1.22970672,0.39446948\H,0,0.34467109,0.89545138,0.4361941

 Normal termination of Gaussian 16 at Wed Apr  9 16:46:55 2025.
