 Gaussian 16, Revision C.01,

 ----------------------------------------------------------------------
 #t hf aug-cc-pvdz symm=none int=(grid=ultrafine) guess=(read,tcheck) s
 table=(opt,rrhf)
 ----------------------------------------------------------------------
 -----
 title
 -----
 Symbolic Z-matrix:
 Charge =  0 Multiplicity = 1

 SCF Done:  E(RHF) =  -306.661689641     A.U. after   14 cycles
 Normal termination of Gaussian 16 at Wed Apr  9 04:04:43 2025.
 Gaussian 16:  ES64L-G16RevC.01  3-Jul-2019

 ----------------------------------------------------------------------
 #t hf aug-cc-pvdz iop(5/13=1,5/36=2,99/5=2) pseudo=read geom=check gue
 ss=(read,tcheck) scf=(maxcycle=1)
 ----------------------------------------------------------------------
 -----
 title
 -----
 Structure from the checkpoint file:  "Grambow2020_wb97xd3_009206_forward_mol2.chk"
 Charge =  0 Multiplicity = 1

                         Standard orientation:
 ---------------------------------------------------------------------
 Center     Atomic      Atomic             Coordinates (Angstroms)
 Number     Number       Type             X           Y           Z
 ---------------------------------------------------------------------
      1          6           0        3.485871    0.433818    0.075518
      2          6           0        2.118410   -0.061797   -0.031495
      3          6           0        0.997269   -0.475534   -0.124059
      4          6           0       -0.381227   -0.953259   -0.217185
      5          6           0       -1.349073   -0.010555    0.458966
      6          6           0       -2.074304    1.006800   -0.289859
      7          8           0       -2.715221   -0.186972    0.139315
      8          1           0        4.181414   -0.236607   -0.431531
      9          1           0        3.576958    1.422467   -0.376951
     10          1           0        3.789690    0.509850    1.120700
     11          1           0       -0.461684   -1.940145    0.247473
     12          1           0       -0.672383   -1.070943   -1.264045
     13          1           0       -1.152752    0.171473    1.513723
     14          1           0       -2.403341    1.914407    0.206958
     15          1           0       -1.917808    1.088429   -1.362174
 ---------------------------------------------------------------------

 SCF Done:  E(RHF) =  -308.099102286     A.U. after    2 cycles

 The electronic state is 1-A.
 Alpha  occ. eigenvalues --  -21.06061 -11.49841 -11.45695 -11.43870 -11.41553
 Alpha  occ. eigenvalues --  -11.38689 -11.38415  -1.78876  -1.21750  -1.12514
 Alpha  occ. eigenvalues --   -0.98339  -0.95296  -0.85886  -0.71117  -0.65939
 Alpha  occ. eigenvalues --   -0.62836  -0.59160  -0.58561  -0.57478  -0.56318
 Alpha  occ. eigenvalues --   -0.51801  -0.44902  -0.37148  -0.35202  -0.34826
 Alpha  occ. eigenvalues --   -0.30752
 Alpha virt. eigenvalues --    0.03063   0.04857   0.05264   0.05696   0.06317
 Alpha virt. eigenvalues --    0.06639   0.06726   0.07081   0.09152   0.11347
 Alpha virt. eigenvalues --    0.11833   0.12301   0.12661   0.13965   0.14362

 Mulliken charges:
               1
     1  C   -5.444546
     2  C    1.723802
     3  C    3.486943
     4  C   -4.628410
     5  C    1.244871
     6  C   -2.432491
     7  O   -2.693824
     8  H    0.882547
     9  H    0.903033
    10  H    0.884051
    11  H    0.960125
    12  H    0.927544
    13  H    1.347985
    14  H    1.426043
    15  H    1.412327
 Sum of Mulliken charges =  -0.00000

 Dipole moment (field-independent basis, Debye):
    X=              0.7116    Y=              0.3468    Z=              0.0271  Tot=              0.7920

 Test job not archived.
 1\1\GINC-SE367\SP\RHF\Aug-CC-pVDZ\C6H8O1\OHZDE\09-Apr-2025\0\\#t hf au
 g-cc-pvdz iop(5/13=1,5/36=2,99/5=2) pseudo=read geom=check guess=(read
 ,tcheck) scf=(maxcycle=1)\\title\\0,1\C,0,2.62292622,-1.06807897,-1.55
 497438\C,0,1.6269078,-0.2948449,-0.82210751\C,0,0.81444406,0.34460269,
 -0.21571492\C,0,-0.20202385,1.10794327,0.50626209\C,0,-1.60018462,0.66
 82632,0.1396179\C,0,-2.33175555,-0.3016388,0.9432371\O,0,-2.63227475,1
 .08583799,1.01144394\H,0,3.63241721,-0.76456445,-1.27362789\H,0,2.5183
 2339,-2.13369925,-1.34530257\H,0,2.51250399,-0.9215867,-2.63053857\H,0

 Normal termination of Gaussian 16 at Wed Apr  9 04:04:48 2025.
