 Gaussian 16, Revision C.01,

 ----------------------------------------------------------------------
 #t hf aug-cc-pvdz symm=none int=(grid=ultrafine) guess=(read,tcheck) s
 table=(opt,rrhf)
 ----------------------------------------------------------------------
 -----
 title
 -----
 Symbolic Z-matrix:
 Charge =  0 Multiplicity = 1

 SCF Done:  E(RHF) =  -373.295878620     A.U. after   17 cycles
 Normal termination of Gaussian 16 at Wed Apr  9 04:04:26 2025.
 Gaussian 16:  ES64L-G16RevC.01  3-Jul-2019

 ----------------------------------------------------------------------
 #t hf aug-cc-pvdz iop(5/13=1,5/36=2,99/5=2) pseudo=read geom=check gue
 ss=(read,tcheck) scf=(maxcycle=1)
 ----------------------------------------------------------------------
 -----
 title
 -----
 Structure from the checkpoint file:  "Grambow2020_wb97xd3_009222_forward_mol1.chk"
 Charge =  0 Multiplicity = 1

                         Standard orientation:
 ---------------------------------------------------------------------
 Center     Atomic      Atomic             Coordinates (Angstroms)
 Number     Number       Type             X           Y           Z
 ---------------------------------------------------------------------
      1          7           0        1.675493   -1.346109   -0.000077
      2          6           0        0.866335   -0.496313    0.000200
      3          8           0       -1.086214   -1.236596   -0.000069
      4          6           0       -1.675807   -0.159359   -0.000008
      5          8           0       -1.086962    0.983253   -0.000052
      6          6           0        0.470710    0.883954   -0.000022
      7          7           0        1.254788    1.790473   -0.000006
      8          1           0        1.678921   -2.348879    0.000073
      9          1           0       -2.772911   -0.104627    0.000462
 ---------------------------------------------------------------------

 SCF Done:  E(RHF) =  -374.882442484     A.U. after    2 cycles

 The electronic state is 1-A.
 Alpha  occ. eigenvalues --  -21.11823 -21.09094 -15.85432 -15.72357 -11.60121
 Alpha  occ. eigenvalues --  -11.53869 -11.48300  -1.87900  -1.69147  -1.44659
 Alpha  occ. eigenvalues --   -1.29443  -0.99751  -0.89997  -0.80807  -0.70383
 Alpha  occ. eigenvalues --   -0.63431  -0.62468  -0.59753  -0.55764  -0.49297
 Alpha  occ. eigenvalues --   -0.45930  -0.44699  -0.36493  -0.33289  -0.28314
 Alpha virt. eigenvalues --    0.02688   0.04170   0.08087   0.08625   0.09587
 Alpha virt. eigenvalues --    0.09832   0.10079   0.11540   0.11972   0.12163
 Alpha virt. eigenvalues --    0.13613   0.13713   0.14215   0.15212   0.16573

 Mulliken charges:
               1
     1  N   -3.137391
     2  C    1.916129
     3  O   -2.570017
     4  C    2.470412
     5  O   -3.014174
     6  C    4.506871
     7  N   -2.966383
     8  H    0.925926
     9  H    1.868627
 Sum of Mulliken charges =   0.00000

 Dipole moment (field-independent basis, Debye):
    X=             -1.9770    Y=             -5.4702    Z=              0.0006  Tot=              5.8165

 Test job not archived.
 1\1\GINC-SE435\SP\RHF\Aug-CC-pVDZ\C3H2N2O2\OHZDE\09-Apr-2025\0\\#t hf
 aug-cc-pvdz iop(5/13=1,5/36=2,99/5=2) pseudo=read geom=check guess=(re
 ad,tcheck) scf=(maxcycle=1)\\title\\0,1\N,0,-1.81528572,-1.00191795,0.
 13954838\C,0,-0.95605265,-0.20815269,0.04711202\O,0,0.94659057,-1.0685
 5541,0.05818772\C,0,1.60070142,-0.03459643,-0.04729689\O,0,1.08316509,
 1.13930768,-0.12733071\C,0,-0.47689959,1.13956108,-0.07834048\N,0,-1.2
 0365575,2.09104809,-0.13360258\H,0,-1.88006774,-1.99908999,0.22327607\
 H,0,2.69854538,-0.04994037,-0.08102154\\Version=ES64L-G16RevC.01\State

 Normal termination of Gaussian 16 at Wed Apr  9 04:04:29 2025.
