 Gaussian 16, Revision C.01,

 ----------------------------------------------------------------------
 #t hf aug-cc-pvdz symm=none int=(grid=ultrafine) guess=(read,tcheck) s
 table=(opt,rrhf)
 ----------------------------------------------------------------------
 -----
 title
 -----
 Symbolic Z-matrix:
 Charge =  0 Multiplicity = 1

 SCF Done:  E(RHF) =  -336.781470072     A.U. after   13 cycles
 Normal termination of Gaussian 16 at Wed Apr  9 17:22:07 2025.
 Gaussian 16:  ES64L-G16RevC.01  3-Jul-2019

 ----------------------------------------------------------------------
 #t hf aug-cc-pvdz iop(5/13=1,5/36=2,99/5=2) pseudo=read geom=check gue
 ss=(read,tcheck) scf=(maxcycle=1)
 ----------------------------------------------------------------------
 -----
 title
 -----
 Structure from the checkpoint file:  "Grambow2020_b97d3_007114_forward_mol2.chk"
 Charge =  0 Multiplicity = 1

                         Standard orientation:
 ---------------------------------------------------------------------
 Center     Atomic      Atomic             Coordinates (Angstroms)
 Number     Number       Type             X           Y           Z
 ---------------------------------------------------------------------
      1          7           0       -1.574840    0.838639    0.000801
      2          6           0       -0.742082   -0.227886   -0.000637
      3          8           0       -1.068542   -1.417012   -0.001081
      4          6           0        0.742145    0.227440   -0.000407
      5          8           0        1.067829    1.416840   -0.001043
      6          7           0        1.575422   -0.838307    0.001258
      7          1           0       -1.158676    1.765162    0.002064
      8          1           0       -2.579137    0.710697    0.003628
      9          1           0        2.579559   -0.709261    0.001197
     10          1           0        1.159507   -1.764864    0.001952
 ---------------------------------------------------------------------

 SCF Done:  E(RHF) =  -338.225495916     A.U. after    2 cycles

 The electronic state is 1-A.
 Alpha  occ. eigenvalues --  -21.05263 -21.05214 -15.79599 -15.79548 -11.53951
 Alpha  occ. eigenvalues --  -11.49562  -1.74014  -1.69682  -1.36321  -1.35778
 Alpha  occ. eigenvalues --   -0.97012  -0.79565  -0.75728  -0.70798  -0.61164
 Alpha  occ. eigenvalues --   -0.59598  -0.56194  -0.50474  -0.48888  -0.37363
 Alpha  occ. eigenvalues --   -0.35171  -0.33011  -0.27583
 Alpha virt. eigenvalues --    0.03379   0.05120   0.06585   0.07033   0.10351
 Alpha virt. eigenvalues --    0.12141   0.12273   0.12296   0.12359   0.12729
 Alpha virt. eigenvalues --    0.14889   0.16108   0.16879   0.17407   0.18777

 Mulliken charges:
               1
     1  N   -2.782386
     2  C    4.300884
     3  O   -3.044117
     4  C    4.304202
     5  O   -3.044350
     6  N   -2.783796
     7  H    0.785286
     8  H    0.739349
     9  H    0.739701
    10  H    0.785227
 Sum of Mulliken charges =  -0.00000

 Dipole moment (field-independent basis, Debye):
    X=              0.0023    Y=             -0.0006    Z=              0.0082  Tot=              0.0085

 Test job not archived.
 1\1\GINC-SE051\SP\RHF\Aug-CC-pVDZ\C2H4N2O2\OHZDE\09-Apr-2025\0\\#t hf
 aug-cc-pvdz iop(5/13=1,5/36=2,99/5=2) pseudo=read geom=check guess=(re
 ad,tcheck) scf=(maxcycle=1)\\title\\0,1\N,0,-1.74123125,0.15920684,0.3
 5543638\C,0,-0.49814749,0.59391718,0.04441756\O,0,-0.15448951,1.761500
 87,-0.15368874\C,0,0.49892191,-0.59294028,-0.0420248\O,0,0.15470359,-1
 .7602171,0.15727966\N,0,1.74138866,-0.15948293,-0.35596772\H,0,-1.8748
 3283,-0.83868783,0.48958902\H,0,-2.50963492,0.81201597,0.44700855\H,0,
 2.50851393,-0.81341232,-0.44999006\H,0,1.8748079,0.8380996,-0.49205984

 Normal termination of Gaussian 16 at Wed Apr  9 17:22:10 2025.
