 Gaussian 16, Revision C.01,

 ----------------------------------------------------------------------
 #t hf aug-cc-pvdz symm=none int=(grid=ultrafine) guess=(read,tcheck) s
 table=(opt,rrhf)
 ----------------------------------------------------------------------
 -----
 title
 -----
 Symbolic Z-matrix:
 Charge =  0 Multiplicity = 1

 SCF Done:  E(RHF) =  -344.781320770     A.U. after   14 cycles

 1\1\GINC-SE402\Stability\RHF\Aug-CC-pVDZ\C5H10O2\OHZDE\09-Apr-2025\0\\
 #t hf aug-cc-pvdz symm=none int=(grid=ultrafine) guess=(read,tcheck) s
 table=(opt,rrhf)\\title\\0,1\C,0,-2.40064906,0.46034835,-0.33077082\C,
 0,-0.56490761,-1.24298282,-0.38265707\O,0,-1.11196941,0.16542825,-0.86
 939323\C,0,0.40272596,-0.96163509,0.74657505\C,0,1.77345677,-0.2966105
 8,0.48806203\C,0,1.78149735,1.14159082,0.10096118\O,0,0.82471707,1.786
 26907,-0.27675501\H,0,-2.36577122,0.46807831,0.75960851\H,0,-2.7158514
 4,1.43187018,-0.71466669\H,0,-3.06452049,-0.3305847,-0.66403555\H,0,-0

 Normal termination of Gaussian 16 at Wed Apr  9 03:34:36 2025.
 Gaussian 16:  ES64L-G16RevC.01  3-Jul-2019

 ----------------------------------------------------------------------
 #t hf aug-cc-pvdz iop(5/13=1,5/36=2,99/5=2) pseudo=read geom=check gue
 ss=(read,tcheck) scf=(maxcycle=1)
 ----------------------------------------------------------------------
 -----
 title
 -----
 Structure from the checkpoint file:  "Grambow2020_wb97xd3_007093_reverse_mol2.chk"
 Charge =  0 Multiplicity = 1

                         Standard orientation:
 ---------------------------------------------------------------------
 Center     Atomic      Atomic             Coordinates (Angstroms)
 Number     Number       Type             X           Y           Z
 ---------------------------------------------------------------------
      1          6           0        2.409827   -0.475861    0.385885
      2          6           0        0.815002    1.256171   -0.468851
      3          8           0        1.301658   -0.254680   -0.486370
      4          6           0       -0.392796    1.308462    0.441714
      5          6           0       -1.740290    0.672279    0.032422
      6          6           0       -1.817264   -0.814492   -0.011435
      7          8           0       -0.875327   -1.580264   -0.004022
      8          1           0        2.145461   -0.216214    1.411993
      9          1           0        2.695247   -1.526549    0.313951
     10          1           0        3.208132    0.174801    0.044253
     11          1           0        0.490840    1.340252   -1.515271
     12          1           0        0.550553   -0.871320   -0.269302
     13          1           0       -0.133198    0.957821    1.448780
     14          1           0       -0.591275    2.377296    0.568058
     15          1           0       -2.025186    1.007544   -0.975247
     16          1           0       -2.564503    1.002409    0.678780
     17          1           0       -2.833587   -1.245846   -0.061276
 ---------------------------------------------------------------------

 SCF Done:  E(RHF) =  -346.377738652     A.U. after    2 cycles

 The electronic state is 1-A.
 Alpha  occ. eigenvalues --  -21.11026 -21.09071 -11.51733 -11.42458 -11.41344
 Alpha  occ. eigenvalues --  -11.37843 -11.32299  -1.80586  -1.74750  -1.20605
 Alpha  occ. eigenvalues --   -1.03594  -0.98416  -0.86012  -0.77604  -0.68732
 Alpha  occ. eigenvalues --   -0.67522  -0.63700  -0.61306  -0.57987  -0.54857
 Alpha  occ. eigenvalues --   -0.53523  -0.50977  -0.48200  -0.44379  -0.43851
 Alpha  occ. eigenvalues --   -0.37000  -0.31102  -0.25614
 Alpha virt. eigenvalues --    0.03325   0.04601   0.04986   0.05459   0.06077
 Alpha virt. eigenvalues --    0.06616   0.07061   0.07219   0.08357   0.09451
 Alpha virt. eigenvalues --    0.10557   0.11414   0.11790   0.13452   0.13977

 Mulliken charges:
               1
     1  C   -2.919106
     2  C   -1.245668
     3  O   -3.126435
     4  C   -2.929367
     5  C   -2.885504
     6  C    1.614197
     7  O   -3.242257
     8  H    1.400125
     9  H    1.347281
    10  H    1.322579
    11  H    1.289007
    12  H    1.989438
    13  H    1.584090
    14  H    1.393030
    15  H    1.445882
    16  H    1.325353
    17  H    1.637354
 Sum of Mulliken charges =  -0.00000

 Dipole moment (field-independent basis, Debye):
    X=             -1.4838    Y=             -2.7453    Z=              0.5898  Tot=              3.1758

 Test job not archived.
 1\1\GINC-SE402\SP\RHF\Aug-CC-pVDZ\C5H10O2\OHZDE\09-Apr-2025\0\\#t hf a
 ug-cc-pvdz iop(5/13=1,5/36=2,99/5=2) pseudo=read geom=check guess=(rea
 d,tcheck) scf=(maxcycle=1)\\title\\0,1\C,0,-2.40064906,0.46034835,-0.3
 3077082\C,0,-0.56490761,-1.24298282,-0.38265707\O,0,-1.11196941,0.1654
 2825,-0.86939323\C,0,0.40272596,-0.96163509,0.74657505\C,0,1.77345677,
 -0.29661058,0.48806203\C,0,1.78149735,1.14159082,0.10096118\O,0,0.8247
 1707,1.78626907,-0.27675501\H,0,-2.36577122,0.46807831,0.75960851\H,0,
 -2.71585144,1.43187018,-0.71466669\H,0,-3.06452049,-0.3305847,-0.66403

 Normal termination of Gaussian 16 at Wed Apr  9 03:34:42 2025.
