 Gaussian 16, Revision C.01,

 ----------------------------------------------------------------------
 #t hf aug-cc-pvdz symm=none int=(grid=ultrafine) guess=(read,tcheck) s
 table=(opt,rrhf)
 ----------------------------------------------------------------------
 -----
 title
 -----
 Symbolic Z-matrix:
 Charge =  0 Multiplicity = 1

 SCF Done:  E(RHF) =  -322.376914375     A.U. after   16 cycles
 Normal termination of Gaussian 16 at Wed Apr  9 03:26:52 2025.
 Gaussian 16:  ES64L-G16RevC.01  3-Jul-2019

 ----------------------------------------------------------------------
 #t hf aug-cc-pvdz iop(5/13=1,5/36=2,99/5=2) pseudo=read geom=check gue
 ss=(read,tcheck) scf=(maxcycle=1)
 ----------------------------------------------------------------------
 -----
 title
 -----
 Structure from the checkpoint file:  "Grambow2020_wb97xd3_006649_forward_mol1.chk"
 Charge =  0 Multiplicity = 1

                         Standard orientation:
 ---------------------------------------------------------------------
 Center     Atomic      Atomic             Coordinates (Angstroms)
 Number     Number       Type             X           Y           Z
 ---------------------------------------------------------------------
      1          6           0       -1.916171    0.707170    0.023018
      2          7           0       -1.615247   -0.752647    0.220869
      3          6           0       -0.610556    0.107569    0.164741
      4          6           0        0.526615   -0.123753   -0.732315
      5          6           0        1.490529    1.003208   -0.304923
      6          6           0        1.009494    0.122237    0.812788
      7          8           0        1.262939   -1.072659    0.092279
      8          1           0       -2.261854    1.005570   -0.965679
      9          1           0       -2.378339    1.226013    0.855881
     10          1           0       -1.255501   -1.239868   -1.165230
     11          1           0       -0.556071   -1.073918   -1.717328
     12          1           0        1.127342    2.025580   -0.361266
     13          1           0        2.517917    0.839462   -0.604276
     14          1           0        1.010264    0.168372    1.893733
 ---------------------------------------------------------------------

 SCF Done:  E(RHF) =  -323.906860182     A.U. after    2 cycles

 The electronic state is 1-A.
 Alpha  occ. eigenvalues --  -21.09662 -15.73354 -11.58712 -11.56161 -11.47910
 Alpha  occ. eigenvalues --  -11.46458 -11.41287  -1.86900  -1.45817  -1.22868
 Alpha  occ. eigenvalues --   -0.98877  -0.93271  -0.90900  -0.75629  -0.73954
 Alpha  occ. eigenvalues --   -0.65894  -0.62970  -0.60172  -0.54829  -0.51341
 Alpha  occ. eigenvalues --   -0.48048  -0.44608  -0.41679  -0.36330  -0.31592
 Alpha  occ. eigenvalues --   -0.30833
 Alpha virt. eigenvalues --    0.03520   0.04328   0.05215   0.05353   0.05878
 Alpha virt. eigenvalues --    0.07308   0.07724   0.08713   0.09504   0.10349
 Alpha virt. eigenvalues --    0.11379   0.12407   0.12665   0.13082   0.14149

 Mulliken charges:
               1
     1  C   -2.390003
     2  N   -2.293660
     3  C    3.920168
     4  C   -0.037347
     5  C   -2.757090
     6  C    0.136752
     7  O   -2.930055
     8  H    1.327084
     9  H    1.282252
    10  H   -0.259393
    11  H    0.418313
    12  H    1.336386
    13  H    1.255678
    14  H    0.990914
 Sum of Mulliken charges =  -0.00000

 Dipole moment (field-independent basis, Debye):
    X=              2.5289    Y=              2.3513    Z=              1.3085  Tot=              3.6927

 Test job not archived.
 1\1\GINC-SE115\SP\RHF\Aug-CC-pVDZ\C5H7N1O1\OHZDE\09-Apr-2025\0\\#t hf
 aug-cc-pvdz iop(5/13=1,5/36=2,99/5=2) pseudo=read geom=check guess=(re
 ad,tcheck) scf=(maxcycle=1)\\title\\0,1\C,0,-1.60789089,-0.90189443,-0
 .30583301\N,0,-1.72702121,0.54824492,0.07320324\C,0,-0.53273388,0.0576
 806,-0.21928877\C,0,0.60443838,0.26133656,0.68444718\C,0,1.77075338,-0
 .29915665,-0.15661927\C,0,0.94288254,0.75119965,-0.84084447\O,0,0.9597
 5846,1.61600292,0.28297662\H,0,-1.73997321,-1.62888448,0.49422937\H,0,
 -2.01565921,-1.18814614,-1.26928665\H,0,-1.34156153,0.57365986,1.53568

 Normal termination of Gaussian 16 at Wed Apr  9 03:26:57 2025.
