 Gaussian 16, Revision C.01,

 ----------------------------------------------------------------------
 #t hf aug-cc-pvdz symm=none int=(grid=ultrafine) guess=(read,tcheck) s
 table=(opt,rrhf)
 ----------------------------------------------------------------------
 -----
 title
 -----
 Symbolic Z-matrix:
 Charge =  0 Multiplicity = 1

 SCF Done:  E(RHF) =  -321.593731381     A.U. after   14 cycles
 Normal termination of Gaussian 16 at Wed Apr  9 03:46:17 2025.
 Gaussian 16:  ES64L-G16RevC.01  3-Jul-2019

 ----------------------------------------------------------------------
 #t hf aug-cc-pvdz iop(5/13=1,5/36=2,99/5=2) pseudo=read geom=check gue
 ss=(read,tcheck) scf=(maxcycle=1)
 ----------------------------------------------------------------------
 -----
 title
 -----
 Structure from the checkpoint file:  "Grambow2020_wb97xd3_007885_reverse_mol2.chk"
 Charge =  0 Multiplicity = 1

                         Standard orientation:
 ---------------------------------------------------------------------
 Center     Atomic      Atomic             Coordinates (Angstroms)
 Number     Number       Type             X           Y           Z
 ---------------------------------------------------------------------
      1          8           0        2.793008    0.211313   -0.005526
      2          6           0        2.130381   -0.696023   -0.036014
      3          6           0       -1.062903   -0.218752   -1.117328
      4          7           0       -1.205011   -1.021125   -0.023373
      5          6           0       -1.019483   -0.290498    1.113498
      6          6           0       -0.766536    1.003560    0.743283
      7          6           0       -0.793302    1.049070   -0.674956
      8          1           0       -1.166534   -0.612025   -2.115361
      9          1           0       -1.370163   -2.009250   -0.051982
     10          1           0       -1.084837   -0.746070    2.088004
     11          1           0       -0.580564    1.826178    1.414878
     12          1           0       -0.635832    1.914393   -1.298618
 ---------------------------------------------------------------------

 SCF Done:  E(RHF) =  -323.052409159     A.U. after    2 cycles

 The electronic state is 1-A.
 Alpha  occ. eigenvalues --  -21.16190 -15.78498 -11.49388 -11.44967 -11.41232
 Alpha  occ. eigenvalues --  -11.39493 -11.34553  -1.79133  -1.50124  -1.12971
 Alpha  occ. eigenvalues --   -1.04271  -0.81358  -0.78685  -0.75160  -0.70759
 Alpha  occ. eigenvalues --   -0.56971  -0.56391  -0.55857  -0.51484  -0.51384
 Alpha  occ. eigenvalues --   -0.50971  -0.48992  -0.48246  -0.32451  -0.28953
 Alpha virt. eigenvalues --    0.03777   0.04783   0.05525   0.06085   0.06178
 Alpha virt. eigenvalues --    0.08786   0.11070   0.11367   0.12129   0.12276
 Alpha virt. eigenvalues --    0.13059   0.14155   0.14293   0.14833   0.15189

 Mulliken charges:
               1
     1  O   -1.004597
     2  C    0.948101
     3  C   -0.447903
     4  N   -3.129206
     5  C   -0.467476
     6  C   -1.035081
     7  C   -1.052195
     8  H    1.310533
     9  H    0.821989
    10  H    1.309428
    11  H    1.375671
    12  H    1.370736
 Sum of Mulliken charges =   0.00000

 Dipole moment (field-independent basis, Debye):
    X=              0.3578    Y=             -0.5681    Z=             -0.0082  Tot=              0.6715

 Test job not archived.
 1\1\GINC-SE036\SP\RHF\Aug-CC-pVDZ\C5H5N1O1\OHZDE\09-Apr-2025\0\\#t hf
 aug-cc-pvdz iop(5/13=1,5/36=2,99/5=2) pseudo=read geom=check guess=(re
 ad,tcheck) scf=(maxcycle=1)\\title\\0,1\O,0,0.64151533,-1.4857652,2.75
 230529\C,0,-0.13166301,-1.73093536,1.97426381\C,0,0.41272741,-0.509262
 97,-1.15706962\N,0,-0.90996944,-0.2605994,-0.93486657\C,0,-1.04522833,
 0.79164573,-0.07743096\C,0,0.21037454,1.23277007,0.24583167\C,0,1.1373
 1828,0.40524164,-0.43985135\H,0,0.72903023,-1.31028914,-1.8049757\H,0,
 -1.66753049,-0.80208189,-1.30551814\H,0,-2.01723123,1.14166648,0.22945

 Normal termination of Gaussian 16 at Wed Apr  9 03:46:23 2025.
