 Gaussian 16, Revision C.01,

 ----------------------------------------------------------------------
 #t hf aug-cc-pvdz symm=none int=(grid=ultrafine) guess=(read,tcheck) s
 table=(opt,rrhf)
 ----------------------------------------------------------------------
 -----
 title
 -----
 Symbolic Z-matrix:
 Charge =  0 Multiplicity = 1

 SCF Done:  E(RHF) =  -320.701794906     A.U. after   15 cycles
 Normal termination of Gaussian 16 at Wed Apr  9 17:23:09 2025.
 Gaussian 16:  ES64L-G16RevC.01  3-Jul-2019

 ----------------------------------------------------------------------
 #t hf aug-cc-pvdz iop(5/13=1,5/36=2,99/5=2) pseudo=read geom=check gue
 ss=(read,tcheck) scf=(maxcycle=1)
 ----------------------------------------------------------------------
 -----
 title
 -----
 Structure from the checkpoint file:  "Grambow2020_b97d3_007123_reverse_mol2.chk"
 Charge =  0 Multiplicity = 1

                         Standard orientation:
 ---------------------------------------------------------------------
 Center     Atomic      Atomic             Coordinates (Angstroms)
 Number     Number       Type             X           Y           Z
 ---------------------------------------------------------------------
      1          6           0        2.858481   -0.956022    0.137497
      2          7           0        1.653149   -0.286751   -0.288175
      3          6           0        1.029482    0.721065   -0.038956
      4          8           0        0.309904    1.659533    0.094663
      5          6           0       -2.463017   -0.162684   -0.081160
      6          8           0       -3.532339   -0.708677    0.095376
      7          1           0        3.738948   -0.315180   -0.011742
      8          1           0        2.798373   -1.236605    1.198671
      9          1           0        2.986372   -1.867296   -0.457826
     10          1           0       -1.532860   -0.736577   -0.312279
     11          1           0       -2.333074    0.941918   -0.024202
 ---------------------------------------------------------------------

 SCF Done:  E(RHF) =  -322.080265987     A.U. after    2 cycles

 The electronic state is 1-A.
 Alpha  occ. eigenvalues --  -21.12583 -21.07258 -15.78382 -11.58434 -11.46845
 Alpha  occ. eigenvalues --  -11.44210  -1.76505  -1.69884  -1.41111  -1.05929
 Alpha  occ. eigenvalues --   -0.89021  -0.72424  -0.65568  -0.65155  -0.64778
 Alpha  occ. eigenvalues --   -0.61263  -0.56000  -0.54966  -0.52111  -0.44148
 Alpha  occ. eigenvalues --   -0.36645  -0.34141  -0.30006
 Alpha virt. eigenvalues --    0.02034   0.05296   0.05449   0.05765   0.07239
 Alpha virt. eigenvalues --    0.08440   0.10039   0.10844   0.11325   0.12010
 Alpha virt. eigenvalues --    0.12871   0.13803   0.15222   0.15793   0.16487

 Mulliken charges:
               1
     1  C   -3.193598
     2  N   -2.286710
     3  C    3.854557
     4  O   -2.416495
     5  C   -0.606699
     6  O   -2.164982
     7  H    1.390450
     8  H    1.364730
     9  H    1.296550
    10  H    1.396424
    11  H    1.365772
 Sum of Mulliken charges =   0.00000

 Dipole moment (field-independent basis, Debye):
    X=              2.7762    Y=              0.1727    Z=              0.5323  Tot=              2.8320

 Test job not archived.
 1\1\GINC-SE226\SP\RHF\Aug-CC-pVDZ\C3H5N1O2\OHZDE\09-Apr-2025\0\\#t hf
 aug-cc-pvdz iop(5/13=1,5/36=2,99/5=2) pseudo=read geom=check guess=(re
 ad,tcheck) scf=(maxcycle=1)\\title\\0,1\C,0,-1.63112287,1.82916443,-0.
 05583722\N,0,-1.03198416,0.53100795,-0.25018139\C,0,-0.92938694,-0.525
 79351,0.33240558\O,0,-0.73943885,-1.61294909,0.77780509\C,0,2.4386108,
 -1.69435429,-0.18855581\O,0,3.64615105,-1.77740934,-0.27614281\H,0,-2.
 71801305,1.74469744,0.08455028\H,0,-1.19766904,2.33512552,0.81854853\H
 ,0,-1.44156652,2.44293901,-0.9438323\H,0,1.87295404,-0.81335398,-0.578

 Normal termination of Gaussian 16 at Wed Apr  9 17:23:12 2025.
