 Gaussian 16, Revision C.01,

 ----------------------------------------------------------------------
 #t hf aug-cc-pvdz symm=none int=(grid=ultrafine) guess=(read,tcheck) s
 table=(opt,rrhf)
 ----------------------------------------------------------------------
 -----
 title
 -----
 Symbolic Z-matrix:
 Charge =  0 Multiplicity = 1

 SCF Done:  E(RHF) =  -286.713486420     A.U. after   15 cycles
 Normal termination of Gaussian 16 at Wed Apr  9 18:42:45 2025.
 Gaussian 16:  ES64L-G16RevC.01  3-Jul-2019

 ----------------------------------------------------------------------
 #t hf aug-cc-pvdz iop(5/13=1,5/36=2,99/5=2) pseudo=read geom=check gue
 ss=(read,tcheck) scf=(maxcycle=1)
 ----------------------------------------------------------------------
 -----
 title
 -----
 Structure from the checkpoint file:  "Grambow2020_wb97xd3_007559_forward_mol1.chk"
 Charge =  0 Multiplicity = 1

                         Standard orientation:
 ---------------------------------------------------------------------
 Center     Atomic      Atomic             Coordinates (Angstroms)
 Number     Number       Type             X           Y           Z
 ---------------------------------------------------------------------
      1          6           0        0.577263    1.662843   -0.129494
      2          6           0        0.583695    0.151490   -0.011346
      3          6           0       -0.563230   -0.457387    0.784744
      4          6           0       -1.863310   -0.278697    0.144422
      5          6           0       -2.915382   -0.120810   -0.404429
      6          6           0        1.791657   -0.996896   -0.858328
      7          7           0        1.880540   -0.382899    0.421404
      8          1           0       -0.390099    2.016818   -0.486017
      9          1           0        1.348329    1.991920   -0.827007
     10          1           0        0.772814    2.107537    0.849218
     11          1           0       -0.572278    0.005484    1.775732
     12          1           0       -0.364270   -1.519589    0.936182
     13          1           0       -3.855118    0.011594   -0.886666
     14          1           0        1.159435   -1.891593   -0.701509
     15          1           0        0.510678   -0.171888   -1.139154
     16          1           0        2.562569    0.366755    0.375972
 ---------------------------------------------------------------------

 SCF Done:  E(RHF) =  -288.112261121     A.U. after    2 cycles

 The electronic state is 1-A.
 Alpha  occ. eigenvalues --  -15.74801 -11.50258 -11.46295 -11.41723 -11.41521
 Alpha  occ. eigenvalues --  -11.41011 -11.39109  -1.48039  -1.20987  -1.09849
 Alpha  occ. eigenvalues --   -1.02373  -0.91999  -0.83682  -0.74900  -0.67768
 Alpha  occ. eigenvalues --   -0.64540  -0.62142  -0.58097  -0.57114  -0.54142
 Alpha  occ. eigenvalues --   -0.49741  -0.48724  -0.41694  -0.37696  -0.37104
 Alpha  occ. eigenvalues --   -0.31558
 Alpha virt. eigenvalues --    0.03239   0.04641   0.05481   0.05780   0.06196
 Alpha virt. eigenvalues --    0.06578   0.07280   0.07558   0.08548   0.09648
 Alpha virt. eigenvalues --    0.11302   0.11963   0.12333   0.12566   0.12633

 Mulliken charges:
               1
     1  C   -3.813441
     2  C    0.942060
     3  C   -4.180766
     4  C    4.779690
     5  C   -4.452752
     6  C   -1.663592
     7  N   -2.516759
     8  H    1.254442
     9  H    1.050045
    10  H    1.145754
    11  H    1.234258
    12  H    1.374323
    13  H    0.702880
    14  H    1.034822
    15  H    2.427842
    16  H    0.681193
 Sum of Mulliken charges =   0.00000

 Dipole moment (field-independent basis, Debye):
    X=             -1.2665    Y=              1.5134    Z=              1.3808  Tot=              2.4086

 Test job not archived.
 1\1\GINC-SE220\SP\RHF\Aug-CC-pVDZ\C6H9N1\OHZDE\09-Apr-2025\0\\#t hf au
 g-cc-pvdz iop(5/13=1,5/36=2,99/5=2) pseudo=read geom=check guess=(read
 ,tcheck) scf=(maxcycle=1)\\title\\0,1\C,0,-0.41253948,1.45848135,-0.31
 79933\C,0,-0.52154629,0.08402327,0.31222336\C,0,0.39038054,-0.98793817
 ,-0.27019935\C,0,1.8066044,-0.73026932,-0.02511589\C,0,2.96006864,-0.4
 9595649,0.19314703\C,0,-1.57110896,-0.34702405,1.79814206\N,0,-1.90717
 474,-0.38898181,0.41687249\H,0,0.62617508,1.78789142,-0.34550545\H,0,-
 0.99409981,2.18406925,0.25180176\H,0,-0.79511961,1.42374973,-1.3408793

 Normal termination of Gaussian 16 at Wed Apr  9 18:42:51 2025.
