 Gaussian 16, Revision C.01,

 ----------------------------------------------------------------------
 #t hf aug-cc-pvdz symm=none int=(grid=ultrafine) guess=(read,tcheck) s
 table=(opt,rrhf)
 ----------------------------------------------------------------------
 -----
 title
 -----
 Symbolic Z-matrix:
 Charge =  0 Multiplicity = 1

 SCF Done:  E(RHF) =  -306.917938393     A.U. after   14 cycles

 1\1\GINC-SE114\Stability\RHF\Aug-CC-pVDZ\C4H10O2\OHZDE\09-Apr-2025\0\\
 #t hf aug-cc-pvdz symm=none int=(grid=ultrafine) guess=(read,tcheck) s
 table=(opt,rrhf)\\title\\0,1\C,0,-1.67290616,-0.93237083,0.11919152\C,
 0,-0.55309677,0.10949258,-0.09113514\C,0,0.60056434,-0.56526841,-0.847
 26536\O,0,1.59842468,0.46259778,-1.16593978\C,0,-0.27859505,0.68577334
 ,1.30371572\O,0,1.15354396,1.68980721,1.04986865\H,0,-2.03442831,-1.32
 617804,-0.84179386\H,0,-1.30916825,-1.77858811,0.72129869\H,0,-2.51380
 206,-0.47372845,0.65332177\H,0,-0.95424294,0.89536856,-0.75918583\H,0,

 Normal termination of Gaussian 16 at Wed Apr  9 17:19:30 2025.
 Gaussian 16:  ES64L-G16RevC.01  3-Jul-2019

 ----------------------------------------------------------------------
 #t hf aug-cc-pvdz iop(5/13=1,5/36=2,99/5=2) pseudo=read geom=check gue
 ss=(read,tcheck) scf=(maxcycle=1)
 ----------------------------------------------------------------------
 -----
 title
 -----
 Structure from the checkpoint file:  "Grambow2020_b97d3_007101_reverse_mol2.chk"
 Charge =  0 Multiplicity = 1

                         Standard orientation:
 ---------------------------------------------------------------------
 Center     Atomic      Atomic             Coordinates (Angstroms)
 Number     Number       Type             X           Y           Z
 ---------------------------------------------------------------------
      1          6           0        2.206026   -0.120315   -0.038905
      2          6           0        0.691426   -0.081694   -0.335863
      3          6           0        0.118121    1.221624    0.239163
      4          8           0       -1.288872    1.317880   -0.166908
      5          6           0        0.148715   -1.416812    0.189479
      6          8           0       -1.602041   -1.226233    0.040893
      7          1           0        2.720121    0.743740   -0.484315
      8          1           0        2.390462   -0.107026    1.045867
      9          1           0        2.642595   -1.040719   -0.445129
     10          1           0        0.571535   -0.024065   -1.434551
     11          1           0        0.641292    2.117184   -0.140971
     12          1           0        0.192845    1.202476    1.339241
     13          1           0       -1.734495    1.955459    0.420316
     14          1           0       -1.704432   -1.644611   -0.833259
     15          1           0        0.144394   -1.326124    1.298780
     16          1           0       -1.722746   -0.226301   -0.081109
 ---------------------------------------------------------------------

 SCF Done:  E(RHF) =  -308.350370184     A.U. after    2 cycles

 The electronic state is 1-A.
 Alpha  occ. eigenvalues --  -21.11640 -21.09884 -11.45037 -11.39893 -11.37497
 Alpha  occ. eigenvalues --  -11.34355  -1.75363  -1.70417  -1.21162  -0.97507
 Alpha  occ. eigenvalues --   -0.91834  -0.78558  -0.70628  -0.65129  -0.61831
 Alpha  occ. eigenvalues --   -0.58874  -0.56296  -0.51130  -0.50794  -0.45861
 Alpha  occ. eigenvalues --   -0.44389  -0.43367  -0.38372  -0.34734  -0.26850
 Alpha virt. eigenvalues --    0.03582   0.04897   0.05229   0.05752   0.05895
 Alpha virt. eigenvalues --    0.06164   0.07013   0.07283   0.07809   0.09377
 Alpha virt. eigenvalues --    0.12853   0.13256   0.14607   0.14633   0.14750

 Mulliken charges:
               1
     1  C   -3.491085
     2  C   -1.445967
     3  C   -1.289252
     4  O   -2.885262
     5  C   -1.350110
     6  O   -2.378204
     7  H    1.195950
     8  H    1.258459
     9  H    1.278609
    10  H    1.749453
    11  H    1.409792
    12  H    1.522098
    13  H    0.800913
    14  H    0.796220
    15  H    1.214108
    16  H    1.614276
 Sum of Mulliken charges =   0.00000

 Dipole moment (field-independent basis, Debye):
    X=             -2.3043    Y=              3.0442    Z=             -0.0254  Tot=              3.8180

 Test job not archived.
 1\1\GINC-SE114\SP\RHF\Aug-CC-pVDZ\C4H10O2\OHZDE\09-Apr-2025\0\\#t hf a
 ug-cc-pvdz iop(5/13=1,5/36=2,99/5=2) pseudo=read geom=check guess=(rea
 d,tcheck) scf=(maxcycle=1)\\title\\0,1\C,0,-1.67290616,-0.93237083,0.1
 1919152\C,0,-0.55309677,0.10949258,-0.09113514\C,0,0.60056434,-0.56526
 841,-0.84726536\O,0,1.59842468,0.46259778,-1.16593978\C,0,-0.27859505,
 0.68577334,1.30371572\O,0,1.15354396,1.68980721,1.04986865\H,0,-2.0344
 2831,-1.32617804,-0.84179386\H,0,-1.30916825,-1.77858811,0.72129869\H,
 0,-2.51380206,-0.47372845,0.65332177\H,0,-0.95424294,0.89536856,-0.759

 Normal termination of Gaussian 16 at Wed Apr  9 17:19:35 2025.
