 Gaussian 16, Revision C.01,

 ----------------------------------------------------------------------
 #t hf aug-cc-pvdz symm=none int=(grid=ultrafine) guess=(read,tcheck) s
 table=(opt,rrhf)
 ----------------------------------------------------------------------
 -----
 title
 -----
 Symbolic Z-matrix:
 Charge =  0 Multiplicity = 1

 SCF Done:  E(RHF) =  -342.400759133     A.U. after   16 cycles
 Normal termination of Gaussian 16 at Wed Apr  9 19:16:57 2025.
 Gaussian 16:  ES64L-G16RevC.01  3-Jul-2019

 ----------------------------------------------------------------------
 #t hf aug-cc-pvdz iop(5/13=1,5/36=2,99/5=2) pseudo=read geom=check gue
 ss=(read,tcheck) scf=(maxcycle=1)
 ----------------------------------------------------------------------
 -----
 title
 -----
 Structure from the checkpoint file:  "Grambow2020_wb97xd3_008533_reverse_mol1.chk"
 Charge =  0 Multiplicity = 1

                         Standard orientation:
 ---------------------------------------------------------------------
 Center     Atomic      Atomic             Coordinates (Angstroms)
 Number     Number       Type             X           Y           Z
 ---------------------------------------------------------------------
      1          8           0       -2.135510   -0.576935   -0.080700
      2          6           0       -0.890346   -0.309527    0.066262
      3          6           0       -0.656977    1.067314    0.292220
      4          8           0        0.626530    1.392861   -0.203697
      5          6           0        1.266207    0.183387   -0.475880
      6          6           0        1.495962   -0.768882    0.625976
      7          6           0        0.311142   -1.030881   -0.291677
      8          1           0       -0.896602    1.486586    1.266848
      9          1           0       -2.034004    0.708337   -0.176760
     10          1           0        1.943947    0.230756   -1.317594
     11          1           0        1.291780   -0.453198    1.640528
     12          1           0        2.318233   -1.461934    0.511637
     13          1           0        0.292561   -1.886419   -0.950891
 ---------------------------------------------------------------------

 SCF Done:  E(RHF) =  -343.952954220     A.U. after    2 cycles

 The electronic state is 1-A.
 Alpha  occ. eigenvalues --  -21.06964 -21.06703 -11.52563 -11.48351 -11.44733
 Alpha  occ. eigenvalues --  -11.40876 -11.39287  -1.81636  -1.73147  -1.31288
 Alpha  occ. eigenvalues --   -1.08693  -0.94449  -0.86355  -0.78196  -0.71556
 Alpha  occ. eigenvalues --   -0.66883  -0.61011  -0.58299  -0.53308  -0.52310
 Alpha  occ. eigenvalues --   -0.49574  -0.46283  -0.38247  -0.37083  -0.34414
 Alpha  occ. eigenvalues --   -0.22843
 Alpha virt. eigenvalues --    0.03270   0.04658   0.05238   0.05516   0.06718
 Alpha virt. eigenvalues --    0.07220   0.09416   0.09982   0.10266   0.11656
 Alpha virt. eigenvalues --    0.12217   0.13368   0.13846   0.14490   0.15077

 Mulliken charges:
               1
     1  O   -3.218572
     2  C    4.612536
     3  C   -1.494942
     4  O   -3.707997
     5  C    1.790155
     6  C   -2.763145
     7  C   -2.612586
     8  H    1.208280
     9  H    1.022369
    10  H    1.372328
    11  H    1.311282
    12  H    1.221366
    13  H    1.258927
 Sum of Mulliken charges =  -0.00000

 Dipole moment (field-independent basis, Debye):
    X=              1.6375    Y=             -1.8012    Z=              0.0091  Tot=              2.4343

 Test job not archived.
 1\1\GINC-SE212\SP\RHF\Aug-CC-pVDZ\C5H6O2\OHZDE\09-Apr-2025\0\\#t hf au
 g-cc-pvdz iop(5/13=1,5/36=2,99/5=2) pseudo=read geom=check guess=(read
 ,tcheck) scf=(maxcycle=1)\\title\\0,1\O,0,1.51761021,1.84146472,0.3571
 5427\C,0,0.73731411,0.83285304,0.22532903\C,0,1.43847418,-0.35423292,-
 0.09154868\O,0,0.58421332,-1.19370295,-0.84310224\C,0,-0.69517725,-0.6
 4556809,-0.74926972\C,0,-1.32592636,-0.52274659,0.57766683\C,0,-0.6852
 9709,0.7246304,-0.01239494\H,0,2.00580027,-0.85278475,0.69120047\H,0,2
 .22390188,0.91659301,-0.20606929\H,0,-1.29591207,-0.79141229,-1.636909

 Normal termination of Gaussian 16 at Wed Apr  9 19:17:01 2025.
