 Gaussian 16, Revision C.01,

 ----------------------------------------------------------------------
 #t hf aug-cc-pvdz symm=none int=(grid=ultrafine) guess=(read,tcheck) s
 table=(opt,rrhf)
 ----------------------------------------------------------------------
 -----
 title
 -----
 Symbolic Z-matrix:
 Charge =  0 Multiplicity = 1

 SCF Done:  E(RHF) =  -268.624729117     A.U. after   15 cycles
 Normal termination of Gaussian 16 at Wed Apr  9 17:13:24 2025.
 Gaussian 16:  ES64L-G16RevC.01  3-Jul-2019

 ----------------------------------------------------------------------
 #t hf aug-cc-pvdz iop(5/13=1,5/36=2,99/5=2) pseudo=read geom=check gue
 ss=(read,tcheck) scf=(maxcycle=1)
 ----------------------------------------------------------------------
 -----
 title
 -----
 Structure from the checkpoint file:  "Grambow2020_b97d3_007069_forward_mol1.chk"
 Charge =  0 Multiplicity = 1

                         Standard orientation:
 ---------------------------------------------------------------------
 Center     Atomic      Atomic             Coordinates (Angstroms)
 Number     Number       Type             X           Y           Z
 ---------------------------------------------------------------------
      1          6           0       -1.834741    0.054794   -0.368037
      2          6           0       -0.600010    1.363104    0.299602
      3          6           0        0.710652    1.230926    0.050004
      4          6           0        1.547535   -0.005046   -0.216400
      5          8           0        0.684615   -1.153658   -0.247476
      6          6           0       -0.380173   -1.016575    0.560237
      7          1           0       -1.793946   -0.800175   -1.070008
      8          1           0       -2.136524    0.886010   -1.013782
      9          1           0       -2.629285   -0.096805    0.369333
     10          1           0        1.289193    2.140121    0.247620
     11          1           0        2.288477   -0.131692    0.591616
     12          1           0        2.079800   -0.001982   -1.178232
     13          1           0       -0.233979   -0.616240    1.567032
     14          1           0       -1.000234   -1.913201    0.513796
 ---------------------------------------------------------------------

 SCF Done:  E(RHF) =  -269.914278012     A.U. after    2 cycles

 The electronic state is 1-A.
 Alpha  occ. eigenvalues --  -21.10043 -11.48990 -11.45520 -11.39378 -11.38758
 Alpha  occ. eigenvalues --  -11.36062  -1.81539  -1.16090  -1.09595  -0.95885
 Alpha  occ. eigenvalues --   -0.89060  -0.73061  -0.68215  -0.64703  -0.60473
 Alpha  occ. eigenvalues --   -0.58701  -0.55090  -0.53078  -0.47688  -0.42322
 Alpha  occ. eigenvalues --   -0.35696  -0.33785  -0.28497
 Alpha virt. eigenvalues --    0.03339   0.04911   0.05229   0.05507   0.06113
 Alpha virt. eigenvalues --    0.06239   0.06829   0.07100   0.09282   0.10922
 Alpha virt. eigenvalues --    0.12650   0.12808   0.13247   0.13842   0.14144

 Mulliken charges:
               1
     1  C   -3.823902
     2  C   -1.943078
     3  C    0.955608
     4  C   -1.744059
     5  O   -2.908649
     6  C   -1.131136
     7  H    1.146624
     8  H    1.180022
     9  H    1.230967
    10  H    1.475217
    11  H    1.262973
    12  H    1.393039
    13  H    1.769109
    14  H    1.137264
 Sum of Mulliken charges =  -0.00000

 Dipole moment (field-independent basis, Debye):
    X=              1.5777    Y=             -3.2603    Z=             -0.1672  Tot=              3.6258

 Test job not archived.
 1\1\GINC-SE045\SP\RHF\Aug-CC-pVDZ\C5H8O1\OHZDE\09-Apr-2025\0\\#t hf au
 g-cc-pvdz iop(5/13=1,5/36=2,99/5=2) pseudo=read geom=check guess=(read
 ,tcheck) scf=(maxcycle=1)\\title\\0,1\C,0,-1.6418364,-0.18229643,-0.57
 694846\C,0,-0.63282804,1.37096745,-0.07569822\C,0,0.70579738,1.3478162
 3,-0.14747831\C,0,1.68214214,0.19185638,-0.05012199\O,0,0.94184268,-1.
 03362657,0.07257782\C,0,-0.22763653,-0.8639661,0.71171703\H,0,-1.42978
 761,-1.1502193,-1.0704654\H,0,-1.93281096,0.45978717,-1.41482729\H,0,-
 2.50840912,-0.27538479,0.08515736\H,0,1.16598538,2.34033138,-0.0879937

 Normal termination of Gaussian 16 at Wed Apr  9 17:13:31 2025.
