 Gaussian 16, Revision C.01,

 ----------------------------------------------------------------------
 #t hf aug-cc-pvdz symm=none int=(grid=ultrafine) guess=(read,tcheck) s
 table=(opt,rrhf)
 ----------------------------------------------------------------------
 -----
 title
 -----
 Symbolic Z-matrix:
 Charge =  0 Multiplicity = 1

 SCF Done:  E(RHF) =  -302.794680321     A.U. after   15 cycles
 Normal termination of Gaussian 16 at Wed Apr  9 19:24:12 2025.
 Gaussian 16:  ES64L-G16RevC.01  3-Jul-2019

 ----------------------------------------------------------------------
 #t hf aug-cc-pvdz iop(5/13=1,5/36=2,99/5=2) pseudo=read geom=check gue
 ss=(read,tcheck) scf=(maxcycle=1)
 ----------------------------------------------------------------------
 -----
 title
 -----
 Structure from the checkpoint file:  "Grambow2020_wb97xd3_008902_reverse_mol2.chk"
 Charge =  0 Multiplicity = 1

                         Standard orientation:
 ---------------------------------------------------------------------
 Center     Atomic      Atomic             Coordinates (Angstroms)
 Number     Number       Type             X           Y           Z
 ---------------------------------------------------------------------
      1          6           0        0.619391    1.812335    0.369020
      2          7           0        0.009893    0.703660   -0.388592
      3          6           0       -1.536961    0.734671   -0.275219
      4          6           0       -1.781687   -0.545764    0.090162
      5          6           0       -0.582211   -1.361541    0.263873
      6          6           0        0.496527   -0.630534   -0.015531
      7          7           0        1.864818   -0.892139   -0.171312
      8          1           0        1.699568    1.820102    0.221254
      9          1           0        0.174545    2.741927    0.023714
     10          1           0        0.376123    1.671454    1.420478
     11          1           0        0.194245    0.848332   -1.380830
     12          1           0       -2.779708   -0.926621    0.259981
     13          1           0       -0.551644   -2.399900    0.568020
     14          1           0        2.427208   -0.638214    0.629627
     15          1           0        2.046331   -1.852734   -0.416750
 ---------------------------------------------------------------------

 SCF Done:  E(RHF) =  -304.256319821     A.U. after    2 cycles

 The electronic state is 1-A.
 Alpha  occ. eigenvalues --  -15.81413 -15.77307 -11.47191 -11.41925 -11.40663
 Alpha  occ. eigenvalues --  -11.35690 -11.32413  -1.53874  -1.33353  -1.18319
 Alpha  occ. eigenvalues --   -1.00382  -0.99304  -0.81085  -0.77246  -0.70817
 Alpha  occ. eigenvalues --   -0.66322  -0.65690  -0.59960  -0.58375  -0.54313
 Alpha  occ. eigenvalues --   -0.50334  -0.45897  -0.43582  -0.39334  -0.29819
 Alpha  occ. eigenvalues --   -0.27117
 Alpha virt. eigenvalues --    0.02988   0.04551   0.04746   0.05823   0.06266
 Alpha virt. eigenvalues --    0.06448   0.06796   0.07462   0.10607   0.11550
 Alpha virt. eigenvalues --    0.11790   0.12330   0.13019   0.13721   0.14274

 Mulliken charges:
               1
     1  C   -3.715398
     2  N   -1.083669
     3  C   -2.808318
     4  C    1.334015
     5  C   -1.675140
     6  C    2.778245
     7  N   -3.599866
     8  H    1.371286
     9  H    1.354232
    10  H    1.273027
    11  H    0.660932
    12  H    1.621810
    13  H    1.412610
    14  H    0.487376
    15  H    0.588858
 Sum of Mulliken charges =   0.00000

 Dipole moment (field-independent basis, Debye):
    X=              5.0858    Y=             -1.7691    Z=              0.7522  Tot=              5.4370

 Test job not archived.
 1\1\GINC-SE105\SP\RHF\Aug-CC-pVDZ\C5H8N2\OHZDE\09-Apr-2025\0\\#t hf au
 g-cc-pvdz iop(5/13=1,5/36=2,99/5=2) pseudo=read geom=check guess=(read
 ,tcheck) scf=(maxcycle=1)\\title\\0,1\C,0,-1.07049377,-1.28576411,0.71
 252264\N,0,-0.06374436,-0.7534403,-0.22433966\C,0,1.36036012,-1.240823
 16,0.1511053\C,0,2.0283174,-0.0632497,0.15898939\C,0,1.19411693,1.1034
 5435,-0.11908144\C,0,-0.05838035,0.70970106,-0.34782081\N,0,-1.2310397
 6,1.32966543,-0.80107685\H,0,-2.07181579,-0.99443193,0.39447097\H,0,-0
 .97105567,-2.36781156,0.73598839\H,0,-0.84994501,-0.88749229,1.7011210

 Normal termination of Gaussian 16 at Wed Apr  9 19:24:17 2025.
