 Gaussian 16, Revision C.01,

 ----------------------------------------------------------------------
 #t hf aug-cc-pvdz symm=none int=(grid=ultrafine) guess=(read,tcheck) s
 table=(opt,rrhf)
 ----------------------------------------------------------------------
 -----
 title
 -----
 Symbolic Z-matrix:
 Charge =  0 Multiplicity = 1

 SCF Done:  E(RHF) =  -307.865532975     A.U. after   13 cycles

 1\1\GINC-SE028\Stability\RHF\Aug-CC-pVDZ\C6H10O1\OHZDE\09-Apr-2025\0\\
 #t hf aug-cc-pvdz symm=none int=(grid=ultrafine) guess=(read,tcheck) s
 table=(opt,rrhf)\\title\\0,1\C,0,-2.0266958,-0.95379414,0.17731393\C,0
 ,-1.0248327,-0.89981048,-0.69051765\O,0,-0.37021977,1.92460923,0.50283
 042\C,0,0.74738991,1.65000305,-0.31127867\C,0,1.29070435,0.23763351,-0
 .20881835\C,0,0.99071454,-0.62944994,0.97354424\C,0,0.42271974,-0.9868
 672,-0.36843904\H,0,-1.09933234,1.36714203,0.21665685\H,0,-1.8503771,-
 1.06808549,1.241388\H,0,-3.0576695,-0.89648601,-0.150278\H,0,-1.258384

 Normal termination of Gaussian 16 at Wed Apr  9 18:20:28 2025.
 Gaussian 16:  ES64L-G16RevC.01  3-Jul-2019

 ----------------------------------------------------------------------
 #t hf aug-cc-pvdz iop(5/13=1,5/36=2,99/5=2) pseudo=read geom=check gue
 ss=(read,tcheck) scf=(maxcycle=1)
 ----------------------------------------------------------------------
 -----
 title
 -----
 Structure from the checkpoint file:  "Grambow2020_wb97xd3_006902_reverse_mol2.chk"
 Charge =  0 Multiplicity = 1

                         Standard orientation:
 ---------------------------------------------------------------------
 Center     Atomic      Atomic             Coordinates (Angstroms)
 Number     Number       Type             X           Y           Z
 ---------------------------------------------------------------------
      1          6           0        2.138042   -0.757080    0.262253
      2          6           0        1.460804   -0.059652   -0.640365
      3          8           0       -1.109962   -1.505122    0.423462
      4          6           0       -1.628390   -0.499177   -0.417098
      5          6           0       -0.970457    0.860551   -0.280195
      6          6           0       -0.192041    1.230590    0.943303
      7          6           0        0.523437    1.059228   -0.364371
      8          1           0       -0.191887   -1.659011    0.183198
      9          1           0        2.047957   -0.550970    1.323294
     10          1           0        2.814041   -1.550692   -0.032217
     11          1           0        1.604102   -0.294130   -1.693671
     12          1           0       -1.590413   -0.814615   -1.468848
     13          1           0       -2.683053   -0.404049   -0.150147
     14          1           0       -1.560156    1.648557   -0.737506
     15          1           0       -0.075122    0.451642    1.685594
     16          1           0       -0.290889    2.229847    1.345508
     17          1           0        0.816749    1.977637   -0.864055
 ---------------------------------------------------------------------

 SCF Done:  E(RHF) =  -309.338666773     A.U. after    2 cycles

 The electronic state is 1-A.
 Alpha  occ. eigenvalues --  -21.05515 -11.45319 -11.43447 -11.41118 -11.40507
 Alpha  occ. eigenvalues --  -11.38666 -11.36170  -1.70507  -1.33292  -1.13919
 Alpha  occ. eigenvalues --   -1.00442  -0.90529  -0.81753  -0.76044  -0.69869
 Alpha  occ. eigenvalues --   -0.64291  -0.63772  -0.60111  -0.53902  -0.53536
 Alpha  occ. eigenvalues --   -0.50865  -0.47872  -0.41606  -0.40882  -0.39148
 Alpha  occ. eigenvalues --   -0.32879  -0.30548
 Alpha virt. eigenvalues --    0.03798   0.04820   0.05239   0.05428   0.05565
 Alpha virt. eigenvalues --    0.05935   0.06200   0.06980   0.08185   0.09056
 Alpha virt. eigenvalues --    0.11033   0.12136   0.12973   0.13411   0.13934

 Mulliken charges:
               1
     1  C   -3.215367
     2  C   -1.322720
     3  O   -2.705216
     4  C   -1.699357
     5  C   -0.894053
     6  C   -2.293744
     7  C   -0.853948
     8  H    1.066451
     9  H    1.440212
    10  H    1.364893
    11  H    1.302366
    12  H    1.392326
    13  H    1.206807
    14  H    1.285613
    15  H    1.672549
    16  H    1.109451
    17  H    1.143736
 Sum of Mulliken charges =  -0.00000

 Dipole moment (field-independent basis, Debye):
    X=              0.3053    Y=              0.7071    Z=             -0.4694  Tot=              0.9020

 Test job not archived.
 1\1\GINC-SE028\SP\RHF\Aug-CC-pVDZ\C6H10O1\OHZDE\09-Apr-2025\0\\#t hf a
 ug-cc-pvdz iop(5/13=1,5/36=2,99/5=2) pseudo=read geom=check guess=(rea
 d,tcheck) scf=(maxcycle=1)\\title\\0,1\C,0,-2.0266958,-0.95379414,0.17
 731393\C,0,-1.0248327,-0.89981048,-0.69051765\O,0,-0.37021977,1.924609
 23,0.50283042\C,0,0.74738991,1.65000305,-0.31127867\C,0,1.29070435,0.2
 3763351,-0.20881835\C,0,0.99071454,-0.62944994,0.97354424\C,0,0.422719
 74,-0.9868672,-0.36843904\H,0,-1.09933234,1.36714203,0.21665685\H,0,-1
 .8503771,-1.06808549,1.241388\H,0,-3.0576695,-0.89648601,-0.150278\H,0

 Normal termination of Gaussian 16 at Wed Apr  9 18:20:33 2025.
