 Gaussian 16, Revision C.01,

 ----------------------------------------------------------------------
 #t hf aug-cc-pvdz symm=none int=(grid=ultrafine) guess=(read,tcheck) s
 table=(opt,rrhf)
 ----------------------------------------------------------------------
 -----
 title
 -----
 Symbolic Z-matrix:
 Charge =  0 Multiplicity = 1

 SCF Done:  E(RHF) =  -320.324934349     A.U. after   15 cycles
 Normal termination of Gaussian 16 at Wed Apr  9 18:47:19 2025.
 Gaussian 16:  ES64L-G16RevC.01  3-Jul-2019

 ----------------------------------------------------------------------
 #t hf aug-cc-pvdz iop(5/13=1,5/36=2,99/5=2) pseudo=read geom=check gue
 ss=(read,tcheck) scf=(maxcycle=1)
 ----------------------------------------------------------------------
 -----
 title
 -----
 Structure from the checkpoint file:  "Grambow2020_wb97xd3_007652_reverse_mol2.chk"
 Charge =  0 Multiplicity = 1

                         Standard orientation:
 ---------------------------------------------------------------------
 Center     Atomic      Atomic             Coordinates (Angstroms)
 Number     Number       Type             X           Y           Z
 ---------------------------------------------------------------------
      1          7           0        2.578575   -0.617165   -0.001523
      2          6           0        1.480317   -0.282766   -0.000614
      3          6           0        0.081149    0.109607    0.000173
      4          6           0       -0.891722   -1.040578    0.002973
      5          8           0       -2.078794   -0.881020   -0.003234
      6          6           0       -0.333517    1.414751    0.637523
      7          6           0       -0.334534    1.414786   -0.636211
      8          1           0       -0.437573   -2.050096    0.011880
      9          1           0       -0.496214    1.861309    1.600857
     10          1           0       -0.496035    1.862293   -1.599270
 ---------------------------------------------------------------------

 SCF Done:  E(RHF) =  -321.738871830     A.U. after    2 cycles

 The electronic state is 1-A.
 Alpha  occ. eigenvalues --  -21.08299 -15.76872 -11.52634 -11.49560 -11.48901
 Alpha  occ. eigenvalues --  -11.46807 -11.43746  -1.73597  -1.39312  -1.29150
 Alpha  occ. eigenvalues --   -1.03509  -0.85382  -0.85150  -0.76874  -0.71023
 Alpha  occ. eigenvalues --   -0.56508  -0.56076  -0.55635  -0.51558  -0.46943
 Alpha  occ. eigenvalues --   -0.45122  -0.40883  -0.37938  -0.31763
 Alpha virt. eigenvalues --    0.02819   0.04374   0.06018   0.07325   0.08534
 Alpha virt. eigenvalues --    0.09541   0.09619   0.09933   0.10979   0.11494
 Alpha virt. eigenvalues --    0.12418   0.12441   0.14482   0.14613   0.14956

 Mulliken charges:
               1
     1  N   -2.322804
     2  C    1.263815
     3  C   -0.469481
     4  C    0.779348
     5  O   -2.839535
     6  C    0.304834
     7  C    0.311499
     8  H    1.550532
     9  H    0.710838
    10  H    0.710952
 Sum of Mulliken charges =  -0.00000

 Dipole moment (field-independent basis, Debye):
    X=             -2.5291    Y=              2.4163    Z=              0.0076  Tot=              3.4978

 Test job not archived.
 1\1\GINC-SE131\SP\RHF\Aug-CC-pVDZ\C5H3N1O1\OHZDE\09-Apr-2025\0\\#t hf
 aug-cc-pvdz iop(5/13=1,5/36=2,99/5=2) pseudo=read geom=check guess=(re
 ad,tcheck) scf=(maxcycle=1)\\title\\0,1\N,0,2.32015402,-0.06378234,-1.
 58667601\C,0,1.37676798,-0.04258605,-0.93279039\C,0,0.18998909,0.01428
 032,-0.09615928\C,0,-0.00674506,1.32307534,0.62339798\O,0,-0.93328624,
 1.52344228,1.35552598\C,0,-1.02508572,-0.80693714,-0.45776698\C,0,-0.3
 5148166,-1.24985154,0.52837956\H,0,0.76395114,2.09416195,0.43127506\H,
 0,-1.85046024,-0.82256814,-1.14508687\H,0,-0.15651631,-1.93693869,1.33

 Normal termination of Gaussian 16 at Wed Apr  9 18:47:22 2025.
