 Gaussian 16, Revision C.01,

 ----------------------------------------------------------------------
 #t hf aug-cc-pvdz symm=none int=(grid=ultrafine) guess=(read,tcheck) s
 table=(opt,rrhf)
 ----------------------------------------------------------------------
 -----
 title
 -----
 Symbolic Z-matrix:
 Charge =  0 Multiplicity = 1

 SCF Done:  E(RHF) =  -266.670259259     A.U. after   16 cycles
 Normal termination of Gaussian 16 at Wed Apr  9 16:01:38 2025.
 Gaussian 16:  ES64L-G16RevC.01  3-Jul-2019

 ----------------------------------------------------------------------
 #t hf aug-cc-pvdz iop(5/13=1,5/36=2,99/5=2) pseudo=read geom=check gue
 ss=(read,tcheck) scf=(maxcycle=1)
 ----------------------------------------------------------------------
 -----
 title
 -----
 Structure from the checkpoint file:  "Grambow2020_b97d3_006695_forward_mol1.chk"
 Charge =  0 Multiplicity = 1

                         Standard orientation:
 ---------------------------------------------------------------------
 Center     Atomic      Atomic             Coordinates (Angstroms)
 Number     Number       Type             X           Y           Z
 ---------------------------------------------------------------------
      1          6           0        1.183400    0.837472   -0.395370
      2          6           0        1.127397   -0.272213    0.571913
      3          8           0        0.230592   -0.973645   -0.291788
      4          6           0       -1.261205   -0.354197   -0.177536
      5          8           0       -1.237931    0.830229    0.309366
      6          1           0        1.636150    0.623862   -1.361548
      7          1           0        0.673973    1.780818   -0.240166
      8          1           0        2.044767   -0.858701    0.697148
      9          1           0        0.674652    0.001825    1.530332
     10          1           0       -1.567466   -0.514011   -1.233159
     11          1           0       -1.700918   -1.152838    0.472721
 ---------------------------------------------------------------------

 SCF Done:  E(RHF) =  -267.858397302     A.U. after    2 cycles

 The electronic state is 1-A.
 Alpha  occ. eigenvalues --  -21.05735 -20.94899 -11.54392 -11.45520 -11.41567
 Alpha  occ. eigenvalues --   -1.75161  -1.57609  -1.13947  -0.92745  -0.84264
 Alpha  occ. eigenvalues --   -0.72762  -0.65023  -0.61882  -0.58341  -0.50444
 Alpha  occ. eigenvalues --   -0.48090  -0.40058  -0.33462  -0.23469  -0.22823
 Alpha virt. eigenvalues --    0.01782   0.04019   0.04929   0.05892   0.06363
 Alpha virt. eigenvalues --    0.07043   0.07566   0.10498   0.11493   0.11981
 Alpha virt. eigenvalues --    0.13381   0.13788   0.14977   0.16335   0.17184

 Mulliken charges:
               1
     1  C   -2.654731
     2  C   -1.640888
     3  O   -2.077923
     4  C   -0.015323
     5  O   -2.295933
     6  H    1.439177
     7  H    1.504359
     8  H    1.341222
     9  H    1.640033
    10  H    1.401827
    11  H    1.358180
 Sum of Mulliken charges =   0.00000

 Dipole moment (field-independent basis, Debye):
    X=              3.9568    Y=             -0.3454    Z=             -0.5744  Tot=              4.0132

 Test job not archived.
 1\1\GINC-SE026\SP\RHF\Aug-CC-pVDZ\C3H6O2\OHZDE\09-Apr-2025\0\\#t hf au
 g-cc-pvdz iop(5/13=1,5/36=2,99/5=2) pseudo=read geom=check guess=(read
 ,tcheck) scf=(maxcycle=1)\\title\\0,1\C,0,0.91220086,1.0262772,-0.0906
 9804\C,0,1.07245819,-0.43595671,-0.01092235\O,0,-0.10228828,-0.6034679
 7,-0.80726089\C,0,-1.42922718,-0.36261127,0.08909287\O,0,-1.16040519,0
 .30240074,1.15021141\H,0,1.02199786,1.47902747,-1.0740962\H,0,0.553894
 37,1.62590312,0.73729443\H,0,1.93305011,-0.86320045,-0.53823989\H,0,0.
 96507688,-0.83580841,1.00260139\H,0,-2.06155374,0.09011595,-0.70392544

 Normal termination of Gaussian 16 at Wed Apr  9 16:01:41 2025.
