 Gaussian 16, Revision C.01,

 ----------------------------------------------------------------------
 #t hf aug-cc-pvdz symm=none int=(grid=ultrafine) guess=(read,tcheck) s
 table=(opt,rrhf)
 ----------------------------------------------------------------------
 -----
 title
 -----
 Symbolic Z-matrix:
 Charge =  0 Multiplicity = 1

 SCF Done:  E(RHF) =  -376.831065075     A.U. after   15 cycles
 Normal termination of Gaussian 16 at Wed Apr  9 03:58:46 2025.
 Gaussian 16:  ES64L-G16RevC.01  3-Jul-2019

 ----------------------------------------------------------------------
 #t hf aug-cc-pvdz iop(5/13=1,5/36=2,99/5=2) pseudo=read geom=check gue
 ss=(read,tcheck) scf=(maxcycle=1)
 ----------------------------------------------------------------------
 -----
 title
 -----
 Structure from the checkpoint file:  "Grambow2020_wb97xd3_008748_reverse_mol1.chk"
 Charge =  0 Multiplicity = 1

                         Standard orientation:
 ---------------------------------------------------------------------
 Center     Atomic      Atomic             Coordinates (Angstroms)
 Number     Number       Type             X           Y           Z
 ---------------------------------------------------------------------
      1          7           0       -2.613114   -0.654462   -0.236233
      2          6           0       -1.468416    0.084202   -0.002484
      3          8           0       -1.462962    1.297904   -0.032917
      4          7           0       -0.354377   -0.668531    0.272259
      5          6           0        0.849418   -0.054204    0.741897
      6          6           0        1.569635    0.739321   -0.185942
      7          8           0        2.887184   -0.506208   -0.447154
      8          1           0       -3.356598   -0.118401   -0.648362
      9          1           0       -2.515778   -1.590108   -0.590008
     10          1           0       -0.491024   -1.642548    0.474586
     11          1           0        2.070076   -0.784979    0.388603
     12          1           0        0.822043    0.313468    1.765588
     13          1           0        2.163030    1.571730    0.172770
     14          1           0        1.239754    0.812277   -1.213520
     15          1           0        3.743337   -0.249963   -0.082100
 ---------------------------------------------------------------------

 SCF Done:  E(RHF) =  -378.545449301     A.U. after    2 cycles

 The electronic state is 1-A.
 Alpha  occ. eigenvalues --  -21.06089 -21.00691 -15.76641 -15.75064 -11.49104
 Alpha  occ. eigenvalues --  -11.48821 -11.36798  -1.71102  -1.66851  -1.40434
 Alpha  occ. eigenvalues --   -1.30754  -1.10809  -0.88496  -0.79080  -0.72408
 Alpha  occ. eigenvalues --   -0.69996  -0.69593  -0.62293  -0.58900  -0.53612
 Alpha  occ. eigenvalues --   -0.53113  -0.48206  -0.44553  -0.40209  -0.36835
 Alpha  occ. eigenvalues --   -0.31245  -0.28837  -0.26176
 Alpha virt. eigenvalues --    0.03532   0.04804   0.05583   0.05735   0.06078
 Alpha virt. eigenvalues --    0.06545   0.07178   0.08624   0.11564   0.12540
 Alpha virt. eigenvalues --    0.13232   0.13381   0.14253   0.14748   0.15453

 Mulliken charges:
               1
     1  N   -2.757733
     2  C    5.427116
     3  O   -2.935264
     4  N   -2.648995
     5  C   -1.429526
     6  C   -2.178273
     7  O   -2.013737
     8  H    0.527798
     9  H    0.702361
    10  H    0.630005
    11  H    1.631050
    12  H    1.358054
    13  H    1.353929
    14  H    1.398285
    15  H    0.934930
 Sum of Mulliken charges =  -0.00000

 Dipole moment (field-independent basis, Debye):
    X=              1.4500    Y=             -1.2990    Z=             -0.9308  Tot=              2.1579

 Test job not archived.
 1\1\GINC-SE074\SP\RHF\Aug-CC-pVDZ\C3H8N2O2\OHZDE\09-Apr-2025\0\\#t hf
 aug-cc-pvdz iop(5/13=1,5/36=2,99/5=2) pseudo=read geom=check guess=(re
 ad,tcheck) scf=(maxcycle=1)\\title\\0,1\N,0,2.73997732,0.5900737,-0.53
 626498\C,0,1.51387659,0.72853626,0.08671242\O,0,1.37751022,1.35743336,
 1.11623718\N,0,0.47595811,0.10602463,-0.56010994\C,0,-0.87928735,0.332
 38091,-0.16116897\C,0,-1.2813375,-0.21151656,1.0845478\O,0,-2.24448924
 ,-1.57982217,0.33917152\H,0,3.51554622,0.85168625,0.04685758\H,0,2.895
 14853,-0.21696263,-1.11478006\H,0,0.63922254,-0.21463656,-1.49757387\H

 Normal termination of Gaussian 16 at Wed Apr  9 03:58:50 2025.
