 Gaussian 16, Revision C.01,

 ----------------------------------------------------------------------
 #t hf aug-cc-pvdz symm=none int=(grid=ultrafine) guess=(read,tcheck) s
 table=(opt,rrhf)
 ----------------------------------------------------------------------
 -----
 title
 -----
 Symbolic Z-matrix:
 Charge =  0 Multiplicity = 1

 SCF Done:  E(RHF) =  -346.088315080     A.U. after   15 cycles

 1\1\GINC-SE362\Stability\RHF\Aug-CC-pVDZ\C5H12O2\OHZDE\09-Apr-2025\0\\
 #t hf aug-cc-pvdz symm=none int=(grid=ultrafine) guess=(read,tcheck) s
 table=(opt,rrhf)\\title\\0,1\C,0,2.55854463,0.1279901,0.87458352\C,0,1
 .20964407,0.62435828,1.37378058\C,0,0.0586692,0.13761804,0.49345942\O,
 0,-0.00580257,-1.25860355,0.46073618\C,0,-1.25138527,0.71306178,0.9668
 8967\C,0,-1.90180979,-0.60803611,-2.49911851\O,0,-2.18636358,0.0186269
 6,1.26534483\H,0,2.57338771,-0.96122319,0.83339482\H,0,2.76918437,0.50
 624972,-0.12862739\H,0,3.36298853,0.45645607,1.53399413\H,0,1.0323665,

 Normal termination of Gaussian 16 at Wed Apr  9 19:05:09 2025.
 Gaussian 16:  ES64L-G16RevC.01  3-Jul-2019

 ----------------------------------------------------------------------
 #t hf aug-cc-pvdz iop(5/13=1,5/36=2,99/5=2) pseudo=read geom=check gue
 ss=(read,tcheck) scf=(maxcycle=1)
 ----------------------------------------------------------------------
 -----
 title
 -----
 Structure from the checkpoint file:  "Grambow2020_wb97xd3_008068_reverse_mol2.chk"
 Charge =  0 Multiplicity = 1

                         Standard orientation:
 ---------------------------------------------------------------------
 Center     Atomic      Atomic             Coordinates (Angstroms)
 Number     Number       Type             X           Y           Z
 ---------------------------------------------------------------------
      1          6           0        2.624196   -1.057253   -0.089163
      2          6           0        1.849929    0.223745   -0.362417
      3          6           0        0.348183    0.043555   -0.141248
      4          8           0        0.066042   -0.331960    1.175584
      5          6           0       -0.395806    1.304561   -0.498820
      6          6           0       -3.001255   -1.408048   -0.311877
      7          8           0       -1.115089    1.868229    0.282468
      8          1           0        2.449655   -1.398826    0.931212
      9          1           0        2.315719   -1.854940   -0.769176
     10          1           0        3.695796   -0.900040   -0.218774
     11          1           0        2.199332    1.023548    0.297386
     12          1           0        2.018392    0.555821   -1.392309
     13          1           0       -0.016349   -0.731288   -0.837363
     14          1           0       -0.564321    0.316416    1.517829
     15          1           0       -0.245442    1.691885   -1.524414
     16          1           0       -2.160813   -1.636940    0.342540
     17          1           0       -3.877147   -1.969647    0.009090
     18          1           0       -2.755806   -1.683921   -1.337196
     19          1           0       -3.218122   -0.341582   -0.262086
 ---------------------------------------------------------------------

 SCF Done:  E(RHF) =  -347.705964036     A.U. after    2 cycles

 The electronic state is 1-A.
 Alpha  occ. eigenvalues --  -21.08156 -21.06865 -11.50276 -11.46232 -11.41116
 Alpha  occ. eigenvalues --  -11.36782 -11.35403  -1.76748  -1.69412  -1.20961
 Alpha  occ. eigenvalues --   -1.04099  -1.02695  -0.88564  -0.80954  -0.70696
 Alpha  occ. eigenvalues --   -0.66911  -0.59973  -0.57040  -0.55540  -0.53533
 Alpha  occ. eigenvalues --   -0.53408  -0.53305  -0.49936  -0.49450  -0.47247
 Alpha  occ. eigenvalues --   -0.43972  -0.41600  -0.32641  -0.31480
 Alpha virt. eigenvalues --    0.03597   0.04486   0.04546   0.05281   0.05825
 Alpha virt. eigenvalues --    0.06081   0.06677   0.07306   0.07696   0.08478
 Alpha virt. eigenvalues --    0.08745   0.09269   0.11883   0.12596   0.13206

 Mulliken charges:
               1
     1  C   -4.009094
     2  C   -3.447693
     3  C    1.410098
     4  O   -3.132640
     5  C    1.081087
     6  C   -5.302896
     7  O   -2.708900
     8  H    1.378512
     9  H    1.276458
    10  H    1.105362
    11  H    1.414409
    12  H    1.355336
    13  H    2.069613
    14  H    0.764847
    15  H    1.544787
    16  H    1.443177
    17  H    1.191272
    18  H    1.304099
    19  H    1.262167
 Sum of Mulliken charges =  -0.00000

 Dipole moment (field-independent basis, Debye):
    X=              0.6718    Y=             -0.0723    Z=             -0.7576  Tot=              1.0152

 Test job not archived.
 1\1\GINC-SE362\SP\RHF\Aug-CC-pVDZ\C5H12O2\OHZDE\09-Apr-2025\0\\#t hf a
 ug-cc-pvdz iop(5/13=1,5/36=2,99/5=2) pseudo=read geom=check guess=(rea
 d,tcheck) scf=(maxcycle=1)\\title\\0,1\C,0,2.55854463,0.1279901,0.8745
 8352\C,0,1.20964407,0.62435828,1.37378058\C,0,0.0586692,0.13761804,0.4
 9345942\O,0,-0.00580257,-1.25860355,0.46073618\C,0,-1.25138527,0.71306
 178,0.96688967\C,0,-1.90180979,-0.60803611,-2.49911851\O,0,-2.18636358
 ,0.01862696,1.26534483\H,0,2.57338771,-0.96122319,0.83339482\H,0,2.769
 18437,0.50624972,-0.12862739\H,0,3.36298853,0.45645607,1.53399413\H,0,

 Normal termination of Gaussian 16 at Wed Apr  9 19:05:15 2025.
