 Gaussian 16, Revision C.01,

 ----------------------------------------------------------------------
 #t hf aug-cc-pvdz symm=none int=(grid=ultrafine) guess=(read,tcheck) s
 table=(opt,rrhf)
 ----------------------------------------------------------------------
 -----
 title
 -----
 Symbolic Z-matrix:
 Charge =  0 Multiplicity = 1

 SCF Done:  E(RHF) =  -302.173177342     A.U. after   18 cycles
 Normal termination of Gaussian 16 at Wed Apr  9 16:02:36 2025.
 Gaussian 16:  ES64L-G16RevC.01  3-Jul-2019

 ----------------------------------------------------------------------
 #t hf aug-cc-pvdz iop(5/13=1,5/36=2,99/5=2) pseudo=read geom=check gue
 ss=(read,tcheck) scf=(maxcycle=1)
 ----------------------------------------------------------------------
 -----
 title
 -----
 Structure from the checkpoint file:  "Grambow2020_b97d3_006706_reverse_mol1.chk"
 Charge =  0 Multiplicity = 1

                         Standard orientation:
 ---------------------------------------------------------------------
 Center     Atomic      Atomic             Coordinates (Angstroms)
 Number     Number       Type             X           Y           Z
 ---------------------------------------------------------------------
      1          8           0       -2.422941   -0.292350   -0.110611
      2          6           0       -1.279170   -0.290992    0.084649
      3          6           0       -0.220787    1.460439    0.148219
      4          6           0        0.977077    1.097742   -0.091300
      5          6           0        1.742216   -0.083528   -0.085636
      6          8           0        1.160423   -1.211250    0.076605
      7          1           0       -0.048221   -0.956840    0.138427
      8          1           0        2.832354   -0.116316   -0.201973
 ---------------------------------------------------------------------

 SCF Done:  E(RHF) =  -303.490515725     A.U. after    2 cycles

 The electronic state is 1-A.
 Alpha  occ. eigenvalues --  -21.18395 -21.12859 -11.56143 -11.55390 -11.41269
 Alpha  occ. eigenvalues --  -11.37581  -1.80695  -1.78883  -1.15283  -0.97140
 Alpha  occ. eigenvalues --   -0.82036  -0.75018  -0.65218  -0.61053  -0.56462
 Alpha  occ. eigenvalues --   -0.54561  -0.52508  -0.41175  -0.39679  -0.35703
 Alpha  occ. eigenvalues --   -0.34059
 Alpha virt. eigenvalues --    0.03116   0.03969   0.05444   0.07075   0.09423
 Alpha virt. eigenvalues --    0.09723   0.10409   0.10708   0.12442   0.13085
 Alpha virt. eigenvalues --    0.13921   0.14154   0.14572   0.15557   0.15862

 Mulliken charges:
               1
     1  O   -2.130640
     2  C    0.935162
     3  C   -2.184900
     4  C    1.661458
     5  C    0.929392
     6  O   -3.443414
     7  H    2.714170
     8  H    1.518773
 Sum of Mulliken charges =  -0.00000

 Dipole moment (field-independent basis, Debye):
    X=              0.3667    Y=             -4.4080    Z=             -0.2965  Tot=              4.4331

 Test job not archived.
 1\1\GINC-SE219\SP\RHF\Aug-CC-pVDZ\C4H2O2\OHZDE\09-Apr-2025\0\\#t hf au
 g-cc-pvdz iop(5/13=1,5/36=2,99/5=2) pseudo=read geom=check guess=(read
 ,tcheck) scf=(maxcycle=1)\\title\\0,1\O,0,-2.55683015,-0.71336238,0.57
 54568\C,0,-1.43719298,-0.41985125,0.49419619\C,0,-0.84726507,1.1979459
 1,-0.61325343\C,0,0.37844676,0.95897368,-0.8668644\C,0,1.41148886,0.12
 999621,-0.39095464\O,0,1.14502876,-0.78035854,0.46742499\H,0,-0.079152
 87,-0.73153542,0.63583259\H,0,2.46148969,0.21028278,-0.6976501\\Versio
 n=ES64L-G16RevC.01\State=1-A\HF=-303.4905157\RMSD=3.767e-01\Dipole=0.5

 Normal termination of Gaussian 16 at Wed Apr  9 16:02:38 2025.
