 Gaussian 16, Revision C.01,

 ----------------------------------------------------------------------
 #t hf aug-cc-pvdz symm=none int=(grid=ultrafine) guess=(read,tcheck) s
 table=(opt,rrhf)
 ----------------------------------------------------------------------
 -----
 title
 -----
 Symbolic Z-matrix:
 Charge =  0 Multiplicity = 1

 SCF Done:  E(RHF) =  -359.528603901     A.U. after   17 cycles
 Normal termination of Gaussian 16 at Wed Apr  9 19:34:14 2025.
 Gaussian 16:  ES64L-G16RevC.01  3-Jul-2019

 ----------------------------------------------------------------------
 #t hf aug-cc-pvdz iop(5/13=1,5/36=2,99/5=2) pseudo=read geom=check gue
 ss=(read,tcheck) scf=(maxcycle=1)
 ----------------------------------------------------------------------
 -----
 title
 -----
 Structure from the checkpoint file:  "Grambow2020_wb97xd3_009417_reverse_mol1.chk"
 Charge =  0 Multiplicity = 1

                         Standard orientation:
 ---------------------------------------------------------------------
 Center     Atomic      Atomic             Coordinates (Angstroms)
 Number     Number       Type             X           Y           Z
 ---------------------------------------------------------------------
      1          8           0       -1.954870   -0.037727    0.536858
      2          6           0       -0.955100   -0.156519   -0.438541
      3          6           0       -0.182684    1.143646   -0.655574
      4          8           0        0.899469    1.216023    0.353880
      5          6           0        1.387498    0.035928    0.546371
      6          7           0        1.330371   -0.916412   -0.378231
      7          6           0        0.063226   -1.296849   -0.275775
      8          1           0       -1.586988   -0.366262    1.365411
      9          1           0       -1.462970   -0.371047   -1.386843
     10          1           0        0.263528    1.190725   -1.647793
     11          1           0       -0.802568    2.012412   -0.454680
     12          1           0        0.948989   -0.493449    1.674422
     13          1           0       -0.223004   -2.290584   -0.615569
     14          1           0        0.115991   -1.050512    1.527882
 ---------------------------------------------------------------------

 SCF Done:  E(RHF) =  -361.167225603     A.U. after    2 cycles

 The electronic state is 1-A.
 Alpha  occ. eigenvalues --  -21.13206 -21.08343 -15.73517 -11.52278 -11.49116
 Alpha  occ. eigenvalues --  -11.47552 -11.42785  -1.86438  -1.73339  -1.42701
 Alpha  occ. eigenvalues --   -1.15104  -0.96890  -0.91143  -0.80639  -0.74008
 Alpha  occ. eigenvalues --   -0.71203  -0.63827  -0.61743  -0.57160  -0.55384
 Alpha  occ. eigenvalues --   -0.52968  -0.45268  -0.43478  -0.40605  -0.36494
 Alpha  occ. eigenvalues --   -0.33665  -0.31035
 Alpha virt. eigenvalues --    0.04026   0.04625   0.05211   0.05663   0.06117
 Alpha virt. eigenvalues --    0.07160   0.07691   0.08195   0.10531   0.10932
 Alpha virt. eigenvalues --    0.11977   0.13135   0.13473   0.14070   0.14428

 Mulliken charges:
               1
     1  O   -3.369862
     2  C    1.326856
     3  C   -1.348614
     4  O   -2.852818
     5  C    1.745649
     6  N   -2.446864
     7  C   -0.266046
     8  H    0.896735
     9  H    1.546764
    10  H    1.426415
    11  H    1.319157
    12  H    1.556943
    13  H    1.214764
    14  H   -0.749080
 Sum of Mulliken charges =  -0.00000

 Dipole moment (field-independent basis, Debye):
    X=             -1.0503    Y=              1.6419    Z=             -1.2863  Tot=              2.3353

 Test job not archived.
 1\1\GINC-SE084\SP\RHF\Aug-CC-pVDZ\C4H7N1O2\OHZDE\09-Apr-2025\0\\#t hf
 aug-cc-pvdz iop(5/13=1,5/36=2,99/5=2) pseudo=read geom=check guess=(re
 ad,tcheck) scf=(maxcycle=1)\\title\\0,1\O,0,-1.31177508,-0.5409,1.2503
 8918\C,0,-0.91468823,0.07107458,0.05336542\C,0,-0.13239427,1.36355063,
 0.28069453\O,0,1.29059957,1.01373894,0.49981366\C,0,1.61327126,0.02540
 542,-0.26629867\N,0,0.97892182,-0.22706801,-1.40601907\C,0,-0.13790054
 ,-0.78695523,-0.95867229\H,0,-0.65958751,-1.22125939,1.45419233\H,0,-1
 .83254893,0.35923702,-0.47362999\H,0,-0.19793354,2.03430427,-0.5746499

 Normal termination of Gaussian 16 at Wed Apr  9 19:34:19 2025.
