 Gaussian 16, Revision C.01,

 ----------------------------------------------------------------------
 #t hf aug-cc-pvdz symm=none int=(grid=ultrafine) guess=(read,tcheck) s
 table=(opt,rrhf)
 ----------------------------------------------------------------------
 -----
 title
 -----
 Symbolic Z-matrix:
 Charge =  0 Multiplicity = 1

 SCF Done:  E(RHF) =  -343.683962299     A.U. after   13 cycles
 Normal termination of Gaussian 16 at Wed Apr  9 18:48:42 2025.
 Gaussian 16:  ES64L-G16RevC.01  3-Jul-2019

 ----------------------------------------------------------------------
 #t hf aug-cc-pvdz iop(5/13=1,5/36=2,99/5=2) pseudo=read geom=check gue
 ss=(read,tcheck) scf=(maxcycle=1)
 ----------------------------------------------------------------------
 -----
 title
 -----
 Structure from the checkpoint file:  "Grambow2020_wb97xd3_007671_forward_mol2.chk"
 Charge =  0 Multiplicity = 1

                         Standard orientation:
 ---------------------------------------------------------------------
 Center     Atomic      Atomic             Coordinates (Angstroms)
 Number     Number       Type             X           Y           Z
 ---------------------------------------------------------------------
      1          6           0       -1.892944   -0.548552   -0.301538
      2          6           0       -0.705916   -0.445608    0.631007
      3          6           0        0.561354   -1.213055    0.268882
      4          8           0        1.045436   -0.668873   -0.955285
      5          6           0        1.379387    0.000441    0.257355
      6          6           0        0.170479    0.867236    0.596653
      7          8           0       -0.158308    1.876427   -0.307908
      8          1           0       -2.388912   -1.515515   -0.196892
      9          1           0       -1.584924   -0.443856   -1.342979
     10          1           0       -2.621460    0.234401   -0.085677
     11          1           0       -1.000138   -0.653474    1.662279
     12          1           0        0.842131   -2.232812    0.497398
     13          1           0        2.429498    0.155642    0.467673
     14          1           0        0.240598    1.327774    1.581844
     15          1           0       -0.087981    1.504636   -1.192254
 ---------------------------------------------------------------------

 SCF Done:  E(RHF) =  -345.248292464     A.U. after    2 cycles

 The electronic state is 1-A.
 Alpha  occ. eigenvalues --  -21.07017 -21.06643 -11.57084 -11.46768 -11.44508
 Alpha  occ. eigenvalues --  -11.39665 -11.36686  -1.82101  -1.70897  -1.23679
 Alpha  occ. eigenvalues --   -1.06055  -0.93383  -0.88355  -0.78582  -0.74945
 Alpha  occ. eigenvalues --   -0.62486  -0.60645  -0.58712  -0.57005  -0.50410
 Alpha  occ. eigenvalues --   -0.49869  -0.47295  -0.42681  -0.40219  -0.36250
 Alpha  occ. eigenvalues --   -0.32935  -0.28769
 Alpha virt. eigenvalues --    0.03887   0.04635   0.05131   0.05187   0.05751
 Alpha virt. eigenvalues --    0.06490   0.06981   0.08054   0.10240   0.12672
 Alpha virt. eigenvalues --    0.12844   0.13398   0.13731   0.14015   0.14689

 Mulliken charges:
               1
     1  C   -3.865943
     2  C   -1.650994
     3  C    0.318751
     4  O   -2.713869
     5  C   -0.531405
     6  C    1.783722
     7  O   -3.371088
     8  H    1.147627
     9  H    1.312879
    10  H    1.226574
    11  H    1.394868
    12  H    1.361383
    13  H    1.255323
    14  H    1.639111
    15  H    0.693061
 Sum of Mulliken charges =  -0.00000

 Dipole moment (field-independent basis, Debye):
    X=              0.0775    Y=             -0.7122    Z=              0.4159  Tot=              0.8284

 Test job not archived.
 1\1\GINC-SE097\SP\RHF\Aug-CC-pVDZ\C5H8O2\OHZDE\09-Apr-2025\0\\#t hf au
 g-cc-pvdz iop(5/13=1,5/36=2,99/5=2) pseudo=read geom=check guess=(read
 ,tcheck) scf=(maxcycle=1)\\title\\0,1\C,0,1.64413781,-0.56825317,0.142
 17219\C,0,0.43469572,0.22045423,0.59434913\C,0,-0.07545471,1.33641228,
 -0.31144747\O,0,-0.50405341,0.72754656,-1.52579512\C,0,-1.40563662,0.7
 362882,-0.42258562\C,0,-0.99278196,-0.44004252,0.45702382\O,0,-1.09771
 269,-1.71413746,-0.10017403\H,0,2.55860316,0.01576523,0.26311864\H,0,1
 .56255537,-0.84408659,-0.91029973\H,0,1.74513538,-1.48581719,0.7237418

 Normal termination of Gaussian 16 at Wed Apr  9 18:48:47 2025.
