 Gaussian 16, Revision C.01,

 ----------------------------------------------------------------------
 #t hf aug-cc-pvdz symm=none int=(grid=ultrafine) guess=(read,tcheck) s
 table=(opt,rrhf)
 ----------------------------------------------------------------------
 -----
 title
 -----
 Symbolic Z-matrix:
 Charge =  0 Multiplicity = 1

 SCF Done:  E(RHF) =  -262.587123884     A.U. after   17 cycles
 Normal termination of Gaussian 16 at Wed Apr  9 17:00:58 2025.
 Gaussian 16:  ES64L-G16RevC.01  3-Jul-2019

 ----------------------------------------------------------------------
 #t hf aug-cc-pvdz iop(5/13=1,5/36=2,99/5=2) pseudo=read geom=check gue
 ss=(read,tcheck) scf=(maxcycle=1)
 ----------------------------------------------------------------------
 -----
 title
 -----
 Structure from the checkpoint file:  "Grambow2020_b97d3_006906_reverse_mol2.chk"
 Charge =  0 Multiplicity = 1

                         Standard orientation:
 ---------------------------------------------------------------------
 Center     Atomic      Atomic             Coordinates (Angstroms)
 Number     Number       Type             X           Y           Z
 ---------------------------------------------------------------------
      1          6           0        0.072772    1.483726    0.008931
      2          6           0       -1.116644    0.778522   -0.117181
      3          7           0       -1.112581   -0.576401    0.113983
      4          7           0       -0.024597   -1.347382    0.007407
      5          6           0        1.126068   -0.698415   -0.141058
      6          6           0        1.221754    0.703646    0.096043
      7          1           0       -1.945766   -1.100359    0.387709
      8          1           0       -2.084292    1.196147   -0.405549
      9          1           0        1.982717   -1.348568   -0.330910
     10          1           0        2.183885    1.114391    0.418610
 ---------------------------------------------------------------------

 SCF Done:  E(RHF) =  -263.792787376     A.U. after    2 cycles

 The electronic state is 1-A.
 Alpha  occ. eigenvalues --  -15.85745 -15.80070 -11.47300 -11.45407 -11.41218
 Alpha  occ. eigenvalues --  -11.34821  -1.59865  -1.24551  -1.18955  -0.94285
 Alpha  occ. eigenvalues --   -0.89623  -0.75254  -0.69927  -0.63777  -0.62708
 Alpha  occ. eigenvalues --   -0.60989  -0.48789  -0.44706  -0.38739  -0.35821
 Alpha  occ. eigenvalues --   -0.28202
 Alpha virt. eigenvalues --    0.02885   0.04883   0.05750   0.06279   0.06970
 Alpha virt. eigenvalues --    0.09966   0.10100   0.11360   0.12670   0.13004
 Alpha virt. eigenvalues --    0.13546   0.14633   0.15189   0.15460   0.16505

 Mulliken charges:
               1
     1  C   -0.816788
     2  C   -0.285230
     3  N   -1.981171
     4  N   -1.999108
     5  C   -0.867048
     6  C    0.687270
     7  H    0.847290
     8  H    1.445052
     9  H    1.448460
    10  H    1.521272
 Sum of Mulliken charges =  -0.00000

 Dipole moment (field-independent basis, Debye):
    X=             -1.6837    Y=             -3.5578    Z=              0.1054  Tot=              3.9375

 Test job not archived.
 1\1\GINC-SE454\SP\RHF\Aug-CC-pVDZ\C4H4N2\OHZDE\09-Apr-2025\0\\#t hf au
 g-cc-pvdz iop(5/13=1,5/36=2,99/5=2) pseudo=read geom=check guess=(read
 ,tcheck) scf=(maxcycle=1)\\title\\0,1\C,0,0.54140826,1.21340757,0.5952
 7558\C,0,1.35895402,0.18342018,0.14954888\N,0,0.80427318,-0.82822616,-
 0.59755906\N,0,-0.49177701,-1.15743253,-0.56070877\C,0,-1.27977493,-0.
 31257433,0.09694142\C,0,-0.82565813,0.98554134,0.47086557\H,0,1.343531
 79,-1.40834814,-1.24278277\H,0,2.42817217,0.07899736,0.34899142\H,0,-2
 .31103301,-0.65599077,0.20259377\H,0,-1.56342634,1.78800847,0.57187696

 Normal termination of Gaussian 16 at Wed Apr  9 17:01:01 2025.
