 Gaussian 16, Revision C.01,

 ----------------------------------------------------------------------
 #t hf aug-cc-pvdz symm=none int=(grid=ultrafine) guess=(read,tcheck) s
 table=(opt,rrhf)
 ----------------------------------------------------------------------
 -----
 title
 -----
 Symbolic Z-matrix:
 Charge =  0 Multiplicity = 1

 SCF Done:  E(RHF) =  -343.652112533     A.U. after   13 cycles
 Normal termination of Gaussian 16 at Wed Apr  9 19:31:15 2025.
 Gaussian 16:  ES64L-G16RevC.01  3-Jul-2019

 ----------------------------------------------------------------------
 #t hf aug-cc-pvdz iop(5/13=1,5/36=2,99/5=2) pseudo=read geom=check gue
 ss=(read,tcheck) scf=(maxcycle=1)
 ----------------------------------------------------------------------
 -----
 title
 -----
 Structure from the checkpoint file:  "Grambow2020_wb97xd3_009115_reverse_mol2.chk"
 Charge =  0 Multiplicity = 1

                         Standard orientation:
 ---------------------------------------------------------------------
 Center     Atomic      Atomic             Coordinates (Angstroms)
 Number     Number       Type             X           Y           Z
 ---------------------------------------------------------------------
      1          6           0       -2.186510   -0.296513    0.801923
      2          6           0       -1.445669    0.507702   -0.199349
      3          8           0       -0.118189    0.184913   -0.520056
      4          6           0        0.831482    0.828394    0.303563
      5          6           0        2.191480    0.295147   -0.082968
      6          8           0        2.276436   -1.097633    0.113847
      7          6           0       -2.479456   -0.508056   -0.439826
      8          1           0        1.505421   -1.483056   -0.311793
      9          1           0       -2.332640   -0.538022    1.840253
     10          1           0       -1.642017    1.573164   -0.334441
     11          1           0        0.628315    0.605299    1.359585
     12          1           0        0.794114    1.917998    0.164742
     13          1           0        2.396800    0.558097   -1.128939
     14          1           0        2.959905    0.755861    0.540632
     15          1           0       -3.043834   -1.047622   -1.180426
 ---------------------------------------------------------------------

 SCF Done:  E(RHF) =  -345.209428046     A.U. after    2 cycles

 The electronic state is 1-A.
 Alpha  occ. eigenvalues --  -21.05563 -21.04295 -11.48686 -11.44631 -11.43894
 Alpha  occ. eigenvalues --  -11.41054 -11.38492  -1.77576  -1.69036  -1.28540
 Alpha  occ. eigenvalues --   -1.07393  -0.87772  -0.82870  -0.80981  -0.71280
 Alpha  occ. eigenvalues --   -0.67352  -0.63000  -0.59121  -0.57061  -0.52376
 Alpha  occ. eigenvalues --   -0.48430  -0.46580  -0.39981  -0.37629  -0.34656
 Alpha  occ. eigenvalues --   -0.30763  -0.29864
 Alpha virt. eigenvalues --    0.03891   0.04464   0.05326   0.05561   0.06441
 Alpha virt. eigenvalues --    0.06615   0.07288   0.07634   0.08995   0.10539
 Alpha virt. eigenvalues --    0.12239   0.12462   0.13491   0.14064   0.14828

 Mulliken charges:
               1
     1  C   -0.753049
     2  C    0.921013
     3  O   -3.044681
     4  C   -1.535124
     5  C   -1.188324
     6  O   -2.592843
     7  C   -1.273227
     8  H    0.860448
     9  H    0.749170
    10  H    1.360273
    11  H    1.625007
    12  H    1.510974
    13  H    1.320556
    14  H    1.209637
    15  H    0.830170
 Sum of Mulliken charges =   0.00000

 Dipole moment (field-independent basis, Debye):
    X=             -1.4353    Y=              0.2784    Z=              0.1754  Tot=              1.4726

 Test job not archived.
 1\1\GINC-SE028\SP\RHF\Aug-CC-pVDZ\C5H8O2\OHZDE\09-Apr-2025\0\\#t hf au
 g-cc-pvdz iop(5/13=1,5/36=2,99/5=2) pseudo=read geom=check guess=(read
 ,tcheck) scf=(maxcycle=1)\\title\\0,1\C,0,-2.30886045,0.10393837,0.503
 9382\C,0,-1.38326566,-0.10479852,-0.63529608\O,0,-0.04207555,-0.444494
 62,-0.40063788\C,0,0.80618554,0.67634482,-0.26475692\C,0,2.17799148,0.
 15638268,0.09737541\O,0,2.15681678,-0.55783621,1.3119672\C,0,-2.422516
 35,-1.0147131,-0.1349747\H,0,1.43895677,-1.19370225,1.24460882\H,0,-2.
 62252334,0.74413691,1.30989832\H,0,-1.49906052,0.44255397,-1.57285107\

 Normal termination of Gaussian 16 at Wed Apr  9 19:31:19 2025.
