 Gaussian 16, Revision C.01,

 ----------------------------------------------------------------------
 #t hf aug-cc-pvdz symm=none int=(grid=ultrafine) guess=(read,tcheck) s
 table=(opt,rrhf)
 ----------------------------------------------------------------------
 -----
 title
 -----
 Symbolic Z-matrix:
 Charge =  0 Multiplicity = 1

 SCF Done:  E(RHF) =  -358.572834171     A.U. after   14 cycles
 Normal termination of Gaussian 16 at Wed Apr  9 03:33:41 2025.
 Gaussian 16:  ES64L-G16RevC.01  3-Jul-2019

 ----------------------------------------------------------------------
 #t hf aug-cc-pvdz iop(5/13=1,5/36=2,99/5=2) pseudo=read geom=check gue
 ss=(read,tcheck) scf=(maxcycle=1)
 ----------------------------------------------------------------------
 -----
 title
 -----
 Structure from the checkpoint file:  "Grambow2020_wb97xd3_007062_forward_mol2.chk"
 Charge =  0 Multiplicity = 1

                         Standard orientation:
 ---------------------------------------------------------------------
 Center     Atomic      Atomic             Coordinates (Angstroms)
 Number     Number       Type             X           Y           Z
 ---------------------------------------------------------------------
      1          8           0       -2.199023   -0.310661   -0.009686
      2          6           0       -1.022536   -0.048346   -0.060832
      3          7           0       -0.447069    1.169348    0.146426
      4          6           0        0.984172    1.233054   -0.069897
      5          6           0        1.343107   -0.208927   -0.357144
      6          8           0        1.034962   -1.078669    0.713319
      7          6           0        0.115263   -0.996566   -0.371415
      8          1           0       -0.989954    1.935857    0.502037
      9          1           0        1.515267    1.604133    0.810455
     10          1           0        1.234397    1.866365   -0.926210
     11          1           0        2.222414   -0.455350   -0.939686
     12          1           0       -0.060192   -1.897086   -0.944916
 ---------------------------------------------------------------------

 SCF Done:  E(RHF) =  -360.137766254     A.U. after    2 cycles

 The electronic state is 1-A.
 Alpha  occ. eigenvalues --  -21.08659 -21.03441 -15.76787 -11.55867 -11.50518
 Alpha  occ. eigenvalues --  -11.46320 -11.42472  -1.83244  -1.70328  -1.42401
 Alpha  occ. eigenvalues --   -1.08620  -1.04472  -0.88305  -0.83458  -0.72127
 Alpha  occ. eigenvalues --   -0.66644  -0.61542  -0.60825  -0.55345  -0.55037
 Alpha  occ. eigenvalues --   -0.49724  -0.44543  -0.39302  -0.34944  -0.31830
 Alpha  occ. eigenvalues --   -0.27509
 Alpha virt. eigenvalues --    0.03289   0.04590   0.05058   0.05610   0.06227
 Alpha virt. eigenvalues --    0.09266   0.10123   0.10806   0.12241   0.12832
 Alpha virt. eigenvalues --    0.13368   0.13890   0.14413   0.14985   0.15807

 Mulliken charges:
               1
     1  O   -3.411103
     2  C    4.787679
     3  N   -2.380905
     4  C   -2.141375
     5  C    0.708966
     6  O   -2.734725
     7  C   -1.361287
     8  H    0.771931
     9  H    1.338825
    10  H    1.432127
    11  H    1.493283
    12  H    1.496585
 Sum of Mulliken charges =  -0.00000

 Dipole moment (field-independent basis, Debye):
    X=              2.6305    Y=              1.4303    Z=             -0.2753  Tot=              3.0069

 Test job not archived.
 1\1\GINC-SE220\SP\RHF\Aug-CC-pVDZ\C4H5N1O2\OHZDE\09-Apr-2025\0\\#t hf
 aug-cc-pvdz iop(5/13=1,5/36=2,99/5=2) pseudo=read geom=check guess=(re
 ad,tcheck) scf=(maxcycle=1)\\title\\0,1\O,0,0.9811392,2.30276394,0.587
 30453\C,0,0.52757298,1.2193162,0.31168891\N,0,1.22109105,0.1293233,-0.
 12172321\C,0,0.42034415,-1.02539727,-0.47489174\C,0,-0.97870332,-0.590
 50588,-0.09516691\O,0,-1.10967642,-0.28965325,1.27947078\C,0,-0.922676
 9,0.79093592,0.37029926\H,0,2.22539093,0.12710421,-0.11190713\H,0,0.72
 079342,-1.91749503,0.08069267\H,0,0.47522492,-1.24135909,-1.54602017\H

 Normal termination of Gaussian 16 at Wed Apr  9 03:33:46 2025.
