 Gaussian 16, Revision C.01,

 ----------------------------------------------------------------------
 #t hf aug-cc-pvdz symm=none int=(grid=ultrafine) guess=(read,tcheck) s
 table=(opt,rrhf)
 ----------------------------------------------------------------------
 -----
 title
 -----
 Symbolic Z-matrix:
 Charge =  0 Multiplicity = 1

 SCF Done:  E(RHF) =  -343.583090659     A.U. after   15 cycles
 Normal termination of Gaussian 16 at Wed Apr  9 18:48:45 2025.
 Gaussian 16:  ES64L-G16RevC.01  3-Jul-2019

 ----------------------------------------------------------------------
 #t hf aug-cc-pvdz iop(5/13=1,5/36=2,99/5=2) pseudo=read geom=check gue
 ss=(read,tcheck) scf=(maxcycle=1)
 ----------------------------------------------------------------------
 -----
 title
 -----
 Structure from the checkpoint file:  "Grambow2020_wb97xd3_007678_reverse_mol1.chk"
 Charge =  0 Multiplicity = 1

                         Standard orientation:
 ---------------------------------------------------------------------
 Center     Atomic      Atomic             Coordinates (Angstroms)
 Number     Number       Type             X           Y           Z
 ---------------------------------------------------------------------
      1          6           0       -2.334912    0.098930   -0.408438
      2          6           0       -1.158429   -0.242429    0.457677
      3          6           0       -0.200855   -1.199302    0.138553
      4          8           0        1.575147   -0.617107   -0.788502
      5          6           0        1.149638   -0.618330    0.488584
      6          6           0        0.471144    0.757287    0.667097
      7          8           0        0.738521    1.557420   -0.331031
      8          1           0       -2.516170   -0.684300   -1.146898
      9          1           0       -2.125303    1.020038   -0.960550
     10          1           0       -3.245992    0.254639    0.168943
     11          1           0       -1.268437   -0.059809    1.522595
     12          1           0       -0.255504   -1.946974   -0.644705
     13          1           0        1.806811   -1.001575    1.272905
     14          1           0        0.310381    1.237432    1.625508
     15          1           0        1.225355    0.881113   -0.942367
 ---------------------------------------------------------------------

 SCF Done:  E(RHF) =  -345.168389037     A.U. after    2 cycles

 The electronic state is 1-A.
 Alpha  occ. eigenvalues --  -21.07803 -20.97546 -11.55614 -11.48895 -11.43451
 Alpha  occ. eigenvalues --  -11.42565 -11.39077  -1.79362  -1.62956  -1.27686
 Alpha  occ. eigenvalues --   -1.08092  -0.94938  -0.88197  -0.79170  -0.73342
 Alpha  occ. eigenvalues --   -0.65188  -0.62941  -0.59598  -0.57995  -0.52480
 Alpha  occ. eigenvalues --   -0.50984  -0.48273  -0.43068  -0.39720  -0.31096
 Alpha  occ. eigenvalues --   -0.27235  -0.25535
 Alpha virt. eigenvalues --    0.03354   0.04376   0.04748   0.05002   0.05235
 Alpha virt. eigenvalues --    0.06520   0.07276   0.08328   0.08870   0.11100
 Alpha virt. eigenvalues --    0.12215   0.13028   0.13367   0.13603   0.13810

 Mulliken charges:
               1
     1  C   -3.988952
     2  C   -1.233911
     3  C   -0.745816
     4  O   -2.675938
     5  C    0.022597
     6  C    1.656318
     7  O   -3.137883
     8  H    1.284096
     9  H    1.177220
    10  H    1.170087
    11  H    1.378006
    12  H    1.435625
    13  H    1.438461
    14  H    1.485537
    15  H    0.734554
 Sum of Mulliken charges =   0.00000

 Dipole moment (field-independent basis, Debye):
    X=             -1.5134    Y=              0.3534    Z=              1.4290  Tot=              2.1112

 Test job not archived.
 1\1\GINC-SE029\SP\RHF\Aug-CC-pVDZ\C5H8O2\OHZDE\09-Apr-2025\0\\#t hf au
 g-cc-pvdz iop(5/13=1,5/36=2,99/5=2) pseudo=read geom=check guess=(read
 ,tcheck) scf=(maxcycle=1)\\title\\0,1\C,0,1.8992514,-0.48351652,0.4537
 5476\C,0,0.56142801,0.16085569,0.66777864\C,0,0.04146551,1.17317321,-0
 .13175001\O,0,-1.25254674,0.694457,-1.69665486\C,0,-1.41635563,0.85408
 452,-0.37011987\C,0,-1.16733169,-0.55183052,0.21803997\O,0,-1.14153427
 ,-1.46525188,-0.71628399\H,0,2.52842311,0.1294223,-0.19437788\H,0,1.76
 327305,-1.44696909,-0.04671557\H,0,2.4291373,-0.6638199,1.38884442\H,0

 Normal termination of Gaussian 16 at Wed Apr  9 18:48:50 2025.
