 Gaussian 16, Revision C.01,

 ----------------------------------------------------------------------
 #t hf aug-cc-pvdz symm=none int=(grid=ultrafine) guess=(read,tcheck) s
 table=(opt,rrhf)
 ----------------------------------------------------------------------
 -----
 title
 -----
 Symbolic Z-matrix:
 Charge =  0 Multiplicity = 1

 SCF Done:  E(RHF) =  -373.256823381     A.U. after   15 cycles
 Normal termination of Gaussian 16 at Wed Apr  9 03:27:57 2025.
 Gaussian 16:  ES64L-G16RevC.01  3-Jul-2019

 ----------------------------------------------------------------------
 #t hf aug-cc-pvdz iop(5/13=1,5/36=2,99/5=2) pseudo=read geom=check gue
 ss=(read,tcheck) scf=(maxcycle=1)
 ----------------------------------------------------------------------
 -----
 title
 -----
 Structure from the checkpoint file:  "Grambow2020_wb97xd3_006706_forward_mol1.chk"
 Charge =  0 Multiplicity = 1

                         Standard orientation:
 ---------------------------------------------------------------------
 Center     Atomic      Atomic             Coordinates (Angstroms)
 Number     Number       Type             X           Y           Z
 ---------------------------------------------------------------------
      1          8           0       -2.990846   -0.226975    0.003274
      2          6           0       -1.999588    0.326404   -0.001813
      3          6           0       -0.066947   -0.420928   -0.003103
      4          7           0        0.282266    0.847216   -0.002448
      5          6           0        1.644349    0.855571    0.001380
      6          7           0        2.149689   -0.331374    0.002463
      7          8           0        1.023142   -1.163735   -0.000937
      8          1           0       -1.010711    1.208867   -0.003581
      9          1           0        2.261776    1.739632    0.005989
 ---------------------------------------------------------------------

 SCF Done:  E(RHF) =  -374.873361855     A.U. after    2 cycles

 The electronic state is 1-A.
 Alpha  occ. eigenvalues --  -21.18395 -21.13825 -15.78790 -15.76110 -11.56722
 Alpha  occ. eigenvalues --  -11.45811 -11.42565  -1.92373  -1.81713  -1.42874
 Alpha  occ. eigenvalues --   -1.26578  -0.94992  -0.83213  -0.80924  -0.70405
 Alpha  occ. eigenvalues --   -0.64828  -0.61049  -0.56614  -0.54445  -0.51681
 Alpha  occ. eigenvalues --   -0.45738  -0.43669  -0.40950  -0.38047  -0.33015
 Alpha virt. eigenvalues --    0.03359   0.05091   0.09063   0.09107   0.09323
 Alpha virt. eigenvalues --    0.10243   0.10571   0.11255   0.11705   0.13308
 Alpha virt. eigenvalues --    0.13620   0.13929   0.15500   0.16869   0.17299

 Mulliken charges:
               1
     1  O   -2.248320
     2  C    1.255936
     3  C    1.761382
     4  N   -2.857201
     5  C    1.505216
     6  N   -0.625680
     7  O   -2.471077
     8  H    2.052797
     9  H    1.626947
 Sum of Mulliken charges =  -0.00000

 Dipole moment (field-independent basis, Debye):
    X=             -2.0569    Y=              1.8564    Z=              0.0076  Tot=              2.7707

 Test job not archived.
 1\1\GINC-SE329\SP\RHF\Aug-CC-pVDZ\C3H2N2O2\OHZDE\09-Apr-2025\0\\#t hf
 aug-cc-pvdz iop(5/13=1,5/36=2,99/5=2) pseudo=read geom=check guess=(re
 ad,tcheck) scf=(maxcycle=1)\\title\\0,1\O,0,-3.17773079,-0.10153173,-0
 .10337191\C,0,-2.12119138,0.30615055,-0.02358959\C,0,-0.30773316,-0.69
 310259,-0.10402461\N,0,0.20909298,0.50384029,0.07020745\C,0,1.5591761,
 0.3242774,0.08985716\N,0,1.89963535,-0.91066096,-0.0625338\O,0,0.67173
 367,-1.57253006,-0.18954578\H,0,-1.02273984,1.03681458,0.10351997\H,0,
 2.28975807,1.10674152,0.21948111\\Version=ES64L-G16RevC.01\State=1-A\H

 Normal termination of Gaussian 16 at Wed Apr  9 03:28:00 2025.
