 Gaussian 16, Revision C.01,

 ----------------------------------------------------------------------
 #t hf aug-cc-pvdz symm=none int=(grid=ultrafine) guess=(read,tcheck) s
 table=(opt,rrhf)
 ----------------------------------------------------------------------
 -----
 title
 -----
 Symbolic Z-matrix:
 Charge =  0 Multiplicity = 1

 SCF Done:  E(RHF) =  -354.684186244     A.U. after   14 cycles
 Normal termination of Gaussian 16 at Wed Apr  9 03:39:43 2025.
 Gaussian 16:  ES64L-G16RevC.01  3-Jul-2019

 ----------------------------------------------------------------------
 #t hf aug-cc-pvdz iop(5/13=1,5/36=2,99/5=2) pseudo=read geom=check gue
 ss=(read,tcheck) scf=(maxcycle=1)
 ----------------------------------------------------------------------
 -----
 title
 -----
 Structure from the checkpoint file:  "Grambow2020_wb97xd3_007470_forward_mol1.chk"
 Charge =  0 Multiplicity = 1

                         Standard orientation:
 ---------------------------------------------------------------------
 Center     Atomic      Atomic             Coordinates (Angstroms)
 Number     Number       Type             X           Y           Z
 ---------------------------------------------------------------------
      1          7           0       -2.314088   -0.619124   -0.085907
      2          6           0       -1.049470   -0.061919   -0.008651
      3          6           0       -0.648524    1.239236    0.005813
      4          7           0        0.771146    1.224101    0.007602
      5          6           0        1.140413   -0.056291    0.003282
      6          8           0        2.214281   -0.752124    0.001812
      7          7           0        0.078998   -0.854479   -0.005915
      8          1           0       -2.375851   -1.518763    0.363094
      9          1           0       -3.052128   -0.003991    0.213097
     10          1           0       -1.209213    2.156350    0.000408
     11          1           0        1.383505    2.016669    0.010292
     12          1           0        1.132526   -1.612910   -0.014516
 ---------------------------------------------------------------------

 SCF Done:  E(RHF) =  -356.288391132     A.U. after    2 cycles

 The electronic state is 1-A.
 Alpha  occ. eigenvalues --  -21.03681 -15.79666 -15.77144 -15.72656 -11.48899
 Alpha  occ. eigenvalues --  -11.48218 -11.38995  -1.76033  -1.53898  -1.36593
 Alpha  occ. eigenvalues --   -1.27448  -1.04325  -0.86225  -0.84732  -0.72248
 Alpha  occ. eigenvalues --   -0.66665  -0.64918  -0.61092  -0.57503  -0.50861
 Alpha  occ. eigenvalues --   -0.48991  -0.47423  -0.42022  -0.34520  -0.33862
 Alpha  occ. eigenvalues --   -0.23191
 Alpha virt. eigenvalues --    0.03185   0.04676   0.05235   0.06453   0.07453
 Alpha virt. eigenvalues --    0.10620   0.11406   0.11422   0.12226   0.12770
 Alpha virt. eigenvalues --    0.13602   0.13951   0.15355   0.15523   0.16370

 Mulliken charges:
               1
     1  N   -3.302291
     2  C    4.428152
     3  C   -1.078398
     4  N   -2.640022
     5  C    5.241595
     6  O   -2.843636
     7  N   -3.306725
     8  H    0.663770
     9  H    0.540612
    10  H    1.338958
    11  H    0.737852
    12  H    0.220132
 Sum of Mulliken charges =   0.00000

 Dipole moment (field-independent basis, Debye):
    X=             -1.7726    Y=              1.7828    Z=              0.8485  Tot=              2.6534

 Test job not archived.
 1\1\GINC-SE328\SP\RHF\Aug-CC-pVDZ\C3H5N3O1\OHZDE\09-Apr-2025\0\\#t hf
 aug-cc-pvdz iop(5/13=1,5/36=2,99/5=2) pseudo=read geom=check guess=(re
 ad,tcheck) scf=(maxcycle=1)\\title\\0,1\N,0,2.11310144,-0.00643411,0.0
 5205619\C,0,0.73290331,0.09366941,0.02494095\C,0,-0.08209634,1.1839911
 6,0.05571601\N,0,-1.41330209,0.69188999,0.09343143\C,0,-1.33057887,-0.
 63799241,0.07470771\O,0,-2.10751895,-1.65463338,0.08819569\N,0,-0.0630
 8227,-1.03235778,0.03323595\H,0,2.45763294,-0.82588231,-0.42183112\H,0
 ,2.5905761,0.82568278,-0.25141491\H,0,0.13773301,2.23612715,0.06929566

 Normal termination of Gaussian 16 at Wed Apr  9 03:39:48 2025.
