 Gaussian 16, Revision C.01,

 ----------------------------------------------------------------------
 #t hf aug-cc-pvdz symm=none int=(grid=ultrafine) guess=(read,tcheck) s
 table=(opt,rrhf)
 ----------------------------------------------------------------------
 -----
 title
 -----
 Symbolic Z-matrix:
 Charge =  0 Multiplicity = 1

 SCF Done:  E(RHF) =  -360.874946475     A.U. after   13 cycles
 Normal termination of Gaussian 16 at Wed Apr  9 03:58:17 2025.
 Gaussian 16:  ES64L-G16RevC.01  3-Jul-2019

 ----------------------------------------------------------------------
 #t hf aug-cc-pvdz iop(5/13=1,5/36=2,99/5=2) pseudo=read geom=check gue
 ss=(read,tcheck) scf=(maxcycle=1)
 ----------------------------------------------------------------------
 -----
 title
 -----
 Structure from the checkpoint file:  "Grambow2020_wb97xd3_008681_reverse_mol2.chk"
 Charge =  0 Multiplicity = 1

                         Standard orientation:
 ---------------------------------------------------------------------
 Center     Atomic      Atomic             Coordinates (Angstroms)
 Number     Number       Type             X           Y           Z
 ---------------------------------------------------------------------
      1          6           0       -2.813004    0.046911    0.592829
      2          7           0       -1.782013    0.055647   -0.467959
      3          6           0       -0.630452   -0.815856   -0.265644
      4          6           0        0.508778   -0.043047   -0.114137
      5          8           0        0.478651    1.207823   -0.147991
      6          8           0        1.667011   -0.714915    0.073926
      7          6           0        2.823092    0.090923    0.227637
      8          1           0       -3.228226   -0.955269    0.676478
      9          1           0       -3.603196    0.760974    0.355134
     10          1           0       -2.326589    0.314419    1.527430
     11          1           0       -1.274446    0.974860   -0.475263
     12          1           0       -2.221912   -0.069801   -1.377584
     13          1           0       -0.751450   -1.882717   -0.287896
     14          1           0        3.654490   -0.602810    0.338962
     15          1           0        2.748048    0.726959    1.111373
     16          1           0        2.981594    0.727012   -0.644508
 ---------------------------------------------------------------------

 SCF Done:  E(RHF) =  -362.521127235     A.U. after    2 cycles

 The electronic state is 1-A.
 Alpha  occ. eigenvalues --  -21.04681 -20.97719 -15.84693 -11.47787 -11.43029
 Alpha  occ. eigenvalues --  -11.38264 -11.34800  -1.80128  -1.61645  -1.46886
 Alpha  occ. eigenvalues --   -1.08032  -1.00782  -0.93113  -0.77599  -0.73641
 Alpha  occ. eigenvalues --   -0.67067  -0.62544  -0.61368  -0.59637  -0.57318
 Alpha  occ. eigenvalues --   -0.55634  -0.49608  -0.48728  -0.48391  -0.37520
 Alpha  occ. eigenvalues --   -0.29319  -0.26869  -0.23307
 Alpha virt. eigenvalues --    0.02524   0.04521   0.04707   0.05583   0.06236
 Alpha virt. eigenvalues --    0.06571   0.07565   0.07700   0.08324   0.10189
 Alpha virt. eigenvalues --    0.11419   0.12814   0.13455   0.15040   0.15246

 Mulliken charges:
               1
     1  C   -3.541910
     2  N   -2.474200
     3  C   -2.888550
     4  C    7.827997
     5  O   -3.249637
     6  O   -3.344422
     7  C   -3.034591
     8  H    1.385243
     9  H    1.246251
    10  H    1.364256
    11  H    0.812336
    12  H    0.639724
    13  H    1.318725
    14  H    1.323161
    15  H    1.299996
    16  H    1.315621
 Sum of Mulliken charges =  -0.00000

 Dipole moment (field-independent basis, Debye):
    X=             -4.1695    Y=             -0.0823    Z=             -0.4264  Tot=              4.1921

 Test job not archived.
 1\1\GINC-SE036\SP\RHF\Aug-CC-pVDZ\C4H9N1O2\OHZDE\09-Apr-2025\0\\#t hf
 aug-cc-pvdz iop(5/13=1,5/36=2,99/5=2) pseudo=read geom=check guess=(re
 ad,tcheck) scf=(maxcycle=1)\\title\\0,1\C,0,-2.62476933,0.31682707,0.0
 3123894\N,0,-1.52150764,-0.55764427,0.48555416\C,0,-0.34479787,0.10761
 843,1.03265552\C,0,0.73972569,-0.12240326,0.20263595\O,0,0.64858413,-0
 .80011027,-0.84576094\O,0,1.91396606,0.42754518,0.5860347\C,0,3.013435
 67,0.18290502,-0.27468721\H,0,-2.99347601,0.89244189,0.87769789\H,0,-3
 .43096313,-0.28426707,-0.392466\H,0,-2.22148049,0.99452184,-0.71691122

 Normal termination of Gaussian 16 at Wed Apr  9 03:58:24 2025.
