 Gaussian 16, Revision C.01,

 ----------------------------------------------------------------------
 #t hf aug-cc-pvdz symm=none int=(grid=ultrafine) guess=(read,tcheck) s
 table=(opt,rrhf)
 ----------------------------------------------------------------------
 -----
 title
 -----
 Symbolic Z-matrix:
 Charge =  0 Multiplicity = 1

 SCF Done:  E(RHF) =  -343.769430918     A.U. after   13 cycles
 Normal termination of Gaussian 16 at Wed Apr  9 18:55:48 2025.
 Gaussian 16:  ES64L-G16RevC.01  3-Jul-2019

 ----------------------------------------------------------------------
 #t hf aug-cc-pvdz iop(5/13=1,5/36=2,99/5=2) pseudo=read geom=check gue
 ss=(read,tcheck) scf=(maxcycle=1)
 ----------------------------------------------------------------------
 -----
 title
 -----
 Structure from the checkpoint file:  "Grambow2020_wb97xd3_007804_forward_mol2.chk"
 Charge =  0 Multiplicity = 1

                         Standard orientation:
 ---------------------------------------------------------------------
 Center     Atomic      Atomic             Coordinates (Angstroms)
 Number     Number       Type             X           Y           Z
 ---------------------------------------------------------------------
      1          6           0        1.543049    1.265319   -0.078024
      2          6           0        0.726739   -0.000298    0.045457
      3          6           0        1.553831   -1.258171   -0.082498
      4          6           0       -0.341973   -0.005583    1.151066
      5          6           0       -1.317614   -0.001603   -0.009306
      6          8           0       -2.492593    0.000428   -0.165276
      7          8           0       -0.352079   -0.001476   -0.963769
      8          1           0        0.905645    2.148415   -0.019332
      9          1           0        2.282209    1.316504    0.723874
     10          1           0        2.070266    1.284928   -1.033047
     11          1           0        0.925305   -2.147592   -0.024937
     12          1           0        2.080193   -1.270940   -1.038131
     13          1           0        2.294236   -1.302940    0.718673
     14          1           0       -0.392081   -0.901357    1.767759
     15          1           0       -0.392586    0.883387    1.777323
 ---------------------------------------------------------------------

 SCF Done:  E(RHF) =  -345.328687306     A.U. after    2 cycles

 The electronic state is 1-A.
 Alpha  occ. eigenvalues --  -21.08160 -21.05433 -11.52508 -11.50141 -11.42893
 Alpha  occ. eigenvalues --  -11.41426 -11.38121  -1.85643  -1.67602  -1.22661
 Alpha  occ. eigenvalues --   -1.09827  -1.03976  -0.83875  -0.74935  -0.67942
 Alpha  occ. eigenvalues --   -0.66381  -0.64309  -0.57248  -0.56321  -0.55539
 Alpha  occ. eigenvalues --   -0.54732  -0.50473  -0.48089  -0.43394  -0.39734
 Alpha  occ. eigenvalues --   -0.31405  -0.28823
 Alpha virt. eigenvalues --    0.02926   0.04874   0.05014   0.05118   0.05269
 Alpha virt. eigenvalues --    0.05612   0.07177   0.09123   0.09343   0.10381
 Alpha virt. eigenvalues --    0.12029   0.12615   0.13454   0.14143   0.14609

 Mulliken charges:
               1
     1  C   -4.136097
     2  C    3.635277
     3  C   -4.132155
     4  C   -3.784537
     5  C    5.046574
     6  O   -3.308220
     7  O   -3.262246
     8  H    1.278886
     9  H    1.164589
    10  H    1.175047
    11  H    1.276313
    12  H    1.175335
    13  H    1.166201
    14  H    1.353039
    15  H    1.351994
 Sum of Mulliken charges =   0.00000

 Dipole moment (field-independent basis, Debye):
    X=              2.8362    Y=             -0.0033    Z=              0.9456  Tot=              2.9897

 Test job not archived.
 1\1\GINC-SE220\SP\RHF\Aug-CC-pVDZ\C5H8O2\OHZDE\09-Apr-2025\0\\#t hf au
 g-cc-pvdz iop(5/13=1,5/36=2,99/5=2) pseudo=read geom=check guess=(read
 ,tcheck) scf=(maxcycle=1)\\title\\0,1\C,0,-0.85838645,1.27961525,-0.41
 474127\C,0,-0.11966611,0.07416513,0.11871622\C,0,-1.01960059,-0.911407
 89,0.8268551\C,0,0.94093197,-0.53176729,-0.81537205\C,0,1.92123385,-0.
 01159185,0.2174792\O,0,3.09505618,0.00268533,0.38131954\O,0,0.96251476
 ,0.50999018,1.02498679\H,0,-0.16977882,1.9837415,-0.88337114\H,0,-1.59
 743382,0.97056837,-1.15657448\H,0,-1.37840767,1.79449961,0.39450753\H,

 Normal termination of Gaussian 16 at Wed Apr  9 18:55:53 2025.
