 Gaussian 16, Revision C.01,

 ----------------------------------------------------------------------
 #t hf aug-cc-pvdz symm=none int=(grid=ultrafine) guess=(read,tcheck) s
 table=(opt,rrhf)
 ----------------------------------------------------------------------
 -----
 title
 -----
 Symbolic Z-matrix:
 Charge =  0 Multiplicity = 1

 SCF Done:  E(RHF) =  -307.740073700     A.U. after   17 cycles

 1\1\GINC-SE113\Stability\RHF\Aug-CC-pVDZ\C6H10O1\OHZDE\09-Apr-2025\0\\
 #t hf aug-cc-pvdz symm=none int=(grid=ultrafine) guess=(read,tcheck) s
 table=(opt,rrhf)\\title\\0,1\C,0,2.24752923,0.05062574,-0.01307706\C,0
 ,0.79599017,-0.17627997,-0.10940973\C,0,0.06750633,-1.2396734,0.383136
 29\C,0,-1.27909795,-0.98172601,0.17051963\C,0,-1.4479756,0.10379265,-0
 .83400724\C,0,-0.12588054,0.90372939,-0.61659631\O,0,-0.14480492,1.688
 72515,0.49964488\H,0,2.39672632,1.03367168,0.44098695\H,0,2.67919711,0
 .09524107,-1.01834552\H,0,2.76403094,-0.71142373,0.56856821\H,0,0.4596

 Normal termination of Gaussian 16 at Wed Apr  9 18:53:01 2025.
 Gaussian 16:  ES64L-G16RevC.01  3-Jul-2019

 ----------------------------------------------------------------------
 #t hf aug-cc-pvdz iop(5/13=1,5/36=2,99/5=2) pseudo=read geom=check gue
 ss=(read,tcheck) scf=(maxcycle=1)
 ----------------------------------------------------------------------
 -----
 title
 -----
 Structure from the checkpoint file:  "Grambow2020_wb97xd3_007740_forward_mol1.chk"
 Charge =  0 Multiplicity = 1

                         Standard orientation:
 ---------------------------------------------------------------------
 Center     Atomic      Atomic             Coordinates (Angstroms)
 Number     Number       Type             X           Y           Z
 ---------------------------------------------------------------------
      1          6           0       -2.224215    0.251433   -0.144288
      2          6           0       -0.754152    0.328588   -0.170656
      3          6           0        0.048787    1.380789    0.219546
      4          6           0        1.372479    0.973032    0.137934
      5          6           0        1.487134   -0.256622   -0.693180
      6          6           0        0.081566   -0.892812   -0.459206
      7          8           0       -0.040058   -1.507361    0.753275
      8          1           0       -2.496033   -0.638234    0.429663
      9          1           0       -2.601861    0.102184   -1.161147
     10          1           0       -2.693197    1.133226    0.289650
     11          1           0       -0.295764    2.287344    0.697254
     12          1           0        1.493554   -0.043594    1.771149
     13          1           0        2.221348    1.544630    0.491535
     14          1           0        1.601220    0.038302   -1.740223
     15          1           0        2.310914   -0.910311   -0.414199
     16          1           0       -0.235358   -1.516067   -1.305846
     17          1           0        0.946049   -0.645051    1.575069
 ---------------------------------------------------------------------

 SCF Done:  E(RHF) =  -309.245620051     A.U. after    2 cycles

 The electronic state is 1-A.
 Alpha  occ. eigenvalues --  -20.94299 -11.51866 -11.49597 -11.45583 -11.42485
 Alpha  occ. eigenvalues --  -11.40645 -11.38194  -1.62315  -1.33113  -1.14487
 Alpha  occ. eigenvalues --   -1.03383  -0.96276  -0.81958  -0.76646  -0.70913
 Alpha  occ. eigenvalues --   -0.65597  -0.60599  -0.59354  -0.56737  -0.54084
 Alpha  occ. eigenvalues --   -0.52026  -0.49559  -0.47828  -0.41694  -0.36674
 Alpha  occ. eigenvalues --   -0.23634  -0.22210
 Alpha virt. eigenvalues --    0.03536   0.04160   0.04558   0.05019   0.05298
 Alpha virt. eigenvalues --    0.06146   0.06468   0.07306   0.08090   0.08443
 Alpha virt. eigenvalues --    0.10556   0.11231   0.11779   0.12922   0.13598

 Mulliken charges:
               1
     1  C   -4.685072
     2  C    3.352329
     3  C   -1.705135
     4  C   -1.270519
     5  C   -3.591754
     6  C   -0.390777
     7  O   -2.563992
     8  H    1.307179
     9  H    1.225489
    10  H    1.308163
    11  H    1.531633
    12  H   -0.131618
    13  H    1.503489
    14  H    1.285883
    15  H    1.201091
    16  H    1.443094
    17  H    0.180517
 Sum of Mulliken charges =   0.00000

 Dipole moment (field-independent basis, Debye):
    X=             -0.3565    Y=              2.0366    Z=             -1.6649  Tot=              2.6546

 Test job not archived.
 1\1\GINC-SE113\SP\RHF\Aug-CC-pVDZ\C6H10O1\OHZDE\09-Apr-2025\0\\#t hf a
 ug-cc-pvdz iop(5/13=1,5/36=2,99/5=2) pseudo=read geom=check guess=(rea
 d,tcheck) scf=(maxcycle=1)\\title\\0,1\C,0,2.24752923,0.05062574,-0.01
 307706\C,0,0.79599017,-0.17627997,-0.10940973\C,0,0.06750633,-1.239673
 4,0.38313629\C,0,-1.27909795,-0.98172601,0.17051963\C,0,-1.4479756,0.1
 0379265,-0.83400724\C,0,-0.12588054,0.90372939,-0.61659631\O,0,-0.1448
 0492,1.68872515,0.49964488\H,0,2.39672632,1.03367168,0.44098695\H,0,2.
 67919711,0.09524107,-1.01834552\H,0,2.76403094,-0.71142373,0.56856821\

 Normal termination of Gaussian 16 at Wed Apr  9 18:53:07 2025.
