 Gaussian 16, Revision C.01,

 ----------------------------------------------------------------------
 #t hf aug-cc-pvdz symm=none int=(grid=ultrafine) guess=(read,tcheck) s
 table=(opt,rrhf)
 ----------------------------------------------------------------------
 -----
 title
 -----
 Symbolic Z-matrix:
 Charge =  0 Multiplicity = 1

 SCF Done:  E(RHF) =  -343.736449803     A.U. after   13 cycles
 Normal termination of Gaussian 16 at Wed Apr  9 18:31:27 2025.
 Gaussian 16:  ES64L-G16RevC.01  3-Jul-2019

 ----------------------------------------------------------------------
 #t hf aug-cc-pvdz iop(5/13=1,5/36=2,99/5=2) pseudo=read geom=check gue
 ss=(read,tcheck) scf=(maxcycle=1)
 ----------------------------------------------------------------------
 -----
 title
 -----
 Structure from the checkpoint file:  "Grambow2020_wb97xd3_007210_forward_mol2.chk"
 Charge =  0 Multiplicity = 1

                         Standard orientation:
 ---------------------------------------------------------------------
 Center     Atomic      Atomic             Coordinates (Angstroms)
 Number     Number       Type             X           Y           Z
 ---------------------------------------------------------------------
      1          8           0       -2.562263    0.125991   -0.095385
      2          6           0       -1.396047   -0.600518    0.244178
      3          6           0       -0.221304    0.068120   -0.422844
      4          6           0        0.286222    1.438171    0.095872
      5          6           0        1.742975    0.907172    0.116821
      6          6           0        1.167032   -0.486052   -0.103991
      7          8           0        1.593049   -1.592782    0.035056
      8          1           0       -3.315280   -0.274443    0.341175
      9          1           0       -1.457798   -1.641466   -0.094512
     10          1           0       -1.243185   -0.612333    1.332087
     11          1           0       -0.374870    0.083301   -1.506463
     12          1           0        0.092873    2.291607   -0.549121
     13          1           0       -0.092441    1.658957    1.093924
     14          1           0        2.332167    1.036606    1.024352
     15          1           0        2.338980    1.230738   -0.739016
 ---------------------------------------------------------------------

 SCF Done:  E(RHF) =  -345.296797492     A.U. after    2 cycles

 The electronic state is 1-A.
 Alpha  occ. eigenvalues --  -21.07699 -21.06032 -11.52166 -11.45847 -11.44244
 Alpha  occ. eigenvalues --  -11.40236 -11.36703  -1.72851  -1.70397  -1.31909
 Alpha  occ. eigenvalues --   -1.06120  -0.92269  -0.89372  -0.74920  -0.67023
 Alpha  occ. eigenvalues --   -0.63709  -0.62848  -0.59215  -0.56499  -0.52826
 Alpha  occ. eigenvalues --   -0.51210  -0.44573  -0.43844  -0.41284  -0.40758
 Alpha  occ. eigenvalues --   -0.32927  -0.27612
 Alpha virt. eigenvalues --    0.03663   0.04918   0.05268   0.05492   0.05986
 Alpha virt. eigenvalues --    0.06495   0.06741   0.07007   0.10308   0.12266
 Alpha virt. eigenvalues --    0.12480   0.13581   0.13905   0.14435   0.14918

 Mulliken charges:
               1
     1  O   -2.704495
     2  C   -0.897949
     3  C   -2.189133
     4  C   -2.576153
     5  C   -3.368536
     6  C    4.702696
     7  O   -3.317193
     8  H    0.776284
     9  H    1.295088
    10  H    1.381932
    11  H    1.519063
    12  H    1.247428
    13  H    1.481574
    14  H    1.260516
    15  H    1.388877
 Sum of Mulliken charges =   0.00000

 Dipole moment (field-independent basis, Debye):
    X=             -0.7975    Y=              0.8688    Z=              0.2291  Tot=              1.2013

 Test job not archived.
 1\1\GINC-SE035\SP\RHF\Aug-CC-pVDZ\C5H8O2\OHZDE\09-Apr-2025\0\\#t hf au
 g-cc-pvdz iop(5/13=1,5/36=2,99/5=2) pseudo=read geom=check guess=(read
 ,tcheck) scf=(maxcycle=1)\\title\\0,1\O,0,2.41414114,0.4323088,0.34229
 429\C,0,1.48916582,-0.52650905,-0.13548106\C,0,0.12188757,-0.1467521,0
 .37280035\C,0,-0.6074404,1.08776876,-0.21688381\C,0,-1.89638468,0.2492
 0212,-0.41677931\C,0,-1.05863247,-0.98688976,-0.11381145\O,0,-1.208540
 15,-2.15730979,-0.29634902\H,0,3.28546408,0.21652998,0.00732905\H,0,1.
 73695906,-1.53477554,0.21678747\H,0,1.47949391,-0.55002658,-1.23384677

 Normal termination of Gaussian 16 at Wed Apr  9 18:31:32 2025.
