 Gaussian 16, Revision C.01,

 ----------------------------------------------------------------------
 #t hf aug-cc-pvdz symm=none int=(grid=ultrafine) guess=(read,tcheck) s
 table=(opt,rrhf)
 ----------------------------------------------------------------------
 -----
 title
 -----
 Symbolic Z-matrix:
 Charge =  0 Multiplicity = 1

 SCF Done:  E(RHF) =  -358.470965537     A.U. after   13 cycles
 Normal termination of Gaussian 16 at Wed Apr  9 18:14:25 2025.
 Gaussian 16:  ES64L-G16RevC.01  3-Jul-2019

 ----------------------------------------------------------------------
 #t hf aug-cc-pvdz iop(5/13=1,5/36=2,99/5=2) pseudo=read geom=check gue
 ss=(read,tcheck) scf=(maxcycle=1)
 ----------------------------------------------------------------------
 -----
 title
 -----
 Structure from the checkpoint file:  "Grambow2020_wb97xd3_006796_reverse_mol2.chk"
 Charge =  0 Multiplicity = 1

                         Standard orientation:
 ---------------------------------------------------------------------
 Center     Atomic      Atomic             Coordinates (Angstroms)
 Number     Number       Type             X           Y           Z
 ---------------------------------------------------------------------
      1          8           0       -1.372141    0.237151   -0.700662
      2          6           0       -0.651800    0.817418    0.405813
      3          6           0        0.765330    0.874587   -0.189950
      4          6           0        1.709862   -0.137795    0.312912
      5          7           0        0.779835   -0.481443   -0.766699
      6          6           0       -0.567646   -0.861889   -0.281862
      7          8           0       -0.667509   -0.442524    1.080763
      8          1           0       -1.112937    1.660714    0.911191
      9          1           0        1.051294    1.708712   -0.816327
     10          1           0        1.546982   -0.558413    1.295428
     11          1           0        2.739504   -0.086715   -0.018916
     12          1           0       -0.900959   -1.865142   -0.526770
 ---------------------------------------------------------------------

 SCF Done:  E(RHF) =  -360.028743825     A.U. after    2 cycles

 The electronic state is 1-A.
 Alpha  occ. eigenvalues --  -21.06742 -21.06193 -15.73342 -11.61104 -11.52423
 Alpha  occ. eigenvalues --  -11.46855 -11.40749  -1.97847  -1.61584  -1.46988
 Alpha  occ. eigenvalues --   -1.09333  -0.98025  -0.85198  -0.82003  -0.78094
 Alpha  occ. eigenvalues --   -0.67933  -0.64923  -0.58749  -0.53469  -0.48468
 Alpha  occ. eigenvalues --   -0.47715  -0.44925  -0.36960  -0.36282  -0.33324
 Alpha  occ. eigenvalues --   -0.29013
 Alpha virt. eigenvalues --    0.03803   0.05184   0.05252   0.06006   0.06216
 Alpha virt. eigenvalues --    0.09034   0.09514   0.10686   0.10759   0.12718
 Alpha virt. eigenvalues --    0.13638   0.13810   0.15116   0.15346   0.15798

 Mulliken charges:
               1
     1  O   -2.821536
     2  C    0.914760
     3  C   -0.891262
     4  C   -2.051531
     5  N   -1.946544
     6  C    2.699558
     7  O   -2.980696
     8  H    1.368470
     9  H    1.338159
    10  H    1.334211
    11  H    1.365506
    12  H    1.670905
 Sum of Mulliken charges =  -0.00000

 Dipole moment (field-independent basis, Debye):
    X=              0.2638    Y=              0.4562    Z=              0.9414  Tot=              1.0789

 Test job not archived.
 1\1\GINC-SE041\SP\RHF\Aug-CC-pVDZ\C4H5N1O2\OHZDE\09-Apr-2025\0\\#t hf
 aug-cc-pvdz iop(5/13=1,5/36=2,99/5=2) pseudo=read geom=check guess=(re
 ad,tcheck) scf=(maxcycle=1)\\title\\0,1\O,0,0.95959013,-1.52750326,0.1
 4458704\C,0,0.8515474,-0.42814301,-0.78257103\C,0,0.62137869,0.7349598
 ,0.19756937\C,0,-0.75783269,1.24781131,0.26604023\N,0,-0.37986908,0.06
 683469,1.04773404\C,0,-0.41982965,-1.19162892,0.26659085\O,0,-0.477001
 75,-0.8363881,-1.11656514\H,0,1.57827472,-0.38462474,-1.58828513\H,0,1
 .46787369,1.21420755,0.67049039\H,0,-1.40306986,1.12084815,-0.59206011

 Normal termination of Gaussian 16 at Wed Apr  9 18:14:29 2025.
