 Gaussian 16, Revision C.01,

 ----------------------------------------------------------------------
 #t hf aug-cc-pvdz symm=none int=(grid=ultrafine) guess=(read,tcheck) s
 table=(opt,rrhf)
 ----------------------------------------------------------------------
 -----
 title
 -----
 Symbolic Z-matrix:
 Charge =  0 Multiplicity = 1

 SCF Done:  E(RHF) =  -304.462390391     A.U. after   14 cycles
 Normal termination of Gaussian 16 at Wed Apr  9 03:14:26 2025.
 Gaussian 16:  ES64L-G16RevC.01  3-Jul-2019

 ----------------------------------------------------------------------
 #t hf aug-cc-pvdz iop(5/13=1,5/36=2,99/5=2) pseudo=read geom=check gue
 ss=(read,tcheck) scf=(maxcycle=1)
 ----------------------------------------------------------------------
 -----
 title
 -----
 Structure from the checkpoint file:  "Grambow2020_b97d3_006926_forward_mol1.chk"
 Charge =  0 Multiplicity = 1

                         Standard orientation:
 ---------------------------------------------------------------------
 Center     Atomic      Atomic             Coordinates (Angstroms)
 Number     Number       Type             X           Y           Z
 ---------------------------------------------------------------------
      1          8           0       -1.812735   -0.731612   -0.259653
      2          6           0       -0.723226   -0.027001   -0.011835
      3          6           0       -0.347241    1.274073    0.625410
      4          6           0        0.405511    0.774934   -0.620475
      5          8           0        1.524487   -0.042360   -0.326506
      6          6           0        0.880213   -1.058316    0.439815
      7          1           0       -0.657858   -1.304896    0.056145
      8          1           0       -1.094380    2.045377    0.414047
      9          1           0        0.152470    1.372660    1.590771
     10          1           0        0.470068    1.344861   -1.547191
     11          1           0        1.029981   -0.984133    1.523444
     12          1           0        1.114163   -2.064231    0.054563
 ---------------------------------------------------------------------

 SCF Done:  E(RHF) =  -305.850609395     A.U. after    2 cycles

 The electronic state is 1-A.
 Alpha  occ. eigenvalues --  -21.07858 -21.03357 -11.52160 -11.48922 -11.44581
 Alpha  occ. eigenvalues --  -11.41469  -1.80780  -1.68792  -1.24847  -1.01671
 Alpha  occ. eigenvalues --   -0.88993  -0.79503  -0.71076  -0.68110  -0.61689
 Alpha  occ. eigenvalues --   -0.57011  -0.53837  -0.51099  -0.49097  -0.43665
 Alpha  occ. eigenvalues --   -0.31427  -0.27534  -0.25557
 Alpha virt. eigenvalues --    0.03488   0.04803   0.05338   0.05819   0.06391
 Alpha virt. eigenvalues --    0.07144   0.09437   0.10240   0.10549   0.12947
 Alpha virt. eigenvalues --    0.13203   0.13949   0.14854   0.15439   0.15585

 Mulliken charges:
               1
     1  O   -3.166442
     2  C    3.226067
     3  C   -2.953599
     4  C    0.869147
     5  O   -2.930384
     6  C   -2.294165
     7  H    0.979699
     8  H    1.247731
     9  H    1.192434
    10  H    1.258083
    11  H    1.343961
    12  H    1.227468
 Sum of Mulliken charges =  -0.00000

 Dipole moment (field-independent basis, Debye):
    X=              0.4712    Y=              0.6920    Z=              0.3108  Tot=              0.8930

 Test job not archived.
 1\1\GINC-SE149\SP\RHF\Aug-CC-pVDZ\C4H6O2\OHZDE\09-Apr-2025\0\\#t hf au
 g-cc-pvdz iop(5/13=1,5/36=2,99/5=2) pseudo=read geom=check guess=(read
 ,tcheck) scf=(maxcycle=1)\\title\\0,1\O,0,-0.18864313,-1.6177183,-1.30
 645655\C,0,-0.30508184,-0.58975601,-0.48508211\C,0,-1.25768437,-0.0822
 731,0.55186004\C,0,-0.53266552,0.9019982,-0.38278607\O,0,0.7187008,1.3
 4647764,0.11018021\C,0,1.36535424,0.08695659,0.28323929\H,0,0.8634135,
 -1.06068735,-0.71907538\H,0,-2.29439057,-0.28526692,0.2657949\H,0,-1.0
 6921751,-0.09000705,1.6269282\H,0,-1.05560637,1.60033924,-1.03596244\H

 Normal termination of Gaussian 16 at Wed Apr  9 03:14:29 2025.
