 Gaussian 16, Revision C.01,

 ----------------------------------------------------------------------
 #t hf aug-cc-pvdz symm=none int=(grid=ultrafine) guess=(read,tcheck) s
 table=(opt,rrhf)
 ----------------------------------------------------------------------
 -----
 title
 -----
 Symbolic Z-matrix:
 Charge =  0 Multiplicity = 1

 SCF Done:  E(RHF) =  -354.702972536     A.U. after   15 cycles
 Normal termination of Gaussian 16 at Wed Apr  9 03:39:44 2025.
 Gaussian 16:  ES64L-G16RevC.01  3-Jul-2019

 ----------------------------------------------------------------------
 #t hf aug-cc-pvdz iop(5/13=1,5/36=2,99/5=2) pseudo=read geom=check gue
 ss=(read,tcheck) scf=(maxcycle=1)
 ----------------------------------------------------------------------
 -----
 title
 -----
 Structure from the checkpoint file:  "Grambow2020_wb97xd3_007468_reverse_mol1.chk"
 Charge =  0 Multiplicity = 1

                         Standard orientation:
 ---------------------------------------------------------------------
 Center     Atomic      Atomic             Coordinates (Angstroms)
 Number     Number       Type             X           Y           Z
 ---------------------------------------------------------------------
      1          7           0       -2.343591   -0.460239   -0.185732
      2          6           0       -1.054029   -0.010771    0.093289
      3          6           0       -0.579925    1.327478   -0.029672
      4          7           0        0.783540    1.129579   -0.037235
      5          6           0        1.205638   -0.197927   -0.021165
      6          8           0        2.330591   -0.626696   -0.041358
      7          7           0        0.019850   -0.901913    0.048781
      8          1           0       -2.742016   -1.065393    0.515970
      9          1           0       -2.958947    0.310340   -0.399186
     10          1           0       -1.024227    0.711507    1.148362
     11          1           0        1.454477    1.876456   -0.019011
     12          1           0       -0.022718   -1.904008    0.049316
 ---------------------------------------------------------------------

 SCF Done:  E(RHF) =  -356.279688769     A.U. after    2 cycles

 The electronic state is 1-A.
 Alpha  occ. eigenvalues --  -21.03328 -15.79034 -15.78491 -15.78279 -11.51344
 Alpha  occ. eigenvalues --  -11.50111 -11.40823  -1.73383  -1.56683  -1.37232
 Alpha  occ. eigenvalues --   -1.30715  -1.08259  -0.88725  -0.82965  -0.72624
 Alpha  occ. eigenvalues --   -0.72071  -0.64745  -0.63934  -0.58976  -0.51809
 Alpha  occ. eigenvalues --   -0.49391  -0.44792  -0.39649  -0.38475  -0.30583
 Alpha  occ. eigenvalues --   -0.29352
 Alpha virt. eigenvalues --    0.02832   0.04976   0.05380   0.05862   0.06505
 Alpha virt. eigenvalues --    0.09821   0.10311   0.11564   0.11776   0.12330
 Alpha virt. eigenvalues --    0.13209   0.13851   0.14668   0.15083   0.16561

 Mulliken charges:
               1
     1  N   -2.902470
     2  C    2.821848
     3  C   -0.826615
     4  N   -2.272980
     5  C    4.829273
     6  O   -3.207838
     7  N   -2.486881
     8  H    0.575360
     9  H    0.570715
    10  H    1.474423
    11  H    0.712823
    12  H    0.712343
 Sum of Mulliken charges =   0.00000

 Dipole moment (field-independent basis, Debye):
    X=             -2.4273    Y=             -1.7643    Z=              1.0014  Tot=              3.1634

 Test job not archived.
 1\1\GINC-SE162\SP\RHF\Aug-CC-pVDZ\C3H5N3O1\OHZDE\09-Apr-2025\0\\#t hf
 aug-cc-pvdz iop(5/13=1,5/36=2,99/5=2) pseudo=read geom=check guess=(re
 ad,tcheck) scf=(maxcycle=1)\\title\\0,1\N,0,2.00037736,0.03320159,0.23
 205986\C,0,0.63176564,0.14003286,-0.00946553\C,0,-0.17305584,1.2999775
 6,0.18442575\N,0,-1.43655329,0.7507589,0.19829289\C,0,-1.49663012,-0.6
 3895277,0.12220126\O,0,-2.46925669,-1.34861031,0.13457862\N,0,-0.16994
 108,-1.00295318,0.00395848\H,0,2.52625897,-0.41444897,-0.50305767\H,0,
 2.39749441,0.9281483,0.47574855\H,0,0.38840551,0.87498892,-1.02748701\

 Normal termination of Gaussian 16 at Wed Apr  9 03:39:49 2025.
