 Gaussian 16, Revision C.01,

 ----------------------------------------------------------------------
 #t hf aug-cc-pvdz symm=none int=(grid=ultrafine) guess=(read,tcheck) s
 table=(opt,rrhf)
 ----------------------------------------------------------------------
 -----
 title
 -----
 Symbolic Z-matrix:
 Charge =  0 Multiplicity = 1

 SCF Done:  E(RHF) =  -247.675433346     A.U. after   15 cycles
 Normal termination of Gaussian 16 at Wed Apr  9 17:47:46 2025.
 Gaussian 16:  ES64L-G16RevC.01  3-Jul-2019

 ----------------------------------------------------------------------
 #t hf aug-cc-pvdz iop(5/13=1,5/36=2,99/5=2) pseudo=read geom=check gue
 ss=(read,tcheck) scf=(maxcycle=1)
 ----------------------------------------------------------------------
 -----
 title
 -----
 Structure from the checkpoint file:  "Grambow2020_wb97xd3_006170_forward_mol1.chk"
 Charge =  0 Multiplicity = 1

                         Standard orientation:
 ---------------------------------------------------------------------
 Center     Atomic      Atomic             Coordinates (Angstroms)
 Number     Number       Type             X           Y           Z
 ---------------------------------------------------------------------
      1          6           0       -0.557082    1.488464   -0.072706
      2          6           0       -1.692493   -0.066749   -0.374537
      3          6           0       -0.863140   -1.278733   -0.139914
      4          6           0       -0.066447   -0.207205    0.527297
      5          6           0        1.310764   -0.125753    0.099270
      6          7           0        2.411887   -0.086467   -0.222397
      7          1           0        0.133519    1.911604    0.665079
      8          1           0       -1.495930    2.012200    0.066201
      9          1           0       -0.166066    1.659864   -1.067888
     10          1           0       -2.330324    0.067205    0.511674
     11          1           0       -0.398159   -1.720799   -1.016329
     12          1           0       -1.246799   -2.017009    0.557357
     13          1           0       -0.169066   -0.167950    1.604225
 ---------------------------------------------------------------------

 SCF Done:  E(RHF) =  -248.882394009     A.U. after    2 cycles

 The electronic state is 1-A.
 Alpha  occ. eigenvalues --  -15.76921 -11.51568 -11.44759 -11.44126 -11.43249
 Alpha  occ. eigenvalues --  -11.38954  -1.38393  -1.27987  -1.05176  -0.98452
 Alpha  occ. eigenvalues --   -0.83369  -0.73544  -0.65944  -0.62553  -0.59391
 Alpha  occ. eigenvalues --   -0.56332  -0.52992  -0.50475  -0.48448  -0.43155
 Alpha  occ. eigenvalues --   -0.42872  -0.30682
 Alpha virt. eigenvalues --    0.03137   0.04774   0.05006   0.05198   0.06387
 Alpha virt. eigenvalues --    0.06818   0.07248   0.08695   0.09416   0.11945
 Alpha virt. eigenvalues --    0.12336   0.12824   0.13699   0.13741   0.14169

 Mulliken charges:
               1
     1  C   -3.218663
     2  C   -1.147438
     3  C   -2.889183
     4  C   -1.030208
     5  C    2.298121
     6  N   -2.577707
     7  H    1.142039
     8  H    1.080498
     9  H    1.286281
    10  H    1.139456
    11  H    1.421595
    12  H    1.215838
    13  H    1.279371
 Sum of Mulliken charges =  -0.00000

 Dipole moment (field-independent basis, Debye):
    X=             -2.1166    Y=             -0.0905    Z=              2.2168  Tot=              3.0663

 Test job not archived.
 1\1\GINC-SE113\SP\RHF\Aug-CC-pVDZ\C5H7N1\OHZDE\09-Apr-2025\0\\#t hf au
 g-cc-pvdz iop(5/13=1,5/36=2,99/5=2) pseudo=read geom=check guess=(read
 ,tcheck) scf=(maxcycle=1)\\title\\0,1\C,0,1.13415606,0.72735573,-0.333
 56277\C,0,0.80091942,-0.91509739,0.66154993\C,0,-0.67288262,-1.0765102
 6,0.77830365\C,0,-0.54251089,-0.08800131,-0.33251408\C,0,-1.30098316,1
 .12756743,-0.14903565\N,0,-1.9302896,2.07764162,-0.01185785\H,0,0.8467
 4533,1.23868988,-1.25889329\H,0,2.10406489,0.28454447,-0.52907552\H,0,
 1.19789842,1.45080745,0.46968858\H,0,1.14303275,-1.60936272,-0.1201764

 Normal termination of Gaussian 16 at Wed Apr  9 17:47:50 2025.
