 Gaussian 16, Revision C.01,

 ----------------------------------------------------------------------
 #t hf aug-cc-pvdz symm=none int=(grid=ultrafine) guess=(read,tcheck) s
 table=(opt,rrhf)
 ----------------------------------------------------------------------
 -----
 title
 -----
 Symbolic Z-matrix:
 Charge =  0 Multiplicity = 1

 SCF Done:  E(RHF) =  -360.805843945     A.U. after   15 cycles
 Normal termination of Gaussian 16 at Wed Apr  9 18:08:48 2025.
 Gaussian 16:  ES64L-G16RevC.01  3-Jul-2019

 ----------------------------------------------------------------------
 #t hf aug-cc-pvdz iop(5/13=1,5/36=2,99/5=2) pseudo=read geom=check gue
 ss=(read,tcheck) scf=(maxcycle=1)
 ----------------------------------------------------------------------
 -----
 title
 -----
 Structure from the checkpoint file:  "Grambow2020_wb97xd3_006614_forward_mol1.chk"
 Charge =  0 Multiplicity = 1

                         Standard orientation:
 ---------------------------------------------------------------------
 Center     Atomic      Atomic             Coordinates (Angstroms)
 Number     Number       Type             X           Y           Z
 ---------------------------------------------------------------------
      1          6           0       -2.562428   -0.232331    0.091809
      2          6           0       -1.172877   -0.164753   -0.452973
      3          8           0       -0.741376    1.527658   -0.101839
      4          6           0       -0.207707   -0.965214    0.364074
      5          7           0        1.136806   -1.111102   -0.182912
      6          6           0        2.055097   -0.140952   -0.143365
      7          8           0        1.879035    0.971117    0.331402
      8          1           0       -2.978092   -1.204563   -0.192176
      9          1           0       -3.201064    0.528518   -0.354628
     10          1           0       -2.621203   -0.139882    1.185501
     11          1           0       -0.777960    1.059677   -1.060507
     12          1           0        0.209032    1.490694    0.155041
     13          1           0       -0.118015   -0.581821    1.389552
     14          1           0       -0.628471   -1.970992    0.441480
     15          1           0        1.360664   -1.943024   -0.698931
     16          1           0        3.023691   -0.431592   -0.578727
 ---------------------------------------------------------------------

 SCF Done:  E(RHF) =  -362.457506203     A.U. after    2 cycles

 The electronic state is 1-A.
 Alpha  occ. eigenvalues --  -21.07683 -21.04560 -15.78463 -11.50080 -11.45579
 Alpha  occ. eigenvalues --  -11.40657 -11.36167  -1.73503  -1.69586  -1.41769
 Alpha  occ. eigenvalues --   -1.15827  -1.02081  -0.85990  -0.78747  -0.76036
 Alpha  occ. eigenvalues --   -0.67677  -0.62832  -0.59841  -0.56627  -0.55086
 Alpha  occ. eigenvalues --   -0.54147  -0.51732  -0.48629  -0.46579  -0.37505
 Alpha  occ. eigenvalues --   -0.32887  -0.30445  -0.26839
 Alpha virt. eigenvalues --    0.03308   0.04665   0.05152   0.05970   0.06576
 Alpha virt. eigenvalues --    0.06822   0.07268   0.07906   0.08849   0.10413
 Alpha virt. eigenvalues --    0.11143   0.11987   0.13183   0.14766   0.15348

 Mulliken charges:
               1
     1  C   -3.743968
     2  C   -0.182324
     3  O   -2.385468
     4  C   -2.336443
     5  N   -2.319376
     6  C    2.098672
     7  O   -2.896382
     8  H    1.232977
     9  H    1.274737
    10  H    1.248358
    11  H    1.412665
    12  H    1.418733
    13  H    1.536551
    14  H    1.350927
    15  H    0.602301
    16  H    1.688040
 Sum of Mulliken charges =   0.00000

 Dipole moment (field-independent basis, Debye):
    X=              0.7555    Y=             -1.3160    Z=              0.4095  Tot=              1.5718

 Test job not archived.
 1\1\GINC-SE232\SP\RHF\Aug-CC-pVDZ\C4H9N1O2\OHZDE\09-Apr-2025\0\\#t hf
 aug-cc-pvdz iop(5/13=1,5/36=2,99/5=2) pseudo=read geom=check guess=(re
 ad,tcheck) scf=(maxcycle=1)\\title\\0,1\C,0,-2.04305674,-0.85990452,-0
 .23034809\C,0,-0.595762,-0.57611339,-0.46911288\O,0,-0.68292194,0.9717
 7553,-1.34671364\C,0,0.12857112,-0.23866394,0.79632229\N,0,1.57938518,
 -0.12089365,0.69907041\C,0,2.19647643,0.94219403,0.17461281\O,0,1.6317
 7262,1.91928244,-0.29390266\H,0,-2.11329185,-1.86711147,0.19304332\H,0
 ,-2.60497762,-0.86786405,-1.16321191\H,0,-2.52936085,-0.16060278,0.464

 Normal termination of Gaussian 16 at Wed Apr  9 18:08:53 2025.
