 Gaussian 16, Revision C.01,

 ----------------------------------------------------------------------
 #t hf aug-cc-pvdz symm=none int=(grid=ultrafine) guess=(read,tcheck) s
 table=(opt,rrhf)
 ----------------------------------------------------------------------
 -----
 title
 -----
 Symbolic Z-matrix:
 Charge =  0 Multiplicity = 1

 SCF Done:  E(RHF) =  -269.847029473     A.U. after   14 cycles

 1\1\GINC-SE087\Stability\RHF\Aug-CC-pVDZ\C5H10O1\OHZDE\09-Apr-2025\0\\
 #t hf aug-cc-pvdz symm=none int=(grid=ultrafine) guess=(read,tcheck) s
 table=(opt,rrhf)\\title\\0,1\C,0,-1.37055822,-1.13264728,0.09951896\C,
 0,-0.25751354,-0.10206302,0.12474603\C,0,-0.81328319,1.30444622,-0.108
 64653\C,0,0.98358592,-0.36829315,0.97117103\C,0,1.83233687,0.24724352,
 -0.10920312\O,0,0.8120191,-0.41554444,-1.10661462\H,0,-2.00929645,-1.0
 2181711,-0.7886609\H,0,-1.99889215,-0.98181079,0.99037005\H,0,-0.96243
 862,-2.14909073,0.14427822\H,0,-1.38289012,1.37828218,-1.04561419\H,0,

 Normal termination of Gaussian 16 at Wed Apr  9 16:14:03 2025.
 Gaussian 16:  ES64L-G16RevC.01  3-Jul-2019

 ----------------------------------------------------------------------
 #t hf aug-cc-pvdz iop(5/13=1,5/36=2,99/5=2) pseudo=read geom=check gue
 ss=(read,tcheck) scf=(maxcycle=1)
 ----------------------------------------------------------------------
 -----
 title
 -----
 Structure from the checkpoint file:  "Grambow2020_b97d3_006765_forward_mol1.chk"
 Charge =  0 Multiplicity = 1

                         Standard orientation:
 ---------------------------------------------------------------------
 Center     Atomic      Atomic             Coordinates (Angstroms)
 Number     Number       Type             X           Y           Z
 ---------------------------------------------------------------------
      1          6           0       -1.645103   -0.889112   -0.016732
      2          6           0       -0.424978   -0.002115    0.144949
      3          6           0       -0.800911    1.473216   -0.008979
      4          6           0        0.723922   -0.472058    1.031980
      5          6           0        1.701429    0.112295    0.047357
      6          8           0        0.674241   -0.353601   -1.049452
      7          1           0       -2.211977   -0.641628   -0.925874
      8          1           0       -2.304835   -0.727309    0.849146
      9          1           0       -1.359496   -1.947418   -0.028532
     10          1           0       -1.300516    1.679260   -0.965929
     11          1           0        0.048996    2.154417    0.100665
     12          1           0       -1.517123    1.700712    0.794384
     13          1           0        0.720558   -1.306214   -0.457939
     14          1           0        0.748470   -0.247809    2.103707
     15          1           0        2.676919   -0.364842   -0.113450
     16          1           0        1.778920    1.196288   -0.152019
 ---------------------------------------------------------------------

 SCF Done:  E(RHF) =  -271.192634400     A.U. after    2 cycles

 The electronic state is 1-A.
 Alpha  occ. eigenvalues --  -21.09425 -11.47987 -11.45637 -11.40201 -11.37825
 Alpha  occ. eigenvalues --  -11.32402  -1.78251  -1.20491  -1.06255  -1.01980
 Alpha  occ. eigenvalues --   -0.90382  -0.75221  -0.67612  -0.64366  -0.61270
 Alpha  occ. eigenvalues --   -0.59529  -0.54847  -0.54058  -0.50930  -0.45596
 Alpha  occ. eigenvalues --   -0.44160  -0.41345  -0.36280  -0.24939
 Alpha virt. eigenvalues --    0.03900   0.05249   0.05334   0.05468   0.05702
 Alpha virt. eigenvalues --    0.06270   0.06562   0.07098   0.08528   0.09169
 Alpha virt. eigenvalues --    0.11289   0.12672   0.13100   0.14208   0.14631

 Mulliken charges:
               1
     1  C   -4.434601
     2  C    2.810170
     3  C   -4.001466
     4  C   -2.552510
     5  C   -1.978597
     6  O   -2.397212
     7  H    1.200479
     8  H    1.144401
     9  H    1.333888
    10  H    1.192332
    11  H    1.393170
    12  H    1.165272
    13  H    1.159612
    14  H    1.363690
    15  H    1.167646
    16  H    1.433726
 Sum of Mulliken charges =   0.00000

 Dipole moment (field-independent basis, Debye):
    X=             -0.6826    Y=              1.5875    Z=             -2.0945  Tot=              2.7153

 Test job not archived.
 1\1\GINC-SE087\SP\RHF\Aug-CC-pVDZ\C5H10O1\OHZDE\09-Apr-2025\0\\#t hf a
 ug-cc-pvdz iop(5/13=1,5/36=2,99/5=2) pseudo=read geom=check guess=(rea
 d,tcheck) scf=(maxcycle=1)\\title\\0,1\C,0,-1.37055822,-1.13264728,0.0
 9951896\C,0,-0.25751354,-0.10206302,0.12474603\C,0,-0.81328319,1.30444
 622,-0.10864653\C,0,0.98358592,-0.36829315,0.97117103\C,0,1.83233687,0
 .24724352,-0.10920312\O,0,0.8120191,-0.41554444,-1.10661462\H,0,-2.009
 29645,-1.02181711,-0.7886609\H,0,-1.99889215,-0.98181079,0.99037005\H,
 0,-0.96243862,-2.14909073,0.14427822\H,0,-1.38289012,1.37828218,-1.045

 Normal termination of Gaussian 16 at Wed Apr  9 16:14:08 2025.
