 Gaussian 16, Revision C.01,

 ----------------------------------------------------------------------
 #t hf aug-cc-pvdz symm=none int=(grid=ultrafine) guess=(read,tcheck) s
 table=(opt,rrhf)
 ----------------------------------------------------------------------
 -----
 title
 -----
 Symbolic Z-matrix:
 Charge =  0 Multiplicity = 1

 SCF Done:  E(RHF) =  -344.786517833     A.U. after   15 cycles

 1\1\GINC-SE423\Stability\RHF\Aug-CC-pVDZ\C5H10O2\OHZDE\09-Apr-2025\0\\
 #t hf aug-cc-pvdz symm=none int=(grid=ultrafine) guess=(read,tcheck) s
 table=(opt,rrhf)\\title\\0,1\C,0,-1.89448502,-0.35982067,-0.61465644\C
 ,0,-0.82456489,0.32275319,0.21343427\O,0,-1.14467611,1.62096901,0.6415
 6945\C,0,-0.04412469,-0.39304007,1.11695482\C,0,2.05306572,0.00699795,
 0.6790033\C,0,1.9168284,-0.27991746,-0.65307381\O,0,1.15609672,0.44688
 836,-1.39679625\H,0,-1.5544813,-1.34098938,-0.9483738\H,0,-2.8126633,-
 0.48436269,-0.03505049\H,0,-2.13482566,0.22543469,-1.50541333\H,0,0.15

 Normal termination of Gaussian 16 at Wed Apr  9 03:34:38 2025.
 Gaussian 16:  ES64L-G16RevC.01  3-Jul-2019

 ----------------------------------------------------------------------
 #t hf aug-cc-pvdz iop(5/13=1,5/36=2,99/5=2) pseudo=read geom=check gue
 ss=(read,tcheck) scf=(maxcycle=1)
 ----------------------------------------------------------------------
 -----
 title
 -----
 Structure from the checkpoint file:  "Grambow2020_wb97xd3_007090_reverse_mol1.chk"
 Charge =  0 Multiplicity = 1

                         Standard orientation:
 ---------------------------------------------------------------------
 Center     Atomic      Atomic             Coordinates (Angstroms)
 Number     Number       Type             X           Y           Z
 ---------------------------------------------------------------------
      1          6           0        1.860251    0.885875    0.696361
      2          6           0        0.962497   -0.157783    0.062969
      3          8           0        1.509700   -0.812412   -1.052004
      4          6           0        0.131418   -0.961973    0.837812
      5          6           0       -1.896906   -0.806611    0.055632
      6          6           0       -1.885334    0.562736    0.063788
      7          8           0       -1.062692    1.207154   -0.689914
      8          1           0        1.349449    1.381658    1.522764
      9          1           0        2.778750    0.429478    1.073940
     10          1           0        2.138977    1.655627   -0.027192
     11          1           0       -0.036911    0.659970   -0.437303
     12          1           0        1.670474   -0.166550   -1.742826
     13          1           0        0.064944   -2.019666    0.625678
     14          1           0       -0.063752   -0.676119    1.862359
     15          1           0       -2.539395   -1.348191    0.738884
     16          1           0       -1.575449   -1.327292   -0.837111
     17          1           0       -2.394713    1.119686    0.856780
 ---------------------------------------------------------------------

 SCF Done:  E(RHF) =  -346.419733148     A.U. after    2 cycles

 The electronic state is 1-A.
 Alpha  occ. eigenvalues --  -21.07289 -21.04627 -11.46653 -11.44816 -11.41348
 Alpha  occ. eigenvalues --  -11.38028 -11.37537  -1.73550  -1.70725  -1.18074
 Alpha  occ. eigenvalues --   -1.09466  -1.00840  -0.81926  -0.80229  -0.69245
 Alpha  occ. eigenvalues --   -0.65232  -0.62984  -0.59580  -0.57302  -0.54165
 Alpha  occ. eigenvalues --   -0.52497  -0.50779  -0.48442  -0.45026  -0.37875
 Alpha  occ. eigenvalues --   -0.34352  -0.31324  -0.25255
 Alpha virt. eigenvalues --    0.03677   0.04795   0.04989   0.05311   0.05985
 Alpha virt. eigenvalues --    0.06063   0.06407   0.06845   0.08479   0.09398
 Alpha virt. eigenvalues --    0.11549   0.12333   0.12749   0.13184   0.13818

 Mulliken charges:
               1
     1  C   -4.166286
     2  C    3.257150
     3  O   -3.523320
     4  C   -3.884926
     5  C   -3.390619
     6  C    1.045912
     7  O   -3.606247
     8  H    1.212357
     9  H    1.190249
    10  H    1.163754
    11  H    2.946881
    12  H    0.710971
    13  H    1.337056
    14  H    1.426932
    15  H    1.355258
    16  H    1.387622
    17  H    1.537255
 Sum of Mulliken charges =   0.00000

 Dipole moment (field-independent basis, Debye):
    X=              0.3631    Y=             -0.4207    Z=              0.8076  Tot=              0.9804

 Test job not archived.
 1\1\GINC-SE423\SP\RHF\Aug-CC-pVDZ\C5H10O2\OHZDE\09-Apr-2025\0\\#t hf a
 ug-cc-pvdz iop(5/13=1,5/36=2,99/5=2) pseudo=read geom=check guess=(rea
 d,tcheck) scf=(maxcycle=1)\\title\\0,1\C,0,-1.89448502,-0.35982067,-0.
 61465644\C,0,-0.82456489,0.32275319,0.21343427\O,0,-1.14467611,1.62096
 901,0.64156945\C,0,-0.04412469,-0.39304007,1.11695482\C,0,2.05306572,0
 .00699795,0.6790033\C,0,1.9168284,-0.27991746,-0.65307381\O,0,1.156096
 72,0.44688836,-1.39679625\H,0,-1.5544813,-1.34098938,-0.9483738\H,0,-2
 .8126633,-0.48436269,-0.03505049\H,0,-2.13482566,0.22543469,-1.5054133

 Normal termination of Gaussian 16 at Wed Apr  9 03:34:44 2025.
