 Gaussian 16, Revision C.01,

 ----------------------------------------------------------------------
 #t hf aug-cc-pvdz symm=none int=(grid=ultrafine) guess=(read,tcheck) s
 table=(opt,rrhf)
 ----------------------------------------------------------------------
 -----
 title
 -----
 Symbolic Z-matrix:
 Charge =  0 Multiplicity = 1

 SCF Done:  E(RHF) =  -302.774880279     A.U. after   15 cycles
 Normal termination of Gaussian 16 at Wed Apr  9 19:30:16 2025.
 Gaussian 16:  ES64L-G16RevC.01  3-Jul-2019

 ----------------------------------------------------------------------
 #t hf aug-cc-pvdz iop(5/13=1,5/36=2,99/5=2) pseudo=read geom=check gue
 ss=(read,tcheck) scf=(maxcycle=1)
 ----------------------------------------------------------------------
 -----
 title
 -----
 Structure from the checkpoint file:  "Grambow2020_wb97xd3_009083_forward_mol1.chk"
 Charge =  0 Multiplicity = 1

                         Standard orientation:
 ---------------------------------------------------------------------
 Center     Atomic      Atomic             Coordinates (Angstroms)
 Number     Number       Type             X           Y           Z
 ---------------------------------------------------------------------
      1          6           0        2.302208   -0.843582   -0.003171
      2          7           0        1.128764    0.045431    0.002992
      3          6           0        0.715661    1.307515    0.000386
      4          6           0       -0.677805    1.295409   -0.000071
      5          6           0       -1.059190   -0.047489    0.001795
      6          6           0       -2.410956   -0.672096   -0.002130
      7          7           0        0.070168   -0.762448    0.004746
      8          1           0        2.906133   -0.657478    0.886807
      9          1           0        2.891672   -0.660231   -0.903501
     10          1           0        0.796215   -1.677188    0.002270
     11          1           0        1.416379    2.125417   -0.003513
     12          1           0       -1.337185    2.148469   -0.004875
     13          1           0       -2.539484   -1.318392   -0.871542
     14          1           0       -3.180058    0.097713   -0.032705
     15          1           0       -2.565704   -1.277727    0.892033
 ---------------------------------------------------------------------

 SCF Done:  E(RHF) =  -304.244843625     A.U. after    2 cycles

 The electronic state is 1-A.
 Alpha  occ. eigenvalues --  -15.80492 -15.78267 -11.47990 -11.46418 -11.41995
 Alpha  occ. eigenvalues --  -11.38673 -11.32048  -1.66613  -1.25842  -1.18811
 Alpha  occ. eigenvalues --   -1.07481  -0.94049  -0.84159  -0.80950  -0.69220
 Alpha  occ. eigenvalues --   -0.66090  -0.60893  -0.58503  -0.56876  -0.55806
 Alpha  occ. eigenvalues --   -0.51475  -0.50530  -0.49667  -0.35556  -0.32942
 Alpha  occ. eigenvalues --   -0.28101
 Alpha virt. eigenvalues --    0.03037   0.04655   0.05199   0.06055   0.06237
 Alpha virt. eigenvalues --    0.06673   0.07334   0.08339   0.09717   0.11434
 Alpha virt. eigenvalues --    0.11820   0.12157   0.12577   0.13051   0.14103

 Mulliken charges:
               1
     1  C   -2.884992
     2  N   -1.633565
     3  C   -0.602052
     4  C   -2.196812
     5  C    5.060586
     6  C   -4.320971
     7  N   -3.538885
     8  H    1.375808
     9  H    1.373937
    10  H    1.216124
    11  H    1.432317
    12  H    1.295458
    13  H    1.132333
    14  H    1.157580
    15  H    1.133133
 Sum of Mulliken charges =   0.00000

 Dipole moment (field-independent basis, Debye):
    X=             -3.0871    Y=              1.8170    Z=             -0.0091  Tot=              3.5822

 Test job not archived.
 1\1\GINC-SE084\SP\RHF\Aug-CC-pVDZ\C5H8N2\OHZDE\09-Apr-2025\0\\#t hf au
 g-cc-pvdz iop(5/13=1,5/36=2,99/5=2) pseudo=read geom=check guess=(read
 ,tcheck) scf=(maxcycle=1)\\title\\0,1\C,0,2.40864532,-0.75602096,-0.09
 339205\N,0,1.21953717,0.11093557,-0.135344\C,0,0.77668251,1.34731176,-
 0.33224859\C,0,-0.60940393,1.32672148,-0.19000132\C,0,-0.9550267,0.005
 93035,0.1013573\C,0,-2.28462585,-0.61655807,0.35054006\N,0,0.18675449,
 -0.68865141,0.12411223\H,0,3.09187375,-0.40171745,0.68061624\H,0,2.902
 44254,-0.74207647,-1.06686569\H,0,0.93175716,-1.58294327,0.21956495\H,

 Normal termination of Gaussian 16 at Wed Apr  9 19:30:21 2025.
