 Gaussian 16, Revision C.01,

 ----------------------------------------------------------------------
 #t hf aug-cc-pvdz symm=none int=(grid=ultrafine) guess=(read,tcheck) s
 table=(opt,rrhf)
 ----------------------------------------------------------------------
 -----
 title
 -----
 Symbolic Z-matrix:
 Charge =  0 Multiplicity = 1

 SCF Done:  E(RHF) =  -283.566523545     A.U. after   15 cycles
 Normal termination of Gaussian 16 at Wed Apr  9 16:07:42 2025.
 Gaussian 16:  ES64L-G16RevC.01  3-Jul-2019

 ----------------------------------------------------------------------
 #t hf aug-cc-pvdz iop(5/13=1,5/36=2,99/5=2) pseudo=read geom=check gue
 ss=(read,tcheck) scf=(maxcycle=1)
 ----------------------------------------------------------------------
 -----
 title
 -----
 Structure from the checkpoint file:  "Grambow2020_b97d3_006731_reverse_mol2.chk"
 Charge =  0 Multiplicity = 1

                         Standard orientation:
 ---------------------------------------------------------------------
 Center     Atomic      Atomic             Coordinates (Angstroms)
 Number     Number       Type             X           Y           Z
 ---------------------------------------------------------------------
      1          6           0        1.639335   -0.207729   -0.712893
      2          6           0        0.346830    1.033506    0.285889
      3          8           0       -1.014626    0.951519   -0.130822
      4          6           0       -1.332924   -0.389356   -0.186320
      5          7           0       -0.458562   -1.260336    0.118535
      6          6           0        0.781659   -0.557659    0.400194
      7          1           0        0.899561    1.648884   -0.444105
      8          1           0        2.569884    0.199102   -0.245122
      9          1           0        0.438640    1.465361    1.289856
     10          1           0       -2.353561   -0.578459   -0.509445
     11          1           0        1.163007   -0.797261    1.404426
 ---------------------------------------------------------------------

 SCF Done:  E(RHF) =  -284.835495457     A.U. after    2 cycles

 The electronic state is 1-A.
 Alpha  occ. eigenvalues --  -21.10347 -15.73590 -11.49461 -11.47017 -11.44842
 Alpha  occ. eigenvalues --  -11.40309  -1.82972  -1.38308  -1.18919  -0.94059
 Alpha  occ. eigenvalues --   -0.88625  -0.77808  -0.71008  -0.66796  -0.59764
 Alpha  occ. eigenvalues --   -0.57017  -0.51980  -0.48599  -0.43509  -0.39002
 Alpha  occ. eigenvalues --   -0.34808  -0.31135
 Alpha virt. eigenvalues --    0.03405   0.05146   0.05396   0.05886   0.06235
 Alpha virt. eigenvalues --    0.08802   0.10427   0.10470   0.11314   0.11859
 Alpha virt. eigenvalues --    0.12869   0.13304   0.13684   0.14679   0.16093

 Mulliken charges:
               1
     1  C   -1.695568
     2  C   -0.759916
     3  O   -2.983761
     4  C    1.804027
     5  N   -2.864661
     6  C   -0.247510
     7  H    1.246053
     8  H    1.095490
     9  H    1.339164
    10  H    1.641992
    11  H    1.424690
 Sum of Mulliken charges =  -0.00000

 Dipole moment (field-independent basis, Debye):
    X=             -0.3758    Y=              2.0505    Z=              2.0944  Tot=              2.9551

 Test job not archived.
 1\1\GINC-SE163\SP\RHF\Aug-CC-pVDZ\C4H5N1O1\OHZDE\09-Apr-2025\0\\#t hf
 aug-cc-pvdz iop(5/13=1,5/36=2,99/5=2) pseudo=read geom=check guess=(re
 ad,tcheck) scf=(maxcycle=1)\\title\\0,1\C,0,-1.34683179,0.74484363,0.5
 7640196\C,0,-0.27142611,-0.2650016,-0.84926127\O,0,1.035527,0.24864144
 ,-1.09820906\C,0,1.62867842,0.43856044,0.13241764\N,0,0.99096811,0.149
 59819,1.19349239\C,0,-0.34286007,-0.27392083,0.80263691\H,0,-1.0032952
 2,0.37123872,-1.37524481\H,0,-2.30001884,0.18229919,0.41758784\H,0,-0.
 36851452,-1.30573328,-1.18141899\H,0,2.6349781,0.84505812,0.0692578\H,

 Normal termination of Gaussian 16 at Wed Apr  9 16:07:45 2025.
