 Gaussian 16, Revision C.01,

 ----------------------------------------------------------------------
 #t hf aug-cc-pvdz symm=none int=(grid=ultrafine) guess=(read,tcheck) s
 table=(opt,rrhf)
 ----------------------------------------------------------------------
 -----
 title
 -----
 Symbolic Z-matrix:
 Charge =  0 Multiplicity = 1

 SCF Done:  E(RHF) =  -304.586919052     A.U. after   18 cycles
 Normal termination of Gaussian 16 at Wed Apr  9 03:15:52 2025.
 Gaussian 16:  ES64L-G16RevC.01  3-Jul-2019

 ----------------------------------------------------------------------
 #t hf aug-cc-pvdz iop(5/13=1,5/36=2,99/5=2) pseudo=read geom=check gue
 ss=(read,tcheck) scf=(maxcycle=1)
 ----------------------------------------------------------------------
 -----
 title
 -----
 Structure from the checkpoint file:  "Grambow2020_b97d3_007010_reverse_mol1.chk"
 Charge =  0 Multiplicity = 1

                         Standard orientation:
 ---------------------------------------------------------------------
 Center     Atomic      Atomic             Coordinates (Angstroms)
 Number     Number       Type             X           Y           Z
 ---------------------------------------------------------------------
      1          8           0       -1.735547   -1.178479    0.069180
      2          6           0       -1.872892    0.124283   -0.049980
      3          6           0       -0.753518    1.061305    0.165785
      4          6           0        0.447414    0.451302   -0.497184
      5          6           0        1.555991    0.056266    0.292548
      6          8           0        2.621758   -0.455907   -0.093952
      7          1           0       -0.756213   -1.325807    0.239127
      8          1           0       -2.866405    0.404202   -0.406698
      9          1           0       -1.054578    2.068955   -0.163290
     10          1           0       -0.545139    1.122276    1.259048
     11          1           0        0.450300    0.320356   -1.578756
     12          1           0        1.420380    0.326165    1.381729
 ---------------------------------------------------------------------

 SCF Done:  E(RHF) =  -305.940777717     A.U. after    2 cycles

 The electronic state is 1-A.
 Alpha  occ. eigenvalues --  -21.21963 -20.96015 -11.60420 -11.46382 -11.42635
 Alpha  occ. eigenvalues --  -11.33851  -1.86691  -1.60748  -1.23824  -1.02219
 Alpha  occ. eigenvalues --   -0.90938  -0.76775  -0.73383  -0.69770  -0.61919
 Alpha  occ. eigenvalues --   -0.58177  -0.53405  -0.51962  -0.49655  -0.41818
 Alpha  occ. eigenvalues --   -0.41798  -0.22454  -0.21153
 Alpha virt. eigenvalues --    0.01595   0.02252   0.03928   0.04574   0.05754
 Alpha virt. eigenvalues --    0.06476   0.07209   0.09341   0.09835   0.11297
 Alpha virt. eigenvalues --    0.11806   0.13110   0.13893   0.14309   0.15407

 Mulliken charges:
               1
     1  O   -3.126449
     2  C    1.517689
     3  C   -3.808003
     4  C   -1.135177
     5  C    1.339867
     6  O   -2.923941
     7  H    1.195538
     8  H    1.654852
     9  H    1.260410
    10  H    1.442313
    11  H    1.307547
    12  H    1.275355
 Sum of Mulliken charges =   0.00000

 Dipole moment (field-independent basis, Debye):
    X=             -8.4140    Y=             -0.2411    Z=              0.6881  Tot=              8.4455

 Test job not archived.
 1\1\GINC-SE459\SP\RHF\Aug-CC-pVDZ\C4H6O2\OHZDE\09-Apr-2025\0\\#t hf au
 g-cc-pvdz iop(5/13=1,5/36=2,99/5=2) pseudo=read geom=check guess=(read
 ,tcheck) scf=(maxcycle=1)\\title\\0,1\O,0,-1.99602508,0.09153316,0.444
 01705\C,0,-1.4358097,-0.13330973,-0.72468048\C,0,0.01222248,0.03474558
 ,-0.95385993\C,0,0.70433972,-0.54892172,0.24371118\C,0,1.45994987,0.29
 597822,1.09451734\O,0,2.09357194,-0.02313581,2.11640341\H,0,-1.2342069
 2,0.29610551,1.06648482\H,0,-2.14439842,-0.53481822,-1.45225447\H,0,0.
 27447897,-0.37995618,-1.94053651\H,0,0.24438251,1.12448919,-0.98423504

 Normal termination of Gaussian 16 at Wed Apr  9 03:15:55 2025.
