 Gaussian 16, Revision C.01,

 ----------------------------------------------------------------------
 #t hf aug-cc-pvdz symm=none int=(grid=ultrafine) guess=(read,tcheck) s
 table=(opt,rrhf)
 ----------------------------------------------------------------------
 -----
 title
 -----
 Symbolic Z-matrix:
 Charge =  0 Multiplicity = 1

 SCF Done:  E(RHF) =  -302.807034105     A.U. after   15 cycles
 Normal termination of Gaussian 16 at Wed Apr  9 19:04:00 2025.
 Gaussian 16:  ES64L-G16RevC.01  3-Jul-2019

 ----------------------------------------------------------------------
 #t hf aug-cc-pvdz iop(5/13=1,5/36=2,99/5=2) pseudo=read geom=check gue
 ss=(read,tcheck) scf=(maxcycle=1)
 ----------------------------------------------------------------------
 -----
 title
 -----
 Structure from the checkpoint file:  "Grambow2020_wb97xd3_008041_reverse_mol1.chk"
 Charge =  0 Multiplicity = 1

                         Standard orientation:
 ---------------------------------------------------------------------
 Center     Atomic      Atomic             Coordinates (Angstroms)
 Number     Number       Type             X           Y           Z
 ---------------------------------------------------------------------
      1          6           0       -1.138235    1.700176   -0.001606
      2          6           0       -1.079051    0.243310    0.386298
      3          6           0       -1.168241   -0.891437   -0.677250
      4          7           0       -0.107007   -1.543258    0.095145
      5          6           0        0.189935   -0.474091    0.792801
      6          6           0        1.644229    0.594478   -0.738191
      7          7           0        2.409637    0.328986    0.105291
      8          1           0       -0.461559    1.904225   -0.827747
      9          1           0       -2.160592    1.962127   -0.280977
     10          1           0       -0.845918    2.329049    0.840399
     11          1           0       -1.800351    0.034812    1.184396
     12          1           0       -0.795442   -0.563374   -1.649801
     13          1           0       -2.093470   -1.459498   -0.756786
     14          1           0        0.467239   -2.347376   -0.100690
     15          1           0        0.879868   -0.394674    1.615846
 ---------------------------------------------------------------------

 SCF Done:  E(RHF) =  -304.264052552     A.U. after    2 cycles

 The electronic state is 1-A.
 Alpha  occ. eigenvalues --  -15.82207 -15.67075 -11.54904 -11.49731 -11.43589
 Alpha  occ. eigenvalues --  -11.39223 -11.29576  -1.56176  -1.21968  -1.18102
 Alpha  occ. eigenvalues --   -1.03527  -0.99946  -0.82250  -0.77604  -0.70469
 Alpha  occ. eigenvalues --   -0.63639  -0.59785  -0.57432  -0.54144  -0.51932
 Alpha  occ. eigenvalues --   -0.49245  -0.48268  -0.47200  -0.37390  -0.36264
 Alpha  occ. eigenvalues --   -0.35565
 Alpha virt. eigenvalues --    0.02866   0.04129   0.04575   0.04882   0.05276
 Alpha virt. eigenvalues --    0.05794   0.06798   0.07777   0.09712   0.10627
 Alpha virt. eigenvalues --    0.11390   0.11916   0.12534   0.12771   0.13921

 Mulliken charges:
               1
     1  C   -4.435742
     2  C   -0.933627
     3  C   -2.414839
     4  N   -2.343115
     5  C    0.683711
     6  C    0.465335
     7  N   -1.413719
     8  H    1.434250
     9  H    1.143496
    10  H    1.204322
    11  H    1.136906
    12  H    1.665638
    13  H    1.415092
    14  H    0.849343
    15  H    1.542949
 Sum of Mulliken charges =   0.00000

 Dipole moment (field-independent basis, Debye):
    X=             -6.0841    Y=             -3.7769    Z=              2.0317  Tot=              7.4437

 Test job not archived.
 1\1\GINC-SE232\SP\RHF\Aug-CC-pVDZ\C5H8N2\OHZDE\09-Apr-2025\0\\#t hf au
 g-cc-pvdz iop(5/13=1,5/36=2,99/5=2) pseudo=read geom=check guess=(read
 ,tcheck) scf=(maxcycle=1)\\title\\0,1\C,0,1.64751691,-0.44093803,-0.46
 926273\C,0,0.6344978,0.35798024,0.31301095\C,0,-0.37815661,1.30959947,
 -0.39104306\N,0,-1.36221376,0.77727342,0.55549959\C,0,-0.61463727,-0.2
 3166726,0.93124539\C,0,-1.12091367,-1.75585143,-0.80694262\N,0,-1.6161
 4287,-2.31475707,0.09315152\H,0,1.17212446,-0.94853392,-1.30495524\H,0
 ,2.43421663,0.22318093,-0.83248393\H,0,2.10962496,-1.19571428,0.168446

 Normal termination of Gaussian 16 at Wed Apr  9 19:04:06 2025.
