 Gaussian 16, Revision C.01,

 ----------------------------------------------------------------------
 #t hf aug-cc-pvdz symm=none int=(grid=ultrafine) guess=(read,tcheck) s
 table=(opt,rrhf)
 ----------------------------------------------------------------------
 -----
 title
 -----
 Symbolic Z-matrix:
 Charge =  0 Multiplicity = 1

 SCF Done:  E(RHF) =  -343.636909162     A.U. after   15 cycles
 Normal termination of Gaussian 16 at Wed Apr  9 03:27:23 2025.
 Gaussian 16:  ES64L-G16RevC.01  3-Jul-2019

 ----------------------------------------------------------------------
 #t hf aug-cc-pvdz iop(5/13=1,5/36=2,99/5=2) pseudo=read geom=check gue
 ss=(read,tcheck) scf=(maxcycle=1)
 ----------------------------------------------------------------------
 -----
 title
 -----
 Structure from the checkpoint file:  "Grambow2020_wb97xd3_006671_reverse_mol1.chk"
 Charge =  0 Multiplicity = 1

                         Standard orientation:
 ---------------------------------------------------------------------
 Center     Atomic      Atomic             Coordinates (Angstroms)
 Number     Number       Type             X           Y           Z
 ---------------------------------------------------------------------
      1          6           0       -1.583239   -0.943805   -0.656102
      2          6           0       -0.736680    0.002606    0.153308
      3          8           0       -1.171842    1.300614    0.095428
      4          6           0       -0.060693   -0.435136    1.323925
      5          6           0        1.584340   -1.116072   -0.215864
      6          6           0        0.934075    0.092967   -0.256228
      7          8           0        1.302294    1.255355   -0.392310
      8          1           0       -2.605546   -0.920838   -0.273652
      9          1           0       -1.603944   -0.620855   -1.696185
     10          1           0       -1.218892   -1.969428   -0.609104
     11          1           0       -0.374929    1.819675   -0.155567
     12          1           0        0.296050    0.308143    2.025355
     13          1           0       -0.041530   -1.466750    1.637652
     14          1           0        2.646087   -1.159437   -0.433972
     15          1           0        1.032275   -2.041623   -0.213708
 ---------------------------------------------------------------------

 SCF Done:  E(RHF) =  -345.218157172     A.U. after    2 cycles

 The electronic state is 1-A.
 Alpha  occ. eigenvalues --  -21.06702 -21.00644 -11.51044 -11.49419 -11.46094
 Alpha  occ. eigenvalues --  -11.41069 -11.40107  -1.76810  -1.66184  -1.26187
 Alpha  occ. eigenvalues --   -1.08483  -1.03347  -0.85404  -0.75280  -0.70227
 Alpha  occ. eigenvalues --   -0.67673  -0.63460  -0.59272  -0.56325  -0.53631
 Alpha  occ. eigenvalues --   -0.52742  -0.49687  -0.46630  -0.39875  -0.33870
 Alpha  occ. eigenvalues --   -0.27809  -0.25362
 Alpha virt. eigenvalues --    0.02731   0.04372   0.04579   0.05007   0.05497
 Alpha virt. eigenvalues --    0.06826   0.07749   0.07918   0.08354   0.10065
 Alpha virt. eigenvalues --    0.11645   0.12725   0.12868   0.14433   0.14507

 Mulliken charges:
               1
     1  C   -4.382758
     2  C    3.978179
     3  O   -3.659527
     4  C   -2.852363
     5  C   -3.640587
     6  C    4.500215
     7  O   -3.729447
     8  H    1.164407
     9  H    1.238231
    10  H    1.300643
    11  H    0.598938
    12  H    1.246381
    13  H    1.461415
    14  H    1.268515
    15  H    1.507758
 Sum of Mulliken charges =  -0.00000

 Dipole moment (field-independent basis, Debye):
    X=             -1.0713    Y=             -2.2087    Z=              1.3605  Tot=              2.8066

 Test job not archived.
 1\1\GINC-SE437\SP\RHF\Aug-CC-pVDZ\C5H8O2\OHZDE\09-Apr-2025\0\\#t hf au
 g-cc-pvdz iop(5/13=1,5/36=2,99/5=2) pseudo=read geom=check guess=(read
 ,tcheck) scf=(maxcycle=1)\\title\\0,1\C,0,-1.53185417,-0.77656031,-0.0
 1353741\C,0,-0.62609522,0.42500819,0.04418404\O,0,-1.16324208,1.535375
 41,-0.55255659\C,0,0.28588379,0.60596785,1.11864749\C,0,1.66626877,-0.
 78660678,-0.18366874\C,0,0.92845084,0.26034884,-0.67940604\O,0,1.17450
 792,1.19451012,-1.43574505\H,0,-2.4647727,-0.54267204,0.50305408\H,0,-
 1.76885102,-1.00891622,-1.05100607\H,0,-1.08710481,-1.65379676,0.45498

 Normal termination of Gaussian 16 at Wed Apr  9 03:27:28 2025.
