 Gaussian 16, Revision C.01,

 ----------------------------------------------------------------------
 #t hf aug-cc-pvdz symm=none int=(grid=ultrafine) guess=(read,tcheck) s
 table=(opt,rrhf)
 ----------------------------------------------------------------------
 -----
 title
 -----
 Symbolic Z-matrix:
 Charge =  0 Multiplicity = 1

 SCF Done:  E(RHF) =  -322.716607172     A.U. after   14 cycles
 Normal termination of Gaussian 16 at Wed Apr  9 18:22:19 2025.
 Gaussian 16:  ES64L-G16RevC.01  3-Jul-2019

 ----------------------------------------------------------------------
 #t hf aug-cc-pvdz iop(5/13=1,5/36=2,99/5=2) pseudo=read geom=check gue
 ss=(read,tcheck) scf=(maxcycle=1)
 ----------------------------------------------------------------------
 -----
 title
 -----
 Structure from the checkpoint file:  "Grambow2020_wb97xd3_006939_forward_mol2.chk"
 Charge =  0 Multiplicity = 1

                         Standard orientation:
 ---------------------------------------------------------------------
 Center     Atomic      Atomic             Coordinates (Angstroms)
 Number     Number       Type             X           Y           Z
 ---------------------------------------------------------------------
      1          8           0        2.407462    0.163490   -0.727209
      2          6           0        1.849090   -0.715172   -0.111194
      3          7           0        0.780683   -0.529581    0.698377
      4          6           0        0.128381    0.755204    0.809947
      5          6           0       -0.891500    1.005795   -0.307102
      6          6           0       -1.976735    0.028930   -0.289732
      7          6           0       -2.848705   -0.791044   -0.242679
      8          1           0        2.181498   -1.767606   -0.143459
      9          1           0        0.308164   -1.343327    1.051109
     10          1           0        0.899678    1.523470    0.766041
     11          1           0       -0.360655    0.812067    1.783190
     12          1           0       -1.305168    2.011585   -0.199636
     13          1           0       -0.377589    0.970041   -1.270413
     14          1           0       -3.633595   -1.509369   -0.213247
 ---------------------------------------------------------------------

 SCF Done:  E(RHF) =  -324.200372133     A.U. after    2 cycles

 The electronic state is 1-A.
 Alpha  occ. eigenvalues --  -21.03088 -15.76902 -11.48190 -11.46405 -11.43286
 Alpha  occ. eigenvalues --  -11.40636 -11.39388  -1.70649  -1.41253  -1.20224
 Alpha  occ. eigenvalues --   -1.05851  -0.95075  -0.82215  -0.74767  -0.73655
 Alpha  occ. eigenvalues --   -0.65136  -0.62969  -0.59086  -0.54712  -0.52670
 Alpha  occ. eigenvalues --   -0.49585  -0.49118  -0.37604  -0.37373  -0.31538
 Alpha  occ. eigenvalues --   -0.29563
 Alpha virt. eigenvalues --    0.03151   0.04589   0.05233   0.05733   0.06233
 Alpha virt. eigenvalues --    0.06976   0.07362   0.09663   0.10349   0.10981
 Alpha virt. eigenvalues --    0.12284   0.12553   0.12730   0.13204   0.14044

 Mulliken charges:
               1
     1  O   -2.684796
     2  C    2.004655
     3  N   -2.178060
     4  C   -2.470888
     5  C   -3.530708
     6  C    4.666440
     7  C   -4.223582
     8  H    1.575169
     9  H    0.716559
    10  H    1.407520
    11  H    1.407516
    12  H    1.140991
    13  H    1.385666
    14  H    0.783518
 Sum of Mulliken charges =   0.00000

 Dipole moment (field-independent basis, Debye):
    X=             -1.4118    Y=             -0.6206    Z=              1.3393  Tot=              2.0426

 Test job not archived.
 1\1\GINC-SE103\SP\RHF\Aug-CC-pVDZ\C5H7N1O1\OHZDE\09-Apr-2025\0\\#t hf
 aug-cc-pvdz iop(5/13=1,5/36=2,99/5=2) pseudo=read geom=check guess=(re
 ad,tcheck) scf=(maxcycle=1)\\title\\0,1\O,0,-2.52792098,-0.39692801,-0
 .73850517\C,0,-2.11365605,0.51753886,-0.06364604\N,0,-1.07538092,0.429
 37081,0.79980895\C,0,-0.27929325,-0.77196557,0.90776361\C,0,0.82156795
 ,-0.85609016,-0.15608787\C,0,1.77813371,0.2416177,-0.04508822\C,0,2.54
 070875,1.15713551,0.07824162\H,0,-2.56877525,1.52337299,-0.08144376\H,
 0,-0.7243078,1.27936553,1.20494056\H,0,-0.94850449,-1.62431789,0.79502

 Normal termination of Gaussian 16 at Wed Apr  9 18:22:23 2025.
