 Gaussian 16, Revision C.01,

 ----------------------------------------------------------------------
 #t hf aug-cc-pvdz symm=none int=(grid=ultrafine) guess=(read,tcheck) s
 table=(opt,rrhf)
 ----------------------------------------------------------------------
 -----
 title
 -----
 Symbolic Z-matrix:
 Charge =  0 Multiplicity = 1

 SCF Done:  E(RHF) =  -338.631966245     A.U. after   15 cycles
 Normal termination of Gaussian 16 at Wed Apr  9 18:17:12 2025.
 Gaussian 16:  ES64L-G16RevC.01  3-Jul-2019

 ----------------------------------------------------------------------
 #t hf aug-cc-pvdz iop(5/13=1,5/36=2,99/5=2) pseudo=read geom=check gue
 ss=(read,tcheck) scf=(maxcycle=1)
 ----------------------------------------------------------------------
 -----
 title
 -----
 Structure from the checkpoint file:  "Grambow2020_wb97xd3_006835_forward_mol1.chk"
 Charge =  0 Multiplicity = 1

                         Standard orientation:
 ---------------------------------------------------------------------
 Center     Atomic      Atomic             Coordinates (Angstroms)
 Number     Number       Type             X           Y           Z
 ---------------------------------------------------------------------
      1          7           0       -2.405575   -0.513568    0.005264
      2          6           0       -1.091526   -0.074545   -0.036198
      3          6           0       -0.640442    1.200429   -0.036811
      4          7           0        0.780840    1.192194    0.116142
      5          6           0        1.176748   -0.079598    0.138505
      6          8           0        2.310357   -0.613251   -0.162377
      7          6           0        0.060401   -0.972164    0.123641
      8          1           0       -3.093593    0.186966   -0.218048
      9          1           0       -2.566319   -1.368444   -0.501287
     10          1           0       -1.177695    2.134289   -0.069849
     11          1           0        1.375283    1.928288   -0.225030
     12          1           0        1.303421   -1.404533   -0.533698
     13          1           0        0.018112   -1.765677    0.862265
 ---------------------------------------------------------------------

 SCF Done:  E(RHF) =  -340.193061674     A.U. after    2 cycles

 The electronic state is 1-A.
 Alpha  occ. eigenvalues --  -21.04107 -15.78968 -15.76419 -11.50133 -11.46538
 Alpha  occ. eigenvalues --  -11.40336 -11.36491  -1.74248  -1.48503  -1.34659
 Alpha  occ. eigenvalues --   -1.12857  -1.01691  -0.82854  -0.81622  -0.70590
 Alpha  occ. eigenvalues --   -0.66631  -0.65642  -0.59171  -0.55588  -0.51588
 Alpha  occ. eigenvalues --   -0.49231  -0.47955  -0.42911  -0.34884  -0.29861
 Alpha  occ. eigenvalues --   -0.23437
 Alpha virt. eigenvalues --    0.03276   0.04840   0.05202   0.06370   0.07106
 Alpha virt. eigenvalues --    0.07273   0.09789   0.11016   0.11108   0.11959
 Alpha virt. eigenvalues --    0.12519   0.13709   0.14082   0.14717   0.15112

 Mulliken charges:
               1
     1  N   -3.606673
     2  C    3.941302
     3  C   -0.734336
     4  N   -3.187840
     5  C    4.971027
     6  O   -3.146623
     7  C   -3.951374
     8  H    0.676035
     9  H    0.630739
    10  H    1.389160
    11  H    0.715647
    12  H    1.100384
    13  H    1.202553
 Sum of Mulliken charges =  -0.00000

 Dipole moment (field-independent basis, Debye):
    X=             -1.4090    Y=              1.7133    Z=             -0.6420  Tot=              2.3093

 Test job not archived.
 1\1\GINC-SE108\SP\RHF\Aug-CC-pVDZ\C4H6N2O1\OHZDE\09-Apr-2025\0\\#t hf
 aug-cc-pvdz iop(5/13=1,5/36=2,99/5=2) pseudo=read geom=check guess=(re
 ad,tcheck) scf=(maxcycle=1)\\title\\0,1\N,0,-2.02202857,0.70999611,-0.
 28960031\C,0,-0.76825874,0.14198742,-0.1264665\C,0,-0.40100517,-1.1404
 0326,-0.34925537\N,0,1.02124336,-1.24241343,-0.24773623\C,0,1.48778308
 ,-0.04403065,0.09999572\O,0,2.57193259,0.29216603,0.7098946\C,0,0.4434
 3281,0.93137905,0.13212441\H,0,-2.77986233,0.05073686,-0.36067738\H,0,
 -2.22661171,1.44321786,0.36901738\H,0,-0.98830646,-1.99908351,-0.63134

 Normal termination of Gaussian 16 at Wed Apr  9 18:17:16 2025.
