 Gaussian 16, Revision C.01,

 ----------------------------------------------------------------------
 #t hf aug-cc-pvdz symm=none int=(grid=ultrafine) guess=(read,tcheck) s
 table=(opt,rrhf)
 ----------------------------------------------------------------------
 -----
 title
 -----
 Symbolic Z-matrix:
 Charge =  0 Multiplicity = 1

 SCF Done:  E(RHF) =  -381.873513512     A.U. after   12 cycles

 1\1\GINC-SE135\Stability\RHF\Aug-CC-pVDZ\C4H10O3\OHZDE\09-Apr-2025\0\\
 #t hf aug-cc-pvdz symm=none int=(grid=ultrafine) guess=(read,tcheck) s
 table=(opt,rrhf)\\title\\0,1\C,0,2.0974484,1.04288654,-0.40796187\O,0,
 1.12686631,0.32620219,0.32101283\C,0,0.34038343,-0.49932592,-0.5049531
 9\C,0,-0.65711785,-1.22704088,0.34087573\O,0,-1.87346334,-0.55178752,0
 .63555247\C,0,-1.92393638,-1.67907738,-0.22297945\O,0,-1.08685764,2.31
 271999,0.25995451\H,0,2.67171615,1.63144778,0.30535118\H,0,1.62656118,
 1.71575285,-1.13431539\H,0,2.7744862,0.36247158,-0.938607\H,0,-0.18457

 Normal termination of Gaussian 16 at Wed Apr  9 19:25:16 2025.
 Gaussian 16:  ES64L-G16RevC.01  3-Jul-2019

 ----------------------------------------------------------------------
 #t hf aug-cc-pvdz iop(5/13=1,5/36=2,99/5=2) pseudo=read geom=check gue
 ss=(read,tcheck) scf=(maxcycle=1)
 ----------------------------------------------------------------------
 -----
 title
 -----
 Structure from the checkpoint file:  "Grambow2020_wb97xd3_008925_reverse_mol2.chk"
 Charge =  0 Multiplicity = 1

                         Standard orientation:
 ---------------------------------------------------------------------
 Center     Atomic      Atomic             Coordinates (Angstroms)
 Number     Number       Type             X           Y           Z
 ---------------------------------------------------------------------
      1          6           0       -2.505794   -0.634606    0.116233
      2          8           0       -1.242001   -0.516132   -0.496843
      3          6           0       -0.192159   -0.875148    0.369881
      4          6           0        1.109593   -0.728617   -0.353979
      5          8           0        1.705952    0.562349   -0.361830
      6          6           0        2.343759   -0.465844    0.377378
      7          8           0       -0.657378    2.328623    0.148242
      8          1           0       -3.254596   -0.363611   -0.625967
      9          1           0       -2.590491    0.039573    0.976688
     10          1           0       -2.687708   -1.663470    0.449813
     11          1           0       -0.192436   -0.234049    1.261754
     12          1           0       -0.311255   -1.919554    0.694132
     13          1           0        1.167532   -1.243261   -1.309848
     14          1           0        0.290456    2.164041    0.131103
     15          1           0        3.290631   -0.808135   -0.027614
     16          1           0        2.308977   -0.348265    1.457109
     17          1           0       -1.006089    1.603295   -0.380798
 ---------------------------------------------------------------------

 SCF Done:  E(RHF) =  -383.580519163     A.U. after    2 cycles

 The electronic state is 1-A.
 Alpha  occ. eigenvalues --  -21.07454 -21.06113 -21.05822 -11.50737 -11.45330
 Alpha  occ. eigenvalues --  -11.41781 -11.40866  -1.81435  -1.76331  -1.62742
 Alpha  occ. eigenvalues --   -1.10983  -0.99458  -0.94081  -0.86504  -0.71782
 Alpha  occ. eigenvalues --   -0.66575  -0.64906  -0.61320  -0.59425  -0.58621
 Alpha  occ. eigenvalues --   -0.56325  -0.50083  -0.45843  -0.44717  -0.40755
 Alpha  occ. eigenvalues --   -0.37885  -0.33133  -0.32272  -0.30616
 Alpha virt. eigenvalues --    0.03689   0.04489   0.05068   0.05099   0.05349
 Alpha virt. eigenvalues --    0.06385   0.07030   0.08243   0.08805   0.09839
 Alpha virt. eigenvalues --    0.11236   0.11766   0.12574   0.14448   0.14533

 Mulliken charges:
               1
     1  C   -3.035583
     2  O   -2.709536
     3  C   -1.523008
     4  C    0.274599
     5  O   -2.621255
     6  C   -1.882399
     7  O   -2.309297
     8  H    1.305978
     9  H    1.401904
    10  H    1.313313
    11  H    1.806671
    12  H    1.401241
    13  H    1.530458
    14  H    1.025657
    15  H    1.389626
    16  H    1.388268
    17  H    1.243365
 Sum of Mulliken charges =  -0.00000

 Dipole moment (field-independent basis, Debye):
    X=              0.4565    Y=             -2.0380    Z=              0.1257  Tot=              2.0923

 Test job not archived.
 1\1\GINC-SE135\SP\RHF\Aug-CC-pVDZ\C4H10O3\OHZDE\09-Apr-2025\0\\#t hf a
 ug-cc-pvdz iop(5/13=1,5/36=2,99/5=2) pseudo=read geom=check guess=(rea
 d,tcheck) scf=(maxcycle=1)\\title\\0,1\C,0,2.0974484,1.04288654,-0.407
 96187\O,0,1.12686631,0.32620219,0.32101283\C,0,0.34038343,-0.49932592,
 -0.50495319\C,0,-0.65711785,-1.22704088,0.34087573\O,0,-1.87346334,-0.
 55178752,0.63555247\C,0,-1.92393638,-1.67907738,-0.22297945\O,0,-1.086
 85764,2.31271999,0.25995451\H,0,2.67171615,1.63144778,0.30535118\H,0,1
 .62656118,1.71575285,-1.13431539\H,0,2.7744862,0.36247158,-0.938607\H,

 Normal termination of Gaussian 16 at Wed Apr  9 19:25:22 2025.
