 Gaussian 16, Revision C.01,

 ----------------------------------------------------------------------
 #t hf aug-cc-pvdz symm=none int=(grid=ultrafine) guess=(read,tcheck) s
 table=(opt,rrhf)
 ----------------------------------------------------------------------
 -----
 title
 -----
 Symbolic Z-matrix:
 Charge =  0 Multiplicity = 1

 SCF Done:  E(RHF) =  -318.779828744     A.U. after   15 cycles
 Normal termination of Gaussian 16 at Wed Apr  9 18:21:20 2025.
 Gaussian 16:  ES64L-G16RevC.01  3-Jul-2019

 ----------------------------------------------------------------------
 #t hf aug-cc-pvdz iop(5/13=1,5/36=2,99/5=2) pseudo=read geom=check gue
 ss=(read,tcheck) scf=(maxcycle=1)
 ----------------------------------------------------------------------
 -----
 title
 -----
 Structure from the checkpoint file:  "Grambow2020_wb97xd3_006919_forward_mol1.chk"
 Charge =  0 Multiplicity = 1

                         Standard orientation:
 ---------------------------------------------------------------------
 Center     Atomic      Atomic             Coordinates (Angstroms)
 Number     Number       Type             X           Y           Z
 ---------------------------------------------------------------------
      1          7           0       -2.263619   -0.688167   -0.236350
      2          6           0       -1.168837   -0.040749    0.118018
      3          6           0       -0.064454   -0.959754    0.176321
      4          6           0        1.101510   -0.079749   -0.033955
      5          7           0        2.406278   -0.548934   -0.019810
      6          6           0        0.672182    1.200710   -0.044943
      7          7           0       -0.754431    1.237107    0.144690
      8          1           0       -1.272490   -1.601256   -0.382382
      9          1           0       -3.191783   -0.327591   -0.053276
     10          1           0       -0.029004   -1.569640    1.078343
     11          1           0        3.101770    0.115813   -0.316114
     12          1           0        2.514750   -1.435325   -0.484765
     13          1           0        1.226162    2.124398   -0.092776
     14          1           0       -1.309405    1.970813   -0.261380
 ---------------------------------------------------------------------

 SCF Done:  E(RHF) =  -320.296123604     A.U. after    2 cycles

 The electronic state is 1-A.
 Alpha  occ. eigenvalues --  -15.77313 -15.75337 -15.72151 -11.47725 -11.44895
 Alpha  occ. eigenvalues --  -11.38824 -11.34534  -1.52694  -1.34522  -1.30257
 Alpha  occ. eigenvalues --   -1.10215  -0.98751  -0.81429  -0.80276  -0.72283
 Alpha  occ. eigenvalues --   -0.66559  -0.64600  -0.58621  -0.54217  -0.51040
 Alpha  occ. eigenvalues --   -0.49906  -0.46915  -0.44269  -0.36032  -0.31991
 Alpha  occ. eigenvalues --   -0.23861
 Alpha virt. eigenvalues --    0.03537   0.05187   0.05247   0.05860   0.06403
 Alpha virt. eigenvalues --    0.07465   0.08530   0.10362   0.11267   0.11613
 Alpha virt. eigenvalues --    0.12682   0.13413   0.14075   0.14646   0.15286

 Mulliken charges:
               1
     1  N   -3.344687
     2  C    4.623690
     3  C   -4.169455
     4  C    4.007312
     5  N   -3.574579
     6  C   -0.798077
     7  N   -3.213228
     8  H    1.095452
     9  H    0.796608
    10  H    1.153484
    11  H    0.653331
    12  H    0.663271
    13  H    1.408148
    14  H    0.698729
 Sum of Mulliken charges =  -0.00000

 Dipole moment (field-independent basis, Debye):
    X=              0.3406    Y=              2.0883    Z=             -0.4150  Tot=              2.1562

 Test job not archived.
 1\1\GINC-SE131\SP\RHF\Aug-CC-pVDZ\C4H7N3\OHZDE\09-Apr-2025\0\\#t hf au
 g-cc-pvdz iop(5/13=1,5/36=2,99/5=2) pseudo=read geom=check guess=(read
 ,tcheck) scf=(maxcycle=1)\\title\\0,1\N,0,-2.35546235,-0.53997727,-0.2
 18202\C,0,-1.23251671,0.04048885,0.1630183\C,0,-0.16525803,-0.92307596
 ,0.15142884\C,0,1.03298738,-0.07818007,-0.01725331\N,0,2.31803825,-0.5
 9827105,-0.04730434\C,0,0.65508971,1.21635327,0.05620678\N,0,-0.767151
 7,1.29689715,0.2641719\H,0,-1.40297724,-1.48042244,-0.43204512\H,0,-3.
 26677825,-0.15532705,-0.00240931\H,0,-0.14603784,-1.58904709,1.0133888

 Normal termination of Gaussian 16 at Wed Apr  9 18:21:24 2025.
