 Gaussian 16, Revision C.01,

 ----------------------------------------------------------------------
 #t hf aug-cc-pvdz symm=none int=(grid=ultrafine) guess=(read,tcheck) s
 table=(opt,rrhf)
 ----------------------------------------------------------------------
 -----
 title
 -----
 Symbolic Z-matrix:
 Charge =  0 Multiplicity = 1

 SCF Done:  E(RHF) =  -304.692015630     A.U. after   15 cycles
 Normal termination of Gaussian 16 at Wed Apr  9 03:15:51 2025.
 Gaussian 16:  ES64L-G16RevC.01  3-Jul-2019

 ----------------------------------------------------------------------
 #t hf aug-cc-pvdz iop(5/13=1,5/36=2,99/5=2) pseudo=read geom=check gue
 ss=(read,tcheck) scf=(maxcycle=1)
 ----------------------------------------------------------------------
 -----
 title
 -----
 Structure from the checkpoint file:  "Grambow2020_b97d3_006981_reverse_mol2.chk"
 Charge =  0 Multiplicity = 1

                         Standard orientation:
 ---------------------------------------------------------------------
 Center     Atomic      Atomic             Coordinates (Angstroms)
 Number     Number       Type             X           Y           Z
 ---------------------------------------------------------------------
      1          6           0       -2.149263   -0.509218   -0.261230
      2          6           0       -0.887036    0.049456    0.405168
      3          6           0        0.318916   -0.844487    0.109551
      4          6           0        1.537480   -0.339594   -0.002027
      5          8           0        2.616064    0.120655   -0.131983
      6          8           0       -0.636385    1.405799    0.032512
      7          1           0       -2.015928   -0.562861   -1.352067
      8          1           0       -3.002360    0.144991   -0.038924
      9          1           0       -2.377389   -1.521029    0.103159
     10          1           0       -1.048730    0.105718    1.491693
     11          1           0        0.205796   -1.923818    0.021155
     12          1           0       -0.519416    1.408435   -0.938016
 ---------------------------------------------------------------------

 SCF Done:  E(RHF) =  -306.047683659     A.U. after    2 cycles

 The electronic state is 1-A.
 Alpha  occ. eigenvalues --  -21.13440 -21.07861 -11.54497 -11.47372 -11.41206
 Alpha  occ. eigenvalues --  -11.38276  -1.76076  -1.71995  -1.19202  -1.07007
 Alpha  occ. eigenvalues --   -0.88134  -0.72863  -0.66401  -0.61504  -0.60561
 Alpha  occ. eigenvalues --   -0.56664  -0.55324  -0.52407  -0.50353  -0.46797
 Alpha  occ. eigenvalues --   -0.41012  -0.33586  -0.28475
 Alpha virt. eigenvalues --    0.03333   0.05162   0.05562   0.05993   0.06277
 Alpha virt. eigenvalues --    0.06738   0.09116   0.10776   0.11452   0.12502
 Alpha virt. eigenvalues --    0.13028   0.13844   0.14620   0.15109   0.16069

 Mulliken charges:
               1
     1  C   -3.792656
     2  C    0.662020
     3  C   -0.800262
     4  C    1.889653
     5  O   -2.401372
     6  O   -2.989601
     7  H    1.211718
     8  H    1.187041
     9  H    1.219318
    10  H    1.555322
    11  H    1.525547
    12  H    0.733272
 Sum of Mulliken charges =  -0.00000

 Dipole moment (field-independent basis, Debye):
    X=             -0.0749    Y=             -0.2442    Z=             -0.2214  Tot=              0.3380

 Test job not archived.
 1\1\GINC-SE108\SP\RHF\Aug-CC-pVDZ\C4H6O2\OHZDE\09-Apr-2025\0\\#t hf au
 g-cc-pvdz iop(5/13=1,5/36=2,99/5=2) pseudo=read geom=check guess=(read
 ,tcheck) scf=(maxcycle=1)\\title\\0,1\C,0,-1.51042204,0.12175977,0.213
 74718\C,0,-0.19073175,-0.40061396,-0.36501225\C,0,0.87889112,0.6930605
 7,-0.33995655\C,0,2.15862318,0.3987767,-0.1727778\O,0,3.29369862,0.132
 75017,0.00859068\O,0,0.25669327,-1.58490305,0.29728194\H,0,-1.3708013,
 0.44706288,1.25550767\H,0,-2.26414034,-0.67601349,0.18822471\H,0,-1.88
 612633,0.97939092,-0.36235791\H,0,-0.35798123,-0.73128185,-1.4006437\H

 Normal termination of Gaussian 16 at Wed Apr  9 03:15:55 2025.
