 Gaussian 16, Revision C.01,

 ----------------------------------------------------------------------
 #t hf aug-cc-pvdz symm=none int=(grid=ultrafine) guess=(read,tcheck) s
 table=(opt,rrhf)
 ----------------------------------------------------------------------
 -----
 title
 -----
 Symbolic Z-matrix:
 Charge =  0 Multiplicity = 1

 SCF Done:  E(RHF) =  -231.779617690     A.U. after   12 cycles
 Normal termination of Gaussian 16 at Wed Apr  9 16:54:06 2025.
 Gaussian 16:  ES64L-G16RevC.01  3-Jul-2019

 ----------------------------------------------------------------------
 #t hf aug-cc-pvdz iop(5/13=1,5/36=2,99/5=2) pseudo=read geom=check gue
 ss=(read,tcheck) scf=(maxcycle=1)
 ----------------------------------------------------------------------
 -----
 title
 -----
 Structure from the checkpoint file:  "Grambow2020_b97d3_006870_forward_mol2.chk"
 Charge =  0 Multiplicity = 1

                         Standard orientation:
 ---------------------------------------------------------------------
 Center     Atomic      Atomic             Coordinates (Angstroms)
 Number     Number       Type             X           Y           Z
 ---------------------------------------------------------------------
      1          6           0        1.228902   -0.631138   -0.345463
      2          6           0        0.768565    0.826686   -0.368689
      3          6           0       -0.770410    0.826119   -0.367421
      4          6           0       -1.228043   -0.632520   -0.345138
      5          6           0        0.000613   -0.889830    0.575107
      6          6           0       -0.000138    0.658689    0.922582
      7          1           0        2.173138   -0.736416    0.205503
      8          1           0        1.279050   -1.194009   -1.291595
      9          1           0        1.322543    1.704406   -0.697286
     10          1           0       -1.325773    1.702481   -0.697181
     11          1           0       -2.172266   -0.740739    0.205506
     12          1           0       -1.276379   -1.193619   -1.292431
     13          1           0        0.000702   -1.715944    1.291982
     14          1           0        0.002050    1.225803    1.849634
 ---------------------------------------------------------------------

 SCF Done:  E(RHF) =  -232.939518692     A.U. after    2 cycles

 The electronic state is 1-A.
 Alpha  occ. eigenvalues --  -11.47641 -11.46631 -11.40682 -11.39605 -11.39197
 Alpha  occ. eigenvalues --  -11.33993  -1.46528  -1.03988  -1.02271  -0.89081
 Alpha  occ. eigenvalues --   -0.77273  -0.75233  -0.72364  -0.61148  -0.59318
 Alpha  occ. eigenvalues --   -0.54093  -0.50414  -0.45861  -0.40612  -0.40323
 Alpha  occ. eigenvalues --   -0.35295  -0.32695
 Alpha virt. eigenvalues --    0.04180   0.04962   0.05290   0.05650   0.06293
 Alpha virt. eigenvalues --    0.06320   0.06596   0.06646   0.10964   0.12345
 Alpha virt. eigenvalues --    0.12697   0.13030   0.13834   0.14195   0.14943

 Mulliken charges:
               1
     1  C   -2.922355
     2  C   -1.024866
     3  C   -1.035147
     4  C   -2.923486
     5  C   -1.928777
     6  C   -0.305438
     7  H    1.256851
     8  H    1.280681
     9  H    1.295151
    10  H    1.293806
    11  H    1.257638
    12  H    1.281385
    13  H    1.431940
    14  H    1.042619
 Sum of Mulliken charges =   0.00000

 Dipole moment (field-independent basis, Debye):
    X=              0.0006    Y=              0.1425    Z=              0.2183  Tot=              0.2607

 Test job not archived.
 1\1\GINC-SE220\SP\RHF\Aug-CC-pVDZ\C6H8\OHZDE\09-Apr-2025\0\\#t hf aug-
 cc-pvdz iop(5/13=1,5/36=2,99/5=2) pseudo=read geom=check guess=(read,t
 check) scf=(maxcycle=1)\\title\\0,1\C,0,-1.17365639,-0.23099073,0.7153
 2253\C,0,-0.46384139,1.07283265,0.34938707\C,0,0.98506945,0.72000286,-
 0.0308965\C,0,1.13989125,-0.79451211,0.10991213\C,0,-0.32319229,-0.882
 86358,-0.41376359\C,0,-0.13349301,0.56472968,-1.03596851\H,0,-2.237075
 93,-0.18911014,0.44400211\H,0,-1.05942337,-0.63771185,1.73317905\H,0,-
 0.73089902,2.08946049,0.63294802\H,0,1.76283836,1.48165918,-0.01930196

 Normal termination of Gaussian 16 at Wed Apr  9 16:54:10 2025.
