 Gaussian 16, Revision C.01,

 ----------------------------------------------------------------------
 #t hf aug-cc-pvdz symm=none int=(grid=ultrafine) guess=(read,tcheck) s
 table=(opt,rrhf)
 ----------------------------------------------------------------------
 -----
 title
 -----
 Symbolic Z-matrix:
 Charge =  0 Multiplicity = 1

 SCF Done:  E(RHF) =  -343.730036002     A.U. after   14 cycles
 Normal termination of Gaussian 16 at Wed Apr  9 03:28:18 2025.
 Gaussian 16:  ES64L-G16RevC.01  3-Jul-2019

 ----------------------------------------------------------------------
 #t hf aug-cc-pvdz iop(5/13=1,5/36=2,99/5=2) pseudo=read geom=check gue
 ss=(read,tcheck) scf=(maxcycle=1)
 ----------------------------------------------------------------------
 -----
 title
 -----
 Structure from the checkpoint file:  "Grambow2020_wb97xd3_006716_reverse_mol2.chk"
 Charge =  0 Multiplicity = 1

                         Standard orientation:
 ---------------------------------------------------------------------
 Center     Atomic      Atomic             Coordinates (Angstroms)
 Number     Number       Type             X           Y           Z
 ---------------------------------------------------------------------
      1          8           0       -2.280523   -1.012940   -0.168372
      2          6           0       -2.136984    0.224536    0.510745
      3          6           0       -1.080575    1.127344   -0.074486
      4          8           0        2.915079    0.376294    0.174036
      5          6           0        2.213282   -0.596454    0.145702
      6          6           0        0.742567   -0.599002   -0.178040
      7          6           0        0.159188    0.764006   -0.379534
      8          1           0       -2.432475   -0.825329   -1.097026
      9          1           0       -3.094989    0.755034    0.543606
     10          1           0       -1.886027   -0.037882    1.542477
     11          1           0       -1.371616    2.157278   -0.256933
     12          1           0        2.638392   -1.600008    0.357383
     13          1           0        0.219981   -1.167135    0.596847
     14          1           0        0.631303   -1.214786   -1.080654
     15          1           0        0.834111    1.503408   -0.797327
 ---------------------------------------------------------------------

 SCF Done:  E(RHF) =  -345.279406559     A.U. after    2 cycles

 The electronic state is 1-A.
 Alpha  occ. eigenvalues --  -21.07501 -21.06472 -11.49198 -11.45841 -11.43543
 Alpha  occ. eigenvalues --  -11.41361 -11.37453  -1.72331  -1.70987  -1.23621
 Alpha  occ. eigenvalues --   -1.09185  -0.96254  -0.83268  -0.75653  -0.69354
 Alpha  occ. eigenvalues --   -0.63600  -0.62498  -0.60496  -0.56083  -0.53214
 Alpha  occ. eigenvalues --   -0.51017  -0.48437  -0.43184  -0.41030  -0.35795
 Alpha  occ. eigenvalues --   -0.31647  -0.29425
 Alpha virt. eigenvalues --    0.03391   0.05061   0.05257   0.05689   0.05970
 Alpha virt. eigenvalues --    0.06407   0.07204   0.08057   0.10457   0.11075
 Alpha virt. eigenvalues --    0.12105   0.12475   0.13053   0.13640   0.14236

 Mulliken charges:
               1
     1  O   -2.359404
     2  C   -1.757506
     3  C   -0.749532
     4  O   -2.851206
     5  C    1.330565
     6  C   -4.365984
     7  C    0.204673
     8  H    0.791961
     9  H    1.165302
    10  H    1.323586
    11  H    1.319939
    12  H    1.321555
    13  H    1.723702
    14  H    1.359079
    15  H    1.543269
 Sum of Mulliken charges =   0.00000

 Dipole moment (field-independent basis, Debye):
    X=             -1.0550    Y=             -0.3490    Z=             -0.3772  Tot=              1.1735

 Test job not archived.
 1\1\GINC-SE345\SP\RHF\Aug-CC-pVDZ\C5H8O2\OHZDE\09-Apr-2025\0\\#t hf au
 g-cc-pvdz iop(5/13=1,5/36=2,99/5=2) pseudo=read geom=check guess=(read
 ,tcheck) scf=(maxcycle=1)\\title\\0,1\O,0,1.5179074,1.07220147,-1.2720
 1925\C,0,1.90944514,-0.01703313,-0.45139937\C,0,0.85368857,-1.08296163
 ,-0.30063588\O,0,-2.59112697,-0.56003143,1.80907586\C,0,-2.14729311,0.
 43245002,1.3015787\C,0,-1.0336139,0.46810684,0.28853217\C,0,-0.4188432
 4,-0.86714927,0.00947652\H,0,1.23110087,0.71863837,-2.11666154\H,0,2.8
 3331948,-0.46754531,-0.83057859\H,0,2.1489325,0.42326696,0.52076091\H,

 Normal termination of Gaussian 16 at Wed Apr  9 03:28:22 2025.
