 Gaussian 16, Revision C.01,

 ----------------------------------------------------------------------
 #t hf aug-cc-pvdz symm=none int=(grid=ultrafine) guess=(read,tcheck) s
 table=(opt,rrhf)
 ----------------------------------------------------------------------
 -----
 title
 -----
 Symbolic Z-matrix:
 Charge =  0 Multiplicity = 1

 SCF Done:  E(RHF) =  -342.608171252     A.U. after   14 cycles
 Normal termination of Gaussian 16 at Wed Apr  9 19:29:04 2025.
 Gaussian 16:  ES64L-G16RevC.01  3-Jul-2019

 ----------------------------------------------------------------------
 #t hf aug-cc-pvdz iop(5/13=1,5/36=2,99/5=2) pseudo=read geom=check gue
 ss=(read,tcheck) scf=(maxcycle=1)
 ----------------------------------------------------------------------
 -----
 title
 -----
 Structure from the checkpoint file:  "Grambow2020_wb97xd3_009060_forward_mol2.chk"
 Charge =  0 Multiplicity = 1

                         Standard orientation:
 ---------------------------------------------------------------------
 Center     Atomic      Atomic             Coordinates (Angstroms)
 Number     Number       Type             X           Y           Z
 ---------------------------------------------------------------------
      1          8           0       -2.354155   -0.557950    0.046393
      2          6           0       -1.209797   -0.206005   -0.014295
      3          6           0       -0.744874    1.239283   -0.153594
      4          6           0        0.749005    1.237698    0.163142
      5          6           0        1.210005   -0.207488    0.014383
      6          8           0        2.350914   -0.560247   -0.090679
      7          6           0       -0.000615   -1.121666    0.026621
      8          1           0       -1.347806    1.887145    0.481289
      9          1           0       -0.938166    1.536604   -1.188497
     10          1           0        0.938778    1.524690    1.201855
     11          1           0        1.354121    1.890840   -0.463807
     12          1           0       -0.010180   -1.737597    0.928910
     13          1           0        0.006832   -1.807034   -0.823003
 ---------------------------------------------------------------------

 SCF Done:  E(RHF) =  -344.128087176     A.U. after    2 cycles

 The electronic state is 1-A.
 Alpha  occ. eigenvalues --  -21.06889 -21.06873 -11.52108 -11.51412 -11.44836
 Alpha  occ. eigenvalues --  -11.41821 -11.39373  -1.73941  -1.71232  -1.29939
 Alpha  occ. eigenvalues --   -1.09781  -0.99480  -0.79170  -0.78029  -0.68673
 Alpha  occ. eigenvalues --   -0.62117  -0.62021  -0.57181  -0.56495  -0.55028
 Alpha  occ. eigenvalues --   -0.50525  -0.48928  -0.42861  -0.41448  -0.31758
 Alpha  occ. eigenvalues --   -0.26953
 Alpha virt. eigenvalues --    0.02614   0.04524   0.05533   0.05830   0.06437
 Alpha virt. eigenvalues --    0.06596   0.08189   0.09911   0.11126   0.11726
 Alpha virt. eigenvalues --    0.12536   0.13741   0.14097   0.14393   0.14854

 Mulliken charges:
               1
     1  O   -3.441159
     2  C    4.979546
     3  C   -3.392452
     4  C   -3.373429
     5  C    5.012226
     6  O   -3.448591
     7  C   -4.647811
     8  H    1.311691
     9  H    1.421920
    10  H    1.422088
    11  H    1.307766
    12  H    1.426113
    13  H    1.422092
 Sum of Mulliken charges =   0.00000

 Dipole moment (field-independent basis, Debye):
    X=              0.0022    Y=              0.9949    Z=              0.0610  Tot=              0.9968

 Test job not archived.
 1\1\GINC-SE117\SP\RHF\Aug-CC-pVDZ\C5H6O2\OHZDE\09-Apr-2025\0\\#t hf au
 g-cc-pvdz iop(5/13=1,5/36=2,99/5=2) pseudo=read geom=check guess=(read
 ,tcheck) scf=(maxcycle=1)\\title\\0,1\O,0,0.58746718,-2.34549294,-0.57
 870949\C,0,0.33192618,-1.19800231,-0.34404746\C,0,-1.07325181,-0.63128
 049,-0.17458752\C,0,-0.90138582,0.75201723,0.4490689\C,0,0.54822947,1.
 1505332,0.19804263\O,0,0.98317618,2.26395156,0.28899107\C,0,1.34747318
 ,-0.08304878,-0.17739912\H,0,-1.68611552,-1.32203462,0.40298158\H,0,-1
 .5142981,-0.57196651,-1.1739606\H,0,-1.03757708,0.72208749,1.53436077\

 Normal termination of Gaussian 16 at Wed Apr  9 19:29:08 2025.
