 Gaussian 16, Revision C.01,

 ----------------------------------------------------------------------
 #t hf aug-cc-pvdz symm=none int=(grid=ultrafine) guess=(read,tcheck) s
 table=(opt,rrhf)
 ----------------------------------------------------------------------
 -----
 title
 -----
 Symbolic Z-matrix:
 Charge =  0 Multiplicity = 1

 SCF Done:  E(RHF) =  -308.932032777     A.U. after   15 cycles

 1\1\GINC-SE116\Stability\RHF\Aug-CC-pVDZ\C6H12O1\OHZDE\09-Apr-2025\0\\
 #t hf aug-cc-pvdz symm=none int=(grid=ultrafine) guess=(read,tcheck) s
 table=(opt,rrhf)\\title\\0,1\C,0,2.7931108,-0.38895735,0.06806413\C,0,
 1.36027232,0.02563629,0.38988606\O,0,1.07717288,-0.39609813,1.7181378\
 C,0,0.98429196,1.34687644,-0.0728231\C,0,-1.67936543,1.16199939,-1.126
 58895\C,0,-2.05437552,0.33879559,-0.1548334\C,0,-1.96776697,-1.1523518
 1,-0.21888147\H,0,3.01189364,-0.20065139,-0.98089356\H,0,2.92864121,-1
 .44689265,0.29014173\H,0,3.48767645,0.18253454,0.68382338\H,0,0.701216

 Normal termination of Gaussian 16 at Wed Apr  9 18:44:00 2025.
 Gaussian 16:  ES64L-G16RevC.01  3-Jul-2019

 ----------------------------------------------------------------------
 #t hf aug-cc-pvdz iop(5/13=1,5/36=2,99/5=2) pseudo=read geom=check gue
 ss=(read,tcheck) scf=(maxcycle=1)
 ----------------------------------------------------------------------
 -----
 title
 -----
 Structure from the checkpoint file:  "Grambow2020_wb97xd3_007579_reverse_mol1.chk"
 Charge =  0 Multiplicity = 1

                         Standard orientation:
 ---------------------------------------------------------------------
 Center     Atomic      Atomic             Coordinates (Angstroms)
 Number     Number       Type             X           Y           Z
 ---------------------------------------------------------------------
      1          6           0       -2.638043    0.118008    0.762494
      2          6           0       -1.305559    0.053450    0.021681
      3          8           0       -1.382328   -1.016680   -0.911693
      4          6           0       -0.749230    1.337813   -0.355207
      5          6           0        2.075426    1.230036    0.144173
      6          6           0        2.150902   -0.019542   -0.297942
      7          6           0        1.993480   -1.237337    0.554886
      8          1           0       -2.581452    0.839450    1.574871
      9          1           0       -2.886966   -0.866030    1.158245
     10          1           0       -3.426799    0.420222    0.073498
     11          1           0       -0.523319   -0.165957    0.791607
     12          1           0       -0.677888   -0.906052   -1.553614
     13          1           0       -0.309467    1.268807   -1.368073
     14          1           0        1.901280    1.452431    1.191287
     15          1           0        2.199095    2.077517   -0.518134
     16          1           0        2.342193   -0.191522   -1.355376
     17          1           0        1.859624   -0.972541    1.604941
     18          1           0        2.869600   -1.885528    0.476679
     19          1           0        1.130862   -1.831928    0.237102
 ---------------------------------------------------------------------

 SCF Done:  E(RHF) =  -310.414030219     A.U. after    2 cycles

 The electronic state is 1-A.
 Alpha  occ. eigenvalues --  -21.06970 -11.45347 -11.42977 -11.40791 -11.39415
 Alpha  occ. eigenvalues --  -11.37345 -11.37032  -1.71838  -1.21166  -1.15923
 Alpha  occ. eigenvalues --   -1.00251  -0.97972  -0.79679  -0.78925  -0.65700
 Alpha  occ. eigenvalues --   -0.64959  -0.61247  -0.57480  -0.57359  -0.53310
 Alpha  occ. eigenvalues --   -0.51114  -0.50738  -0.49204  -0.47857  -0.44861
 Alpha  occ. eigenvalues --   -0.36330  -0.33684  -0.30358
 Alpha virt. eigenvalues --    0.03433   0.04492   0.04915   0.05384   0.05822
 Alpha virt. eigenvalues --    0.06019   0.06304   0.06694   0.07248   0.08052
 Alpha virt. eigenvalues --    0.08537   0.09043   0.10172   0.11749   0.11764

 Mulliken charges:
               1
     1  C   -4.267552
     2  C    1.317390
     3  O   -3.193488
     4  C   -2.162380
     5  C   -3.441689
     6  C   -0.577866
     7  C   -4.586581
     8  H    1.284689
     9  H    1.238862
    10  H    1.281870
    11  H    2.453927
    12  H    0.864285
    13  H    1.414801
    14  H    1.490771
    15  H    1.433781
    16  H    1.474721
    17  H    1.498958
    18  H    1.142538
    19  H    1.332962
 Sum of Mulliken charges =   0.00000

 Dipole moment (field-independent basis, Debye):
    X=              0.6824    Y=             -1.4891    Z=             -0.4588  Tot=              1.7011

 Test job not archived.
 1\1\GINC-SE116\SP\RHF\Aug-CC-pVDZ\C6H12O1\OHZDE\09-Apr-2025\0\\#t hf a
 ug-cc-pvdz iop(5/13=1,5/36=2,99/5=2) pseudo=read geom=check guess=(rea
 d,tcheck) scf=(maxcycle=1)\\title\\0,1\C,0,2.7931108,-0.38895735,0.068
 06413\C,0,1.36027232,0.02563629,0.38988606\O,0,1.07717288,-0.39609813,
 1.7181378\C,0,0.98429196,1.34687644,-0.0728231\C,0,-1.67936543,1.16199
 939,-1.12658895\C,0,-2.05437552,0.33879559,-0.1548334\C,0,-1.96776697,
 -1.15235181,-0.21888147\H,0,3.01189364,-0.20065139,-0.98089356\H,0,2.9
 2864121,-1.44689265,0.29014173\H,0,3.48767645,0.18253454,0.68382338\H,

 Normal termination of Gaussian 16 at Wed Apr  9 18:44:06 2025.
