 Gaussian 16, Revision C.01,

 ----------------------------------------------------------------------
 #t hf aug-cc-pvdz symm=none int=(grid=ultrafine) guess=(read,tcheck) s
 table=(opt,rrhf)
 ----------------------------------------------------------------------
 -----
 title
 -----
 Symbolic Z-matrix:
 Charge =  0 Multiplicity = 1

 SCF Done:  E(RHF) =  -360.852574333     A.U. after   14 cycles
 Normal termination of Gaussian 16 at Wed Apr  9 18:07:48 2025.
 Gaussian 16:  ES64L-G16RevC.01  3-Jul-2019

 ----------------------------------------------------------------------
 #t hf aug-cc-pvdz iop(5/13=1,5/36=2,99/5=2) pseudo=read geom=check gue
 ss=(read,tcheck) scf=(maxcycle=1)
 ----------------------------------------------------------------------
 -----
 title
 -----
 Structure from the checkpoint file:  "Grambow2020_wb97xd3_006602_forward_mol1.chk"
 Charge =  0 Multiplicity = 1

                         Standard orientation:
 ---------------------------------------------------------------------
 Center     Atomic      Atomic             Coordinates (Angstroms)
 Number     Number       Type             X           Y           Z
 ---------------------------------------------------------------------
      1          6           0       -2.748389   -0.347272    0.071338
      2          6           0       -1.364485    0.083007   -0.364657
      3          8           0       -1.139856    1.379302    0.156002
      4          6           0       -0.293948   -0.887332    0.131438
      5          7           0        1.029344   -0.459393   -0.251685
      6          6           0        2.000004   -0.046361    0.499611
      7          8           0        3.004312    0.236039   -0.237879
      8          1           0       -2.986911   -1.340587   -0.312948
      9          1           0       -3.494227    0.355848   -0.298473
     10          1           0       -2.812802   -0.368132    1.161232
     11          1           0       -1.316991    0.111271   -1.462382
     12          1           0       -0.288840    1.686187   -0.166112
     13          1           0       -0.362412   -0.957702    1.222341
     14          1           0       -0.484221   -1.880915   -0.283794
     15          1           0        2.062570   -0.181871   -1.053138
     16          1           0        2.003689    0.056667    1.583704
 ---------------------------------------------------------------------

 SCF Done:  E(RHF) =  -362.518063589     A.U. after    2 cycles

 The electronic state is 1-A.
 Alpha  occ. eigenvalues --  -21.06857 -21.04868 -15.73568 -11.48831 -11.46843
 Alpha  occ. eigenvalues --  -11.42275 -11.36952  -1.76324  -1.72261  -1.36754
 Alpha  occ. eigenvalues --   -1.15109  -1.01561  -0.87000  -0.84741  -0.71016
 Alpha  occ. eigenvalues --   -0.67639  -0.64541  -0.59532  -0.55333  -0.52834
 Alpha  occ. eigenvalues --   -0.51654  -0.49768  -0.48807  -0.46964  -0.41056
 Alpha  occ. eigenvalues --   -0.34014  -0.32778  -0.29181
 Alpha virt. eigenvalues --    0.03953   0.04839   0.05470   0.05782   0.05869
 Alpha virt. eigenvalues --    0.06438   0.06626   0.07113   0.08365   0.10707
 Alpha virt. eigenvalues --    0.12235   0.12828   0.13448   0.14075   0.14621

 Mulliken charges:
               1
     1  C   -3.734672
     2  C    0.910264
     3  O   -3.054256
     4  C   -2.074087
     5  N   -2.908851
     6  C    2.122004
     7  O   -2.508545
     8  H    1.226106
     9  H    1.149331
    10  H    1.191337
    11  H    1.783253
    12  H    0.791483
    13  H    1.725398
    14  H    1.380412
    15  H    0.413410
    16  H    1.587412
 Sum of Mulliken charges =   0.00000

 Dipole moment (field-independent basis, Debye):
    X=             -0.8104    Y=             -0.6420    Z=              0.7053  Tot=              1.2515

 Test job not archived.
 1\1\GINC-SE229\SP\RHF\Aug-CC-pVDZ\C4H9N1O2\OHZDE\09-Apr-2025\0\\#t hf
 aug-cc-pvdz iop(5/13=1,5/36=2,99/5=2) pseudo=read geom=check guess=(re
 ad,tcheck) scf=(maxcycle=1)\\title\\0,1\C,0,-2.20433646,-0.74578832,-0
 .10888769\C,0,-0.85576865,-0.22836151,-0.56061322\O,0,-0.9917945,1.160
 03874,-0.79675871\C,0,0.22455626,-0.4910538,0.4870556\N,0,1.50327851,0
 .03403596,0.07454227\C,0,2.18356633,1.01161975,0.58322608\O,0,3.265463
 69,1.15419849,-0.08118826\H,0,-2.16701177,-1.82055945,0.07743717\H,0,-
 2.9561693,-0.55238504,-0.87358031\H,0,-2.515738,-0.24148504,0.80826038

 Normal termination of Gaussian 16 at Wed Apr  9 18:07:53 2025.
