 Gaussian 16, Revision C.01,

 ----------------------------------------------------------------------
 #t hf aug-cc-pvdz symm=none int=(grid=ultrafine) guess=(read,tcheck) s
 table=(opt,rrhf)
 ----------------------------------------------------------------------
 -----
 title
 -----
 Symbolic Z-matrix:
 Charge =  0 Multiplicity = 1

 SCF Done:  E(RHF) =  -317.621487886     A.U. after   16 cycles
 Normal termination of Gaussian 16 at Wed Apr  9 18:59:32 2025.
 Gaussian 16:  ES64L-G16RevC.01  3-Jul-2019

 ----------------------------------------------------------------------
 #t hf aug-cc-pvdz iop(5/13=1,5/36=2,99/5=2) pseudo=read geom=check gue
 ss=(read,tcheck) scf=(maxcycle=1)
 ----------------------------------------------------------------------
 -----
 title
 -----
 Structure from the checkpoint file:  "Grambow2020_wb97xd3_007981_reverse_mol2.chk"
 Charge =  0 Multiplicity = 1

                         Standard orientation:
 ---------------------------------------------------------------------
 Center     Atomic      Atomic             Coordinates (Angstroms)
 Number     Number       Type             X           Y           Z
 ---------------------------------------------------------------------
      1          7           0       -1.683657   -0.000809   -0.751836
      2          6           0        1.250011    0.001957   -0.804869
      3          7           0        1.141719    1.120939   -0.088451
      4          6           0        0.019999    1.191789    0.535284
      5          6           0       -0.919102   -0.002170    0.489115
      6          6           0        0.023650   -1.193708    0.533274
      7          7           0        1.145235   -1.117579   -0.089958
      8          1           0       -2.267830   -0.821342   -0.830475
      9          1           0       -2.264216    0.822402   -0.830503
     10          1           0       -0.206144    2.071356    1.128925
     11          1           0       -1.533875   -0.003880    1.399208
     12          1           0       -0.198367   -2.073593    1.127730
 ---------------------------------------------------------------------

 SCF Done:  E(RHF) =  -319.063028217     A.U. after    2 cycles

 The electronic state is 1-A.
 Alpha  occ. eigenvalues --  -15.76887 -15.76880 -15.75847 -11.48748 -11.46523
 Alpha  occ. eigenvalues --  -11.42627 -11.41083  -1.55810  -1.34802  -1.32620
 Alpha  occ. eigenvalues --   -1.09658  -0.91570  -0.90031  -0.73505  -0.69482
 Alpha  occ. eigenvalues --   -0.65103  -0.64260  -0.60663  -0.56851  -0.54088
 Alpha  occ. eigenvalues --   -0.47450  -0.40890  -0.38130  -0.35834  -0.30299
 Alpha virt. eigenvalues --    0.02868   0.04515   0.04842   0.04953   0.06093
 Alpha virt. eigenvalues --    0.06981   0.10482   0.10808   0.10815   0.11328
 Alpha virt. eigenvalues --    0.12428   0.13437   0.13794   0.14108   0.14189

 Mulliken charges:
               1
     1  N   -2.350656
     2  C    0.663485
     3  N   -2.450584
     4  C    0.885741
     5  C   -0.999456
     6  C    0.880958
     7  N   -2.450169
     8  H    0.621182
     9  H    0.621119
    10  H    1.492957
    11  H    1.591752
    12  H    1.493670
 Sum of Mulliken charges =   0.00000

 Dipole moment (field-independent basis, Debye):
    X=             -3.7706    Y=             -0.0060    Z=              2.6996  Tot=              4.6374

 Test job not archived.
 1\1\GINC-SE340\SP\RHF\Aug-CC-pVDZ\C4H5N3\OHZDE\09-Apr-2025\0\\#t hf au
 g-cc-pvdz iop(5/13=1,5/36=2,99/5=2) pseudo=read geom=check guess=(read
 ,tcheck) scf=(maxcycle=1)\\title\\0,1\N,0,1.25455658,0.0197256,0.90206
 739\C,0,0.33160955,-0.34220621,-1.85952626\N,0,-0.41615249,-1.32292012
 ,-1.35340987\C,0,-0.63657645,-1.16664975,-0.09670236\C,0,-0.16297866,0
 .11144029,0.57543798\C,0,-0.39814692,1.17496077,-0.48480433\N,0,-0.192
 79991,0.87446095,-1.7175648\H,0,1.60375084,0.88386474,1.29199538\H,0,1
 .43875365,-0.73058116,1.55324\H,0,-1.20622565,-1.91616559,0.44266309\H

 Normal termination of Gaussian 16 at Wed Apr  9 18:59:36 2025.
