 Gaussian 16, Revision C.01,

 ----------------------------------------------------------------------
 #t hf aug-cc-pvdz symm=none int=(grid=ultrafine) guess=(read,tcheck) s
 table=(opt,rrhf)
 ----------------------------------------------------------------------
 -----
 title
 -----
 Symbolic Z-matrix:
 Charge =  0 Multiplicity = 1

 SCF Done:  E(RHF) =  -358.449942919     A.U. after   16 cycles
 Normal termination of Gaussian 16 at Wed Apr  9 03:34:11 2025.
 Gaussian 16:  ES64L-G16RevC.01  3-Jul-2019

 ----------------------------------------------------------------------
 #t hf aug-cc-pvdz iop(5/13=1,5/36=2,99/5=2) pseudo=read geom=check gue
 ss=(read,tcheck) scf=(maxcycle=1)
 ----------------------------------------------------------------------
 -----
 title
 -----
 Structure from the checkpoint file:  "Grambow2020_wb97xd3_007082_forward_mol1.chk"
 Charge =  0 Multiplicity = 1

                         Standard orientation:
 ---------------------------------------------------------------------
 Center     Atomic      Atomic             Coordinates (Angstroms)
 Number     Number       Type             X           Y           Z
 ---------------------------------------------------------------------
      1          8           0       -2.157104   -0.345778   -0.010609
      2          6           0       -0.994391   -0.031684   -0.062766
      3          7           0       -0.451554    1.182220    0.216469
      4          6           0        0.968855    1.274093   -0.044882
      5          6           0        1.386556   -0.076298   -0.558763
      6          8           0        0.945147   -1.208953    0.707624
      7          6           0        0.174046   -0.917275   -0.470115
      8          1           0       -1.007446    1.920111    0.611177
      9          1           0        1.549498    1.565163    0.833351
     10          1           0        1.193798    1.990984   -0.843764
     11          1           0        1.951223   -1.041337    0.237205
     12          1           0       -0.040942   -1.765618   -1.110224
 ---------------------------------------------------------------------

 SCF Done:  E(RHF) =  -360.034900070     A.U. after    2 cycles

 The electronic state is 1-A.
 Alpha  occ. eigenvalues --  -21.11833 -21.03942 -15.77282 -11.52837 -11.48722
 Alpha  occ. eigenvalues --  -11.46483 -11.41848  -1.82183  -1.70787  -1.43642
 Alpha  occ. eigenvalues --   -1.10701  -1.05541  -0.87098  -0.83329  -0.70118
 Alpha  occ. eigenvalues --   -0.67059  -0.64126  -0.60600  -0.55899  -0.51936
 Alpha  occ. eigenvalues --   -0.49780  -0.43462  -0.39285  -0.34261  -0.32319
 Alpha  occ. eigenvalues --   -0.28759
 Alpha virt. eigenvalues --    0.03407   0.05140   0.05421   0.05922   0.06271
 Alpha virt. eigenvalues --    0.07958   0.09950   0.10410   0.11996   0.12930
 Alpha virt. eigenvalues --    0.13642   0.13950   0.14184   0.14705   0.15834

 Mulliken charges:
               1
     1  O   -3.394865
     2  C    5.456163
     3  N   -2.508756
     4  C   -2.141902
     5  C   -1.180282
     6  O   -2.249867
     7  C   -0.536011
     8  H    0.787760
     9  H    1.470283
    10  H    1.455157
    11  H    1.285081
    12  H    1.557240
 Sum of Mulliken charges =   0.00000

 Dipole moment (field-independent basis, Debye):
    X=              1.0141    Y=              0.9312    Z=              1.4147  Tot=              1.9740

 Test job not archived.
 1\1\GINC-SE187\SP\RHF\Aug-CC-pVDZ\C4H5N1O2\OHZDE\09-Apr-2025\0\\#t hf
 aug-cc-pvdz iop(5/13=1,5/36=2,99/5=2) pseudo=read geom=check guess=(re
 ad,tcheck) scf=(maxcycle=1)\\title\\0,1\O,0,0.89527365,2.22852552,0.76
 088867\C,0,0.4993507,1.16694745,0.34909338\N,0,1.24523215,0.10788761,-
 0.06110288\C,0,0.47383224,-0.98941815,-0.60439647\C,0,-0.96731583,-0.5
 6698625,-0.52226935\O,0,-1.25583395,-0.23802425,1.17773872\C,0,-0.9499
 1527,0.73956394,0.16903793\H,0,2.24293479,0.10010233,0.05646535\H,0,0.
 64423519,-1.93409956,-0.08314715\H,0,0.68665346,-1.15411265,-1.6675657

 Normal termination of Gaussian 16 at Wed Apr  9 03:34:16 2025.
