 Gaussian 16, Revision C.01,

 ----------------------------------------------------------------------
 #t hf aug-cc-pvdz symm=none int=(grid=ultrafine) guess=(read,tcheck) s
 table=(opt,rrhf)
 ----------------------------------------------------------------------
 -----
 title
 -----
 Symbolic Z-matrix:
 Charge =  0 Multiplicity = 1

 SCF Done:  E(RHF) =  -268.682774604     A.U. after   16 cycles
 Normal termination of Gaussian 16 at Wed Apr  9 17:05:22 2025.
 Gaussian 16:  ES64L-G16RevC.01  3-Jul-2019

 ----------------------------------------------------------------------
 #t hf aug-cc-pvdz iop(5/13=1,5/36=2,99/5=2) pseudo=read geom=check gue
 ss=(read,tcheck) scf=(maxcycle=1)
 ----------------------------------------------------------------------
 -----
 title
 -----
 Structure from the checkpoint file:  "Grambow2020_b97d3_007037_forward_mol1.chk"
 Charge =  0 Multiplicity = 1

                         Standard orientation:
 ---------------------------------------------------------------------
 Center     Atomic      Atomic             Coordinates (Angstroms)
 Number     Number       Type             X           Y           Z
 ---------------------------------------------------------------------
      1          6           0        2.263201   -0.232162   -0.008677
      2          6           0        0.762573   -0.206105   -0.002704
      3          6           0       -0.123773   -1.192574    0.000720
      4          6           0       -1.635841   -0.800657    0.034436
      5          6           0       -1.679499    0.662622   -0.033496
      6          8           0        0.244552    1.211280   -0.082855
      7          1           0        2.688226    0.262260    0.882192
      8          1           0        2.607586   -1.271019   -0.015727
      9          1           0        2.669896    0.281576   -0.893035
     10          1           0       -2.137250   -1.263792   -0.826779
     11          1           0       -2.087087   -1.196167    0.954972
     12          1           0       -1.835543    1.167457   -0.984258
     13          1           0       -1.879367    1.262848    0.854545
     14          1           0        0.497159    1.679858    0.749265
 ---------------------------------------------------------------------

 SCF Done:  E(RHF) =  -269.957589804     A.U. after    2 cycles

 The electronic state is 1-A.
 Alpha  occ. eigenvalues --  -21.10379 -11.52928 -11.41316 -11.40287 -11.36496
 Alpha  occ. eigenvalues --  -11.30911  -1.72811  -1.21336  -1.10298  -0.96063
 Alpha  occ. eigenvalues --   -0.87704  -0.69395  -0.68244  -0.62589  -0.58922
 Alpha  occ. eigenvalues --   -0.55610  -0.54386  -0.52922  -0.46025  -0.44586
 Alpha  occ. eigenvalues --   -0.40123  -0.29143  -0.23870
 Alpha virt. eigenvalues --    0.02667   0.03943   0.04710   0.05295   0.06069
 Alpha virt. eigenvalues --    0.06564   0.07521   0.07870   0.08697   0.10707
 Alpha virt. eigenvalues --    0.11631   0.12315   0.13244   0.14382   0.15022

 Mulliken charges:
               1
     1  C   -4.136698
     2  C    4.370544
     3  C   -1.614818
     4  C   -2.995470
     5  C   -2.719768
     6  O   -2.677996
     7  H    1.173886
     8  H    1.210019
     9  H    1.201058
    10  H    1.344609
    11  H    1.332354
    12  H    1.368742
    13  H    1.411622
    14  H    0.731916
 Sum of Mulliken charges =  -0.00000

 Dipole moment (field-independent basis, Debye):
    X=             -2.4861    Y=              5.2716    Z=              0.4154  Tot=              5.8431

 Test job not archived.
 1\1\GINC-SE114\SP\RHF\Aug-CC-pVDZ\C5H8O1\OHZDE\09-Apr-2025\0\\#t hf au
 g-cc-pvdz iop(5/13=1,5/36=2,99/5=2) pseudo=read geom=check guess=(read
 ,tcheck) scf=(maxcycle=1)\\title\\0,1\C,0,2.18131908,0.59247028,-0.041
 41837\C,0,0.76032078,0.1160635,-0.12142104\C,0,0.21245319,-0.87087248,
 -0.81751013\C,0,-1.32120663,-1.11082477,-0.64031492\C,0,-1.79921317,-0
 .05172165,0.25272284\O,0,-0.15344679,0.99533252,0.70056644\H,0,2.58443
 472,0.5185086,0.98365392\H,0,2.80698071,-0.0220765,-0.69621076\H,0,2.2
 6990537,1.64451303,-0.35250676\H,0,-1.80054794,-1.05850221,-1.62778124

 Normal termination of Gaussian 16 at Wed Apr  9 17:05:26 2025.
