 Gaussian 16, Revision C.01,

 ----------------------------------------------------------------------
 #t hf aug-cc-pvdz symm=none int=(grid=ultrafine) guess=(read,tcheck) s
 table=(opt,rrhf)
 ----------------------------------------------------------------------
 -----
 title
 -----
 Symbolic Z-matrix:
 Charge =  0 Multiplicity = 1

 SCF Done:  E(RHF) =  -260.502005011     A.U. after   16 cycles
 Normal termination of Gaussian 16 at Wed Apr  9 17:40:07 2025.
 Gaussian 16:  ES64L-G16RevC.01  3-Jul-2019

 ----------------------------------------------------------------------
 #t hf aug-cc-pvdz iop(5/13=1,5/36=2,99/5=2) pseudo=read geom=check gue
 ss=(read,tcheck) scf=(maxcycle=1)
 ----------------------------------------------------------------------
 -----
 title
 -----
 Structure from the checkpoint file:  "Grambow2020_wb97xd3_006039_reverse_mol1.chk"
 Charge =  0 Multiplicity = 1

                         Standard orientation:
 ---------------------------------------------------------------------
 Center     Atomic      Atomic             Coordinates (Angstroms)
 Number     Number       Type             X           Y           Z
 ---------------------------------------------------------------------
      1          8           0       -2.120459   -0.182701   -0.002193
      2          6           0       -1.057053    0.517994    0.001115
      3          6           0        0.005879   -0.364486    0.003389
      4          7           0        1.271952   -0.068497    0.000779
      5          7           0        2.379370    0.074723   -0.002203
      6          1           0       -1.095370    1.606831    0.001035
      7          1           0       -1.193170   -1.109851   -0.000541
 ---------------------------------------------------------------------

 SCF Done:  E(RHF) =  -261.665136806     A.U. after    2 cycles

 The electronic state is 1-A.
 Alpha  occ. eigenvalues --  -21.07214 -15.96597 -15.88700 -11.50825 -11.40470
 Alpha  occ. eigenvalues --   -1.76069  -1.63984  -1.19691  -0.93335  -0.82219
 Alpha  occ. eigenvalues --   -0.67130  -0.66611  -0.65684  -0.53497  -0.50079
 Alpha  occ. eigenvalues --   -0.45617  -0.33499  -0.28932
 Alpha virt. eigenvalues --    0.03656   0.06442   0.08505   0.08704   0.09066
 Alpha virt. eigenvalues --    0.10525   0.10834   0.11520   0.12678   0.13556
 Alpha virt. eigenvalues --    0.15041   0.17613   0.19632   0.19735   0.22167

 Mulliken charges:
               1
     1  O   -2.582579
     2  C    0.990070
     3  C    0.604712
     4  N    0.527187
     5  N   -1.787835
     6  H    1.132214
     7  H    1.116232
 Sum of Mulliken charges =  -0.00000

 Dipole moment (field-independent basis, Debye):
    X=             -0.5007    Y=              1.5298    Z=             -0.0058  Tot=              1.6097

 Test job not archived.
 1\1\GINC-SE226\SP\RHF\Aug-CC-pVDZ\C2H2N2O1\OHZDE\09-Apr-2025\0\\#t hf
 aug-cc-pvdz iop(5/13=1,5/36=2,99/5=2) pseudo=read geom=check guess=(re
 ad,tcheck) scf=(maxcycle=1)\\title\\0,1\O,0,-0.87092392,1.38922919,-0.
 75356974\C,0,-0.55930202,0.71940547,0.28375613\C,0,0.28522697,-0.29265
 486,-0.12989359\N,0,0.84237757,-1.20290121,0.61279909\N,0,1.36915677,-
 2.02374186,1.15650887\H,0,-0.9451681,0.98504345,1.26741171\H,0,-0.0810
 2027,0.47242082,-1.25853247\\Version=ES64L-G16RevC.01\State=1-A\HF=-26
 1.6651368\RMSD=3.452e-01\Dipole=-0.3024503,0.2837126,0.4786472\Quadrup

 Normal termination of Gaussian 16 at Wed Apr  9 17:40:09 2025.
