 Gaussian 16, Revision C.01,

 ----------------------------------------------------------------------
 #t hf aug-cc-pvdz symm=none int=(grid=ultrafine) guess=(read,tcheck) s
 table=(opt,rrhf)
 ----------------------------------------------------------------------
 -----
 title
 -----
 Symbolic Z-matrix:
 Charge =  0 Multiplicity = 1

 SCF Done:  E(RHF) =  -283.498174352     A.U. after   16 cycles
 Normal termination of Gaussian 16 at Wed Apr  9 03:09:45 2025.
 Gaussian 16:  ES64L-G16RevC.01  3-Jul-2019

 ----------------------------------------------------------------------
 #t hf aug-cc-pvdz iop(5/13=1,5/36=2,99/5=2) pseudo=read geom=check gue
 ss=(read,tcheck) scf=(maxcycle=1)
 ----------------------------------------------------------------------
 -----
 title
 -----
 Structure from the checkpoint file:  "Grambow2020_b97d3_006667_reverse_mol1.chk"
 Charge =  0 Multiplicity = 1

                         Standard orientation:
 ---------------------------------------------------------------------
 Center     Atomic      Atomic             Coordinates (Angstroms)
 Number     Number       Type             X           Y           Z
 ---------------------------------------------------------------------
      1          7           0        1.859781   -1.139295    0.097277
      2          6           0        1.795954    0.073520    0.062130
      3          6           0        1.155743    1.264832   -0.059034
      4          6           0       -0.664358   -0.372476   -0.157671
      5          6           0       -1.806253    0.037809    0.714057
      6          8           0       -1.810083   -0.097258   -0.758928
      7          1           0        1.196514    1.792098   -1.012461
      8          1           0        0.975015    1.867710    0.831666
      9          1           0        0.695112   -1.280025   -0.074792
     10          1           0       -2.405315   -0.716100    1.225951
     11          1           0       -1.885645    1.067338    1.063228
 ---------------------------------------------------------------------

 SCF Done:  E(RHF) =  -284.798655091     A.U. after    2 cycles

 The electronic state is 1-A.
 Alpha  occ. eigenvalues --  -21.14234 -15.75089 -11.50457 -11.46286 -11.45269
 Alpha  occ. eigenvalues --  -11.40319  -1.84797  -1.35881  -1.07066  -1.00295
 Alpha  occ. eigenvalues --   -0.83390  -0.71558  -0.68394  -0.67324  -0.61798
 Alpha  occ. eigenvalues --   -0.57361  -0.51740  -0.44036  -0.43715  -0.42599
 Alpha  occ. eigenvalues --   -0.35190  -0.32755
 Alpha virt. eigenvalues --    0.03258   0.05064   0.05215   0.06402   0.07170
 Alpha virt. eigenvalues --    0.08379   0.09541   0.10793   0.11340   0.11452
 Alpha virt. eigenvalues --    0.12598   0.13825   0.14164   0.14332   0.15467

 Mulliken charges:
               1
     1  N   -2.695582
     2  C    1.643750
     3  C   -2.522960
     4  C    0.817011
     5  C   -1.661079
     6  O   -2.416351
     7  H    1.332056
     8  H    1.362997
     9  H    1.174033
    10  H    1.472170
    11  H    1.493954
 Sum of Mulliken charges =  -0.00000

 Dipole moment (field-independent basis, Debye):
    X=             -3.2815    Y=              1.6532    Z=             -0.0550  Tot=              3.6748

 Test job not archived.
 1\1\GINC-SE120\SP\RHF\Aug-CC-pVDZ\C4H5N1O1\OHZDE\09-Apr-2025\0\\#t hf
 aug-cc-pvdz iop(5/13=1,5/36=2,99/5=2) pseudo=read geom=check guess=(re
 ad,tcheck) scf=(maxcycle=1)\\title\\0,1\N,0,1.99944978,0.34165645,1.24
 163015\C,0,1.82007708,-0.42538655,0.31659022\C,0,1.06409608,-1.1100928
 8,-0.5797612\C,0,-0.57607415,0.25686043,0.62213496\C,0,-1.52506536,0.9
 1667558,-0.32455792\O,0,-1.84768308,-0.0991025,0.70113892\H,0,0.841713
 01,-2.16050413,-0.39034573\H,0,1.03451105,-0.77824069,-1.6182544\H,0,0
 .8435054,0.56993442,1.37410025\H,0,-1.92312221,1.90734793,-0.10227672\

 Normal termination of Gaussian 16 at Wed Apr  9 03:09:49 2025.
