 Gaussian 16, Revision C.01,

 ----------------------------------------------------------------------
 #t hf aug-cc-pvdz symm=none int=(grid=ultrafine) guess=(read,tcheck) s
 table=(opt,rrhf)
 ----------------------------------------------------------------------
 -----
 title
 -----
 Symbolic Z-matrix:
 Charge =  0 Multiplicity = 1

 SCF Done:  E(RHF) =  -232.996088929     A.U. after   13 cycles
 Normal termination of Gaussian 16 at Wed Apr  9 03:15:06 2025.
 Gaussian 16:  ES64L-G16RevC.01  3-Jul-2019

 ----------------------------------------------------------------------
 #t hf aug-cc-pvdz iop(5/13=1,5/36=2,99/5=2) pseudo=read geom=check gue
 ss=(read,tcheck) scf=(maxcycle=1)
 ----------------------------------------------------------------------
 -----
 title
 -----
 Structure from the checkpoint file:  "Grambow2020_b97d3_006954_reverse_mol2.chk"
 Charge =  0 Multiplicity = 1

                         Standard orientation:
 ---------------------------------------------------------------------
 Center     Atomic      Atomic             Coordinates (Angstroms)
 Number     Number       Type             X           Y           Z
 ---------------------------------------------------------------------
      1          6           0        1.039085    1.504544   -0.203801
      2          6           0        1.122010    0.132358    0.435171
      3          6           0        1.174077   -1.103038   -0.436784
      4          6           0       -0.036215   -0.848169    0.440163
      5          6           0       -1.372879   -0.565491   -0.162433
      6          6           0       -2.097242    0.545935    0.040264
      7          1           0        0.617609    2.247775    0.489312
      8          1           0        0.406471    1.486996   -1.099726
      9          1           0        2.041908    1.847892   -0.498970
     10          1           0        1.746224    0.096577    1.331206
     11          1           0        1.048120   -0.947206   -1.509489
     12          1           0        1.850133   -1.916697   -0.173317
     13          1           0       -0.089585   -1.487953    1.326618
     14          1           0       -1.786957   -1.360727   -0.792113
     15          1           0       -3.079965    0.677717   -0.414579
     16          1           0       -1.726984    1.358786    0.665583
 ---------------------------------------------------------------------

 SCF Done:  E(RHF) =  -234.174574271     A.U. after    2 cycles

 The electronic state is 1-A.
 Alpha  occ. eigenvalues --  -11.43294 -11.42234 -11.40151 -11.37970 -11.37648
 Alpha  occ. eigenvalues --  -11.35326  -1.32966  -1.12342  -1.03598  -0.88082
 Alpha  occ. eigenvalues --   -0.82462  -0.74814  -0.67905  -0.62477  -0.57707
 Alpha  occ. eigenvalues --   -0.55992  -0.53568  -0.52380  -0.47868  -0.45884
 Alpha  occ. eigenvalues --   -0.39252  -0.36844  -0.33212
 Alpha virt. eigenvalues --    0.04010   0.05411   0.05563   0.05635   0.05882
 Alpha virt. eigenvalues --    0.06049   0.06293   0.06566   0.07598   0.08940
 Alpha virt. eigenvalues --    0.11426   0.11990   0.13484   0.13950   0.14487

 Mulliken charges:
               1
     1  C   -4.654001
     2  C   -0.557086
     3  C   -2.672984
     4  C   -0.914418
     5  C   -1.267479
     6  C   -3.145945
     7  H    1.225752
     8  H    1.500610
     9  H    1.068698
    10  H    1.301239
    11  H    1.492762
    12  H    1.189797
    13  H    1.229829
    14  H    1.286047
    15  H    1.307008
    16  H    1.610174
 Sum of Mulliken charges =   0.00000

 Dipole moment (field-independent basis, Debye):
    X=              0.2575    Y=             -0.0868    Z=              0.0862  Tot=              0.2851

 Test job not archived.
 1\1\GINC-SE457\SP\RHF\Aug-CC-pVDZ\C6H10\OHZDE\09-Apr-2025\0\\#t hf aug
 -cc-pvdz iop(5/13=1,5/36=2,99/5=2) pseudo=read geom=check guess=(read,
 tcheck) scf=(maxcycle=1)\\title\\0,1\C,0,1.69077684,-0.31296299,0.0265
 8084\C,0,0.39707889,-1.06819724,0.25900635\C,0,-0.5391568,-1.33358358,
 -0.8995503\C,0,-0.9664914,-0.40335854,0.21887137\C,0,-1.17897915,1.052
 70077,-0.03497981\C,0,-0.5267176,2.05183351,0.57930483\H,0,2.06178602,
 0.14730477,0.95445239\H,0,1.55571216,0.48667483,-0.71201817\H,0,2.4683
 6721,-0.99628458,-0.34636754\H,0,0.48102859,-1.88012375,0.98531946\H,0

 Normal termination of Gaussian 16 at Wed Apr  9 03:15:11 2025.
