 Gaussian 16, Revision C.01,

 ----------------------------------------------------------------------
 #t hf aug-cc-pvdz symm=none int=(grid=ultrafine) guess=(read,tcheck) s
 table=(opt,rrhf)
 ----------------------------------------------------------------------
 -----
 title
 -----
 Symbolic Z-matrix:
 Charge =  0 Multiplicity = 1

 SCF Done:  E(RHF) =  -305.663006477     A.U. after   15 cycles
 Normal termination of Gaussian 16 at Wed Apr  9 03:15:34 2025.
 Gaussian 16:  ES64L-G16RevC.01  3-Jul-2019

 ----------------------------------------------------------------------
 #t hf aug-cc-pvdz iop(5/13=1,5/36=2,99/5=2) pseudo=read geom=check gue
 ss=(read,tcheck) scf=(maxcycle=1)
 ----------------------------------------------------------------------
 -----
 title
 -----
 Structure from the checkpoint file:  "Grambow2020_b97d3_006965_forward_mol1.chk"
 Charge =  0 Multiplicity = 1

                         Standard orientation:
 ---------------------------------------------------------------------
 Center     Atomic      Atomic             Coordinates (Angstroms)
 Number     Number       Type             X           Y           Z
 ---------------------------------------------------------------------
      1          8           0        1.822471   -0.973859   -0.175426
      2          6           0        1.677141    0.377446    0.236881
      3          6           0        0.406898    1.038133   -0.329615
      4          6           0       -0.848537    0.524279    0.331887
      5          6           0       -1.945612   -0.063095   -0.454404
      6          8           0       -1.123990   -0.939228    0.183248
      7          1           0        0.966101   -1.414834   -0.020650
      8          1           0        1.674740    0.476221    1.340886
      9          1           0        2.563953    0.906272   -0.137472
     10          1           0        0.444977    2.127128   -0.165610
     11          1           0        0.358830    0.864266   -1.413294
     12          1           0       -1.023017    0.836952    1.363392
     13          1           0       -3.098993   -0.036291   -0.392314
     14          1           0       -3.213775    0.284413    0.653996
 ---------------------------------------------------------------------

 SCF Done:  E(RHF) =  -307.058157888     A.U. after    2 cycles

 The electronic state is 1-A.
 Alpha  occ. eigenvalues --  -21.10919 -21.06139 -11.52121 -11.46113 -11.44682
 Alpha  occ. eigenvalues --  -11.39996  -1.82394  -1.70061  -1.17935  -0.98857
 Alpha  occ. eigenvalues --   -0.92096  -0.84563  -0.73028  -0.66181  -0.62752
 Alpha  occ. eigenvalues --   -0.58235  -0.54142  -0.53511  -0.49138  -0.44204
 Alpha  occ. eigenvalues --   -0.39669  -0.38221  -0.31785  -0.30383
 Alpha virt. eigenvalues --    0.02990   0.04648   0.04923   0.05419   0.06035
 Alpha virt. eigenvalues --    0.06523   0.07836   0.08687   0.09805   0.10176
 Alpha virt. eigenvalues --    0.10861   0.12230   0.13374   0.14859   0.15180

 Mulliken charges:
               1
     1  O   -2.671339
     2  C   -0.821176
     3  C   -3.355443
     4  C    0.923796
     5  C   -0.916494
     6  O   -2.261165
     7  H    0.997105
     8  H    1.398198
     9  H    1.257886
    10  H    1.345890
    11  H    1.530602
    12  H    1.410711
    13  H    1.153776
    14  H    0.007653
 Sum of Mulliken charges =  -0.00000

 Dipole moment (field-independent basis, Debye):
    X=              0.6979    Y=              0.2248    Z=              0.3904  Tot=              0.8307

 Test job not archived.
 1\1\GINC-SE102\SP\RHF\Aug-CC-pVDZ\C4H8O2\OHZDE\09-Apr-2025\0\\#t hf au
 g-cc-pvdz iop(5/13=1,5/36=2,99/5=2) pseudo=read geom=check guess=(read
 ,tcheck) scf=(maxcycle=1)\\title\\0,1\O,0,2.02579853,0.96929917,0.4455
 2351\C,0,1.74404753,-0.26841887,-0.19151033\C,0,0.38644183,-0.8589579,
 0.23170952\C,0,-0.77652975,-0.0980907,-0.35678473\C,0,-1.8291123,0.476
 55698,0.49684567\O,0,-0.88977614,1.34281399,0.03153142\H,0,1.23145834,
 1.52784075,0.35150966\H,0,1.77253468,-0.18222194,-1.29620356\H,0,2.550
 28625,-0.95289646,0.10463519\H,0,0.30705486,-1.90258546,-0.11296165\H,

 Normal termination of Gaussian 16 at Wed Apr  9 03:15:38 2025.
