 Gaussian 16, Revision C.01,

 ----------------------------------------------------------------------
 #t hf aug-cc-pvdz symm=none int=(grid=ultrafine) guess=(read,tcheck) s
 table=(opt,rrhf)
 ----------------------------------------------------------------------
 -----
 title
 -----
 Symbolic Z-matrix:
 Charge =  0 Multiplicity = 1

 SCF Done:  E(RHF) =  -281.659561675     A.U. after   14 cycles
 Normal termination of Gaussian 16 at Wed Apr  9 03:07:36 2025.
 Gaussian 16:  ES64L-G16RevC.01  3-Jul-2019

 ----------------------------------------------------------------------
 #t hf aug-cc-pvdz iop(5/13=1,5/36=2,99/5=2) pseudo=read geom=check gue
 ss=(read,tcheck) scf=(maxcycle=1)
 ----------------------------------------------------------------------
 -----
 title
 -----
 Structure from the checkpoint file:  "Grambow2020_b97d3_006582_reverse_mol2.chk"
 Charge =  0 Multiplicity = 1

                         Standard orientation:
 ---------------------------------------------------------------------
 Center     Atomic      Atomic             Coordinates (Angstroms)
 Number     Number       Type             X           Y           Z
 ---------------------------------------------------------------------
      1          8           0        2.300636   -0.275432   -0.000662
      2          6           0        1.269878    0.367002    0.000043
      3          7           0       -0.006445   -0.218484    0.001230
      4          6           0       -1.125840    0.559296    0.000050
      5          8           0       -2.177170   -0.289672   -0.000602
      6          1           0        1.199013    1.470970    0.000258
      7          1           0       -0.029932   -1.249084    0.001186
      8          1           0       -2.975919    0.270551   -0.000501
 ---------------------------------------------------------------------

 SCF Done:  E(RHF) =  -282.843372822     A.U. after    2 cycles

 The electronic state is 1-A.
 Alpha  occ. eigenvalues --  -21.14306 -21.06877 -15.80558 -11.50699 -11.45221
 Alpha  occ. eigenvalues --   -1.79585  -1.72441  -1.39969  -0.93398  -0.85928
 Alpha  occ. eigenvalues --   -0.67728  -0.63691  -0.58505  -0.58468  -0.52227
 Alpha  occ. eigenvalues --   -0.46677  -0.36082  -0.35417  -0.32137
 Alpha virt. eigenvalues --    0.03640   0.05274   0.06199   0.09408   0.10062
 Alpha virt. eigenvalues --    0.11654   0.12294   0.12403   0.14195   0.14805
 Alpha virt. eigenvalues --    0.16699   0.17302   0.18896   0.19262   0.20613

 Mulliken charges:
               1
     1  O   -2.542686
     2  C    1.950539
     3  N   -1.868954
     4  C    1.265326
     5  O   -2.196960
     6  H    1.680388
     7  H    0.628574
     8  H    1.083772
 Sum of Mulliken charges =  -0.00000

 Dipole moment (field-independent basis, Debye):
    X=             -1.9641    Y=             -1.3943    Z=              0.0005  Tot=              2.4087

 Test job not archived.
 1\1\GINC-SE114\SP\RHF\Aug-CC-pVDZ\C2H3N1O2\OHZDE\09-Apr-2025\0\\#t hf
 aug-cc-pvdz iop(5/13=1,5/36=2,99/5=2) pseudo=read geom=check guess=(re
 ad,tcheck) scf=(maxcycle=1)\\title\\0,1\O,0,-2.47589818,0.39414869,0.2
 0227681\C,0,-1.45951709,-0.07267747,-0.27124924\N,0,-0.17676025,0.1968
 4893,0.23242339\C,0,0.92575926,-0.35776732,-0.34623026\O,0,1.98895175,
 0.09065004,0.35703717\H,0,-1.4082703,-0.75554185,-1.14006317\H,0,-0.13
 523519,0.82795743,1.04646551\H,0,2.775497,-0.30905446,-0.0594162\\Vers
 ion=ES64L-G16RevC.01\State=1-A\HF=-282.8433728\RMSD=5.110e-02\Dipole=0

 Normal termination of Gaussian 16 at Wed Apr  9 03:07:38 2025.
