 Gaussian 16, Revision C.01,

 ----------------------------------------------------------------------
 #t hf aug-cc-pvdz symm=none int=(grid=ultrafine) guess=(read,tcheck) s
 table=(opt,rrhf)
 ----------------------------------------------------------------------
 -----
 title
 -----
 Symbolic Z-matrix:
 Charge =  0 Multiplicity = 1

 SCF Done:  E(RHF) =  -344.888047409     A.U. after   15 cycles

 1\1\GINC-SE150\Stability\RHF\Aug-CC-pVDZ\C5H10O2\OHZDE\09-Apr-2025\0\\
 #t hf aug-cc-pvdz symm=none int=(grid=ultrafine) guess=(read,tcheck) s
 table=(opt,rrhf)\\title\\0,1\C,0,1.82590533,-0.15654295,-0.34783708\C,
 0,0.98345008,-0.8609711,0.71697933\O,0,-0.25441363,2.73960055,-0.75091
 451\C,0,-1.22431451,2.05325553,-0.91003884\C,0,-1.44084752,-0.39663105
 ,1.16851576\C,0,-0.48292626,-0.90081509,0.3987822\O,0,-0.82307907,-1.5
 0053658,-0.77931216\H,0,1.4913421,0.87049775,-0.50063237\H,0,1.7875429
 5,-0.66660084,-1.31440202\H,0,2.87356719,-0.13364322,-0.04592272\H,0,1

 Normal termination of Gaussian 16 at Wed Apr  9 03:39:41 2025.
 Gaussian 16:  ES64L-G16RevC.01  3-Jul-2019

 ----------------------------------------------------------------------
 #t hf aug-cc-pvdz iop(5/13=1,5/36=2,99/5=2) pseudo=read geom=check gue
 ss=(read,tcheck) scf=(maxcycle=1)
 ----------------------------------------------------------------------
 -----
 title
 -----
 Structure from the checkpoint file:  "Grambow2020_wb97xd3_007405_reverse_mol2.chk"
 Charge =  0 Multiplicity = 1

                         Standard orientation:
 ---------------------------------------------------------------------
 Center     Atomic      Atomic             Coordinates (Angstroms)
 Number     Number       Type             X           Y           Z
 ---------------------------------------------------------------------
      1          6           0       -0.788055    1.864114    0.083083
      2          6           0       -1.463085    0.677995   -0.607744
      3          8           0        2.593735    0.690142   -0.168192
      4          6           0        2.289745   -0.367472    0.307350
      5          6           0       -0.437751   -1.595425   -0.885175
      6          6           0       -0.984812   -0.658281   -0.119154
      7          8           0       -1.131134   -0.893629    1.217438
      8          1           0        0.294831    1.831951   -0.045040
      9          1           0       -0.995683    1.894746    1.156316
     10          1           0       -1.154184    2.802527   -0.334772
     11          1           0       -1.290346    0.726767   -1.682767
     12          1           0        1.578314   -0.454300    1.147976
     13          1           0        2.714372   -1.317373   -0.068293
     14          1           0       -0.305544   -1.424196   -1.943022
     15          1           0       -0.136718   -2.547882   -0.468696
     16          1           0       -2.548694    0.731143   -0.461637
     17          1           0       -1.553405   -0.141078    1.635796
 ---------------------------------------------------------------------

 SCF Done:  E(RHF) =  -346.472358848     A.U. after    2 cycles

 The electronic state is 1-A.
 Alpha  occ. eigenvalues --  -21.10380 -21.06824 -11.47219 -11.47118 -11.41463
 Alpha  occ. eigenvalues --  -11.37694 -11.36060  -1.76158  -1.70765  -1.21028
 Alpha  occ. eigenvalues --   -1.07649  -0.92019  -0.89085  -0.77584  -0.66925
 Alpha  occ. eigenvalues --   -0.66176  -0.64264  -0.59486  -0.53969  -0.53404
 Alpha  occ. eigenvalues --   -0.52714  -0.52057  -0.48325  -0.45856  -0.43840
 Alpha  occ. eigenvalues --   -0.41024  -0.30127  -0.28621
 Alpha virt. eigenvalues --    0.03472   0.05012   0.05244   0.05278   0.05924
 Alpha virt. eigenvalues --    0.06130   0.06654   0.07198   0.08233   0.09120
 Alpha virt. eigenvalues --    0.11885   0.12012   0.12533   0.13139   0.13611

 Mulliken charges:
               1
     1  C   -3.721179
     2  C   -4.115014
     3  O   -2.123007
     4  C   -0.812294
     5  C   -3.644962
     6  C    4.546384
     7  O   -3.813565
     8  H    1.516973
     9  H    1.306221
    10  H    1.091317
    11  H    1.493232
    12  H    1.580622
    13  H    1.340478
    14  H    1.491131
    15  H    1.540880
    16  H    1.318590
    17  H    1.004193
 Sum of Mulliken charges =  -0.00000

 Dipole moment (field-independent basis, Debye):
    X=             -1.1655    Y=              0.4569    Z=              0.7196  Tot=              1.4439

 Test job not archived.
 1\1\GINC-SE150\SP\RHF\Aug-CC-pVDZ\C5H10O2\OHZDE\09-Apr-2025\0\\#t hf a
 ug-cc-pvdz iop(5/13=1,5/36=2,99/5=2) pseudo=read geom=check guess=(rea
 d,tcheck) scf=(maxcycle=1)\\title\\0,1\C,0,1.82590533,-0.15654295,-0.3
 4783708\C,0,0.98345008,-0.8609711,0.71697933\O,0,-0.25441363,2.7396005
 5,-0.75091451\C,0,-1.22431451,2.05325553,-0.91003884\C,0,-1.44084752,-
 0.39663105,1.16851576\C,0,-0.48292626,-0.90081509,0.3987822\O,0,-0.823
 07907,-1.50053658,-0.77931216\H,0,1.4913421,0.87049775,-0.50063237\H,0
 ,1.78754295,-0.66660084,-1.31440202\H,0,2.87356719,-0.13364322,-0.0459

 Normal termination of Gaussian 16 at Wed Apr  9 03:39:47 2025.
