 Gaussian 16, Revision C.01,

 ----------------------------------------------------------------------
 #t hf aug-cc-pvdz symm=none int=(grid=ultrafine) guess=(read,tcheck) s
 table=(opt,rrhf)
 ----------------------------------------------------------------------
 -----
 title
 -----
 Symbolic Z-matrix:
 Charge =  0 Multiplicity = 1

 SCF Done:  E(RHF) =  -305.315259157     A.U. after   18 cycles
 Normal termination of Gaussian 16 at Wed Apr  9 19:02:51 2025.
 Gaussian 16:  ES64L-G16RevC.01  3-Jul-2019

 ----------------------------------------------------------------------
 #t hf aug-cc-pvdz iop(5/13=1,5/36=2,99/5=2) pseudo=read geom=check gue
 ss=(read,tcheck) scf=(maxcycle=1)
 ----------------------------------------------------------------------
 -----
 title
 -----
 Structure from the checkpoint file:  "Grambow2020_wb97xd3_008022_reverse_mol1.chk"
 Charge =  0 Multiplicity = 1

                         Standard orientation:
 ---------------------------------------------------------------------
 Center     Atomic      Atomic             Coordinates (Angstroms)
 Number     Number       Type             X           Y           Z
 ---------------------------------------------------------------------
      1          8           0        1.944897   -1.193233    0.116771
      2          6           0        0.572013   -1.357903   -0.091840
      3          6           0       -0.205490   -0.057986   -0.029764
      4          6           0        0.461174    1.164261    0.044451
      5          6           0        0.843887    2.359503   -0.214634
      6          6           0       -1.617174   -0.131201    0.006247
      7          6           0       -2.815024   -0.221685    0.022693
      8          1           0        2.289607   -0.576228   -0.535464
      9          1           0        0.356407   -1.810082   -1.071056
     10          1           0        0.215613   -2.055387    0.668457
     11          1           0        0.815059    0.664876    1.040956
     12          1           0        1.205323    3.081643    0.507285
     13          1           0       -3.877499   -0.288890    0.032744
 ---------------------------------------------------------------------

 SCF Done:  E(RHF) =  -306.713499542     A.U. after    2 cycles

 The electronic state is 1-A.
 Alpha  occ. eigenvalues --  -21.09431 -11.52351 -11.46594 -11.44855 -11.43448
 Alpha  occ. eigenvalues --  -11.42517 -11.38459  -1.74574  -1.29336  -1.11653
 Alpha  occ. eigenvalues --   -1.05192  -0.93640  -0.82356  -0.71775  -0.68441
 Alpha  occ. eigenvalues --   -0.66874  -0.59938  -0.59596  -0.53034  -0.46134
 Alpha  occ. eigenvalues --   -0.42827  -0.40064  -0.37189  -0.34376  -0.26581
 Alpha virt. eigenvalues --    0.02146   0.03975   0.04793   0.05627   0.06295
 Alpha virt. eigenvalues --    0.06715   0.07009   0.09166   0.10124   0.10532
 Alpha virt. eigenvalues --    0.11193   0.11668   0.12677   0.13185   0.13966

 Mulliken charges:
               1
     1  O   -2.854454
     2  C   -1.171957
     3  C   -0.139305
     4  C    2.301794
     5  C   -4.583436
     6  C    4.910779
     7  C   -4.438662
     8  H    0.786766
     9  H    1.018920
    10  H    1.165065
    11  H    1.377147
    12  H    0.974319
    13  H    0.653022
 Sum of Mulliken charges =   0.00000

 Dipole moment (field-independent basis, Debye):
    X=             -1.5776    Y=             -2.8745    Z=              1.4252  Tot=              3.5753

 Test job not archived.
 1\1\GINC-SE145\SP\RHF\Aug-CC-pVDZ\C6H6O1\OHZDE\09-Apr-2025\0\\#t hf au
 g-cc-pvdz iop(5/13=1,5/36=2,99/5=2) pseudo=read geom=check guess=(read
 ,tcheck) scf=(maxcycle=1)\\title\\0,1\O,0,1.98769161,-1.05771826,-0.01
 332776\C,0,1.40420392,0.10304843,0.50397904\C,0,-0.09662811,0.16391076
 ,0.29916956\C,0,-0.79044029,-0.94029286,-0.1939797\C,0,-1.64004561,-1.
 89308727,-0.30601146\C,0,-0.75347298,1.38639206,0.57046876\C,0,-1.2880
 4442,2.43276928,0.8207298\H,0,1.57247194,-1.82490379,0.3915807\H,0,1.5
 8133834,0.20560003,1.5846829\H,0,1.89292574,0.94930737,0.01761104\H,0,

 Normal termination of Gaussian 16 at Wed Apr  9 19:02:55 2025.
