 Gaussian 16, Revision C.01,

 ----------------------------------------------------------------------
 #t hf aug-cc-pvdz symm=none int=(grid=ultrafine) guess=(read,tcheck) s
 table=(opt,rrhf)
 ----------------------------------------------------------------------
 -----
 title
 -----
 Symbolic Z-matrix:
 Charge =  0 Multiplicity = 1

 SCF Done:  E(RHF) =  -307.862267523     A.U. after   15 cycles

 1\1\GINC-SE222\Stability\RHF\Aug-CC-pVDZ\C6H10O1\OHZDE\09-Apr-2025\0\\
 #t hf aug-cc-pvdz symm=none int=(grid=ultrafine) guess=(read,tcheck) s
 table=(opt,rrhf)\\title\\0,1\O,0,2.39463748,-0.85853782,1.0444228\C,0,
 1.21910316,-0.27926183,0.69054111\C,0,0.09422087,-1.18234209,0.2670207
 3\C,0,-1.27122584,-0.52997838,0.47925444\C,0,-1.26996473,0.91517121,0.
 06179782\C,0,-0.15443988,1.63632096,0.16560122\C,0,1.10034806,1.048418
 24,0.6289144\H,0,2.28670107,-1.81054993,1.07732334\H,0,-0.41243851,0.0
 5127022,-3.3941957\H,0,0.14050047,-2.12834499,0.81620951\H,0,0.2413170

 Normal termination of Gaussian 16 at Wed Apr  9 19:13:12 2025.
 Gaussian 16:  ES64L-G16RevC.01  3-Jul-2019

 ----------------------------------------------------------------------
 #t hf aug-cc-pvdz iop(5/13=1,5/36=2,99/5=2) pseudo=read geom=check gue
 ss=(read,tcheck) scf=(maxcycle=1)
 ----------------------------------------------------------------------
 -----
 title
 -----
 Structure from the checkpoint file:  "Grambow2020_wb97xd3_008419_reverse_mol2.chk"
 Charge =  0 Multiplicity = 1

                         Standard orientation:
 ---------------------------------------------------------------------
 Center     Atomic      Atomic             Coordinates (Angstroms)
 Number     Number       Type             X           Y           Z
 ---------------------------------------------------------------------
      1          8           0       -2.392143    0.091759    0.054639
      2          6           0       -1.036585    0.115807   -0.012870
      3          6           0       -0.305520   -1.188570    0.143427
      4          6           0        1.068075   -1.155820   -0.525326
      5          6           0        1.783349    0.142076   -0.267295
      6          6           0        1.085199    1.265234   -0.105030
      7          6           0       -0.375830    1.270429   -0.117217
      8          1           0       -2.696423   -0.816904    0.083016
      9          1           0        1.763001   -0.416139    3.353969
     10          1           0       -0.899518   -2.008209   -0.273741
     11          1           0       -0.203148   -1.388187    1.217929
     12          1           0        0.945215   -1.277853   -1.610036
     13          1           0        1.662542   -2.005827   -0.185552
     14          1           0        1.710784   -0.085110    2.686934
     15          1           0        2.866641    0.153752   -0.273420
     16          1           0        1.596656    2.211156    0.033361
     17          1           0       -0.920739    2.204312   -0.163702
 ---------------------------------------------------------------------

 SCF Done:  E(RHF) =  -309.345574410     A.U. after    2 cycles

 The electronic state is 1-A.
 Alpha  occ. eigenvalues --  -21.10248 -11.48882 -11.43741 -11.41843 -11.39507
 Alpha  occ. eigenvalues --  -11.38246 -11.35161  -1.75892  -1.30323  -1.10154
 Alpha  occ. eigenvalues --   -1.06691  -0.90478  -0.82802  -0.69909  -0.68738
 Alpha  occ. eigenvalues --   -0.63943  -0.60816  -0.60493  -0.55943  -0.54399
 Alpha  occ. eigenvalues --   -0.52794  -0.48699  -0.46761  -0.43135  -0.39243
 Alpha  occ. eigenvalues --   -0.37623  -0.24527
 Alpha virt. eigenvalues --    0.03637   0.04928   0.05209   0.05719   0.05893
 Alpha virt. eigenvalues --    0.06285   0.06581   0.07430   0.07905   0.10572
 Alpha virt. eigenvalues --    0.11740   0.12286   0.13088   0.13488   0.14135

 Mulliken charges:
               1
     1  O   -4.088439
     2  C    4.798341
     3  C   -3.781019
     4  C   -4.071814
     5  C   -0.675862
     6  C   -0.221866
     7  C   -2.323195
     8  H    1.066524
     9  H    0.340008
    10  H    1.177136
    11  H    1.284278
    12  H    1.248913
    13  H    1.144936
    14  H   -0.456695
    15  H    1.470961
    16  H    1.443455
    17  H    1.644339
 Sum of Mulliken charges =   0.00000

 Dipole moment (field-independent basis, Debye):
    X=             -0.5617    Y=             -1.3558    Z=              0.0292  Tot=              1.4678

 Test job not archived.
 1\1\GINC-SE222\SP\RHF\Aug-CC-pVDZ\C6H10O1\OHZDE\09-Apr-2025\0\\#t hf a
 ug-cc-pvdz iop(5/13=1,5/36=2,99/5=2) pseudo=read geom=check guess=(rea
 d,tcheck) scf=(maxcycle=1)\\title\\0,1\O,0,2.39463748,-0.85853782,1.04
 44228\C,0,1.21910316,-0.27926183,0.69054111\C,0,0.09422087,-1.18234209
 ,0.26702073\C,0,-1.27122584,-0.52997838,0.47925444\C,0,-1.26996473,0.9
 1517121,0.06179782\C,0,-0.15443988,1.63632096,0.16560122\C,0,1.1003480
 6,1.04841824,0.6289144\H,0,2.28670107,-1.81054993,1.07732334\H,0,-0.41
 243851,0.05127022,-3.3941957\H,0,0.14050047,-2.12834499,0.81620951\H,0

 Normal termination of Gaussian 16 at Wed Apr  9 19:13:18 2025.
