 Gaussian 16, Revision C.01,

 ----------------------------------------------------------------------
 #t hf aug-cc-pvdz symm=none int=(grid=ultrafine) guess=(read,tcheck) s
 table=(opt,rrhf)
 ----------------------------------------------------------------------
 -----
 title
 -----
 Symbolic Z-matrix:
 Charge =  0 Multiplicity = 1

 SCF Done:  E(RHF) =  -323.870892207     A.U. after   13 cycles
 Normal termination of Gaussian 16 at Wed Apr  9 18:18:19 2025.
 Gaussian 16:  ES64L-G16RevC.01  3-Jul-2019

 ----------------------------------------------------------------------
 #t hf aug-cc-pvdz iop(5/13=1,5/36=2,99/5=2) pseudo=read geom=check gue
 ss=(read,tcheck) scf=(maxcycle=1)
 ----------------------------------------------------------------------
 -----
 title
 -----
 Structure from the checkpoint file:  "Grambow2020_wb97xd3_006863_reverse_mol2.chk"
 Charge =  0 Multiplicity = 1

                         Standard orientation:
 ---------------------------------------------------------------------
 Center     Atomic      Atomic             Coordinates (Angstroms)
 Number     Number       Type             X           Y           Z
 ---------------------------------------------------------------------
      1          6           0       -3.233693   -0.208722    0.191698
      2          7           0       -1.935570   -0.337414   -0.426455
      3          6           0       -0.949919    0.194570    0.145651
      4          6           0        0.413209    0.085637   -0.418424
      5          6           0        1.580141   -0.040442    0.459027
      6          8           0        1.274178    1.191816   -0.167096
      7          6           0        2.831704   -0.739451    0.019339
      8          1           0       -3.628131   -1.204678    0.402917
      9          1           0       -3.919268    0.263382   -0.514549
     10          1           0       -3.221317    0.374532    1.122047
     11          1           0       -1.036910    0.764121    1.083028
     12          1           0        1.394408   -0.037704    1.532895
     13          1           0        0.463530   -0.330912   -1.420724
     14          1           0        3.708544   -0.259872    0.458099
     15          1           0        2.816741   -1.782732    0.340592
     16          1           0        2.929317   -0.708322   -1.066101
 ---------------------------------------------------------------------

 SCF Done:  E(RHF) =  -325.384387914     A.U. after    2 cycles

 The electronic state is 1-A.
 Alpha  occ. eigenvalues --  -21.06434 -15.73575 -11.52155 -11.45535 -11.41401
 Alpha  occ. eigenvalues --  -11.38755 -11.38471  -1.79762  -1.39184  -1.12172
 Alpha  occ. eigenvalues --   -1.07285  -0.94360  -0.85882  -0.81480  -0.67935
 Alpha  occ. eigenvalues --   -0.64288  -0.60080  -0.59204  -0.58291  -0.56897
 Alpha  occ. eigenvalues --   -0.53142  -0.48778  -0.46429  -0.41852  -0.37359
 Alpha  occ. eigenvalues --   -0.34001  -0.31444
 Alpha virt. eigenvalues --    0.03824   0.04929   0.05352   0.05755   0.06047
 Alpha virt. eigenvalues --    0.06333   0.06516   0.07873   0.08240   0.10156
 Alpha virt. eigenvalues --    0.11949   0.12156   0.12957   0.13812   0.14338

 Mulliken charges:
               1
     1  C   -3.530052
     2  N   -3.156899
     3  C    0.080150
     4  C    0.886632
     5  C    0.804630
     6  O   -2.952242
     7  C   -4.351570
     8  H    1.335691
     9  H    1.386927
    10  H    1.189822
    11  H    1.596273
    12  H    1.508341
    13  H    1.533121
    14  H    1.098440
    15  H    1.300968
    16  H    1.269769
 Sum of Mulliken charges =  -0.00000

 Dipole moment (field-independent basis, Debye):
    X=              0.4169    Y=              0.0684    Z=              1.0842  Tot=              1.1636

 Test job not archived.
 1\1\GINC-SE114\SP\RHF\Aug-CC-pVDZ\C5H9N1O1\OHZDE\09-Apr-2025\0\\#t hf
 aug-cc-pvdz iop(5/13=1,5/36=2,99/5=2) pseudo=read geom=check guess=(re
 ad,tcheck) scf=(maxcycle=1)\\title\\0,1\C,0,2.34677102,-0.41784509,-2.
 17809305\N,0,1.01071469,-0.06858724,-1.75765208\C,0,0.61137022,-0.4861
 7484,-0.64052895\C,0,-0.73772439,-0.15026893,-0.13528223\C,0,-0.965556
 04,0.09048308,1.29219062\O,0,-1.34771221,-1.1343265,0.69394151\C,0,-2.
 0646105,0.98611779,1.78031853\H,0,2.91822184,0.49726049,-2.34587002\H,
 0,2.29375639,-0.94141459,-3.13451577\H,0,2.88433717,-1.04648875,-1.455

 Normal termination of Gaussian 16 at Wed Apr  9 18:18:24 2025.
