 Gaussian 16, Revision C.01,

 ----------------------------------------------------------------------
 #t hf aug-cc-pvdz symm=none int=(grid=ultrafine) guess=(read,tcheck) s
 table=(opt,rrhf)
 ----------------------------------------------------------------------
 -----
 title
 -----
 Symbolic Z-matrix:
 Charge =  0 Multiplicity = 1

 SCF Done:  E(RHF) =  -307.616615675     A.U. after   16 cycles

 1\1\GINC-SE162\Stability\RHF\Aug-CC-pVDZ\C6H10O1\OHZDE\09-Apr-2025\0\\
 #t hf aug-cc-pvdz symm=none int=(grid=ultrafine) guess=(read,tcheck) s
 table=(opt,rrhf)\\title\\0,1\C,0,1.82338869,-0.53320019,-0.03607102\C,
 0,0.76879384,0.14926273,0.59342019\C,0,0.0015063,1.07424365,-0.3560702
 2\C,0,-1.40880905,0.83546412,0.14689438\O,0,-2.16522802,-0.00103178,-0
 .74583261\C,0,-1.49806323,-1.17105648,-0.23557393\C,0,-0.74693432,-0.3
 5770334,0.81442691\H,0,2.77490933,-0.68822621,0.45268055\H,0,2.2019834
 7,1.18442085,-0.80555832\H,0,1.65897433,-1.05444496,-0.97184145\H,0,1.

 Normal termination of Gaussian 16 at Wed Apr  9 19:16:18 2025.
 Gaussian 16:  ES64L-G16RevC.01  3-Jul-2019

 ----------------------------------------------------------------------
 #t hf aug-cc-pvdz iop(5/13=1,5/36=2,99/5=2) pseudo=read geom=check gue
 ss=(read,tcheck) scf=(maxcycle=1)
 ----------------------------------------------------------------------
 -----
 title
 -----
 Structure from the checkpoint file:  "Grambow2020_wb97xd3_008499_forward_mol1.chk"
 Charge =  0 Multiplicity = 1

                         Standard orientation:
 ---------------------------------------------------------------------
 Center     Atomic      Atomic             Coordinates (Angstroms)
 Number     Number       Type             X           Y           Z
 ---------------------------------------------------------------------
      1          6           0        2.144655   -0.654801   -0.300628
      2          6           0        1.199299   -0.004958    0.510661
      3          6           0        0.421874    1.086660   -0.230847
      4          6           0       -0.953759    0.864452    0.366845
      5          8           0       -1.841651    0.206238   -0.553621
      6          6           0       -1.218808   -1.060743   -0.268564
      7          6           0       -0.324389   -0.446913    0.804500
      8          1           0        3.120915   -0.932278    0.071160
      9          1           0        2.578105    1.127469   -0.867465
     10          1           0        1.863970   -1.030502   -1.277592
     11          1           0        1.597487    0.319170    1.471378
     12          1           0        2.051356    1.748157   -0.756490
     13          1           0        0.393767    0.908176   -1.308362
     14          1           0       -1.434029    1.606915    0.997287
     15          1           0       -0.715760   -1.496114   -1.135684
     16          1           0       -1.948918   -1.770760    0.125496
     17          1           0       -0.386920   -0.832315    1.817439
 ---------------------------------------------------------------------

 SCF Done:  E(RHF) =  -309.105154713     A.U. after    2 cycles

 The electronic state is 1-A.
 Alpha  occ. eigenvalues --  -21.04400 -11.53169 -11.47300 -11.43914 -11.42739
 Alpha  occ. eigenvalues --  -11.41067 -11.37943  -1.78856  -1.32748  -1.08338
 Alpha  occ. eigenvalues --   -1.03987  -0.90125  -0.86554  -0.76701  -0.71329
 Alpha  occ. eigenvalues --   -0.65972  -0.63526  -0.62031  -0.59817  -0.51303
 Alpha  occ. eigenvalues --   -0.50118  -0.47317  -0.44376  -0.42493  -0.36001
 Alpha  occ. eigenvalues --   -0.31624  -0.23409
 Alpha virt. eigenvalues --    0.03349   0.04519   0.05054   0.05136   0.05356
 Alpha virt. eigenvalues --    0.06064   0.06579   0.07369   0.07867   0.08736
 Alpha virt. eigenvalues --    0.09378   0.11032   0.11699   0.13034   0.13228

 Mulliken charges:
               1
     1  C   -3.863450
     2  C   -1.036291
     3  C   -1.185685
     4  C    0.698430
     5  O   -2.881867
     6  C   -1.489490
     7  C   -1.337075
     8  H    1.351643
     9  H    0.379167
    10  H    1.338680
    11  H    1.177811
    12  H   -0.378662
    13  H    1.768008
    14  H    1.473199
    15  H    1.506545
    16  H    1.388346
    17  H    1.090693
 Sum of Mulliken charges =  -0.00000

 Dipole moment (field-independent basis, Debye):
    X=             -1.1206    Y=             -1.4880    Z=              1.3252  Tot=              2.2861

 Test job not archived.
 1\1\GINC-SE162\SP\RHF\Aug-CC-pVDZ\C6H10O1\OHZDE\09-Apr-2025\0\\#t hf a
 ug-cc-pvdz iop(5/13=1,5/36=2,99/5=2) pseudo=read geom=check guess=(rea
 d,tcheck) scf=(maxcycle=1)\\title\\0,1\C,0,1.82338869,-0.53320019,-0.0
 3607102\C,0,0.76879384,0.14926273,0.59342019\C,0,0.0015063,1.07424365,
 -0.35607022\C,0,-1.40880905,0.83546412,0.14689438\O,0,-2.16522802,-0.0
 0103178,-0.74583261\C,0,-1.49806323,-1.17105648,-0.23557393\C,0,-0.746
 93432,-0.35770334,0.81442691\H,0,2.77490933,-0.68822621,0.45268055\H,0
 ,2.20198347,1.18442085,-0.80555832\H,0,1.65897433,-1.05444496,-0.97184

 Normal termination of Gaussian 16 at Wed Apr  9 19:16:24 2025.
