 Gaussian 16, Revision C.01,

 ----------------------------------------------------------------------
 #t hf aug-cc-pvdz symm=none int=(grid=ultrafine) guess=(read,tcheck) s
 table=(opt,rrhf)
 ----------------------------------------------------------------------
 -----
 title
 -----
 Symbolic Z-matrix:
 Charge =  0 Multiplicity = 1

 SCF Done:  E(RHF) =  -305.459339121     A.U. after   14 cycles
 Normal termination of Gaussian 16 at Wed Apr  9 19:02:49 2025.
 Gaussian 16:  ES64L-G16RevC.01  3-Jul-2019

 ----------------------------------------------------------------------
 #t hf aug-cc-pvdz iop(5/13=1,5/36=2,99/5=2) pseudo=read geom=check gue
 ss=(read,tcheck) scf=(maxcycle=1)
 ----------------------------------------------------------------------
 -----
 title
 -----
 Structure from the checkpoint file:  "Grambow2020_wb97xd3_008023_forward_mol2.chk"
 Charge =  0 Multiplicity = 1

                         Standard orientation:
 ---------------------------------------------------------------------
 Center     Atomic      Atomic             Coordinates (Angstroms)
 Number     Number       Type             X           Y           Z
 ---------------------------------------------------------------------
      1          8           0        1.892675   -1.297604    0.064424
      2          6           0        0.540498   -1.224019   -0.294449
      3          6           0       -0.189039   -0.076103    0.441225
      4          6           0        0.442178    1.208063    0.116886
      5          6           0        1.010982    2.222126   -0.166931
      6          6           0       -1.618153   -0.087115    0.120386
      7          6           0       -2.780504   -0.140399   -0.156153
      8          1           0        2.324283   -0.483640   -0.210156
      9          1           0        0.406724   -1.090550   -1.373975
     10          1           0        0.079872   -2.168652   -0.005713
     11          1           0       -0.069233   -0.249708    1.515575
     12          1           0        1.497870    3.137035   -0.410376
     13          1           0       -3.816683   -0.178974   -0.396530
 ---------------------------------------------------------------------

 SCF Done:  E(RHF) =  -306.870335984     A.U. after    2 cycles

 The electronic state is 1-A.
 Alpha  occ. eigenvalues --  -21.07749 -11.49321 -11.44661 -11.44198 -11.41901
 Alpha  occ. eigenvalues --  -11.41429 -11.40754  -1.72703  -1.26870  -1.09155
 Alpha  occ. eigenvalues --   -1.04265  -0.92460  -0.77624  -0.73505  -0.69136
 Alpha  occ. eigenvalues --   -0.64550  -0.61810  -0.57915  -0.53621  -0.43404
 Alpha  occ. eigenvalues --   -0.39813  -0.39317  -0.37452  -0.37205  -0.32081
 Alpha virt. eigenvalues --    0.03032   0.04328   0.05316   0.06306   0.06986
 Alpha virt. eigenvalues --    0.07279   0.10064   0.10258   0.10366   0.10892
 Alpha virt. eigenvalues --    0.11453   0.11973   0.12404   0.13460   0.14351

 Mulliken charges:
               1
     1  O   -2.750080
     2  C   -0.242126
     3  C   -4.828346
     4  C    5.712174
     5  C   -4.831577
     6  C    5.805822
     7  C   -4.933034
     8  H    0.800253
     9  H    1.443787
    10  H    1.239350
    11  H    1.170264
    12  H    0.719120
    13  H    0.694395
 Sum of Mulliken charges =  -0.00000

 Dipole moment (field-independent basis, Debye):
    X=             -0.0610    Y=              0.3029    Z=             -0.2743  Tot=              0.4132

 Test job not archived.
 1\1\GINC-SE226\SP\RHF\Aug-CC-pVDZ\C6H6O1\OHZDE\09-Apr-2025\0\\#t hf au
 g-cc-pvdz iop(5/13=1,5/36=2,99/5=2) pseudo=read geom=check guess=(read
 ,tcheck) scf=(maxcycle=1)\\title\\0,1\O,0,2.03451098,-1.02467701,-0.09
 760119\C,0,1.30782034,0.02375234,0.48145283\C,0,-0.03062403,0.27101633
 ,-0.25242653\C,0,-0.85784737,-0.93994273,-0.20779657\C,0,-1.47779527,-
 1.96248226,-0.15788649\C,0,-0.71947593,1.4331203,0.31363333\C,0,-1.241
 34355,2.39566775,0.79480948\H,0,1.52365287,-1.83407189,-0.00748681\H,0
 ,1.09902246,-0.15546166,1.5422885\H,0,1.91938363,0.92212183,0.39900444

 Normal termination of Gaussian 16 at Wed Apr  9 19:02:53 2025.
