 Gaussian 16, Revision C.01,

 ----------------------------------------------------------------------
 #t hf aug-cc-pvdz symm=none int=(grid=ultrafine) guess=(read,tcheck) s
 table=(opt,rrhf)
 ----------------------------------------------------------------------
 -----
 title
 -----
 Symbolic Z-matrix:
 Charge =  0 Multiplicity = 1

 SCF Done:  E(RHF) =  -184.501102258     A.U. after   12 cycles
 Normal termination of Gaussian 16 at Wed Apr  9 16:29:35 2025.
 Gaussian 16:  ES64L-G16RevC.01  3-Jul-2019

 ----------------------------------------------------------------------
 #t hf aug-cc-pvdz iop(5/13=1,5/36=2,99/5=2) pseudo=read geom=check gue
 ss=(read,tcheck) scf=(maxcycle=1)
 ----------------------------------------------------------------------
 -----
 title
 -----
 Structure from the checkpoint file:  "Grambow2020_b97d3_006822_reverse_mol2.chk"
 Charge =  0 Multiplicity = 1

                         Standard orientation:
 ---------------------------------------------------------------------
 Center     Atomic      Atomic             Coordinates (Angstroms)
 Number     Number       Type             X           Y           Z
 ---------------------------------------------------------------------
      1          7           0        0.637110    0.000678   -0.000022
      2          6           0        1.836467   -0.000259    0.000025
      3          6           0       -1.836471    0.000305    0.000024
      4          7           0       -0.637107   -0.000717   -0.000020
 ---------------------------------------------------------------------

 SCF Done:  E(RHF) =  -185.283471455     A.U. after    2 cycles

 The electronic state is 1-A.
 Alpha  occ. eigenvalues --  -15.88562 -15.87520 -11.51588 -11.50445  -1.60582
 Alpha  occ. eigenvalues --   -1.29961  -0.98613  -0.65072  -0.65072  -0.53539
 Alpha  occ. eigenvalues --   -0.50801  -0.44431  -0.44431
 Alpha virt. eigenvalues --    0.06190   0.06190   0.06436   0.09420   0.10717
 Alpha virt. eigenvalues --    0.10717   0.11683   0.12371   0.13956   0.13956
 Alpha virt. eigenvalues --    0.22384   0.22384   0.24328   0.26977   0.27626

 Mulliken charges:
               1
     1  N   -0.668856
     2  C    0.668898
     3  C    0.668877
     4  N   -0.668919
 Sum of Mulliken charges =  -0.00000

 Dipole moment (field-independent basis, Debye):
    X=             -0.0000    Y=             -0.0001    Z=             -0.0001  Tot=              0.0001

 Test job not archived.
 1\1\GINC-SE138\SP\RHF\Aug-CC-pVDZ\C2N2\OHZDE\09-Apr-2025\0\\#t hf aug-
 cc-pvdz iop(5/13=1,5/36=2,99/5=2) pseudo=read geom=check guess=(read,t
 check) scf=(maxcycle=1)\\title\\0,1\N,0,-0.61461331,-0.00473397,-0.017
 31835\C,0,-1.77637403,-0.30080133,-0.05071159\C,0,1.78197137,0.6036873
 1,0.05202318\N,0,0.62021597,0.307561,0.01873977\\Version=ES64L-G16RevC
 .01\State=1-A\HF=-185.2834715\RMSD=1.767e+00\Dipole=0.000014,-0.000011
 2,0.0000273\Quadrupole=-4.7048592,2.120398,2.5844612,-1.852065,-0.2112
 33,-0.0536242\PG=C01 [X(C2N2)]\\@

 Normal termination of Gaussian 16 at Wed Apr  9 16:29:36 2025.
