 Gaussian 16, Revision C.01,

 ----------------------------------------------------------------------
 #t hf aug-cc-pvdz symm=none int=(grid=ultrafine) guess=(read,tcheck) s
 table=(opt,rrhf)
 ----------------------------------------------------------------------
 -----
 title
 -----
 Symbolic Z-matrix:
 Charge =  0 Multiplicity = 1

 SCF Done:  E(RHF) =  -283.693669190     A.U. after   14 cycles
 Normal termination of Gaussian 16 at Wed Apr  9 03:15:49 2025.
 Gaussian 16:  ES64L-G16RevC.01  3-Jul-2019

 ----------------------------------------------------------------------
 #t hf aug-cc-pvdz iop(5/13=1,5/36=2,99/5=2) pseudo=read geom=check gue
 ss=(read,tcheck) scf=(maxcycle=1)
 ----------------------------------------------------------------------
 -----
 title
 -----
 Structure from the checkpoint file:  "Grambow2020_b97d3_007001_reverse_mol2.chk"
 Charge =  0 Multiplicity = 1

                         Standard orientation:
 ---------------------------------------------------------------------
 Center     Atomic      Atomic             Coordinates (Angstroms)
 Number     Number       Type             X           Y           Z
 ---------------------------------------------------------------------
      1          6           0       -0.749771    1.433626    0.009223
      2          6           0       -0.950666   -0.061949   -0.000623
      3          8           0       -2.036809   -0.612365   -0.018252
      4          6           0        0.313313   -0.967774    0.018431
      5          6           0        2.548991    0.369161   -0.017749
      6          7           0        1.551847   -0.274249   -0.002134
      7          1           0       -1.721750    1.935682    0.014237
      8          1           0       -0.167278    1.745274   -0.870310
      9          1           0       -0.160970    1.735285    0.887804
     10          1           0        0.253133   -1.642311   -0.847289
     11          1           0        0.257199   -1.593653    0.920823
 ---------------------------------------------------------------------

 SCF Done:  E(RHF) =  -284.958549132     A.U. after    2 cycles

 The electronic state is 1-A.
 Alpha  occ. eigenvalues --  -21.07447 -15.79412 -11.52501 -11.46434 -11.44526
 Alpha  occ. eigenvalues --  -11.40529  -1.72513  -1.42191  -1.15204  -1.07345
 Alpha  occ. eigenvalues --   -0.81014  -0.73344  -0.67719  -0.64990  -0.59421
 Alpha  occ. eigenvalues --   -0.55540  -0.52103  -0.47796  -0.47218  -0.46353
 Alpha  occ. eigenvalues --   -0.41626  -0.30530
 Alpha virt. eigenvalues --    0.02695   0.05714   0.05864   0.06263   0.06483
 Alpha virt. eigenvalues --    0.08532   0.09461   0.10315   0.10717   0.12271
 Alpha virt. eigenvalues --    0.12917   0.13612   0.13662   0.14394   0.14783

 Mulliken charges:
               1
     1  C   -3.986755
     2  C    3.921287
     3  O   -3.228825
     4  C   -2.135663
     5  C   -0.540245
     6  N   -0.713366
     7  H    1.224673
     8  H    1.322625
     9  H    1.329396
    10  H    1.404732
    11  H    1.402140
 Sum of Mulliken charges =   0.00000

 Dipole moment (field-independent basis, Debye):
    X=             -2.0549    Y=             -0.8817    Z=              0.0732  Tot=              2.2373

 Test job not archived.
 1\1\GINC-SE456\SP\RHF\Aug-CC-pVDZ\C4H5N1O1\OHZDE\09-Apr-2025\0\\#t hf
 aug-cc-pvdz iop(5/13=1,5/36=2,99/5=2) pseudo=read geom=check guess=(re
 ad,tcheck) scf=(maxcycle=1)\\title\\0,1\C,0,-1.35339463,0.4053867,-0.0
 4015834\C,0,-0.4348884,-0.77196753,0.17751788\O,0,-0.81033721,-1.90436
 808,0.42181668\C,0,1.0983426,-0.52677257,0.09029875\C,0,1.72410186,1.9
 2998643,-0.5094715\N,0,1.47839383,0.8014519,-0.23642597\H,0,-2.3938586
 9,0.08618431,0.07107577\H,0,-1.19355561,0.83296702,-1.04097132\H,0,-1.
 12301665,1.20838046,0.67518602\H,0,1.50513372,-1.22203779,-0.65751058\

 Normal termination of Gaussian 16 at Wed Apr  9 03:15:53 2025.
