 Gaussian 16, Revision C.01,

 ----------------------------------------------------------------------
 #t hf aug-cc-pvdz symm=none int=(grid=ultrafine) guess=(read,tcheck) s
 table=(opt,rrhf)
 ----------------------------------------------------------------------
 -----
 title
 -----
 Symbolic Z-matrix:
 Charge =  0 Multiplicity = 1

 SCF Done:  E(RHF) =  -306.577687021     A.U. after   15 cycles
 Normal termination of Gaussian 16 at Wed Apr  9 04:05:45 2025.
 Gaussian 16:  ES64L-G16RevC.01  3-Jul-2019

 ----------------------------------------------------------------------
 #t hf aug-cc-pvdz iop(5/13=1,5/36=2,99/5=2) pseudo=read geom=check gue
 ss=(read,tcheck) scf=(maxcycle=1)
 ----------------------------------------------------------------------
 -----
 title
 -----
 Structure from the checkpoint file:  "Grambow2020_wb97xd3_009278_reverse_mol2.chk"
 Charge =  0 Multiplicity = 1

                         Standard orientation:
 ---------------------------------------------------------------------
 Center     Atomic      Atomic             Coordinates (Angstroms)
 Number     Number       Type             X           Y           Z
 ---------------------------------------------------------------------
      1          6           0       -1.526498    1.378218    0.111404
      2          6           0       -1.326111   -0.060445   -0.356408
      3          6           0       -2.336524   -1.032791    0.258893
      4          6           0        0.038101   -0.660778   -0.270836
      5          8           0        0.908510    0.322229   -0.016398
      6          6           0        2.183731   -0.001278    0.045333
      7          6           0        3.355647   -0.201672    0.117878
      8          1           0       -1.329705    1.469179    1.181791
      9          1           0       -2.557709    1.688342   -0.064408
     10          1           0       -0.869447    2.074463   -0.408953
     11          1           0       -1.467853   -0.112240   -1.451936
     12          1           0       -2.169181   -2.048084   -0.099519
     13          1           0       -2.246268   -1.039860    1.347274
     14          1           0       -3.355418   -0.732936    0.009610
     15          1           0        4.397420   -0.404211    0.179738
 ---------------------------------------------------------------------

 SCF Done:  E(RHF) =  -308.003063922     A.U. after    2 cycles

 The electronic state is 1-A.
 Alpha  occ. eigenvalues --  -21.16688 -11.47242 -11.46194 -11.41691 -11.41230
 Alpha  occ. eigenvalues --  -11.39150 -11.36200  -1.87229  -1.24925  -1.08961
 Alpha  occ. eigenvalues --   -1.01210  -0.95036  -0.81259  -0.71398  -0.65273
 Alpha  occ. eigenvalues --   -0.63719  -0.62374  -0.56334  -0.54990  -0.53927
 Alpha  occ. eigenvalues --   -0.50633  -0.47765  -0.46230  -0.37264  -0.35281
 Alpha  occ. eigenvalues --   -0.32676
 Alpha virt. eigenvalues --    0.03158   0.04819   0.05666   0.05769   0.05970
 Alpha virt. eigenvalues --    0.06322   0.06440   0.07719   0.08515   0.10188
 Alpha virt. eigenvalues --    0.11672   0.11834   0.13004   0.13301   0.13886

 Mulliken charges:
               1
     1  C   -3.839775
     2  C   -1.293558
     3  C   -3.566033
     4  C    0.226495
     5  O   -3.853503
     6  C    4.532942
     7  C   -2.349075
     8  H    1.324819
     9  H    1.236983
    10  H    1.341304
    11  H    1.728327
    12  H    1.348580
    13  H    1.329219
    14  H    1.235867
    15  H    0.597408
 Sum of Mulliken charges =   0.00000

 Dipole moment (field-independent basis, Debye):
    X=             -0.3123    Y=              1.5991    Z=              0.1425  Tot=              1.6355

 Test job not archived.
 1\1\GINC-SE423\SP\RHF\Aug-CC-pVDZ\C6H8O1\OHZDE\09-Apr-2025\0\\#t hf au
 g-cc-pvdz iop(5/13=1,5/36=2,99/5=2) pseudo=read geom=check guess=(read
 ,tcheck) scf=(maxcycle=1)\\title\\0,1\C,0,-1.00995946,0.4710385,-1.287
 48026\C,0,-0.48026831,-0.56742213,-0.30270559\C,0,-1.57482054,-1.14602
 236,0.59849606\C,0,0.70619104,-0.22358485,0.53567863\O,0,1.2460759,0.8
 992874,0.0495362\C,0,2.34376159,1.34118142,0.62787316\C,0,3.33630687,1
 .81250484,1.08778131\H,0,-1.38075014,1.35245577,-0.75989394\H,0,-1.839
 12008,0.05373607,-1.86092212\H,0,-0.24385097,0.7998828,-1.98903925\H,0

 Normal termination of Gaussian 16 at Wed Apr  9 04:05:50 2025.
