 Gaussian 16, Revision C.01,

 ----------------------------------------------------------------------
 #t hf aug-cc-pvdz symm=none int=(grid=ultrafine) guess=(read,tcheck) s
 table=(opt,rrhf)
 ----------------------------------------------------------------------
 -----
 title
 -----
 Symbolic Z-matrix:
 Charge =  0 Multiplicity = 1

 SCF Done:  E(RHF) =  -285.931157614     A.U. after   15 cycles
 Normal termination of Gaussian 16 at Wed Apr  9 03:21:10 2025.
 Gaussian 16:  ES64L-G16RevC.01  3-Jul-2019

 ----------------------------------------------------------------------
 #t hf aug-cc-pvdz iop(5/13=1,5/36=2,99/5=2) pseudo=read geom=check gue
 ss=(read,tcheck) scf=(maxcycle=1)
 ----------------------------------------------------------------------
 -----
 title
 -----
 Structure from the checkpoint file:  "Grambow2020_wb97xd3_006065_forward_mol1.chk"
 Charge =  0 Multiplicity = 1

                         Standard orientation:
 ---------------------------------------------------------------------
 Center     Atomic      Atomic             Coordinates (Angstroms)
 Number     Number       Type             X           Y           Z
 ---------------------------------------------------------------------
      1          6           0       -1.383012   -0.671456    0.802828
      2          6           0       -1.644554    0.374073   -0.274496
      3          6           0       -0.297768    1.072956   -0.350469
      4          6           0        0.728077    0.001163   -0.071590
      5          8           0        0.753278   -1.167037   -0.692982
      6          7           0        1.877450    0.357902    0.470970
      7          1           0       -0.149286   -1.451060   -0.272861
      8          1           0       -2.118328   -1.481737    0.834569
      9          1           0       -1.346134   -0.213804    1.796366
     10          1           0       -1.861212   -0.103589   -1.234687
     11          1           0       -2.450772    1.098751   -0.100197
     12          1           0       -0.045716    1.558533   -1.303310
     13          1           0       -0.215863    1.826862    0.437324
     14          1           0        2.594684   -0.337033    0.591667
     15          1           0        2.007803    1.273648    0.860559
 ---------------------------------------------------------------------

 SCF Done:  E(RHF) =  -287.305630995     A.U. after    2 cycles

 The electronic state is 1-A.
 Alpha  occ. eigenvalues --  -21.08244 -15.83190 -11.55908 -11.42828 -11.36151
 Alpha  occ. eigenvalues --  -11.27246  -1.78716  -1.40929  -1.21566  -0.99072
 Alpha  occ. eigenvalues --   -0.86329  -0.80966  -0.74453  -0.68636  -0.65846
 Alpha  occ. eigenvalues --   -0.60410  -0.53709  -0.51167  -0.50171  -0.46133
 Alpha  occ. eigenvalues --   -0.42639  -0.41306  -0.36159  -0.22313
 Alpha virt. eigenvalues --    0.02798   0.04650   0.04979   0.05806   0.06637
 Alpha virt. eigenvalues --    0.06913   0.07104   0.07567   0.09537   0.10489
 Alpha virt. eigenvalues --    0.12297   0.12932   0.13784   0.14432   0.15275

 Mulliken charges:
               1
     1  C   -3.421239
     2  C   -2.578347
     3  C   -3.126846
     4  C    6.068950
     5  O   -3.419454
     6  N   -3.560808
     7  H    1.220089
     8  H    1.056295
     9  H    1.151796
    10  H    1.233309
    11  H    1.192832
    12  H    1.309479
    13  H    1.462494
    14  H    0.720015
    15  H    0.691434
 Sum of Mulliken charges =   0.00000

 Dipole moment (field-independent basis, Debye):
    X=              4.7729    Y=              2.2417    Z=             -0.5257  Tot=              5.2993

 Test job not archived.
 1\1\GINC-SE423\SP\RHF\Aug-CC-pVDZ\C4H9N1O1\OHZDE\09-Apr-2025\0\\#t hf
 aug-cc-pvdz iop(5/13=1,5/36=2,99/5=2) pseudo=read geom=check guess=(re
 ad,tcheck) scf=(maxcycle=1)\\title\\0,1\C,0,1.42183552,0.58749275,-0.0
 3195848\C,0,1.03138851,-0.71362797,-0.72246434\C,0,-0.33542204,-0.9796
 6537,-0.1149321\C,0,-0.9468557,0.38178567,0.11193911\O,0,-1.00510163,1
 .3219026,-0.81770794\N,0,-1.82506898,0.52112715,1.08765386\H,0,0.02555
 736,1.41759088,-0.8371383\H,0,2.24280064,1.12699673,-0.51486897\H,0,1.
 70439511,0.41166145,1.01071481\H,0,0.92717249,-0.56454778,-1.80134431\

 Normal termination of Gaussian 16 at Wed Apr  9 03:21:14 2025.
