 Gaussian 16, Revision C.01,

 ----------------------------------------------------------------------
 #t hf aug-cc-pvdz symm=none int=(grid=ultrafine) guess=(read,tcheck) s
 table=(opt,rrhf)
 ----------------------------------------------------------------------
 -----
 title
 -----
 Symbolic Z-matrix:
 Charge =  0 Multiplicity = 1

 SCF Done:  E(RHF) =  -338.592259349     A.U. after   15 cycles
 Normal termination of Gaussian 16 at Wed Apr  9 19:17:55 2025.
 Gaussian 16:  ES64L-G16RevC.01  3-Jul-2019

 ----------------------------------------------------------------------
 #t hf aug-cc-pvdz iop(5/13=1,5/36=2,99/5=2) pseudo=read geom=check gue
 ss=(read,tcheck) scf=(maxcycle=1)
 ----------------------------------------------------------------------
 -----
 title
 -----
 Structure from the checkpoint file:  "Grambow2020_wb97xd3_008551_reverse_mol2.chk"
 Charge =  0 Multiplicity = 1

                         Standard orientation:
 ---------------------------------------------------------------------
 Center     Atomic      Atomic             Coordinates (Angstroms)
 Number     Number       Type             X           Y           Z
 ---------------------------------------------------------------------
      1          6           0        2.554545   -0.441177    0.000334
      2          6           0        1.096543   -0.120750   -0.000828
      3          7           0        0.742582    1.138984   -0.000630
      4          8           0       -0.647502    1.140418    0.000600
      5          6           0       -0.954256   -0.176240    0.000687
      6          7           0       -2.400245   -0.421766   -0.000206
      7          6           0        0.004520   -1.094823   -0.000170
      8          1           0        3.156461    0.467464   -0.001851
      9          1           0        2.803668   -1.035897    0.880687
     10          1           0        2.804905   -1.040725   -0.876439
     11          1           0       -2.862111   -0.044185   -0.827810
     12          1           0       -2.862690   -0.050934    0.830206
     13          1           0       -2.464685   -1.441647   -0.003871
 ---------------------------------------------------------------------

 SCF Done:  E(RHF) =  -340.143418683     A.U. after    2 cycles

 The electronic state is 1-A.
 Alpha  occ. eigenvalues --  -21.08892 -15.92978 -15.73549 -11.43431 -11.40108
 Alpha  occ. eigenvalues --  -11.35159 -11.30768  -1.87431  -1.48617  -1.26486
 Alpha  occ. eigenvalues --   -1.09137  -1.02269  -0.81665  -0.79443  -0.79081
 Alpha  occ. eigenvalues --   -0.69483  -0.62990  -0.58876  -0.54613  -0.52574
 Alpha  occ. eigenvalues --   -0.45944  -0.42815  -0.38873  -0.33518  -0.28856
 Alpha  occ. eigenvalues --   -0.28846
 Alpha virt. eigenvalues --    0.00770   0.03844   0.04365   0.05949   0.07948
 Alpha virt. eigenvalues --    0.08130   0.08717   0.09989   0.11091   0.12842
 Alpha virt. eigenvalues --    0.12902   0.13503   0.15094   0.16023   0.16368

 Mulliken charges:
               1
     1  C   -3.941378
     2  C    4.324209
     3  N   -1.205884
     4  O   -3.182129
     5  C    6.617128
     6  N   -3.424687
     7  C   -4.833191
     8  H    1.270087
     9  H    1.211407
    10  H    1.211830
    11  H    0.621047
    12  H    0.621387
    13  H    0.710177
 Sum of Mulliken charges =   0.00000

 Dipole moment (field-independent basis, Debye):
    X=             -7.8336    Y=              0.7544    Z=              0.0005  Tot=              7.8699

 Test job not archived.
 1\1\GINC-SE018\SP\RHF\Aug-CC-pVDZ\C4H6N2O1\OHZDE\09-Apr-2025\0\\#t hf
 aug-cc-pvdz iop(5/13=1,5/36=2,99/5=2) pseudo=read geom=check guess=(re
 ad,tcheck) scf=(maxcycle=1)\\title\\0,1\C,0,-2.46865965,0.15103562,-0.
 15549008\C,0,-0.99259852,-0.06238848,-0.21980224\N,0,-0.52274911,-0.83
 800016,-1.1631411\O,0,0.85564941,-0.85722389,-0.98429935\C,0,1.0355521
 2,-0.05525507,0.08909142\N,0,2.44626609,0.07765463,0.46775745\C,0,-0.0
 0176205,0.51963145,0.68619393\H,0,-2.97955822,-0.39585575,-0.94784745\
 H,0,-2.84992116,-0.17795554,0.8125912\H,0,-2.69570169,1.21439883,-0.24

 Normal termination of Gaussian 16 at Wed Apr  9 19:17:59 2025.
