 Gaussian 16, Revision C.01,

 ----------------------------------------------------------------------
 #t hf aug-cc-pvdz symm=none int=(grid=ultrafine) guess=(read,tcheck) s
 table=(opt,rrhf)
 ----------------------------------------------------------------------
 -----
 title
 -----
 Symbolic Z-matrix:
 Charge =  0 Multiplicity = 1

 SCF Done:  E(RHF) =  -358.413702251     A.U. after   17 cycles
 Normal termination of Gaussian 16 at Wed Apr  9 03:39:12 2025.
 Gaussian 16:  ES64L-G16RevC.01  3-Jul-2019

 ----------------------------------------------------------------------
 #t hf aug-cc-pvdz iop(5/13=1,5/36=2,99/5=2) pseudo=read geom=check gue
 ss=(read,tcheck) scf=(maxcycle=1)
 ----------------------------------------------------------------------
 -----
 title
 -----
 Structure from the checkpoint file:  "Grambow2020_wb97xd3_007450_forward_mol1.chk"
 Charge =  0 Multiplicity = 1

                         Standard orientation:
 ---------------------------------------------------------------------
 Center     Atomic      Atomic             Coordinates (Angstroms)
 Number     Number       Type             X           Y           Z
 ---------------------------------------------------------------------
      1          8           0       -2.477757   -0.436766   -0.109380
      2          6           0       -1.623527    0.659365    0.067894
      3          6           0       -0.168704    0.311725    0.007661
      4          7           0        0.202168   -0.930929    0.040672
      5          8           0        1.546589   -0.992972   -0.010700
      6          6           0        1.995197    0.329786   -0.039446
      7          6           0        0.929489    1.265888   -0.123285
      8          1           0       -2.058412   -1.220238    0.255898
      9          1           0       -1.838519    1.387594   -0.717080
     10          1           0       -1.806111    1.166138    1.026242
     11          1           0        3.013861    0.431604   -0.391751
     12          1           0        1.928616    0.788723    1.025684
 ---------------------------------------------------------------------

 SCF Done:  E(RHF) =  -359.981416355     A.U. after    2 cycles

 The electronic state is 1-A.
 Alpha  occ. eigenvalues --  -21.13583 -21.07730 -15.82276 -11.47749 -11.46902
 Alpha  occ. eigenvalues --  -11.43727 -11.40836  -1.92815  -1.72602  -1.30746
 Alpha  occ. eigenvalues --   -1.20495  -1.02636  -0.85914  -0.78695  -0.69814
 Alpha  occ. eigenvalues --   -0.69415  -0.63709  -0.58211  -0.56702  -0.50140
 Alpha  occ. eigenvalues --   -0.48870  -0.43879  -0.41178  -0.35984  -0.35217
 Alpha  occ. eigenvalues --   -0.32690
 Alpha virt. eigenvalues --    0.02916   0.05043   0.05549   0.06323   0.06812
 Alpha virt. eigenvalues --    0.07581   0.09017   0.09694   0.10496   0.12228
 Alpha virt. eigenvalues --    0.13086   0.13255   0.13822   0.14608   0.15163

 Mulliken charges:
               1
     1  O   -2.808890
     2  C   -0.260586
     3  C    3.461826
     4  N   -0.735731
     5  O   -2.828316
     6  C   -0.481639
     7  C   -2.472684
     8  H    0.817729
     9  H    1.340002
    10  H    1.235459
    11  H    1.538810
    12  H    1.194020
 Sum of Mulliken charges =   0.00000

 Dipole moment (field-independent basis, Debye):
    X=              1.9346    Y=             -1.3222    Z=              0.5629  Tot=              2.4099

 Test job not archived.
 1\1\GINC-SE069\SP\RHF\Aug-CC-pVDZ\C4H5N1O2\OHZDE\09-Apr-2025\0\\#t hf
 aug-cc-pvdz iop(5/13=1,5/36=2,99/5=2) pseudo=read geom=check guess=(re
 ad,tcheck) scf=(maxcycle=1)\\title\\0,1\O,0,-2.40395366,0.75966206,-0.
 34871232\C,0,-1.61799186,-0.26781993,0.18904481\C,0,-0.14513281,-0.014
 00942,0.10385928\N,0,0.30347944,0.95589095,-0.6315752\O,0,1.64834022,0
 .97823245,-0.56225733\C,0,2.0125422,-0.09430197,0.25553848\C,0,0.88911
 125,-0.7564577,0.81989859\H,0,-1.93140024,1.16121111,-1.08257682\H,0,-
 1.88872203,-0.38742678,1.24029288\H,0,-1.81929848,-1.23177486,-0.29968

 Normal termination of Gaussian 16 at Wed Apr  9 03:39:16 2025.
