 Gaussian 16, Revision C.01,

 ----------------------------------------------------------------------
 #t hf aug-cc-pvdz symm=none int=(grid=ultrafine) guess=(read,tcheck) s
 table=(opt,rrhf)
 ----------------------------------------------------------------------
 -----
 title
 -----
 Symbolic Z-matrix:
 Charge =  0 Multiplicity = 1

 SCF Done:  E(RHF) =  -264.903022400     A.U. after   16 cycles
 Normal termination of Gaussian 16 at Wed Apr  9 03:08:57 2025.
 Gaussian 16:  ES64L-G16RevC.01  3-Jul-2019

 ----------------------------------------------------------------------
 #t hf aug-cc-pvdz iop(5/13=1,5/36=2,99/5=2) pseudo=read geom=check gue
 ss=(read,tcheck) scf=(maxcycle=1)
 ----------------------------------------------------------------------
 -----
 title
 -----
 Structure from the checkpoint file:  "Grambow2020_b97d3_006624_reverse_mol1.chk"
 Charge =  0 Multiplicity = 1

                         Standard orientation:
 ---------------------------------------------------------------------
 Center     Atomic      Atomic             Coordinates (Angstroms)
 Number     Number       Type             X           Y           Z
 ---------------------------------------------------------------------
      1          6           0        2.297774   -0.678634    0.143349
      2          6           0        1.037427   -0.154052   -0.525512
      3          6           0       -0.118630    0.155837    0.352537
      4          7           0       -0.344259    1.759317   -0.054378
      5          6           0       -1.383020   -0.530230    0.131553
      6          7           0       -2.360321   -1.145879   -0.081553
      7          1           0        2.235699   -1.732551    0.476261
      8          1           0        2.570230   -0.076932    1.026737
      9          1           0        3.147232   -0.618086   -0.553632
     10          1           0        0.654461    1.539907   -0.631317
     11          1           0        0.749461   -0.711668   -1.423577
     12          1           0        0.118939    0.197011    1.423639
     13          1           0       -1.148952    1.892066   -0.686877
     14          1           0       -0.396317    2.458655    0.708726
 ---------------------------------------------------------------------

 SCF Done:  E(RHF) =  -266.185835410     A.U. after    2 cycles

 The electronic state is 1-A.
 Alpha  occ. eigenvalues --  -15.82927 -15.77236 -11.52256 -11.44532 -11.37163
 Alpha  occ. eigenvalues --  -11.32130  -1.42290  -1.29535  -1.15089  -1.02119
 Alpha  occ. eigenvalues --   -0.84657  -0.75734  -0.72571  -0.65682  -0.58024
 Alpha  occ. eigenvalues --   -0.56093  -0.54281  -0.52242  -0.48337  -0.45958
 Alpha  occ. eigenvalues --   -0.43101  -0.42031  -0.25095
 Alpha virt. eigenvalues --    0.02613   0.04506   0.05017   0.05525   0.06592
 Alpha virt. eigenvalues --    0.06756   0.07148   0.07836   0.09843   0.11064
 Alpha virt. eigenvalues --    0.11741   0.12679   0.13451   0.13782   0.14691

 Mulliken charges:
               1
     1  C   -3.994387
     2  C   -1.648965
     3  C   -1.290589
     4  N   -1.887521
     5  C    2.288513
     6  N   -2.419560
     7  H    1.249199
     8  H    1.200555
     9  H    1.186531
    10  H    0.990436
    11  H    1.215609
    12  H    1.733058
    13  H    0.696715
    14  H    0.680406
 Sum of Mulliken charges =  -0.00000

 Dipole moment (field-independent basis, Debye):
    X=             -0.1338    Y=              4.5247    Z=              1.6269  Tot=              4.8101

 Test job not archived.
 1\1\GINC-SE188\SP\RHF\Aug-CC-pVDZ\C4H8N2\OHZDE\09-Apr-2025\0\\#t hf au
 g-cc-pvdz iop(5/13=1,5/36=2,99/5=2) pseudo=read geom=check guess=(read
 ,tcheck) scf=(maxcycle=1)\\title\\0,1\C,0,-1.97102804,-0.11938775,0.25
 515806\C,0,-0.65217775,-0.1224853,-0.50092517\C,0,0.54142806,0.3953454
 2,0.21365533\N,0,1.52976101,-0.94504265,0.09451263\C,0,1.27080621,1.52
 369034,-0.34585489\N,0,1.7892604,2.45680573,-0.83580882\H,0,-2.4365078
 7,0.87934703,0.36137616\H,0,-1.85827082,-0.53236686,1.27171377\H,0,-2.
 70429488,-0.75495667,-0.26387866\H,0,0.53172702,-1.38706032,-0.3379102

 Normal termination of Gaussian 16 at Wed Apr  9 03:09:01 2025.
