 Gaussian 16, Revision C.01,

 ----------------------------------------------------------------------
 #t hf aug-cc-pvdz symm=none int=(grid=ultrafine) guess=(read,tcheck) s
 table=(opt,rrhf)
 ----------------------------------------------------------------------
 -----
 title
 -----
 Symbolic Z-matrix:
 Charge =  0 Multiplicity = 1

 SCF Done:  E(RHF) =  -286.671849901     A.U. after   16 cycles
 Normal termination of Gaussian 16 at Wed Apr  9 18:42:48 2025.
 Gaussian 16:  ES64L-G16RevC.01  3-Jul-2019

 ----------------------------------------------------------------------
 #t hf aug-cc-pvdz iop(5/13=1,5/36=2,99/5=2) pseudo=read geom=check gue
 ss=(read,tcheck) scf=(maxcycle=1)
 ----------------------------------------------------------------------
 -----
 title
 -----
 Structure from the checkpoint file:  "Grambow2020_wb97xd3_007556_reverse_mol1.chk"
 Charge =  0 Multiplicity = 1

                         Standard orientation:
 ---------------------------------------------------------------------
 Center     Atomic      Atomic             Coordinates (Angstroms)
 Number     Number       Type             X           Y           Z
 ---------------------------------------------------------------------
      1          6           0        0.054627    1.518457   -0.254967
      2          6           0        0.696050    0.306645   -0.083771
      3          6           0       -0.616978   -1.340093   -0.117048
      4          6           0       -1.807255   -0.727214    0.055223
      5          6           0       -2.398306    0.384051    0.115239
      6          6           0        1.931852   -0.331909   -0.531774
      7          7           0        1.626483   -0.132671    0.900989
      8          1           0       -0.044781    1.922023   -1.255353
      9          1           0        0.069108    2.236786    0.557425
     10          1           0       -1.417052    1.147552   -0.032173
     11          1           0       -0.139658   -1.830498    0.724602
     12          1           0       -0.413107   -1.778239   -1.089590
     13          1           0       -3.384569    0.793458    0.232291
     14          1           0        1.957644   -1.368403   -0.847520
     15          1           0        2.684707    0.301621   -0.989236
     16          1           0        2.142391    0.644772    1.295216
 ---------------------------------------------------------------------

 SCF Done:  E(RHF) =  -288.118295739     A.U. after    2 cycles

 The electronic state is 1-A.
 Alpha  occ. eigenvalues --  -15.74310 -11.48513 -11.43372 -11.42651 -11.41129
 Alpha  occ. eigenvalues --  -11.38715 -11.38269  -1.46798  -1.20255  -1.06164
 Alpha  occ. eigenvalues --   -0.99368  -0.94178  -0.79419  -0.73146  -0.67569
 Alpha  occ. eigenvalues --   -0.62560  -0.60886  -0.59084  -0.58565  -0.56775
 Alpha  occ. eigenvalues --   -0.46504  -0.45954  -0.40226  -0.35682  -0.33383
 Alpha  occ. eigenvalues --   -0.28949
 Alpha virt. eigenvalues --    0.03405   0.05257   0.05411   0.05554   0.05889
 Alpha virt. eigenvalues --    0.06414   0.06894   0.07482   0.08756   0.09328
 Alpha virt. eigenvalues --    0.09615   0.12066   0.12760   0.13256   0.14333

 Mulliken charges:
               1
     1  C   -4.299663
     2  C    2.757057
     3  C   -3.739933
     4  C    2.467822
     5  C   -3.955775
     6  C   -2.376925
     7  N   -2.308373
     8  H    0.930578
     9  H    0.870109
    10  H    2.899045
    11  H    1.286671
    12  H    1.167939
    13  H    0.995989
    14  H    1.389352
    15  H    1.256799
    16  H    0.659309
 Sum of Mulliken charges =  -0.00000

 Dipole moment (field-independent basis, Debye):
    X=              1.2935    Y=              1.0368    Z=             -0.5956  Tot=              1.7615

 Test job not archived.
 1\1\GINC-SE117\SP\RHF\Aug-CC-pVDZ\C6H9N1\OHZDE\09-Apr-2025\0\\#t hf au
 g-cc-pvdz iop(5/13=1,5/36=2,99/5=2) pseudo=read geom=check guess=(read
 ,tcheck) scf=(maxcycle=1)\\title\\0,1\C,0,0.02625124,1.06519119,1.1609
 9714\C,0,-0.57973879,-0.01298987,0.54494451\C,0,0.69605262,-1.03574614
 ,-0.78291897\C,0,1.68501126,-0.13096243,-0.94223707\C,0,2.15421554,0.9
 6822456,-0.5428746\C,0,-1.49592613,-1.09028494,0.91331818\N,0,-1.81401
 843,-0.12164474,-0.15734037\H,0,0.51136811,0.91716169,2.11821669\H,0,-
 0.34930491,2.06211813,0.95781582\H,0,1.29025929,1.26174561,0.31441737\

 Normal termination of Gaussian 16 at Wed Apr  9 18:42:54 2025.
