 Gaussian 16, Revision C.01,

 ----------------------------------------------------------------------
 #t hf aug-cc-pvdz symm=none int=(grid=ultrafine) guess=(read,tcheck) s
 table=(opt,rrhf)
 ----------------------------------------------------------------------
 -----
 title
 -----
 Symbolic Z-matrix:
 Charge =  0 Multiplicity = 1

 SCF Done:  E(RHF) =  -306.664354117     A.U. after   12 cycles
 Normal termination of Gaussian 16 at Wed Apr  9 19:08:56 2025.
 Gaussian 16:  ES64L-G16RevC.01  3-Jul-2019

 ----------------------------------------------------------------------
 #t hf aug-cc-pvdz iop(5/13=1,5/36=2,99/5=2) pseudo=read geom=check gue
 ss=(read,tcheck) scf=(maxcycle=1)
 ----------------------------------------------------------------------
 -----
 title
 -----
 Structure from the checkpoint file:  "Grambow2020_wb97xd3_008170_forward_mol2.chk"
 Charge =  0 Multiplicity = 1

                         Standard orientation:
 ---------------------------------------------------------------------
 Center     Atomic      Atomic             Coordinates (Angstroms)
 Number     Number       Type             X           Y           Z
 ---------------------------------------------------------------------
      1          6           0       -1.610400   -0.270564    0.242793
      2          6           0       -0.714049    0.416517   -0.797140
      3          8           0       -0.000559    1.362203   -0.000151
      4          6           0        0.713797    0.417290    0.796599
      5          6           0        1.610560   -0.270007   -0.242640
      6          6           0        0.270670   -0.812302   -0.732166
      7          6           0       -0.270191   -0.811889    0.732217
      8          1           0       -2.209074    0.377845    0.883019
      9          1           0       -2.216301   -1.068503   -0.188790
     10          1           0       -1.075395    0.867098   -1.717678
     11          1           0        1.075660    0.867413    1.717119
     12          1           0        2.210617    0.377236   -0.882760
     13          1           0        2.216025   -1.067394    0.190584
     14          1           0        0.137501   -1.633716   -1.431250
     15          1           0       -0.136886   -1.631874    1.432984
 ---------------------------------------------------------------------

 SCF Done:  E(RHF) =  -308.115312858     A.U. after    2 cycles

 The electronic state is 1-A.
 Alpha  occ. eigenvalues --  -21.03192 -11.52575 -11.47579 -11.43562 -11.41935
 Alpha  occ. eigenvalues --  -11.40209 -11.34661  -1.80618  -1.32858  -1.12716
 Alpha  occ. eigenvalues --   -0.97794  -0.89510  -0.80320  -0.77413  -0.74107
 Alpha  occ. eigenvalues --   -0.64130  -0.63257  -0.59318  -0.47594  -0.46689
 Alpha  occ. eigenvalues --   -0.45443  -0.44603  -0.42461  -0.38524  -0.35124
 Alpha  occ. eigenvalues --   -0.27542
 Alpha virt. eigenvalues --    0.04032   0.04485   0.05089   0.05445   0.05620
 Alpha virt. eigenvalues --    0.06405   0.06447   0.06847   0.10975   0.12184
 Alpha virt. eigenvalues --    0.12298   0.12907   0.13361   0.13667   0.14355

 Mulliken charges:
               1
     1  C   -2.967935
     2  C    0.602961
     3  O   -3.607539
     4  C    0.605165
     5  C   -2.966086
     6  C   -1.536905
     7  C   -1.535891
     8  H    1.264287
     9  H    1.330698
    10  H    1.639209
    11  H    1.640121
    12  H    1.263972
    13  H    1.330456
    14  H    1.468464
    15  H    1.469022
 Sum of Mulliken charges =  -0.00000

 Dipole moment (field-independent basis, Debye):
    X=              0.0004    Y=             -0.7298    Z=              0.0008  Tot=              0.7298

 Test job not archived.
 1\1\GINC-SE231\SP\RHF\Aug-CC-pVDZ\C6H8O1\OHZDE\09-Apr-2025\0\\#t hf au
 g-cc-pvdz iop(5/13=1,5/36=2,99/5=2) pseudo=read geom=check guess=(read
 ,tcheck) scf=(maxcycle=1)\\title\\0,1\C,0,-1.6054966,-0.13289782,-0.25
 210139\C,0,-0.66977088,-0.48204093,0.91387453\O,0,0.14567822,-1.507951
 31,0.3471901\C,0,0.78393481,-0.69943143,-0.64119109\C,0,1.5906528,0.28
 476003,0.21738629\C,0,0.19596436,0.79061234,0.57513177\C,0,-0.31254338
 ,0.41265165,-0.85158263\H,0,-2.12729403,-0.96196121,-0.73076273\H,0,-2
 .29250754,0.67882226,-0.00876175\H,0,-1.00573346,-0.74943004,1.9121817

 Normal termination of Gaussian 16 at Wed Apr  9 19:09:01 2025.
