 Gaussian 16, Revision C.01,

 ----------------------------------------------------------------------
 #t hf aug-cc-pvdz symm=none int=(grid=ultrafine) guess=(read,tcheck) s
 table=(opt,rrhf)
 ----------------------------------------------------------------------
 -----
 title
 -----
 Symbolic Z-matrix:
 Charge =  0 Multiplicity = 1

 SCF Done:  E(RHF) =  -307.938512835     A.U. after   15 cycles

 1\1\GINC-SE105\Stability\RHF\Aug-CC-pVDZ\C6H10O1\OHZDE\09-Apr-2025\0\\
 #t hf aug-cc-pvdz symm=none int=(grid=ultrafine) guess=(read,tcheck) s
 table=(opt,rrhf)\\title\\0,1\C,0,1.74823724,0.48290848,-0.10388013\C,0
 ,0.6761741,-0.58779702,-0.2840186\C,0,-0.05042824,-0.88866181,1.030163
 74\C,0,-1.2015022,0.10423225,1.08473534\O,0,-1.84803669,0.37912432,2.0
 5842041\C,0,-1.39748446,0.69257992,-0.30624788\C,0,-0.4657893,-0.11600
 35,-1.20936171\H,0,2.52843548,0.14486434,0.58086011\H,0,1.33064134,1.4
 0559898,0.30920245\H,0,2.21997975,0.73056201,-1.0569122\H,0,1.14423648

 Normal termination of Gaussian 16 at Wed Apr  9 19:19:17 2025.
 Gaussian 16:  ES64L-G16RevC.01  3-Jul-2019

 ----------------------------------------------------------------------
 #t hf aug-cc-pvdz iop(5/13=1,5/36=2,99/5=2) pseudo=read geom=check gue
 ss=(read,tcheck) scf=(maxcycle=1)
 ----------------------------------------------------------------------
 -----
 title
 -----
 Structure from the checkpoint file:  "Grambow2020_wb97xd3_008607_reverse_mol2.chk"
 Charge =  0 Multiplicity = 1

                         Standard orientation:
 ---------------------------------------------------------------------
 Center     Atomic      Atomic             Coordinates (Angstroms)
 Number     Number       Type             X           Y           Z
 ---------------------------------------------------------------------
      1          6           0       -1.877705   -0.647517   -0.788259
      2          6           0       -1.171526   -0.197199    0.487165
      3          6           0        0.136808   -0.961411    0.710296
      4          6           0        1.196352   -0.161692   -0.032404
      5          8           0        2.293343   -0.550639   -0.327304
      6          6           0        0.631500    1.218832   -0.339800
      7          6           0       -0.703277    1.271385    0.403897
      8          1           0       -2.169652   -1.697548   -0.724602
      9          1           0       -1.232038   -0.542224   -1.664849
     10          1           0       -2.778538   -0.057233   -0.967721
     11          1           0       -1.852717   -0.329984    1.330106
     12          1           0        0.130799   -2.001479    0.383434
     13          1           0        0.422943   -0.953543    1.767686
     14          1           0       -0.551015    1.663186    1.412908
     15          1           0        1.346200    1.991729   -0.057132
     16          1           0        0.505232    1.286718   -1.423993
     17          1           0       -1.440864    1.911110   -0.082770
 ---------------------------------------------------------------------

 SCF Done:  E(RHF) =  -309.413995439     A.U. after    2 cycles

 The electronic state is 1-A.
 Alpha  occ. eigenvalues --  -21.04542 -11.50046 -11.44590 -11.42545 -11.40106
 Alpha  occ. eigenvalues --  -11.38374 -11.35681  -1.70359  -1.33354  -1.10284
 Alpha  occ. eigenvalues --   -1.04464  -0.95759  -0.81617  -0.75565  -0.67491
 Alpha  occ. eigenvalues --   -0.63960  -0.61007  -0.56728  -0.55512  -0.53733
 Alpha  occ. eigenvalues --   -0.52685  -0.47502  -0.45950  -0.44349  -0.43297
 Alpha  occ. eigenvalues --   -0.39528  -0.26576
 Alpha virt. eigenvalues --    0.03458   0.04776   0.05158   0.05271   0.05310
 Alpha virt. eigenvalues --    0.05521   0.06708   0.06944   0.08080   0.09155
 Alpha virt. eigenvalues --    0.10275   0.11682   0.13182   0.13687   0.13944

 Mulliken charges:
               1
     1  C   -3.834098
     2  C   -1.199800
     3  C   -3.963020
     4  C    5.105985
     5  O   -3.463352
     6  C   -3.435900
     7  C   -3.008929
     8  H    1.258847
     9  H    1.399323
    10  H    1.246477
    11  H    1.668868
    12  H    1.463456
    13  H    1.308055
    14  H    1.281850
    15  H    1.288499
    16  H    1.409275
    17  H    1.474464
 Sum of Mulliken charges =  -0.00000

 Dipole moment (field-independent basis, Debye):
    X=             -1.8077    Y=              0.5592    Z=              0.5192  Tot=              1.9621

 Test job not archived.
 1\1\GINC-SE105\SP\RHF\Aug-CC-pVDZ\C6H10O1\OHZDE\09-Apr-2025\0\\#t hf a
 ug-cc-pvdz iop(5/13=1,5/36=2,99/5=2) pseudo=read geom=check guess=(rea
 d,tcheck) scf=(maxcycle=1)\\title\\0,1\C,0,1.74823724,0.48290848,-0.10
 388013\C,0,0.6761741,-0.58779702,-0.2840186\C,0,-0.05042824,-0.8886618
 1,1.03016374\C,0,-1.2015022,0.10423225,1.08473534\O,0,-1.84803669,0.37
 912432,2.05842041\C,0,-1.39748446,0.69257992,-0.30624788\C,0,-0.465789
 3,-0.1160035,-1.20936171\H,0,2.52843548,0.14486434,0.58086011\H,0,1.33
 064134,1.40559898,0.30920245\H,0,2.21997975,0.73056201,-1.0569122\H,0,

 Normal termination of Gaussian 16 at Wed Apr  9 19:19:23 2025.
