 Gaussian 16, Revision C.01,

 ----------------------------------------------------------------------
 #t hf aug-cc-pvdz symm=none int=(grid=ultrafine) guess=(read,tcheck) s
 table=(opt,rrhf)
 ----------------------------------------------------------------------
 -----
 title
 -----
 Symbolic Z-matrix:
 Charge =  0 Multiplicity = 1

 SCF Done:  E(RHF) =  -295.725915533     A.U. after   18 cycles
 Normal termination of Gaussian 16 at Wed Apr  9 16:17:41 2025.
 Gaussian 16:  ES64L-G16RevC.01  3-Jul-2019

 ----------------------------------------------------------------------
 #t hf aug-cc-pvdz iop(5/13=1,5/36=2,99/5=2) pseudo=read geom=check gue
 ss=(read,tcheck) scf=(maxcycle=1)
 ----------------------------------------------------------------------
 -----
 title
 -----
 Structure from the checkpoint file:  "Grambow2020_b97d3_006778_forward_mol1.chk"
 Charge =  0 Multiplicity = 1

                         Standard orientation:
 ---------------------------------------------------------------------
 Center     Atomic      Atomic             Coordinates (Angstroms)
 Number     Number       Type             X           Y           Z
 ---------------------------------------------------------------------
      1          7           0        2.133358   -0.325642    0.122716
      2          6           0        0.928068    0.057935   -0.307533
      3          7           0        0.228313    1.081906   -0.156907
      4          7           0       -0.983003    1.308466    0.192855
      5          6           0       -1.748957   -0.793404    0.059873
      6          7           0       -0.796036   -1.486339   -0.055119
      7          1           0        2.496038   -1.190121   -0.264953
      8          1           0        2.404684   -0.151787    1.091703
      9          1           0       -1.282270    2.196136   -0.246328
     10          1           0       -2.771545   -0.490146    0.180721
 ---------------------------------------------------------------------

 SCF Done:  E(RHF) =  -297.082665876     A.U. after    2 cycles

 The electronic state is 1-A.
 Alpha  occ. eigenvalues --  -15.82369 -15.81263 -15.75330 -15.74754 -11.45772
 Alpha  occ. eigenvalues --  -11.43064  -1.52926  -1.37384  -1.28172  -1.10311
 Alpha  occ. eigenvalues --   -0.80943  -0.77571  -0.71493  -0.66281  -0.64453
 Alpha  occ. eigenvalues --   -0.54424  -0.53490  -0.47457  -0.43480  -0.40687
 Alpha  occ. eigenvalues --   -0.32972  -0.30595
 Alpha virt. eigenvalues --    0.03444   0.04755   0.06066   0.06277   0.09637
 Alpha virt. eigenvalues --    0.11084   0.11487   0.12104   0.12832   0.13968
 Alpha virt. eigenvalues --    0.14417   0.15521   0.16255   0.17814   0.17867

 Mulliken charges:
               1
     1  N   -2.746929
     2  C    2.930482
     3  N   -0.784090
     4  N   -1.344238
     5  C    0.634370
     6  N   -2.244516
     7  H    0.792937
     8  H    0.558349
     9  H    0.676888
    10  H    1.526746
 Sum of Mulliken charges =  -0.00000

 Dipole moment (field-independent basis, Debye):
    X=              0.8723    Y=              0.5440    Z=              1.0223  Tot=              1.4498

 Test job not archived.
 1\1\GINC-SE219\SP\RHF\Aug-CC-pVDZ\C2H4N4\OHZDE\09-Apr-2025\0\\#t hf au
 g-cc-pvdz iop(5/13=1,5/36=2,99/5=2) pseudo=read geom=check guess=(read
 ,tcheck) scf=(maxcycle=1)\\title\\0,1\N,0,2.07563832,-0.33495319,-0.09
 681506\C,0,0.82031858,-0.30601061,0.35958817\N,0,-0.17033806,-1.059176
 94,0.24911906\N,0,-1.39827855,-0.8993205,-0.07883766\C,0,-1.45733811,1
 .33960229,-0.00161358\N,0,-0.33199171,1.69780305,0.08041346\H,0,2.7011
 932,0.37976709,0.25956086\H,0,2.25744366,-0.61041556,-1.06317288\H,0,-
 1.95347468,-1.63504061,0.39113498\H,0,-2.52567265,1.37280198,-0.100689

 Normal termination of Gaussian 16 at Wed Apr  9 16:17:44 2025.
