 Gaussian 16, Revision C.01,

 ----------------------------------------------------------------------
 #t hf aug-cc-pvdz symm=none int=(grid=ultrafine) guess=(read,tcheck) s
 table=(opt,rrhf)
 ----------------------------------------------------------------------
 -----
 title
 -----
 Symbolic Z-matrix:
 Charge =  0 Multiplicity = 1

 SCF Done:  E(RHF) =  -354.679319629     A.U. after   14 cycles
 Normal termination of Gaussian 16 at Wed Apr  9 18:54:29 2025.
 Gaussian 16:  ES64L-G16RevC.01  3-Jul-2019

 ----------------------------------------------------------------------
 #t hf aug-cc-pvdz iop(5/13=1,5/36=2,99/5=2) pseudo=read geom=check gue
 ss=(read,tcheck) scf=(maxcycle=1)
 ----------------------------------------------------------------------
 -----
 title
 -----
 Structure from the checkpoint file:  "Grambow2020_wb97xd3_007773_forward_mol1.chk"
 Charge =  0 Multiplicity = 1

                         Standard orientation:
 ---------------------------------------------------------------------
 Center     Atomic      Atomic             Coordinates (Angstroms)
 Number     Number       Type             X           Y           Z
 ---------------------------------------------------------------------
      1          6           0        2.396192   -0.523252    0.000794
      2          6           0        0.991936   -0.048650   -0.000933
      3          7           0        0.658373    1.214303   -0.000473
      4          7           0       -0.723343    1.207775    0.000153
      5          6           0       -1.161237   -0.048398   -0.000211
      6          8           0       -2.246799   -0.715801    0.000760
      7          7           0       -0.108658   -0.861988   -0.001198
      8          1           0        2.594212   -1.122015    0.890838
      9          1           0        3.068665    0.331550   -0.012758
     10          1           0        2.588107   -1.146265   -0.873559
     11          1           0       -1.239866    2.066721    0.002143
     12          1           0       -1.182668   -1.602415   -0.000014
 ---------------------------------------------------------------------

 SCF Done:  E(RHF) =  -356.280795069     A.U. after    2 cycles

 The electronic state is 1-A.
 Alpha  occ. eigenvalues --  -21.05536 -15.81793 -15.75588 -15.74417 -11.51009
 Alpha  occ. eigenvalues --  -11.47693 -11.39812  -1.78480  -1.61892  -1.34103
 Alpha  occ. eigenvalues --   -1.22063  -1.07658  -0.87448  -0.85609  -0.71441
 Alpha  occ. eigenvalues --   -0.68356  -0.58660  -0.58566  -0.55784  -0.53889
 Alpha  occ. eigenvalues --   -0.50925  -0.46170  -0.44970  -0.40635  -0.33983
 Alpha  occ. eigenvalues --   -0.27457
 Alpha virt. eigenvalues --    0.03499   0.04805   0.06256   0.06449   0.06740
 Alpha virt. eigenvalues --    0.09396   0.10004   0.11257   0.12361   0.13034
 Alpha virt. eigenvalues --    0.14252   0.14918   0.15215   0.15379   0.15620

 Mulliken charges:
               1
     1  C   -4.618242
     2  C    4.287997
     3  N   -2.225466
     4  N   -1.981884
     5  C    5.854242
     6  O   -2.809495
     7  N   -3.206871
     8  H    1.175363
     9  H    1.286523
    10  H    1.174844
    11  H    0.875552
    12  H    0.187436
 Sum of Mulliken charges =   0.00000

 Dipole moment (field-independent basis, Debye):
    X=              0.5988    Y=              0.4805    Z=              0.0051  Tot=              0.7677

 Test job not archived.
 1\1\GINC-SE105\SP\RHF\Aug-CC-pVDZ\C3H5N3O1\OHZDE\09-Apr-2025\0\\#t hf
 aug-cc-pvdz iop(5/13=1,5/36=2,99/5=2) pseudo=read geom=check guess=(re
 ad,tcheck) scf=(maxcycle=1)\\title\\0,1\C,0,1.95680765,-0.22156175,0.0
 5624187\C,0,0.47469876,-0.20869139,0.07549347\N,0,-0.24929717,-1.21842
 058,0.47871895\N,0,-1.55453778,-0.78979313,0.33104588\C,0,-1.56266819,
 0.45016859,-0.15077394\O,0,-2.37400477,1.36971368,-0.49724519\N,0,-0.3
 0365505,0.84436362,-0.32208416\H,0,2.32524379,-0.07777566,-0.96036358\
 H,0,2.31687126,-1.1750073,0.43622256\H,0,2.3521628,0.58501955,0.674781

 Normal termination of Gaussian 16 at Wed Apr  9 18:54:34 2025.
