 Gaussian 16, Revision C.01,

 ----------------------------------------------------------------------
 #t hf aug-cc-pvdz symm=none int=(grid=ultrafine) guess=(read,tcheck) s
 table=(opt,rrhf)
 ----------------------------------------------------------------------
 -----
 title
 -----
 Symbolic Z-matrix:
 Charge =  0 Multiplicity = 1

 SCF Done:  E(RHF) =  -323.885373863     A.U. after   15 cycles
 Normal termination of Gaussian 16 at Wed Apr  9 18:18:51 2025.
 Gaussian 16:  ES64L-G16RevC.01  3-Jul-2019

 ----------------------------------------------------------------------
 #t hf aug-cc-pvdz iop(5/13=1,5/36=2,99/5=2) pseudo=read geom=check gue
 ss=(read,tcheck) scf=(maxcycle=1)
 ----------------------------------------------------------------------
 -----
 title
 -----
 Structure from the checkpoint file:  "Grambow2020_wb97xd3_006866_forward_mol2.chk"
 Charge =  0 Multiplicity = 1

                         Standard orientation:
 ---------------------------------------------------------------------
 Center     Atomic      Atomic             Coordinates (Angstroms)
 Number     Number       Type             X           Y           Z
 ---------------------------------------------------------------------
      1          6           0        2.386815   -0.018247   -0.732432
      2          7           0        1.168079    0.433357   -0.089946
      3          6           0        0.935812   -0.021216    1.253686
      4          6           0        0.145545   -0.573071    0.114737
      5          6           0       -1.289659   -0.202974   -0.103100
      6          8           0       -2.114308   -1.074916   -0.232350
      7          6           0       -1.640178    1.259471   -0.155911
      8          1           0        3.196156    0.669794   -0.485042
      9          1           0        2.247339   -0.011787   -1.814058
     10          1           0        2.682237   -1.031389   -0.423534
     11          1           0        1.661032   -0.694125    1.703378
     12          1           0        0.489475    0.695140    1.934121
     13          1           0        0.369716   -1.598401   -0.168770
     14          1           0       -2.718706    1.368796   -0.240367
     15          1           0       -1.278030    1.783199    0.730574
     16          1           0       -1.141325    1.720828   -1.009760
 ---------------------------------------------------------------------

 SCF Done:  E(RHF) =  -325.401896377     A.U. after    2 cycles

 The electronic state is 1-A.
 Alpha  occ. eigenvalues --  -21.04549 -15.73835 -11.50558 -11.46733 -11.40532
 Alpha  occ. eigenvalues --  -11.39585 -11.38000  -1.70805  -1.50070  -1.13119
 Alpha  occ. eigenvalues --   -1.07475  -0.94453  -0.87671  -0.76837  -0.67604
 Alpha  occ. eigenvalues --   -0.65108  -0.61152  -0.59312  -0.58521  -0.56186
 Alpha  occ. eigenvalues --   -0.52057  -0.49166  -0.47526  -0.43616  -0.40270
 Alpha  occ. eigenvalues --   -0.34438  -0.27652
 Alpha virt. eigenvalues --    0.03616   0.05084   0.05218   0.05527   0.05946
 Alpha virt. eigenvalues --    0.06116   0.06959   0.07533   0.08714   0.10494
 Alpha virt. eigenvalues --    0.11388   0.12206   0.12443   0.13756   0.14770

 Mulliken charges:
               1
     1  C   -3.434243
     2  N   -2.116381
     3  C   -2.103384
     4  C   -0.326347
     5  C    3.858855
     6  O   -3.611259
     7  C   -4.794205
     8  H    1.399372
     9  H    1.447992
    10  H    1.282574
    11  H    1.385400
    12  H    1.508861
    13  H    1.538815
    14  H    1.241621
    15  H    1.401519
    16  H    1.320811
 Sum of Mulliken charges =   0.00000

 Dipole moment (field-independent basis, Debye):
    X=              1.9434    Y=              0.5571    Z=              0.3453  Tot=              2.0510

 Test job not archived.
 1\1\GINC-SE045\SP\RHF\Aug-CC-pVDZ\C5H9N1O1\OHZDE\09-Apr-2025\0\\#t hf
 aug-cc-pvdz iop(5/13=1,5/36=2,99/5=2) pseudo=read geom=check guess=(re
 ad,tcheck) scf=(maxcycle=1)\\title\\0,1\C,0,1.30368299,0.0002014,-1.83
 014165\N,0,0.72395672,0.2333313,-0.52185287\C,0,1.06557872,-0.70123693
 ,0.51535923\C,0,-0.29389659,-0.70792498,-0.09950202\C,0,-1.49503653,-0
 .19563561,0.63470287\O,0,-2.47554338,-0.89340206,0.72830666\C,0,-1.423
 41859,1.18644608,1.22556668\H,0,2.28021287,0.48361019,-1.87851318\H,0,
 0.66168975,0.44294225,-2.59252958\H,0,1.43065973,-1.06830013,-2.056701

 Normal termination of Gaussian 16 at Wed Apr  9 18:18:56 2025.
