 Gaussian 16, Revision C.01,

 ----------------------------------------------------------------------
 #t hf aug-cc-pvdz symm=none int=(grid=ultrafine) guess=(read,tcheck) s
 table=(opt,rrhf)
 ----------------------------------------------------------------------
 -----
 title
 -----
 Symbolic Z-matrix:
 Charge =  0 Multiplicity = 1

 SCF Done:  E(RHF) =  -322.724707187     A.U. after   14 cycles
 Normal termination of Gaussian 16 at Wed Apr  9 03:39:28 2025.
 Gaussian 16:  ES64L-G16RevC.01  3-Jul-2019

 ----------------------------------------------------------------------
 #t hf aug-cc-pvdz iop(5/13=1,5/36=2,99/5=2) pseudo=read geom=check gue
 ss=(read,tcheck) scf=(maxcycle=1)
 ----------------------------------------------------------------------
 -----
 title
 -----
 Structure from the checkpoint file:  "Grambow2020_wb97xd3_007396_reverse_mol2.chk"
 Charge =  0 Multiplicity = 1

                         Standard orientation:
 ---------------------------------------------------------------------
 Center     Atomic      Atomic             Coordinates (Angstroms)
 Number     Number       Type             X           Y           Z
 ---------------------------------------------------------------------
      1          6           0        0.969529    1.163510   -0.356637
      2          6           0        1.608211   -0.146658   -0.025683
      3          6           0       -0.325391    1.384372    0.414000
      4          8           0       -1.424291    0.623934   -0.079624
      5          6           0       -1.365082   -0.712766   -0.147542
      6          7           0       -0.422143   -1.541315   -0.011739
      7          6           0        0.938930   -1.282774    0.164295
      8          1           0        0.758578    1.252038   -1.427245
      9          1           0        1.653000    1.979588   -0.109343
     10          1           0        2.684350   -0.170259    0.104206
     11          1           0       -0.658385    2.418162    0.327918
     12          1           0       -0.179839    1.151806    1.471730
     13          1           0       -2.360150   -1.092460   -0.370296
     14          1           0        1.494601   -2.175255    0.431592
 ---------------------------------------------------------------------

 SCF Done:  E(RHF) =  -324.207318839     A.U. after    2 cycles

 The electronic state is 1-A.
 Alpha  occ. eigenvalues --  -21.09033 -15.72094 -11.46990 -11.45875 -11.43679
 Alpha  occ. eigenvalues --  -11.40902 -11.36884  -1.81264  -1.37406  -1.22209
 Alpha  occ. eigenvalues --   -1.03707  -0.97869  -0.81891  -0.75121  -0.69662
 Alpha  occ. eigenvalues --   -0.66121  -0.61747  -0.60008  -0.55979  -0.53676
 Alpha  occ. eigenvalues --   -0.51130  -0.46036  -0.43122  -0.39090  -0.32825
 Alpha  occ. eigenvalues --   -0.27874
 Alpha virt. eigenvalues --    0.03306   0.05122   0.05388   0.05793   0.05992
 Alpha virt. eigenvalues --    0.06391   0.06912   0.10260   0.10684   0.11670
 Alpha virt. eigenvalues --    0.12136   0.12681   0.13460   0.14049   0.14539

 Mulliken charges:
               1
     1  C   -3.527681
     2  C    0.179905
     3  C   -1.423440
     4  O   -3.249313
     5  C    1.877383
     6  N   -3.665183
     7  C   -0.429868
     8  H    1.319315
     9  H    1.309590
    10  H    1.282927
    11  H    1.302016
    12  H    1.636165
    13  H    1.857173
    14  H    1.531012
 Sum of Mulliken charges =   0.00000

 Dipole moment (field-independent basis, Debye):
    X=              0.0852    Y=              2.4748    Z=              0.1691  Tot=              2.4820

 Test job not archived.
 1\1\GINC-SE029\SP\RHF\Aug-CC-pVDZ\C5H7N1O1\OHZDE\09-Apr-2025\0\\#t hf
 aug-cc-pvdz iop(5/13=1,5/36=2,99/5=2) pseudo=read geom=check guess=(re
 ad,tcheck) scf=(maxcycle=1)\\title\\0,1\C,0,-1.09022785,0.4759111,0.42
 798029\C,0,-1.11411263,-0.45446603,-0.74155602\C,0,0.22616939,1.234391
 3,0.53421787\O,0,1.30517538,0.4457468,1.02747123\C,0,1.68116766,-0.678
 7871,0.40382154\N,0,1.16409172,-1.36490306,-0.52135253\C,0,-0.07787721
 ,-1.19279457,-1.13636688\H,0,-1.26560214,-0.05350825,1.37005262\H,0,-1
 .89535145,1.20866533,0.33249733\H,0,-2.02225393,-0.50784951,-1.3314146

 Normal termination of Gaussian 16 at Wed Apr  9 03:39:32 2025.
