 Gaussian 16, Revision C.01,

 ----------------------------------------------------------------------
 #t hf aug-cc-pvdz symm=none int=(grid=ultrafine) guess=(read,tcheck) s
 table=(opt,rrhf)
 ----------------------------------------------------------------------
 -----
 title
 -----
 Symbolic Z-matrix:
 Charge =  0 Multiplicity = 1

 SCF Done:  E(RHF) =  -318.778071459     A.U. after   15 cycles
 Normal termination of Gaussian 16 at Wed Apr  9 18:21:19 2025.
 Gaussian 16:  ES64L-G16RevC.01  3-Jul-2019

 ----------------------------------------------------------------------
 #t hf aug-cc-pvdz iop(5/13=1,5/36=2,99/5=2) pseudo=read geom=check gue
 ss=(read,tcheck) scf=(maxcycle=1)
 ----------------------------------------------------------------------
 -----
 title
 -----
 Structure from the checkpoint file:  "Grambow2020_wb97xd3_006923_reverse_mol1.chk"
 Charge =  0 Multiplicity = 1

                         Standard orientation:
 ---------------------------------------------------------------------
 Center     Atomic      Atomic             Coordinates (Angstroms)
 Number     Number       Type             X           Y           Z
 ---------------------------------------------------------------------
      1          7           0       -2.469009   -0.444333    0.037228
      2          6           0       -1.110747   -0.145156   -0.018312
      3          6           0        0.000764   -0.966685    0.037684
      4          6           0        1.183705   -0.003719    0.013751
      5          7           0        2.508831   -0.485752   -0.018086
      6          6           0        0.712794    1.312651   -0.005178
      7          7           0       -0.654749    1.130525   -0.009410
      8          1           0       -3.017503    0.026508   -0.667067
      9          1           0       -2.654754   -1.433752    0.020647
     10          1           0        0.043906   -2.042530   -0.024374
     11          1           0        3.140092    0.252879    0.260606
     12          1           0        2.766381   -0.789829   -0.947068
     13          1           0        0.593344   -0.511600    1.067922
     14          1           0       -1.286066    1.912700    0.053540
 ---------------------------------------------------------------------

 SCF Done:  E(RHF) =  -320.282235553     A.U. after    2 cycles

 The electronic state is 1-A.
 Alpha  occ. eigenvalues --  -15.78799 -15.78368 -15.73675 -11.50219 -11.45124
 Alpha  occ. eigenvalues --  -11.39525 -11.33453  -1.54273  -1.35073  -1.30969
 Alpha  occ. eigenvalues --   -1.14197  -0.99236  -0.83306  -0.78646  -0.70616
 Alpha  occ. eigenvalues --   -0.67932  -0.65792  -0.62283  -0.56767  -0.54282
 Alpha  occ. eigenvalues --   -0.51905  -0.46116  -0.39990  -0.37795  -0.30463
 Alpha  occ. eigenvalues --   -0.24747
 Alpha virt. eigenvalues --    0.02895   0.04588   0.04938   0.05826   0.06655
 Alpha virt. eigenvalues --    0.07036   0.07577   0.11362   0.11596   0.11960
 Alpha virt. eigenvalues --    0.12482   0.12805   0.14239   0.14426   0.15333

 Mulliken charges:
               1
     1  N   -3.264122
     2  C    4.576943
     3  C   -4.267587
     4  C    5.247800
     5  N   -3.558773
     6  C   -2.013643
     7  N   -3.063576
     8  H    0.603606
     9  H    0.546694
    10  H    1.394214
    11  H    0.670473
    12  H    0.460425
    13  H    1.862852
    14  H    0.804694
 Sum of Mulliken charges =  -0.00000

 Dipole moment (field-independent basis, Debye):
    X=             -3.5180    Y=             -3.0185    Z=             -1.2232  Tot=              4.7942

 Test job not archived.
 1\1\GINC-SE232\SP\RHF\Aug-CC-pVDZ\C4H7N3\OHZDE\09-Apr-2025\0\\#t hf au
 g-cc-pvdz iop(5/13=1,5/36=2,99/5=2) pseudo=read geom=check guess=(read
 ,tcheck) scf=(maxcycle=1)\\title\\0,1\N,0,-2.45378717,-0.2470845,0.218
 47976\C,0,-1.09700915,-0.00646606,0.02169576\C,0,0.01710592,-0.7235222
 1,0.41929059\C,0,1.19730478,0.12806636,-0.03804335\N,0,2.52315531,-0.3
 2297444,0.12931696\C,0,0.72295465,1.3042751,-0.62666215\N,0,-0.6440911
 2,1.1426868,-0.53480021\H,0,-3.01162473,-0.13104681,-0.61453928\H,0,-2
 .63726768,-1.1430961,0.63945815\H,0,0.06217896,-1.71781147,0.83463562\

 Normal termination of Gaussian 16 at Wed Apr  9 18:21:23 2025.
