 Gaussian 16, Revision C.01,

 ----------------------------------------------------------------------
 #t hf aug-cc-pvdz symm=none int=(grid=ultrafine) guess=(read,tcheck) s
 table=(opt,rrhf)
 ----------------------------------------------------------------------
 -----
 title
 -----
 Symbolic Z-matrix:
 Charge =  0 Multiplicity = 1

 SCF Done:  E(RHF) =  -284.721853681     A.U. after   17 cycles
 Normal termination of Gaussian 16 at Wed Apr  9 17:38:20 2025.
 Gaussian 16:  ES64L-G16RevC.01  3-Jul-2019

 ----------------------------------------------------------------------
 #t hf aug-cc-pvdz iop(5/13=1,5/36=2,99/5=2) pseudo=read geom=check gue
 ss=(read,tcheck) scf=(maxcycle=1)
 ----------------------------------------------------------------------
 -----
 title
 -----
 Structure from the checkpoint file:  "Grambow2020_b97d3_007210_forward_mol1.chk"
 Charge =  0 Multiplicity = 1

                         Standard orientation:
 ---------------------------------------------------------------------
 Center     Atomic      Atomic             Coordinates (Angstroms)
 Number     Number       Type             X           Y           Z
 ---------------------------------------------------------------------
      1          6           0        2.562125   -0.418213    0.044718
      2          6           0        1.042587   -0.445181   -0.028693
      3          8           0        0.570535    0.929792   -0.171674
      4          6           0       -1.238822    1.134084    0.184580
      5          6           0       -1.847856   -0.119395    0.005355
      6          7           0       -2.350228   -1.190105   -0.022510
      7          1           0        2.905823    0.119550    0.937990
      8          1           0        2.939599   -1.449408    0.094435
      9          1           0        2.988534    0.064289   -0.843743
     10          1           0        0.600023   -0.898418    0.868482
     11          1           0        0.682488   -0.993926   -0.906710
     12          1           0       -1.451655    1.867120   -0.597794
     13          1           0        0.114297    1.275418    0.742550
 ---------------------------------------------------------------------

 SCF Done:  E(RHF) =  -286.036777739     A.U. after    2 cycles

 The electronic state is 1-A.
 Alpha  occ. eigenvalues --  -21.11098 -15.77352 -11.47032 -11.46022 -11.43616
 Alpha  occ. eigenvalues --  -11.38778  -1.76367  -1.30570  -1.14660  -1.04142
 Alpha  occ. eigenvalues --   -0.90364  -0.71937  -0.68976  -0.64589  -0.57815
 Alpha  occ. eigenvalues --   -0.56224  -0.53001  -0.52069  -0.48177  -0.46040
 Alpha  occ. eigenvalues --   -0.45236  -0.38385  -0.31105
 Alpha virt. eigenvalues --    0.03281   0.04704   0.05468   0.05823   0.06259
 Alpha virt. eigenvalues --    0.06691   0.07446   0.08828   0.10183   0.11016
 Alpha virt. eigenvalues --    0.12525   0.13135   0.13485   0.14324   0.15024

 Mulliken charges:
               1
     1  C   -3.405881
     2  C   -1.751683
     3  O   -2.300459
     4  C   -1.882465
     5  C    1.994643
     6  N   -2.193521
     7  H    1.188266
     8  H    1.124702
     9  H    1.245263
    10  H    1.678877
    11  H    1.559991
    12  H    1.360578
    13  H    1.381687
 Sum of Mulliken charges =  -0.00000

 Dipole moment (field-independent basis, Debye):
    X=              4.2862    Y=              1.3705    Z=             -0.9391  Tot=              4.5969

 Test job not archived.
 1\1\GINC-SE340\SP\RHF\Aug-CC-pVDZ\C4H7N1O1\OHZDE\09-Apr-2025\0\\#t hf
 aug-cc-pvdz iop(5/13=1,5/36=2,99/5=2) pseudo=read geom=check guess=(re
 ad,tcheck) scf=(maxcycle=1)\\title\\0,1\C,0,-1.95434532,-0.55317986,-0
 .0455193\C,0,-0.48982604,-0.34679617,-0.40287223\O,0,0.17811997,0.2542
 8521,0.74881212\C,0,1.83113797,0.99398877,0.34533307\C,0,2.29743768,0.
 37102451,-0.82459615\N,0,2.6444075,-0.05592695,-1.87192512\H,0,-2.4566
 688,0.40608468,0.13541072\H,0,-2.4618675,-1.05816625,-0.87962442\H,0,-
 2.05435403,-1.17861756,0.85048358\H,0,-0.37300361,0.30275717,-1.280734

 Normal termination of Gaussian 16 at Wed Apr  9 17:38:23 2025.
