 Gaussian 16, Revision C.01,

 ----------------------------------------------------------------------
 #t hf aug-cc-pvdz symm=none int=(grid=ultrafine) guess=(read,tcheck) s
 table=(opt,rrhf)
 ----------------------------------------------------------------------
 -----
 title
 -----
 Symbolic Z-matrix:
 Charge =  0 Multiplicity = 1

 SCF Done:  E(RHF) =  -304.502099441     A.U. after   14 cycles
 Normal termination of Gaussian 16 at Wed Apr  9 03:14:53 2025.
 Gaussian 16:  ES64L-G16RevC.01  3-Jul-2019

 ----------------------------------------------------------------------
 #t hf aug-cc-pvdz iop(5/13=1,5/36=2,99/5=2) pseudo=read geom=check gue
 ss=(read,tcheck) scf=(maxcycle=1)
 ----------------------------------------------------------------------
 -----
 title
 -----
 Structure from the checkpoint file:  "Grambow2020_b97d3_006928_forward_mol1.chk"
 Charge =  0 Multiplicity = 1

                         Standard orientation:
 ---------------------------------------------------------------------
 Center     Atomic      Atomic             Coordinates (Angstroms)
 Number     Number       Type             X           Y           Z
 ---------------------------------------------------------------------
      1          8           0       -1.799069   -0.644336   -0.225201
      2          6           0       -0.519112   -0.317235   -0.129526
      3          6           0       -0.343500    1.309048    0.547686
      4          6           0        0.463637    0.688774   -0.630571
      5          8           0        1.589101   -0.051460   -0.141222
      6          6           0        0.697525   -1.083292    0.384887
      7          1           0       -1.528223    0.400915    0.530397
      8          1           0       -0.987576    2.104300    0.157398
      9          1           0        0.201621    1.513269    1.469514
     10          1           0        0.595157    1.238316   -1.563323
     11          1           0        0.789033   -1.243876    1.466374
     12          1           0        0.818433   -2.030321   -0.163833
 ---------------------------------------------------------------------

 SCF Done:  E(RHF) =  -305.889651389     A.U. after    2 cycles

 The electronic state is 1-A.
 Alpha  occ. eigenvalues --  -21.06908 -21.02443 -11.53729 -11.50321 -11.45885
 Alpha  occ. eigenvalues --  -11.39998  -1.81203  -1.68897  -1.21593  -1.04544
 Alpha  occ. eigenvalues --   -0.91417  -0.80156  -0.69704  -0.67735  -0.61454
 Alpha  occ. eigenvalues --   -0.57265  -0.54428  -0.52778  -0.47999  -0.40100
 Alpha  occ. eigenvalues --   -0.33535  -0.27592  -0.26312
 Alpha virt. eigenvalues --    0.03588   0.04694   0.05537   0.05996   0.06280
 Alpha virt. eigenvalues --    0.07102   0.09393   0.10293   0.11172   0.13102
 Alpha virt. eigenvalues --    0.13453   0.13815   0.14383   0.15102   0.15371

 Mulliken charges:
               1
     1  O   -3.299025
     2  C    3.316962
     3  C   -3.102205
     4  C    0.680329
     5  O   -2.897741
     6  C   -1.956069
     7  H    0.748119
     8  H    1.214324
     9  H    1.191463
    10  H    1.270952
    11  H    1.449047
    12  H    1.383843
 Sum of Mulliken charges =   0.00000

 Dipole moment (field-independent basis, Debye):
    X=              1.0604    Y=              0.4690    Z=              0.0801  Tot=              1.1622

 Test job not archived.
 1\1\GINC-SE083\SP\RHF\Aug-CC-pVDZ\C4H6O2\OHZDE\09-Apr-2025\0\\#t hf au
 g-cc-pvdz iop(5/13=1,5/36=2,99/5=2) pseudo=read geom=check guess=(read
 ,tcheck) scf=(maxcycle=1)\\title\\0,1\O,0,0.24196495,-1.53293889,-1.25
 521391\C,0,0.28472309,-0.40754036,-0.55801214\C,0,-1.14777147,-0.26119
 591,0.47193753\C,0,-0.46869209,0.86609785,-0.36026426\O,0,0.59734083,1
 .47282936,0.38103687\C,0,1.4028284,0.26157537,0.2381001\H,0,-0.6003494
 8,-1.45070843,-0.24497537\H,0,-2.12562659,-0.48681474,0.03321232\H,0,-
 1.09314904,-0.17816933,1.55764063\H,0,-1.06315878,1.51667453,-1.002667

 Normal termination of Gaussian 16 at Wed Apr  9 03:15:00 2025.
