 Gaussian 16, Revision C.01,

 ----------------------------------------------------------------------
 #t hf aug-cc-pvdz symm=none int=(grid=ultrafine) guess=(read,tcheck) s
 table=(opt,rrhf)
 ----------------------------------------------------------------------
 -----
 title
 -----
 Symbolic Z-matrix:
 Charge =  0 Multiplicity = 1

 SCF Done:  E(RHF) =  -305.866784865     A.U. after   13 cycles
 Normal termination of Gaussian 16 at Wed Apr  9 17:57:54 2025.
 Gaussian 16:  ES64L-G16RevC.01  3-Jul-2019

 ----------------------------------------------------------------------
 #t hf aug-cc-pvdz iop(5/13=1,5/36=2,99/5=2) pseudo=read geom=check gue
 ss=(read,tcheck) scf=(maxcycle=1)
 ----------------------------------------------------------------------
 -----
 title
 -----
 Structure from the checkpoint file:  "Grambow2020_wb97xd3_006283_reverse_mol2.chk"
 Charge =  0 Multiplicity = 1

                         Standard orientation:
 ---------------------------------------------------------------------
 Center     Atomic      Atomic             Coordinates (Angstroms)
 Number     Number       Type             X           Y           Z
 ---------------------------------------------------------------------
      1          6           0        2.147027   -0.539470    0.284648
      2          6           0        0.853026    0.112041   -0.077024
      3          6           0        0.694800    1.427399   -0.227560
      4          8           0       -2.042288    0.143143    0.663996
      5          6           0       -1.433962   -0.389367   -0.464725
      6          8           0       -0.115775   -0.827786   -0.224635
      7          1           0        2.937543    0.198307    0.404299
      8          1           0        2.034343   -1.098231    1.215496
      9          1           0        2.435095   -1.250725   -0.491765
     10          1           0       -1.592604    0.956219    0.909029
     11          1           0        1.545461    2.078631   -0.093361
     12          1           0       -0.237355    1.896122   -0.513556
     13          1           0       -1.993401   -1.282881   -0.732042
     14          1           0       -1.429928    0.316077   -1.305021
 ---------------------------------------------------------------------

 SCF Done:  E(RHF) =  -307.257068163     A.U. after    2 cycles

 The electronic state is 1-A.
 Alpha  occ. eigenvalues --  -21.08082 -21.07580 -11.46991 -11.44800 -11.38740
 Alpha  occ. eigenvalues --  -11.36934  -1.83349  -1.68933  -1.17689  -1.01672
 Alpha  occ. eigenvalues --   -0.95957  -0.76214  -0.70972  -0.64421  -0.62468
 Alpha  occ. eigenvalues --   -0.58916  -0.57675  -0.54168  -0.51099  -0.46248
 Alpha  occ. eigenvalues --   -0.42039  -0.40310  -0.32940  -0.28435
 Alpha virt. eigenvalues --    0.03587   0.05151   0.05463   0.05684   0.06027
 Alpha virt. eigenvalues --    0.07128   0.07309   0.07694   0.11023   0.11380
 Alpha virt. eigenvalues --    0.12944   0.13637   0.14467   0.14999   0.16734

 Mulliken charges:
               1
     1  C   -4.120408
     2  C    4.092130
     3  C   -4.121494
     4  O   -2.506028
     5  C    0.126269
     6  O   -4.077454
     7  H    1.302154
     8  H    1.230561
     9  H    1.211425
    10  H    0.885519
    11  H    1.397065
    12  H    1.649607
    13  H    1.533449
    14  H    1.397204
 Sum of Mulliken charges =  -0.00000

 Dipole moment (field-independent basis, Debye):
    X=              0.3532    Y=             -0.2920    Z=             -0.2776  Tot=              0.5358

 Test job not archived.
 1\1\GINC-SE114\SP\RHF\Aug-CC-pVDZ\C4H8O2\OHZDE\09-Apr-2025\0\\#t hf au
 g-cc-pvdz iop(5/13=1,5/36=2,99/5=2) pseudo=read geom=check guess=(read
 ,tcheck) scf=(maxcycle=1)\\title\\0,1\C,0,-1.96557072,-0.00276379,0.40
 910423\C,0,-0.55470883,-0.14485495,-0.05885723\C,0,-0.03248522,-1.2797
 053,-0.5249694\O,0,2.25539844,0.47527718,0.74839478\C,0,1.47541612,1.0
 718014,-0.23314766\O,0,0.09757961,1.03970562,0.06351449\H,0,-2.5061878
 5,-0.94220708,0.31568563\H,0,-1.98054627,0.31717001,1.45256407\H,0,-2.
 47609966,0.76429582,-0.17627138\H,0,2.06762818,-0.46687907,0.7692078\H

 Normal termination of Gaussian 16 at Wed Apr  9 17:57:58 2025.
