 Gaussian 16, Revision C.01,

 ----------------------------------------------------------------------
 #t hf aug-cc-pvdz symm=none int=(grid=ultrafine) guess=(read,tcheck) s
 table=(opt,rrhf)
 ----------------------------------------------------------------------
 -----
 title
 -----
 Symbolic Z-matrix:
 Charge =  0 Multiplicity = 1

 SCF Done:  E(RHF) =  -338.710749728     A.U. after   15 cycles
 Normal termination of Gaussian 16 at Wed Apr  9 19:22:01 2025.
 Gaussian 16:  ES64L-G16RevC.01  3-Jul-2019

 ----------------------------------------------------------------------
 #t hf aug-cc-pvdz iop(5/13=1,5/36=2,99/5=2) pseudo=read geom=check gue
 ss=(read,tcheck) scf=(maxcycle=1)
 ----------------------------------------------------------------------
 -----
 title
 -----
 Structure from the checkpoint file:  "Grambow2020_wb97xd3_008823_reverse_mol2.chk"
 Charge =  0 Multiplicity = 1

                         Standard orientation:
 ---------------------------------------------------------------------
 Center     Atomic      Atomic             Coordinates (Angstroms)
 Number     Number       Type             X           Y           Z
 ---------------------------------------------------------------------
      1          6           0        2.499725   -0.346869   -0.001418
      2          6           0        1.039048   -0.099259   -0.000004
      3          6           0       -0.094574   -1.051533    0.002030
      4          6           0       -1.312050   -0.093312   -0.000350
      5          8           0       -2.466135   -0.454057   -0.001946
      6          7           0       -0.852671    1.198034    0.001062
      7          7           0        0.493449    1.073515    0.000150
      8          1           0        3.063907    0.586855   -0.009544
      9          1           0        2.789125   -0.932755   -0.876630
     10          1           0        2.792458   -0.918421    0.882164
     11          1           0       -0.107136   -1.700867   -0.875899
     12          1           0       -0.108463   -1.693706    0.885290
     13          1           0        1.020861    1.936345    0.000158
 ---------------------------------------------------------------------

 SCF Done:  E(RHF) =  -340.248420011     A.U. after    2 cycles

 The electronic state is 1-A.
 Alpha  occ. eigenvalues --  -20.99453 -15.87267 -15.70221 -11.51355 -11.47041
 Alpha  occ. eigenvalues --  -11.44428 -11.41321  -1.68785  -1.59132  -1.23880
 Alpha  occ. eigenvalues --   -1.15724  -1.07473  -0.88072  -0.76141  -0.70877
 Alpha  occ. eigenvalues --   -0.68562  -0.63095  -0.60765  -0.57409  -0.54439
 Alpha  occ. eigenvalues --   -0.54425  -0.46109  -0.43824  -0.40866  -0.25128
 Alpha  occ. eigenvalues --   -0.24496
 Alpha virt. eigenvalues --    0.01434   0.04162   0.04633   0.04681   0.06513
 Alpha virt. eigenvalues --    0.06958   0.08259   0.09966   0.10304   0.11210
 Alpha virt. eigenvalues --    0.11632   0.12593   0.13645   0.14372   0.14818

 Mulliken charges:
               1
     1  C   -4.503359
     2  C    4.025852
     3  C   -4.226441
     4  C    5.556840
     5  O   -3.359849
     6  N   -2.078597
     7  N   -2.503586
     8  H    1.346372
     9  H    1.154683
    10  H    1.153146
    11  H    1.269050
    12  H    1.269680
    13  H    0.896210
 Sum of Mulliken charges =   0.00000

 Dipole moment (field-independent basis, Debye):
    X=              6.7350    Y=             -0.4779    Z=              0.0022  Tot=              6.7519

 Test job not archived.
 1\1\GINC-SE100\SP\RHF\Aug-CC-pVDZ\C4H6N2O1\OHZDE\09-Apr-2025\0\\#t hf
 aug-cc-pvdz iop(5/13=1,5/36=2,99/5=2) pseudo=read geom=check guess=(re
 ad,tcheck) scf=(maxcycle=1)\\title\\0,1\C,0,-1.8262611,0.13479677,-0.1
 4010923\C,0,-0.36472012,0.05909384,0.09023365\C,0,0.73617171,-0.277647
 67,-0.84066484\C,0,1.97604633,-0.16096303,0.08103929\O,0,3.11429222,-0
 .35898198,-0.2756641\N,0,1.556623,0.19830735,1.33547652\N,0,0.21277537
 ,0.29371495,1.22360414\H,0,-2.36133855,0.40756889,0.77065709\H,0,-2.20
 996298,-0.82557917,-0.49147923\H,0,-2.05521219,0.8759544,-0.90910088\H

 Normal termination of Gaussian 16 at Wed Apr  9 19:22:06 2025.
