 Gaussian 16, Revision C.01,

 ----------------------------------------------------------------------
 #t hf aug-cc-pvdz symm=none int=(grid=ultrafine) guess=(read,tcheck) s
 table=(opt,rrhf)
 ----------------------------------------------------------------------
 -----
 title
 -----
 Symbolic Z-matrix:
 Charge =  0 Multiplicity = 1

 SCF Done:  E(RHF) =  -271.823370047     A.U. after   15 cycles
 Normal termination of Gaussian 16 at Wed Apr  9 03:39:49 2025.
 Gaussian 16:  ES64L-G16RevC.01  3-Jul-2019

 ----------------------------------------------------------------------
 #t hf aug-cc-pvdz iop(5/13=1,5/36=2,99/5=2) pseudo=read geom=check gue
 ss=(read,tcheck) scf=(maxcycle=1)
 ----------------------------------------------------------------------
 -----
 title
 -----
 Structure from the checkpoint file:  "Grambow2020_wb97xd3_007424_reverse_mol1.chk"
 Charge =  0 Multiplicity = 1

                         Standard orientation:
 ---------------------------------------------------------------------
 Center     Atomic      Atomic             Coordinates (Angstroms)
 Number     Number       Type             X           Y           Z
 ---------------------------------------------------------------------
      1          6           0       -1.609630    1.228223   -0.192578
      2          6           0        0.714611    1.126395    0.373150
      3          6           0        0.597535   -0.037138    1.297295
      4          6           0        0.607039   -1.172583    0.328630
      5          6           0       -1.686564   -1.128657   -0.181082
      6          6           0        1.143125   -0.725747   -0.856939
      7          6           0        1.203197    0.680224   -0.830579
      8          1           0       -1.627444    1.252258   -1.276416
      9          1           0       -2.549089    0.921935    0.249748
     10          1           0       -1.309302    2.189765    0.208919
     11          1           0        0.747366    2.151697    0.711305
     12          1           0        1.525026   -0.096089    1.886670
     13          1           0       -0.240601   -0.009629    1.987788
     14          1           0        0.561090   -2.206279    0.638350
     15          1           0       -2.223288   -0.784357   -1.055260
     16          1           0       -2.269502   -1.068673    0.731270
     17          1           0       -1.331947   -2.138334   -0.348826
     18          1           0        1.395623   -1.347129   -1.705244
     19          1           0        1.506193    1.310536   -1.655679
 ---------------------------------------------------------------------

 SCF Done:  E(RHF) =  -273.248423801     A.U. after    2 cycles

 The electronic state is 1-A.
 Alpha  occ. eigenvalues --  -11.46520 -11.45304 -11.40150 -11.39637 -11.37936
 Alpha  occ. eigenvalues --  -11.37448 -11.34998  -1.35450  -1.03458  -1.02562
 Alpha  occ. eigenvalues --   -1.01675  -0.92568  -0.79078  -0.75390  -0.71830
 Alpha  occ. eigenvalues --   -0.61011  -0.57709  -0.56703  -0.53573  -0.51967
 Alpha  occ. eigenvalues --   -0.49946  -0.49453  -0.47642  -0.45321  -0.41622
 Alpha  occ. eigenvalues --   -0.28354  -0.27101
 Alpha virt. eigenvalues --    0.03880   0.04019   0.04839   0.05015   0.05476
 Alpha virt. eigenvalues --    0.06006   0.06092   0.06484   0.07221   0.08591
 Alpha virt. eigenvalues --    0.08845   0.09694   0.10391   0.11609   0.12505

 Mulliken charges:
               1
     1  C   -3.940649
     2  C   -1.471363
     3  C   -4.692359
     4  C   -1.349249
     5  C   -3.825731
     6  C   -0.904964
     7  C   -0.645527
     8  H    1.466315
     9  H    1.121646
    10  H    1.414854
    11  H    1.524031
    12  H    1.234489
    13  H    1.568447
    14  H    1.580310
    15  H    1.164782
    16  H    1.307376
    17  H    1.412938
    18  H    1.508189
    19  H    1.526466
 Sum of Mulliken charges =  -0.00000

 Dipole moment (field-independent basis, Debye):
    X=              0.3609    Y=             -0.1354    Z=              0.1783  Tot=              0.4247

 Test job not archived.
 1\1\GINC-SE396\SP\RHF\Aug-CC-pVDZ\C7H12\OHZDE\09-Apr-2025\0\\#t hf aug
 -cc-pvdz iop(5/13=1,5/36=2,99/5=2) pseudo=read geom=check guess=(read,
 tcheck) scf=(maxcycle=1)\\title\\0,1\C,0,-1.26125818,-1.33905695,-0.09
 935203\C,0,-1.09662058,1.04703377,0.01009203\C,0,-0.06270464,1.0811993
 7,1.08313065\C,0,1.18080273,0.85992233,0.28791792\C,0,1.06847661,-1.48
 675188,0.23449976\C,0,0.9127775,1.16077954,-1.02748019\C,0,-0.48023251
 ,1.26944021,-1.19711503\H,0,-1.15427333,-1.57348121,-1.15253791\H,0,-1
 .06511475,-2.17972149,0.55399182\H,0,-2.24579062,-0.93387812,0.1067674

 Normal termination of Gaussian 16 at Wed Apr  9 03:39:55 2025.
