 Gaussian 16, Revision C.01,

 ----------------------------------------------------------------------
 #t hf aug-cc-pvdz symm=none int=(grid=ultrafine) guess=(read,tcheck) s
 table=(opt,rrhf)
 ----------------------------------------------------------------------
 -----
 title
 -----
 Symbolic Z-matrix:
 Charge =  0 Multiplicity = 1

 SCF Done:  E(RHF) =  -323.923631775     A.U. after   14 cycles
 Normal termination of Gaussian 16 at Wed Apr  9 18:32:30 2025.
 Gaussian 16:  ES64L-G16RevC.01  3-Jul-2019

 ----------------------------------------------------------------------
 #t hf aug-cc-pvdz iop(5/13=1,5/36=2,99/5=2) pseudo=read geom=check gue
 ss=(read,tcheck) scf=(maxcycle=1)
 ----------------------------------------------------------------------
 -----
 title
 -----
 Structure from the checkpoint file:  "Grambow2020_wb97xd3_007249_reverse_mol2.chk"
 Charge =  0 Multiplicity = 1

                         Standard orientation:
 ---------------------------------------------------------------------
 Center     Atomic      Atomic             Coordinates (Angstroms)
 Number     Number       Type             X           Y           Z
 ---------------------------------------------------------------------
      1          6           0       -1.122534    1.418484   -0.592308
      2          6           0       -1.569808    0.070552   -0.106491
      3          6           0       -1.816810   -0.041280    1.369378
      4          6           0       -1.730065   -0.961095   -0.931454
      5          8           0        3.086156    0.635844    0.113936
      6          6           0        2.281904   -0.200823    0.042565
      7          7           0        1.539183   -1.148936    0.008772
      8          1           0       -0.210523    1.734311   -0.076990
      9          1           0       -1.881153    2.174426   -0.372164
     10          1           0       -0.934552    1.421750   -1.665504
     11          1           0       -2.587478    0.668191    1.682662
     12          1           0       -2.134095   -1.044289    1.652793
     13          1           0       -0.911873    0.207195    1.931238
     14          1           0       -2.064095   -1.927255   -0.570005
     15          1           0       -1.555581   -0.866561   -1.997485
     16          1           0        0.559699   -1.126998   -0.247589
 ---------------------------------------------------------------------

 SCF Done:  E(RHF) =  -325.437024689     A.U. after    2 cycles

 The electronic state is 1-A.
 Alpha  occ. eigenvalues --  -21.12070 -15.76994 -11.56901 -11.43453 -11.39493
 Alpha  occ. eigenvalues --  -11.39290 -11.36813  -1.76971  -1.35215  -1.26414
 Alpha  occ. eigenvalues --   -1.02706  -1.00291  -0.78834  -0.76352  -0.63712
 Alpha  occ. eigenvalues --   -0.62211  -0.61745  -0.60584  -0.58932  -0.57650
 Alpha  occ. eigenvalues --   -0.54766  -0.53222  -0.49560  -0.46072  -0.38862
 Alpha  occ. eigenvalues --   -0.35014  -0.34148
 Alpha virt. eigenvalues --    0.03055   0.05092   0.05309   0.05699   0.05794
 Alpha virt. eigenvalues --    0.06433   0.07194   0.07765   0.08833   0.09522
 Alpha virt. eigenvalues --    0.10950   0.12654   0.12936   0.13266   0.13934

 Mulliken charges:
               1
     1  C   -4.607981
     2  C    2.782491
     3  C   -4.738963
     4  C   -4.495212
     5  O   -2.260973
     6  C    3.890258
     7  N   -2.688975
     8  H    1.299990
     9  H    1.132898
    10  H    1.420434
    11  H    1.165850
    12  H    1.391228
    13  H    1.182868
    14  H    1.628039
    15  H    1.607955
    16  H    1.290094
 Sum of Mulliken charges =   0.00000

 Dipole moment (field-independent basis, Debye):
    X=             -1.5631    Y=              1.3764    Z=             -0.0408  Tot=              2.0832

 Test job not archived.
 1\1\GINC-SE362\SP\RHF\Aug-CC-pVDZ\C5H9N1O1\OHZDE\09-Apr-2025\0\\#t hf
 aug-cc-pvdz iop(5/13=1,5/36=2,99/5=2) pseudo=read geom=check guess=(re
 ad,tcheck) scf=(maxcycle=1)\\title\\0,1\C,0,0.85854571,0.83967185,0.99
 564248\C,0,0.64034482,-0.51342553,0.38367256\C,0,1.31460359,-0.7481797
 7,-0.93616508\C,0,-0.10917813,-1.44274293,0.97114707\O,0,-2.46555317,2
 .68078423,-1.09840829\C,0,-2.34444904,1.53113321,-0.97365301\N,0,-2.31
 632396,0.32751316,-0.92674566\H,0,0.53787585,1.6315703,0.31217209\H,0,
 1.92243362,1.00546084,1.18556859\H,0,0.31940063,0.95215114,1.93573228\

 Normal termination of Gaussian 16 at Wed Apr  9 18:32:35 2025.
