 Gaussian 16, Revision C.01,

 ----------------------------------------------------------------------
 #t hf aug-cc-pvdz symm=none int=(grid=ultrafine) guess=(read,tcheck) s
 table=(opt,rrhf)
 ----------------------------------------------------------------------
 -----
 title
 -----
 Symbolic Z-matrix:
 Charge =  0 Multiplicity = 1

 SCF Done:  E(RHF) =  -343.620642447     A.U. after   14 cycles
 Normal termination of Gaussian 16 at Wed Apr  9 19:07:58 2025.
 Gaussian 16:  ES64L-G16RevC.01  3-Jul-2019

 ----------------------------------------------------------------------
 #t hf aug-cc-pvdz iop(5/13=1,5/36=2,99/5=2) pseudo=read geom=check gue
 ss=(read,tcheck) scf=(maxcycle=1)
 ----------------------------------------------------------------------
 -----
 title
 -----
 Structure from the checkpoint file:  "Grambow2020_wb97xd3_008126_forward_mol1.chk"
 Charge =  0 Multiplicity = 1

                         Standard orientation:
 ---------------------------------------------------------------------
 Center     Atomic      Atomic             Coordinates (Angstroms)
 Number     Number       Type             X           Y           Z
 ---------------------------------------------------------------------
      1          6           0       -0.498645    1.271535    0.089092
      2          8           0       -1.563146    0.431197   -0.529723
      3          6           0       -1.370325   -0.770295   -0.230641
      4          6           0       -0.314453   -1.047361    0.714130
      5          6           0        0.378793    0.308816    0.887288
      6          6           0        1.717553    0.161536    0.088004
      7          8           0        1.415596   -0.419265   -1.080549
      8          1           0       -1.030144    2.042215    0.643729
      9          1           0        0.032443    1.674631   -0.773043
     10          1           0       -2.042695   -1.488810   -0.693819
     11          1           0        0.390382   -1.683667    0.133232
     12          1           0       -0.692238   -1.569684    1.597144
     13          1           0        0.470272    0.608205    1.933403
     14          1           0        2.153166    1.185647    0.016864
     15          1           0        2.421683   -0.409378    0.737420
 ---------------------------------------------------------------------

 SCF Done:  E(RHF) =  -345.185183252     A.U. after    2 cycles

 The electronic state is 1-A.
 Alpha  occ. eigenvalues --  -21.18843 -20.88072 -11.57986 -11.50581 -11.45167
 Alpha  occ. eigenvalues --  -11.39840 -11.34833  -1.91135  -1.54418  -1.23814
 Alpha  occ. eigenvalues --   -1.13376  -0.93929  -0.87540  -0.81082  -0.75287
 Alpha  occ. eigenvalues --   -0.70494  -0.63916  -0.60534  -0.55883  -0.54592
 Alpha  occ. eigenvalues --   -0.50856  -0.47830  -0.44207  -0.43925  -0.35521
 Alpha  occ. eigenvalues --   -0.19085  -0.18128
 Alpha virt. eigenvalues --    0.02416   0.03786   0.04010   0.04917   0.06339
 Alpha virt. eigenvalues --    0.06637   0.07178   0.07889   0.08037   0.10343
 Alpha virt. eigenvalues --    0.11580   0.12029   0.12835   0.13145   0.13524

 Mulliken charges:
               1
     1  C   -1.577192
     2  O   -3.241885
     3  C    1.480836
     4  C   -3.239140
     5  C   -2.530933
     6  C   -0.187905
     7  O   -2.335078
     8  H    1.539356
     9  H    1.477349
    10  H    1.660264
    11  H    1.623881
    12  H    1.334825
    13  H    1.550809
    14  H    1.258099
    15  H    1.186715
 Sum of Mulliken charges =   0.00000

 Dipole moment (field-independent basis, Debye):
    X=             -6.6851    Y=              0.2599    Z=              1.8699  Tot=              6.9466

 Test job not archived.
 1\1\GINC-SE145\SP\RHF\Aug-CC-pVDZ\C5H8O2\OHZDE\09-Apr-2025\0\\#t hf au
 g-cc-pvdz iop(5/13=1,5/36=2,99/5=2) pseudo=read geom=check guess=(read
 ,tcheck) scf=(maxcycle=1)\\title\\0,1\C,0,-1.06713125,0.80118254,0.413
 61294\O,0,-1.06342457,1.14837321,-1.03611402\C,0,-0.37273484,0.3109375
 5,-1.66210375\C,0,0.11399414,-0.82431502,-0.91476246\C,0,-0.25047027,-
 0.48420288,0.53481743\C,0,1.11400057,-0.08328448,1.19079586\O,0,1.7398
 4409,0.7299351,0.32997281\H,0,-2.11775132,0.75566034,0.69323014\H,0,-0
 .55339931,1.64561484,0.87277669\H,0,-0.23202612,0.50882293,-2.72225512

 Normal termination of Gaussian 16 at Wed Apr  9 19:08:03 2025.
