 Gaussian 16, Revision C.01,

 ----------------------------------------------------------------------
 #t hf aug-cc-pvdz symm=none int=(grid=ultrafine) guess=(read,tcheck) s
 table=(opt,rrhf)
 ----------------------------------------------------------------------
 -----
 title
 -----
 Symbolic Z-matrix:
 Charge =  0 Multiplicity = 1

 SCF Done:  E(RHF) =  -269.396189138     A.U. after   17 cycles
 Normal termination of Gaussian 16 at Wed Apr  9 19:07:56 2025.
 Gaussian 16:  ES64L-G16RevC.01  3-Jul-2019

 ----------------------------------------------------------------------
 #t hf aug-cc-pvdz iop(5/13=1,5/36=2,99/5=2) pseudo=read geom=check gue
 ss=(read,tcheck) scf=(maxcycle=1)
 ----------------------------------------------------------------------
 -----
 title
 -----
 Structure from the checkpoint file:  "Grambow2020_wb97xd3_008148_reverse_mol1.chk"
 Charge =  0 Multiplicity = 1

                         Standard orientation:
 ---------------------------------------------------------------------
 Center     Atomic      Atomic             Coordinates (Angstroms)
 Number     Number       Type             X           Y           Z
 ---------------------------------------------------------------------
      1          6           0       -2.128027    0.016958   -0.109904
      2          6           0       -0.721950    0.208505   -0.153413
      3          6           0       -0.127804   -1.190270   -0.131879
      4          6           0        1.068757   -0.604520    0.680905
      5          6           0        1.498703   -0.036677   -0.596591
      6          6           0        0.616905    1.107640   -0.502891
      7          6           0        0.222662    0.689956    0.889679
      8          1           0       -2.794555    0.693204    0.422521
      9          1           0       -2.574920   -0.461307   -0.978587
     10          1           0       -1.478817   -1.262434    0.427711
     11          1           0       -0.012629   -1.796006   -1.032167
     12          1           0        1.648171   -1.195344    1.379978
     13          1           0        2.055598   -0.471432   -1.416631
     14          1           0        0.577260    2.052742   -1.017745
     15          1           0        0.004413    1.291028    1.759473
 ---------------------------------------------------------------------

 SCF Done:  E(RHF) =  -270.762457617     A.U. after    2 cycles

 The electronic state is 1-A.
 Alpha  occ. eigenvalues --  -11.53833 -11.51892 -11.44183 -11.42660 -11.40206
 Alpha  occ. eigenvalues --  -11.39266 -11.35819  -1.52181  -1.12573  -1.03845
 Alpha  occ. eigenvalues --   -0.95203  -0.88876  -0.76206  -0.74747  -0.70141
 Alpha  occ. eigenvalues --   -0.64868  -0.59710  -0.55951  -0.52627  -0.50625
 Alpha  occ. eigenvalues --   -0.44679  -0.40510  -0.35685  -0.30815  -0.24551
 Alpha virt. eigenvalues --    0.03871   0.04456   0.05126   0.05507   0.06010
 Alpha virt. eigenvalues --    0.06357   0.06763   0.07705   0.08807   0.10721
 Alpha virt. eigenvalues --    0.12062   0.12218   0.12386   0.12936   0.13593

 Mulliken charges:
               1
     1  C   -3.550067
     2  C    1.998171
     3  C   -1.846456
     4  C   -2.711239
     5  C   -0.647504
     6  C   -1.680991
     7  C   -0.716529
     8  H    1.131980
     9  H    1.133565
    10  H    1.085086
    11  H    1.105209
    12  H    1.284390
    13  H    1.212823
    14  H    1.115649
    15  H    1.085914
 Sum of Mulliken charges =   0.00000

 Dipole moment (field-independent basis, Debye):
    X=              1.3620    Y=              1.0810    Z=             -0.1578  Tot=              1.7460

 Test job not archived.
 1\1\GINC-SE362\SP\RHF\Aug-CC-pVDZ\C7H8\OHZDE\09-Apr-2025\0\\#t hf aug-
 cc-pvdz iop(5/13=1,5/36=2,99/5=2) pseudo=read geom=check guess=(read,t
 check) scf=(maxcycle=1)\\title\\0,1\C,0,2.0015198,0.04946407,0.0364889
 3\C,0,0.60177487,0.19921297,0.2206763\C,0,-0.01938205,-1.02782337,-0.4
 2630813\C,0,-1.23249818,-0.13009934,-0.82370093\C,0,-1.60611508,-0.223
 41044,0.58732655\C,0,-0.70647135,0.83215687,1.00233076\C,0,-0.36972515
 ,1.11197975,-0.43900144\H,0,2.66162282,0.89568798,-0.14575596\H,0,2.46
 96019,-0.77893021,0.56348509\H,0,1.30939275,-0.8312549,-1.00880517\H,0

 Normal termination of Gaussian 16 at Wed Apr  9 19:08:01 2025.
