 Gaussian 16, Revision C.01,

 ----------------------------------------------------------------------
 #t hf aug-cc-pvdz symm=none int=(grid=ultrafine) guess=(read,tcheck) s
 table=(opt,rrhf)
 ----------------------------------------------------------------------
 -----
 title
 -----
 Symbolic Z-matrix:
 Charge =  0 Multiplicity = 1

 SCF Done:  E(RHF) =  -305.337516687     A.U. after   19 cycles
 Normal termination of Gaussian 16 at Wed Apr  9 03:53:09 2025.
 Gaussian 16:  ES64L-G16RevC.01  3-Jul-2019

 ----------------------------------------------------------------------
 #t hf aug-cc-pvdz iop(5/13=1,5/36=2,99/5=2) pseudo=read geom=check gue
 ss=(read,tcheck) scf=(maxcycle=1)
 ----------------------------------------------------------------------
 -----
 title
 -----
 Structure from the checkpoint file:  "Grambow2020_wb97xd3_008358_reverse_mol2.chk"
 Charge =  0 Multiplicity = 1

                         Standard orientation:
 ---------------------------------------------------------------------
 Center     Atomic      Atomic             Coordinates (Angstroms)
 Number     Number       Type             X           Y           Z
 ---------------------------------------------------------------------
      1          6           0        2.423600    0.268609   -0.370566
      2          6           0        1.166123    0.370911    0.063553
      3          6           0        0.139430    1.277139    0.137189
      4          6           0       -1.155628    1.168553    0.068794
      5          6           0       -1.674082   -0.224454   -0.298340
      6          8           0       -0.653335   -1.190133   -0.269125
      7          6           0        0.402074   -0.931300    0.599998
      8          1           0        2.696998   -0.700341   -0.796595
      9          1           0       -1.864748    1.909874    0.411673
     10          1           0       -2.442189   -0.465679    0.447144
     11          1           0       -2.119445   -0.275212   -1.292474
     12          1           0        1.062268   -1.792089    0.551965
     13          1           0        0.084696   -0.732234    1.627511
 ---------------------------------------------------------------------

 SCF Done:  E(RHF) =  -306.739806222     A.U. after    2 cycles

 The electronic state is 1-A.
 Alpha  occ. eigenvalues --  -21.07777 -11.47845 -11.46527 -11.44934 -11.43000
 Alpha  occ. eigenvalues --  -11.41608 -11.39886  -1.80374  -1.26630  -1.15620
 Alpha  occ. eigenvalues --   -1.00423  -0.91569  -0.85719  -0.69028  -0.67715
 Alpha  occ. eigenvalues --   -0.66755  -0.61474  -0.57625  -0.57279  -0.51139
 Alpha  occ. eigenvalues --   -0.44191  -0.41060  -0.34641  -0.33099  -0.28207
 Alpha virt. eigenvalues --    0.02653   0.03283   0.04974   0.05192   0.05930
 Alpha virt. eigenvalues --    0.06341   0.06535   0.09500   0.10103   0.10921
 Alpha virt. eigenvalues --    0.11565   0.12266   0.13026   0.13301   0.13723

 Mulliken charges:
               1
     1  C   -4.102500
     2  C    3.503896
     3  C    1.770842
     4  C   -1.875991
     5  C   -1.845729
     6  O   -2.929850
     7  C   -2.137230
     8  H    1.003006
     9  H    1.322782
    10  H    1.190209
    11  H    1.231006
    12  H    1.379391
    13  H    1.490167
 Sum of Mulliken charges =  -0.00000

 Dipole moment (field-independent basis, Debye):
    X=             -3.5897    Y=             -2.5536    Z=              0.3356  Tot=              4.4181

 Test job not archived.
 1\1\GINC-SE095\SP\RHF\Aug-CC-pVDZ\C6H6O1\OHZDE\09-Apr-2025\0\\#t hf au
 g-cc-pvdz iop(5/13=1,5/36=2,99/5=2) pseudo=read geom=check guess=(read
 ,tcheck) scf=(maxcycle=1)\\title\\0,1\C,0,2.53058269,-0.7081687,0.1986
 1385\C,0,1.32812234,-0.22993258,0.52350031\C,0,0.72373568,0.92936751,0
 .93763918\C,0,-0.44662659,1.45492191,0.71926103\C,0,-1.30821486,0.7209
 7584,-0.31177676\O,0,-0.75969323,-0.52387658,-0.66502094\C,0,0.0261442
 5,-1.1379821,0.30533576\H,0,2.54263532,-1.43767287,-0.61550475\H,0,-0.
 90470694,2.23229102,1.31577787\H,0,-2.28838698,0.58017484,0.16083574\H

 Normal termination of Gaussian 16 at Wed Apr  9 03:53:13 2025.
