 Gaussian 16, Revision C.01,

 ----------------------------------------------------------------------
 #t hf aug-cc-pvdz symm=none int=(grid=ultrafine) guess=(read,tcheck) s
 table=(opt,rrhf)
 ----------------------------------------------------------------------
 -----
 title
 -----
 Symbolic Z-matrix:
 Charge =  0 Multiplicity = 1

 SCF Done:  E(RHF) =  -320.653976022     A.U. after   15 cycles
 Normal termination of Gaussian 16 at Wed Apr  9 17:28:11 2025.
 Gaussian 16:  ES64L-G16RevC.01  3-Jul-2019

 ----------------------------------------------------------------------
 #t hf aug-cc-pvdz iop(5/13=1,5/36=2,99/5=2) pseudo=read geom=check gue
 ss=(read,tcheck) scf=(maxcycle=1)
 ----------------------------------------------------------------------
 -----
 title
 -----
 Structure from the checkpoint file:  "Grambow2020_b97d3_007148_reverse_mol2.chk"
 Charge =  0 Multiplicity = 1

                         Standard orientation:
 ---------------------------------------------------------------------
 Center     Atomic      Atomic             Coordinates (Angstroms)
 Number     Number       Type             X           Y           Z
 ---------------------------------------------------------------------
      1          8           0       -2.105285   -0.397550    0.238723
      2          6           0       -0.952979   -0.090973    0.069142
      3          7           0        0.140385   -0.992805   -0.285414
      4          6           0        1.342028   -0.457782   -0.435454
      5          6           0        1.042850    0.983209   -0.139401
      6          8           0       -0.392014    1.131418    0.160558
      7          1           0       -0.072021   -1.983949   -0.403005
      8          1           0        4.041115   -1.305946    1.528782
      9          1           0        3.546627   -1.198285    0.977271
     10          1           0        1.277727    1.626218   -0.998464
     11          1           0        1.610852    1.333921    0.733344
 ---------------------------------------------------------------------

 SCF Done:  E(RHF) =  -322.048650389     A.U. after    2 cycles

 The electronic state is 1-A.
 Alpha  occ. eigenvalues --  -21.12282 -21.07769 -15.83333 -11.55434 -11.47311
 Alpha  occ. eigenvalues --  -11.42623  -1.87672  -1.69971  -1.44091  -1.09982
 Alpha  occ. eigenvalues --   -0.87405  -0.86356  -0.69382  -0.69312  -0.61137
 Alpha  occ. eigenvalues --   -0.57864  -0.57076  -0.54373  -0.48971  -0.45819
 Alpha  occ. eigenvalues --   -0.39009  -0.34232  -0.31980
 Alpha virt. eigenvalues --    0.03302   0.05207   0.05507   0.06579   0.08239
 Alpha virt. eigenvalues --    0.09107   0.10030   0.10784   0.11217   0.11336
 Alpha virt. eigenvalues --    0.12261   0.13291   0.14575   0.15001   0.16874

 Mulliken charges:
               1
     1  O   -2.917250
     2  C    5.498379
     3  N   -2.026603
     4  C   -0.247248
     5  C   -1.307799
     6  O   -2.757527
     7  H    0.745019
     8  H    0.223259
     9  H   -0.280699
    10  H    1.525904
    11  H    1.544564
 Sum of Mulliken charges =  -0.00000

 Dipole moment (field-independent basis, Debye):
    X=              0.1304    Y=              0.5098    Z=             -0.0369  Tot=              0.5275

 Test job not archived.
 1\1\GINC-SE229\SP\RHF\Aug-CC-pVDZ\C3H5N1O2\OHZDE\09-Apr-2025\0\\#t hf
 aug-cc-pvdz iop(5/13=1,5/36=2,99/5=2) pseudo=read geom=check guess=(re
 ad,tcheck) scf=(maxcycle=1)\\title\\0,1\O,0,2.92524481,0.25418219,-0.2
 7230763\C,0,1.73477651,0.3733681,-0.13397646\N,0,0.8616053,-0.49937606
 ,0.64726832\C,0,-0.42608587,-0.19379715,0.68163247\C,0,-0.4439072,1.02
 998796,-0.18764403\O,0,0.92453816,1.31849023,-0.65121692\H,0,1.2819520
 9,-1.29503309,1.12846348\H,0,-2.88946056,-2.27374515,-0.53009458\H,0,-
 2.42708069,-1.85729255,-0.11410657\H,0,-0.80728231,1.90800849,0.363404

 Normal termination of Gaussian 16 at Wed Apr  9 17:28:14 2025.
