 Gaussian 16, Revision C.01,

 ----------------------------------------------------------------------
 #t hf aug-cc-pvdz symm=none int=(grid=ultrafine) guess=(read,tcheck) s
 table=(opt,rrhf)
 ----------------------------------------------------------------------
 -----
 title
 -----
 Symbolic Z-matrix:
 Charge =  0 Multiplicity = 1

 SCF Done:  E(RHF) =  -302.817037415     A.U. after   14 cycles
 Normal termination of Gaussian 16 at Wed Apr  9 19:24:07 2025.
 Gaussian 16:  ES64L-G16RevC.01  3-Jul-2019

 ----------------------------------------------------------------------
 #t hf aug-cc-pvdz iop(5/13=1,5/36=2,99/5=2) pseudo=read geom=check gue
 ss=(read,tcheck) scf=(maxcycle=1)
 ----------------------------------------------------------------------
 -----
 title
 -----
 Structure from the checkpoint file:  "Grambow2020_wb97xd3_008884_reverse_mol2.chk"
 Charge =  0 Multiplicity = 1

                         Standard orientation:
 ---------------------------------------------------------------------
 Center     Atomic      Atomic             Coordinates (Angstroms)
 Number     Number       Type             X           Y           Z
 ---------------------------------------------------------------------
      1          6           0        2.847877    0.503651   -0.220743
      2          7           0        1.488808    0.049769   -0.383228
      3          6           0        0.859167   -0.323936    0.640521
      4          6           0       -0.556058   -0.799941    0.601194
      5          6           0       -1.604921    0.002653   -0.086823
      6          7           0       -2.245045    1.191951    0.012736
      7          6           0       -1.251203   -1.068327   -0.709521
      8          1           0        3.204480    0.458058    0.818446
      9          1           0        3.508670   -0.100125   -0.846758
     10          1           0        2.928400    1.534080   -0.574541
     11          1           0        1.335902   -0.320314    1.634966
     12          1           0       -0.835919   -1.370080    1.491003
     13          1           0       -2.393147    1.551080    0.938625
     14          1           0       -2.993756    1.364186   -0.635280
     15          1           0       -1.230144   -1.693529   -1.580786
 ---------------------------------------------------------------------

 SCF Done:  E(RHF) =  -304.266024913     A.U. after    2 cycles

 The electronic state is 1-A.
 Alpha  occ. eigenvalues --  -15.77888 -15.71025 -11.46905 -11.43782 -11.40484
 Alpha  occ. eigenvalues --  -11.37936 -11.37174  -1.41713  -1.35668  -1.22646
 Alpha  occ. eigenvalues --   -1.01854  -0.88956  -0.78244  -0.75553  -0.68588
 Alpha  occ. eigenvalues --   -0.65767  -0.65014  -0.57979  -0.57450  -0.53364
 Alpha  occ. eigenvalues --   -0.45473  -0.45066  -0.43972  -0.35067  -0.33808
 Alpha  occ. eigenvalues --   -0.28230
 Alpha virt. eigenvalues --    0.03431   0.05182   0.05715   0.05743   0.06167
 Alpha virt. eigenvalues --    0.06228   0.07043   0.08221   0.10058   0.11481
 Alpha virt. eigenvalues --    0.12275   0.12655   0.12996   0.13998   0.14868

 Mulliken charges:
               1
     1  C   -3.387802
     2  N   -2.897904
     3  C   -0.103414
     4  C   -1.586135
     5  C    3.267614
     6  N   -3.434862
     7  C   -0.930878
     8  H    1.214020
     9  H    1.342589
    10  H    1.352488
    11  H    1.692593
    12  H    1.100595
    13  H    0.709928
    14  H    0.718710
    15  H    0.942458
 Sum of Mulliken charges =  -0.00000

 Dipole moment (field-independent basis, Debye):
    X=             -1.5947    Y=              1.0720    Z=              0.9731  Tot=              2.1539

 Test job not archived.
 1\1\GINC-SE207\SP\RHF\Aug-CC-pVDZ\C5H8N2\OHZDE\09-Apr-2025\0\\#t hf au
 g-cc-pvdz iop(5/13=1,5/36=2,99/5=2) pseudo=read geom=check guess=(read
 ,tcheck) scf=(maxcycle=1)\\title\\0,1\C,0,2.58886248,-0.16027792,0.741
 94169\N,0,1.33867159,0.22200627,0.13336953\C,0,0.58819225,-0.68714854,
 -0.30752031\C,0,-0.7357039,-0.4170665,-0.94418434\C,0,-1.73414053,0.45
 863353,-0.27045239\N,0,-2.51254704,0.49751048,0.8370991\C,0,-1.1590253
 7,0.98678572,-1.2952284\H,0,2.76345917,-1.2459445,0.74111185\H,0,3.412
 0035,0.32931248,0.21674761\H,0,2.61187095,0.1981099,1.77367328\H,0,0.8

 Normal termination of Gaussian 16 at Wed Apr  9 19:24:12 2025.
