 Gaussian 16, Revision C.01,

 ----------------------------------------------------------------------
 #t hf aug-cc-pvdz symm=none int=(grid=ultrafine) guess=(read,tcheck) s
 table=(opt,rrhf)
 ----------------------------------------------------------------------
 -----
 title
 -----
 Symbolic Z-matrix:
 Charge =  0 Multiplicity = 1

 SCF Done:  E(RHF) =  -360.813482536     A.U. after   15 cycles
 Normal termination of Gaussian 16 at Wed Apr  9 03:58:19 2025.
 Gaussian 16:  ES64L-G16RevC.01  3-Jul-2019

 ----------------------------------------------------------------------
 #t hf aug-cc-pvdz iop(5/13=1,5/36=2,99/5=2) pseudo=read geom=check gue
 ss=(read,tcheck) scf=(maxcycle=1)
 ----------------------------------------------------------------------
 -----
 title
 -----
 Structure from the checkpoint file:  "Grambow2020_wb97xd3_008681_reverse_mol1.chk"
 Charge =  0 Multiplicity = 1

                         Standard orientation:
 ---------------------------------------------------------------------
 Center     Atomic      Atomic             Coordinates (Angstroms)
 Number     Number       Type             X           Y           Z
 ---------------------------------------------------------------------
      1          6           0       -2.966979   -0.165608    0.473854
      2          7           0       -1.859462    0.284413   -0.343339
      3          6           0       -0.640638   -0.660797   -0.416525
      4          6           0        0.558832    0.055031   -0.113990
      5          8           0        0.619449    1.272257   -0.009011
      6          8           0        1.638119   -0.739550    0.009673
      7          6           0        2.871141   -0.066416    0.227195
      8          1           0       -3.333489   -1.119132    0.092816
      9          1           0       -3.780338    0.558022    0.428464
     10          1           0       -2.649621   -0.304485    1.512204
     11          1           0       -1.477442    1.204645   -0.135319
     12          1           0       -1.475602   -0.189600   -1.346729
     13          1           0       -0.829241   -1.647710   -0.022064
     14          1           0        3.628565   -0.845365    0.278176
     15          1           0        2.848490    0.498809    1.159769
     16          1           0        3.090227    0.619005   -0.592447
 ---------------------------------------------------------------------

 SCF Done:  E(RHF) =  -362.446025393     A.U. after    2 cycles

 The electronic state is 1-A.
 Alpha  occ. eigenvalues --  -21.07026 -21.01367 -15.78240 -11.50234 -11.41480
 Alpha  occ. eigenvalues --  -11.39906 -11.37584  -1.82715  -1.63991  -1.43838
 Alpha  occ. eigenvalues --   -1.08850  -1.01417  -0.92093  -0.78021  -0.70333
 Alpha  occ. eigenvalues --   -0.67634  -0.62494  -0.61601  -0.61322  -0.56439
 Alpha  occ. eigenvalues --   -0.55408  -0.51716  -0.49840  -0.43298  -0.39928
 Alpha  occ. eigenvalues --   -0.30783  -0.28721  -0.25976
 Alpha virt. eigenvalues --    0.03138   0.05037   0.05143   0.05586   0.06027
 Alpha virt. eigenvalues --    0.06755   0.07304   0.07531   0.08345   0.10401
 Alpha virt. eigenvalues --    0.11271   0.11601   0.13636   0.15053   0.15411

 Mulliken charges:
               1
     1  C   -3.457930
     2  N   -2.609765
     3  C   -3.191374
     4  C    7.108845
     5  O   -3.102579
     6  O   -3.230786
     7  C   -3.123807
     8  H    1.393769
     9  H    1.309715
    10  H    1.346750
    11  H    0.817227
    12  H    1.315187
    13  H    1.512023
    14  H    1.315820
    15  H    1.317187
    16  H    1.279718
 Sum of Mulliken charges =  -0.00000

 Dipole moment (field-independent basis, Debye):
    X=             -2.2971    Y=             -0.1873    Z=              0.9581  Tot=              2.4959

 Test job not archived.
 1\1\GINC-SE026\SP\RHF\Aug-CC-pVDZ\C4H9N1O2\OHZDE\09-Apr-2025\0\\#t hf
 aug-cc-pvdz iop(5/13=1,5/36=2,99/5=2) pseudo=read geom=check guess=(re
 ad,tcheck) scf=(maxcycle=1)\\title\\0,1\C,0,-2.75256263,0.31895894,0.1
 2152278\N,0,-1.62407715,-0.58079677,0.23932371\C,0,-0.36774018,-0.0085
 0193,0.93099236\C,0,0.7869354,-0.22649874,0.11743978\O,0,0.79551425,-0
 .93441788,-0.88011318\O,0,1.88849105,0.39633583,0.57587554\C,0,3.08249
 555,0.14168394,-0.15232223\H,0,-3.06290522,0.64185082,1.115583\H,0,-3.
 58986001,-0.19488403,-0.34980819\H,0,-2.48185029,1.20382606,-0.4631971

 Normal termination of Gaussian 16 at Wed Apr  9 03:58:24 2025.
