 Gaussian 16, Revision C.01,

 ----------------------------------------------------------------------
 #t hf aug-cc-pvdz symm=none int=(grid=ultrafine) guess=(read,tcheck) s
 table=(opt,rrhf)
 ----------------------------------------------------------------------
 -----
 title
 -----
 Symbolic Z-matrix:
 Charge =  0 Multiplicity = 1

 SCF Done:  E(RHF) =  -375.751752185     A.U. after   15 cycles
 Normal termination of Gaussian 16 at Wed Apr  9 03:46:30 2025.
 Gaussian 16:  ES64L-G16RevC.01  3-Jul-2019

 ----------------------------------------------------------------------
 #t hf aug-cc-pvdz iop(5/13=1,5/36=2,99/5=2) pseudo=read geom=check gue
 ss=(read,tcheck) scf=(maxcycle=1)
 ----------------------------------------------------------------------
 -----
 title
 -----
 Structure from the checkpoint file:  "Grambow2020_wb97xd3_007912_reverse_mol2.chk"
 Charge =  0 Multiplicity = 1

                         Standard orientation:
 ---------------------------------------------------------------------
 Center     Atomic      Atomic             Coordinates (Angstroms)
 Number     Number       Type             X           Y           Z
 ---------------------------------------------------------------------
      1          6           0        2.052249   -1.130747    0.163385
      2          8           0        2.019140    0.144870   -0.535812
      3          6           0        1.225818    1.019554   -0.048493
      4          7           0        0.522820    1.837177    0.361082
      5          7           0       -2.639278    0.345835   -0.343045
      6          6           0       -1.737023   -0.339975    0.386581
      7          8           0       -1.196428   -1.364346    0.026104
      8          1           0        2.695293   -1.763589   -0.440178
      9          1           0        1.042296   -1.534454    0.225019
     10          1           0        2.482598   -0.980971    1.153145
     11          1           0       -2.894819    1.276479   -0.067801
     12          1           0       -2.795207    0.067178   -1.296838
     13          1           0       -1.542917    0.117081    1.369228
 ---------------------------------------------------------------------

 SCF Done:  E(RHF) =  -377.380704137     A.U. after    2 cycles

 The electronic state is 1-A.
 Alpha  occ. eigenvalues --  -21.14471 -21.03333 -15.78481 -15.74885 -11.48575
 Alpha  occ. eigenvalues --  -11.48335 -11.43842  -1.84681  -1.70795  -1.34878
 Alpha  occ. eigenvalues --   -1.29056  -1.03763  -0.87070  -0.73310  -0.72673
 Alpha  occ. eigenvalues --   -0.65407  -0.64306  -0.63455  -0.55254  -0.54273
 Alpha  occ. eigenvalues --   -0.52672  -0.50688  -0.50459  -0.40066  -0.33949
 Alpha  occ. eigenvalues --   -0.33313  -0.30179
 Alpha virt. eigenvalues --    0.03368   0.04849   0.05407   0.05927   0.06694
 Alpha virt. eigenvalues --    0.08043   0.08969   0.11241   0.11521   0.12346
 Alpha virt. eigenvalues --    0.13153   0.13580   0.13871   0.14604   0.16057

 Mulliken charges:
               1
     1  C   -2.975074
     2  O   -2.664990
     3  C    4.038070
     4  N   -2.569439
     5  N   -2.492892
     6  C    2.095634
     7  O   -2.688341
     8  H    1.285158
     9  H    1.537462
    10  H    1.396706
    11  H    0.779528
    12  H    0.630123
    13  H    1.628054
 Sum of Mulliken charges =  -0.00000

 Dipole moment (field-independent basis, Debye):
    X=              0.4420    Y=             -1.3499    Z=             -0.8043  Tot=              1.6323

 Test job not archived.
 1\1\GINC-SE253\SP\RHF\Aug-CC-pVDZ\C3H6N2O2\OHZDE\09-Apr-2025\0\\#t hf
 aug-cc-pvdz iop(5/13=1,5/36=2,99/5=2) pseudo=read geom=check guess=(re
 ad,tcheck) scf=(maxcycle=1)\\title\\0,1\C,0,-1.75565797,-0.94224149,-0
 .98716353\O,0,-1.81957398,0.50909516,-0.90525519\C,0,-0.69681778,1.114
 54439,-0.97426297\N,0,0.29580839,1.69898763,-1.0341279\N,0,1.7946891,0
 .69200876,2.04127729\C,0,1.39429528,-0.25105962,1.16545744\O,0,0.49626
 882,-1.04104861,1.36791098\H,0,-2.77408203,-1.2768439,-0.8164683\H,0,-
 1.08031854,-1.31733157,-0.21904485\H,0,-1.4216235,-1.22623764,-1.98467

 Normal termination of Gaussian 16 at Wed Apr  9 03:46:34 2025.
