 Gaussian 16, Revision C.01,

 ----------------------------------------------------------------------
 #t hf aug-cc-pvdz symm=none int=(grid=ultrafine) guess=(read,tcheck) s
 table=(opt,rrhf)
 ----------------------------------------------------------------------
 -----
 title
 -----
 Symbolic Z-matrix:
 Charge =  0 Multiplicity = 1

 SCF Done:  E(RHF) =  -344.707341664     A.U. after   16 cycles

 1\1\GINC-SE102\Stability\RHF\Aug-CC-pVDZ\C5H10O2\OHZDE\09-Apr-2025\0\\
 #t hf aug-cc-pvdz symm=none int=(grid=ultrafine) guess=(read,tcheck) s
 table=(opt,rrhf)\\title\\0,1\C,0,1.98955107,-0.18009595,-0.64753142\C,
 0,0.88700553,0.34827014,0.26609775\O,0,0.03843717,1.15326796,-0.570490
 33\C,0,-1.25350407,1.20925813,-0.01365968\C,0,-1.79626446,-0.18877827,
 0.14581796\C,0,0.04294963,-0.63053401,1.00416154\O,0,-0.66766111,-1.53
 932044,0.00547924\H,0,2.46681452,0.6428825,-1.180636\H,0,1.60784077,-0
 .86737743,-1.40895334\H,0,2.7452683,-0.7035675,-0.06092002\H,0,1.34921

 Normal termination of Gaussian 16 at Wed Apr  9 03:39:48 2025.
 Gaussian 16:  ES64L-G16RevC.01  3-Jul-2019

 ----------------------------------------------------------------------
 #t hf aug-cc-pvdz iop(5/13=1,5/36=2,99/5=2) pseudo=read geom=check gue
 ss=(read,tcheck) scf=(maxcycle=1)
 ----------------------------------------------------------------------
 -----
 title
 -----
 Structure from the checkpoint file:  "Grambow2020_wb97xd3_007400_forward_mol1.chk"
 Charge =  0 Multiplicity = 1

                         Standard orientation:
 ---------------------------------------------------------------------
 Center     Atomic      Atomic             Coordinates (Angstroms)
 Number     Number       Type             X           Y           Z
 ---------------------------------------------------------------------
      1          6           0       -2.155963   -0.000385   -0.345789
      2          6           0       -0.908455   -0.303019    0.479821
      3          8           0       -0.148583   -1.248670   -0.292389
      4          6           0        1.210953   -1.160710    0.062901
      5          6           0        1.699046    0.250179   -0.150844
      6          6           0       -0.018340    0.825581    0.866067
      7          8           0        0.494675    1.518360   -0.392940
      8          1           0       -2.662126   -0.926311   -0.620985
      9          1           0       -1.922758    0.519142   -1.280417
     10          1           0       -2.845531    0.619431    0.228292
     11          1           0       -1.222272   -0.766764    1.427302
     12          1           0        1.737714   -1.849868   -0.605212
     13          1           0        1.373611   -1.447817    1.107273
     14          1           0        2.376747    0.643437    0.592119
     15          1           0        2.067439    0.404157   -1.172762
     16          1           0       -0.523409    1.572313    1.480736
     17          1           0       -0.111599    1.404880   -1.146656
 ---------------------------------------------------------------------

 SCF Done:  E(RHF) =  -346.331327786     A.U. after    2 cycles

 The electronic state is 1-A.
 Alpha  occ. eigenvalues --  -21.09990 -21.03595 -11.51976 -11.43379 -11.42283
 Alpha  occ. eigenvalues --  -11.37673 -11.33696  -1.78952  -1.71464  -1.15490
 Alpha  occ. eigenvalues --   -1.09871  -0.96258  -0.88846  -0.78018  -0.69252
 Alpha  occ. eigenvalues --   -0.68217  -0.62795  -0.60283  -0.56061  -0.55629
 Alpha  occ. eigenvalues --   -0.51578  -0.49426  -0.46497  -0.42216  -0.41769
 Alpha  occ. eigenvalues --   -0.35493  -0.29368  -0.24036
 Alpha virt. eigenvalues --    0.04159   0.04791   0.04859   0.05093   0.05892
 Alpha virt. eigenvalues --    0.06506   0.06687   0.06754   0.07657   0.08992
 Alpha virt. eigenvalues --    0.11237   0.11524   0.12977   0.13823   0.14641

 Mulliken charges:
               1
     1  C   -3.617065
     2  C    0.809315
     3  O   -3.311967
     4  C   -1.988934
     5  C   -1.428913
     6  C   -0.757538
     7  O   -2.575597
     8  H    1.269814
     9  H    1.218589
    10  H    1.165485
    11  H    1.698574
    12  H    1.253531
    13  H    1.578086
    14  H    1.210907
    15  H    1.136080
    16  H    1.327480
    17  H    1.012152
 Sum of Mulliken charges =  -0.00000

 Dipole moment (field-independent basis, Debye):
    X=              0.8536    Y=              0.4669    Z=             -1.5882  Tot=              1.8625

 Test job not archived.
 1\1\GINC-SE102\SP\RHF\Aug-CC-pVDZ\C5H10O2\OHZDE\09-Apr-2025\0\\#t hf a
 ug-cc-pvdz iop(5/13=1,5/36=2,99/5=2) pseudo=read geom=check guess=(rea
 d,tcheck) scf=(maxcycle=1)\\title\\0,1\C,0,1.98955107,-0.18009595,-0.6
 4753142\C,0,0.88700553,0.34827014,0.26609775\O,0,0.03843717,1.15326796
 ,-0.57049033\C,0,-1.25350407,1.20925813,-0.01365968\C,0,-1.79626446,-0
 .18877827,0.14581796\C,0,0.04294963,-0.63053401,1.00416154\O,0,-0.6676
 6111,-1.53932044,0.00547924\H,0,2.46681452,0.6428825,-1.180636\H,0,1.6
 0784077,-0.86737743,-1.40895334\H,0,2.7452683,-0.7035675,-0.06092002\H

 Normal termination of Gaussian 16 at Wed Apr  9 03:39:54 2025.
