 Gaussian 16, Revision C.01,

 ----------------------------------------------------------------------
 #t hf aug-cc-pvdz symm=none int=(grid=ultrafine) guess=(read,tcheck) s
 table=(opt,rrhf)
 ----------------------------------------------------------------------
 -----
 title
 -----
 Symbolic Z-matrix:
 Charge =  0 Multiplicity = 1

 SCF Done:  E(RHF) =  -286.746403855     A.U. after   16 cycles
 Normal termination of Gaussian 16 at Wed Apr  9 18:29:34 2025.
 Gaussian 16:  ES64L-G16RevC.01  3-Jul-2019

 ----------------------------------------------------------------------
 #t hf aug-cc-pvdz iop(5/13=1,5/36=2,99/5=2) pseudo=read geom=check gue
 ss=(read,tcheck) scf=(maxcycle=1)
 ----------------------------------------------------------------------
 -----
 title
 -----
 Structure from the checkpoint file:  "Grambow2020_wb97xd3_007186_reverse_mol1.chk"
 Charge =  0 Multiplicity = 1

                         Standard orientation:
 ---------------------------------------------------------------------
 Center     Atomic      Atomic             Coordinates (Angstroms)
 Number     Number       Type             X           Y           Z
 ---------------------------------------------------------------------
      1          6           0        2.454559   -0.607772   -0.066612
      2          6           0        1.102298    0.005730   -0.055322
      3          6           0        0.680175    1.275370   -0.041890
      4          6           0       -0.771177    1.335292    0.103369
      5          6           0       -1.259682    0.080811    0.181588
      6          6           0       -2.386361   -0.726803   -0.207527
      7          7           0       -0.074860   -0.829500    0.104104
      8          1           0        2.563163   -1.329556   -0.879878
      9          1           0        3.210793    0.165599   -0.194981
     10          1           0        2.670963   -1.131018    0.870597
     11          1           0        1.333340    2.132404   -0.132186
     12          1           0       -1.369618    2.229587    0.034599
     13          1           0       -3.235412   -0.197596   -0.626491
     14          1           0       -0.872414   -1.270652   -0.683369
     15          1           0       -2.682027   -1.489827    0.514411
     16          1           0       -0.013641   -1.478203    0.886934
 ---------------------------------------------------------------------

 SCF Done:  E(RHF) =  -288.161619364     A.U. after    2 cycles

 The electronic state is 1-A.
 Alpha  occ. eigenvalues --  -15.79925 -11.47519 -11.44348 -11.43035 -11.40313
 Alpha  occ. eigenvalues --  -11.37883 -11.31671  -1.52568  -1.18587  -1.14588
 Alpha  occ. eigenvalues --   -1.04028  -0.92069  -0.81582  -0.78412  -0.69248
 Alpha  occ. eigenvalues --   -0.65766  -0.59445  -0.58837  -0.55324  -0.53035
 Alpha  occ. eigenvalues --   -0.51041  -0.47551  -0.46182  -0.41179  -0.34469
 Alpha  occ. eigenvalues --   -0.21823
 Alpha virt. eigenvalues --    0.02871   0.04659   0.05172   0.05686   0.06090
 Alpha virt. eigenvalues --    0.06361   0.07300   0.08254   0.08721   0.08976
 Alpha virt. eigenvalues --    0.10205   0.11736   0.12362   0.13012   0.13473

 Mulliken charges:
               1
     1  C   -4.469464
     2  C    3.694237
     3  C   -2.548746
     4  C   -1.507263
     5  C    2.387460
     6  C   -4.035408
     7  N   -3.164259
     8  H    1.123671
     9  H    1.050057
    10  H    1.059864
    11  H    1.472372
    12  H    1.279297
    13  H    1.014780
    14  H    0.974197
    15  H    1.106510
    16  H    0.562695
 Sum of Mulliken charges =   0.00000

 Dipole moment (field-independent basis, Debye):
    X=              4.0526    Y=              0.1611    Z=              1.1665  Tot=              4.2202

 Test job not archived.
 1\1\GINC-SE116\SP\RHF\Aug-CC-pVDZ\C6H9N1\OHZDE\09-Apr-2025\0\\#t hf au
 g-cc-pvdz iop(5/13=1,5/36=2,99/5=2) pseudo=read geom=check guess=(read
 ,tcheck) scf=(maxcycle=1)\\title\\0,1\C,0,-2.37901969,-0.34803602,0.37
 14065\C,0,-1.00828813,0.17990061,0.15346101\C,0,-0.52765052,1.41612896
 ,-0.02283977\C,0,0.89810868,1.37614843,-0.33384561\C,0,1.31086102,0.09
 24761,-0.35113581\C,0,2.43336793,-0.74537995,-0.01792285\N,0,0.0990833
 5,-0.73509158,-0.059246\H,0,-2.42820439,-0.99022689,1.25420883\H,0,-3.
 07556282,0.47749587,0.51210745\H,0,-2.72889305,-0.9351119,-0.48410924\

 Normal termination of Gaussian 16 at Wed Apr  9 18:29:39 2025.
