 Gaussian 16, Revision C.01,

 ----------------------------------------------------------------------
 #t hf aug-cc-pvdz symm=none int=(grid=ultrafine) guess=(read,tcheck) s
 table=(opt,rrhf)
 ----------------------------------------------------------------------
 -----
 title
 -----
 Symbolic Z-matrix:
 Charge =  0 Multiplicity = 1

 SCF Done:  E(RHF) =  -284.740999082     A.U. after   16 cycles
 Normal termination of Gaussian 16 at Wed Apr  9 03:06:52 2025.
 Gaussian 16:  ES64L-G16RevC.01  3-Jul-2019

 ----------------------------------------------------------------------
 #t hf aug-cc-pvdz iop(5/13=1,5/36=2,99/5=2) pseudo=read geom=check gue
 ss=(read,tcheck) scf=(maxcycle=1)
 ----------------------------------------------------------------------
 -----
 title
 -----
 Structure from the checkpoint file:  "Grambow2020_b97d3_006539_reverse_mol2.chk"
 Charge =  0 Multiplicity = 1

                         Standard orientation:
 ---------------------------------------------------------------------
 Center     Atomic      Atomic             Coordinates (Angstroms)
 Number     Number       Type             X           Y           Z
 ---------------------------------------------------------------------
      1          6           0        0.910445    0.860240    0.519045
      2          6           0        1.301403   -0.466412   -0.140164
      3          8           0        0.127650   -1.384777   -0.094832
      4          6           0       -1.093144   -0.839793   -0.164599
      5          7           0       -1.134098    0.429380   -0.687016
      6          6           0       -0.294298    1.321868   -0.262957
      7          1           0        0.682160    0.699601    1.584290
      8          1           0        1.728741    1.589192    0.451770
      9          1           0        1.607150   -0.323890   -1.184299
     10          1           0        2.071637   -1.013017    0.409566
     11          1           0       -1.873650   -0.414705    2.270487
     12          1           0       -1.850421   -0.074749    2.937242
     13          1           0       -0.394573    2.354699   -0.609236
 ---------------------------------------------------------------------

 SCF Done:  E(RHF) =  -286.052935047     A.U. after    2 cycles

 The electronic state is 1-A.
 Alpha  occ. eigenvalues --  -21.10038 -15.75162 -11.48249 -11.46888 -11.42121
 Alpha  occ. eigenvalues --  -11.41261  -1.79950  -1.39714  -1.18712  -0.95315
 Alpha  occ. eigenvalues --   -0.92320  -0.72277  -0.70923  -0.63883  -0.61098
 Alpha  occ. eigenvalues --   -0.60620  -0.56970  -0.55523  -0.49669  -0.47572
 Alpha  occ. eigenvalues --   -0.37611  -0.35005  -0.31200
 Alpha virt. eigenvalues --    0.03004   0.04726   0.04841   0.05251   0.05557
 Alpha virt. eigenvalues --    0.07549   0.08164   0.09445   0.10874   0.11294
 Alpha virt. eigenvalues --    0.12023   0.12866   0.13239   0.13626   0.13905

 Mulliken charges:
               1
     1  C   -2.829994
     2  C   -1.548939
     3  O   -2.103488
     4  C    1.224740
     5  N   -2.136740
     6  C    0.418375
     7  H    1.432083
     8  H    1.340906
     9  H    1.465531
    10  H    1.320182
    11  H   -0.215108
    12  H    0.132120
    13  H    1.500331
 Sum of Mulliken charges =  -0.00000

 Dipole moment (field-independent basis, Debye):
    X=              4.2977    Y=              2.1361    Z=              0.3944  Tot=              4.8155

 Test job not archived.
 1\1\GINC-SE131\SP\RHF\Aug-CC-pVDZ\C4H7N1O1\OHZDE\09-Apr-2025\0\\#t hf
 aug-cc-pvdz iop(5/13=1,5/36=2,99/5=2) pseudo=read geom=check guess=(re
 ad,tcheck) scf=(maxcycle=1)\\title\\0,1\C,0,0.57784058,-0.7914774,0.27
 082962\C,0,-0.86585865,-1.12577177,-0.11825884\O,0,-1.62995786,0.14755
 389,-0.25220046\C,0,-0.96696784,1.23059982,-0.67607222\N,0,0.20949621,
 0.97106057,-1.33483631\C,0,1.05380501,0.12851308,-0.82603429\H,0,0.600
 09041,-0.30976905,1.26084351\H,0,1.19256456,-1.69990164,0.31966741\H,0
 ,-0.9115736,-1.67482453,-1.06718532\H,0,-1.41014072,-1.66674387,0.6597

 Normal termination of Gaussian 16 at Wed Apr  9 03:06:56 2025.
