 Gaussian 16, Revision C.01,

 ----------------------------------------------------------------------
 #t hf aug-cc-pvdz symm=none int=(grid=ultrafine) guess=(read,tcheck) s
 table=(opt,rrhf)
 ----------------------------------------------------------------------
 -----
 title
 -----
 Symbolic Z-matrix:
 Charge =  0 Multiplicity = 1

 SCF Done:  E(RHF) =  -306.519703804     A.U. after   16 cycles
 Normal termination of Gaussian 16 at Wed Apr  9 19:14:07 2025.
 Gaussian 16:  ES64L-G16RevC.01  3-Jul-2019

 ----------------------------------------------------------------------
 #t hf aug-cc-pvdz iop(5/13=1,5/36=2,99/5=2) pseudo=read geom=check gue
 ss=(read,tcheck) scf=(maxcycle=1)
 ----------------------------------------------------------------------
 -----
 title
 -----
 Structure from the checkpoint file:  "Grambow2020_wb97xd3_008460_reverse_mol1.chk"
 Charge =  0 Multiplicity = 1

                         Standard orientation:
 ---------------------------------------------------------------------
 Center     Atomic      Atomic             Coordinates (Angstroms)
 Number     Number       Type             X           Y           Z
 ---------------------------------------------------------------------
      1          6           0        1.169911   -0.581218   -0.861832
      2          6           0        0.812929    0.862938   -0.418479
      3          6           0       -0.625144    1.170360   -0.198871
      4          8           0       -1.568355    0.322364    0.054432
      5          6           0       -1.510660   -1.009141   -0.020453
      6          6           0        0.943316   -0.943409    0.598565
      7          6           0        1.011168    0.354180    0.994592
      8          1           0        0.581998   -1.040896   -1.654936
      9          1           0        2.224136   -0.634839   -1.138637
     10          1           0        1.364809    1.710263   -0.822706
     11          1           0       -0.907811    2.177500    0.084690
     12          1           0       -1.055242   -1.451745   -0.887924
     13          1           0       -2.432545   -1.445002    0.342118
     14          1           0        0.995768   -1.880085    1.133529
     15          1           0        0.966604    0.863626    1.947288
 ---------------------------------------------------------------------

 SCF Done:  E(RHF) =  -308.015009114     A.U. after    2 cycles

 The electronic state is 1-A.
 Alpha  occ. eigenvalues --  -21.14922 -11.47795 -11.46733 -11.42693 -11.41329
 Alpha  occ. eigenvalues --  -11.37414 -11.36615  -1.85152  -1.36181  -1.06346
 Alpha  occ. eigenvalues --   -0.95385  -0.93690  -0.81067  -0.74353  -0.71904
 Alpha  occ. eigenvalues --   -0.67875  -0.61484  -0.56413  -0.55795  -0.54008
 Alpha  occ. eigenvalues --   -0.49777  -0.45231  -0.44067  -0.39066  -0.31413
 Alpha  occ. eigenvalues --   -0.24995
 Alpha virt. eigenvalues --    0.03770   0.04747   0.05014   0.05599   0.06183
 Alpha virt. eigenvalues --    0.06427   0.06665   0.07906   0.09732   0.11431
 Alpha virt. eigenvalues --    0.12457   0.12944   0.13031   0.13577   0.14558

 Mulliken charges:
               1
     1  C   -2.744109
     2  C   -2.428013
     3  C    0.941904
     4  O   -3.461047
     5  C   -1.826410
     6  C   -1.360459
     7  C   -0.256146
     8  H    1.278057
     9  H    1.279490
    10  H    1.401651
    11  H    1.739917
    12  H    1.587836
    13  H    1.440610
    14  H    1.239980
    15  H    1.166739
 Sum of Mulliken charges =   0.00000

 Dipole moment (field-independent basis, Debye):
    X=              0.3996    Y=              0.6925    Z=             -0.3244  Tot=              0.8628

 Test job not archived.
 1\1\GINC-SE113\SP\RHF\Aug-CC-pVDZ\C6H8O1\OHZDE\09-Apr-2025\0\\#t hf au
 g-cc-pvdz iop(5/13=1,5/36=2,99/5=2) pseudo=read geom=check guess=(read
 ,tcheck) scf=(maxcycle=1)\\title\\0,1\C,0,0.69356412,1.20297347,0.1839
 9436\C,0,1.2062415,-0.23758438,-0.08347627\C,0,0.3866187,-1.35966172,0
 .44562897\O,0,-0.8703699,-1.32480357,0.74840148\C,0,-1.65687894,-0.250
 71949,0.84633037\C,0,-0.29337325,0.91761945,-0.93842048\C,0,0.41833018
 ,-0.15399804,-1.37464389\H,0,0.35059526,1.45397581,1.18665503\H,0,1.45
 293931,1.9284646,-0.11248406\H,0,2.27384972,-0.45078126,-0.05723649\H,

 Normal termination of Gaussian 16 at Wed Apr  9 19:14:12 2025.
