 Gaussian 16, Revision C.01,

 ----------------------------------------------------------------------
 #t hf aug-cc-pvdz symm=none int=(grid=ultrafine) guess=(read,tcheck) s
 table=(opt,rrhf)
 ----------------------------------------------------------------------
 -----
 title
 -----
 Symbolic Z-matrix:
 Charge =  0 Multiplicity = 1

 SCF Done:  E(RHF) =  -339.749125832     A.U. after   15 cycles
 Normal termination of Gaussian 16 at Wed Apr  9 03:33:27 2025.
 Gaussian 16:  ES64L-G16RevC.01  3-Jul-2019

 ----------------------------------------------------------------------
 #t hf aug-cc-pvdz iop(5/13=1,5/36=2,99/5=2) pseudo=read geom=check gue
 ss=(read,tcheck) scf=(maxcycle=1)
 ----------------------------------------------------------------------
 -----
 title
 -----
 Structure from the checkpoint file:  "Grambow2020_wb97xd3_007003_forward_mol1.chk"
 Charge =  0 Multiplicity = 1

                         Standard orientation:
 ---------------------------------------------------------------------
 Center     Atomic      Atomic             Coordinates (Angstroms)
 Number     Number       Type             X           Y           Z
 ---------------------------------------------------------------------
      1          6           0       -1.796345    0.647365   -0.614674
      2          6           0       -0.611318   -0.034760    0.023610
      3          8           0       -0.941378   -0.444786    1.317110
      4          6           0        0.126738   -1.146839   -0.732978
      5          7           0        1.389638   -1.049011   -0.025811
      6          6           0        0.626875    0.841650    0.100976
      7          7           0        1.481368    1.667622    0.078680
      8          1           0       -2.169288    1.447149    0.024326
      9          1           0       -2.587113   -0.092598   -0.736905
     10          1           0       -1.534494    1.054240   -1.591213
     11          1           0       -0.188123   -0.985061    1.604470
     12          1           0        0.149382   -0.916779   -1.810704
     13          1           0       -0.416061   -2.091075   -0.596206
     14          1           0        1.977475    0.586080   -0.037589
     15          1           0        2.126506   -1.618436   -0.424746
 ---------------------------------------------------------------------

 SCF Done:  E(RHF) =  -341.344707705     A.U. after    2 cycles

 The electronic state is 1-A.
 Alpha  occ. eigenvalues --  -21.08685 -15.80961 -15.65803 -11.56840 -11.51206
 Alpha  occ. eigenvalues --  -11.42994 -11.40135  -1.76174  -1.45326  -1.29842
 Alpha  occ. eigenvalues --   -1.14758  -0.98392  -0.90316  -0.73735  -0.71624
 Alpha  occ. eigenvalues --   -0.65185  -0.63343  -0.60720  -0.57267  -0.55159
 Alpha  occ. eigenvalues --   -0.52985  -0.49405  -0.48070  -0.42472  -0.36711
 Alpha  occ. eigenvalues --   -0.34298  -0.28261
 Alpha virt. eigenvalues --    0.03746   0.05353   0.05467   0.05770   0.05968
 Alpha virt. eigenvalues --    0.06580   0.07402   0.07489   0.10395   0.10980
 Alpha virt. eigenvalues --    0.11434   0.12652   0.13737   0.14370   0.14854

 Mulliken charges:
               1
     1  C   -4.016160
     2  C    3.825972
     3  O   -3.681345
     4  C   -2.413074
     5  N   -2.084338
     6  C    3.170485
     7  N   -2.996860
     8  H    1.242231
     9  H    1.201576
    10  H    1.225142
    11  H    0.783576
    12  H    1.351126
    13  H    1.148232
    14  H    0.586959
    15  H    0.656477
 Sum of Mulliken charges =  -0.00000

 Dipole moment (field-independent basis, Debye):
    X=             -1.5653    Y=              0.5500    Z=             -0.9445  Tot=              1.9092

 Test job not archived.
 1\1\GINC-SE184\SP\RHF\Aug-CC-pVDZ\C4H8N2O1\OHZDE\09-Apr-2025\0\\#t hf
 aug-cc-pvdz iop(5/13=1,5/36=2,99/5=2) pseudo=read geom=check guess=(re
 ad,tcheck) scf=(maxcycle=1)\\title\\0,1\C,0,1.19319235,1.40761818,-0.4
 0755925\C,0,0.23807664,0.4273447,0.22790035\O,0,-0.12981868,0.87981377
 ,1.49680813\C,0,-0.98638038,-0.06161723,-0.55663307\N,0,-1.20251341,-1
 .292367,0.18032882\C,0,0.80666935,-0.97436256,0.3661729\N,0,1.41685468
 ,-1.99403952,0.39479022\H,0,2.03466131,1.60839885,0.25476957\H,0,0.657
 12377,2.34149706,-0.57578998\H,0,1.5627693,1.03164029,-1.3613912\H,0,-

 Normal termination of Gaussian 16 at Wed Apr  9 03:33:32 2025.
