 Gaussian 16, Revision C.01,

 ----------------------------------------------------------------------
 #t hf aug-cc-pvdz symm=none int=(grid=ultrafine) guess=(read,tcheck) s
 table=(opt,rrhf)
 ----------------------------------------------------------------------
 -----
 title
 -----
 Symbolic Z-matrix:
 Charge =  0 Multiplicity = 1

 SCF Done:  E(RHF) =  -353.436916310     A.U. after   18 cycles
 Normal termination of Gaussian 16 at Wed Apr  9 03:47:15 2025.
 Gaussian 16:  ES64L-G16RevC.01  3-Jul-2019

 ----------------------------------------------------------------------
 #t hf aug-cc-pvdz iop(5/13=1,5/36=2,99/5=2) pseudo=read geom=check gue
 ss=(read,tcheck) scf=(maxcycle=1)
 ----------------------------------------------------------------------
 -----
 title
 -----
 Structure from the checkpoint file:  "Grambow2020_wb97xd3_007940_reverse_mol2.chk"
 Charge =  0 Multiplicity = 1

                         Standard orientation:
 ---------------------------------------------------------------------
 Center     Atomic      Atomic             Coordinates (Angstroms)
 Number     Number       Type             X           Y           Z
 ---------------------------------------------------------------------
      1          8           0        2.190682   -0.198725   -0.245432
      2          6           0        0.893019   -0.148302    0.069983
      3          6           0        0.085362   -1.241040    0.172786
      4          7           0       -1.198980   -1.179768    0.160764
      5          7           0       -1.752955    0.011876   -0.336868
      6          6           0       -1.055664    1.057774   -0.104382
      7          7           0        0.270614    1.030281    0.323665
      8          1           0        2.525222    0.679612   -0.448284
      9          1           0        0.673480    1.824532    0.798805
     10          1           0       -1.491215    2.038336   -0.250317
 ---------------------------------------------------------------------

 SCF Done:  E(RHF) =  -354.979713353     A.U. after    2 cycles

 The electronic state is 1-A.
 Alpha  occ. eigenvalues --  -21.16176 -15.84373 -15.76972 -15.76301 -11.52837
 Alpha  occ. eigenvalues --  -11.46712 -11.37233  -1.82754  -1.58089  -1.40201
 Alpha  occ. eigenvalues --   -1.21665  -1.00296  -0.92512  -0.78761  -0.71737
 Alpha  occ. eigenvalues --   -0.71437  -0.63904  -0.62286  -0.52490  -0.49153
 Alpha  occ. eigenvalues --   -0.48521  -0.43731  -0.37368  -0.34471  -0.27525
 Alpha virt. eigenvalues --    0.01537   0.03723   0.04606   0.07014   0.09372
 Alpha virt. eigenvalues --    0.09686   0.10565   0.11016   0.12256   0.12899
 Alpha virt. eigenvalues --    0.13490   0.14430   0.14766   0.15310   0.16445

 Mulliken charges:
               1
     1  O   -3.223008
     2  C    5.201512
     3  C   -0.179692
     4  N   -1.731435
     5  N   -1.585043
     6  C    1.245778
     7  N   -2.881262
     8  H    0.850831
     9  H    0.705788
    10  H    1.596529
 Sum of Mulliken charges =   0.00000

 Dipole moment (field-independent basis, Debye):
    X=              3.6237    Y=              6.4835    Z=             -0.0090  Tot=              7.4275

 Test job not archived.
 1\1\GINC-SE026\SP\RHF\Aug-CC-pVDZ\C3H3N3O1\OHZDE\09-Apr-2025\0\\#t hf
 aug-cc-pvdz iop(5/13=1,5/36=2,99/5=2) pseudo=read geom=check guess=(re
 ad,tcheck) scf=(maxcycle=1)\\title\\0,1\O,0,2.08517483,0.032383,0.6127
 3481\C,0,0.84201805,0.35371073,0.24223633\C,0,0.19660764,1.49074883,0.
 6263512\N,0,-1.07638802,1.64990418,0.53926042\N,0,-1.8333509,0.4764435
 2,0.38260697\C,0,-1.24810945,-0.44695919,-0.27995458\N,0,0.11478647,-0
 .45152899,-0.57233432\H,0,2.27905602,-0.88336884,0.39285147\H,0,0.4725
 1441,-0.99405309,-1.34472748\H,0,-1.81753806,-1.29490915,-0.63944881\\

 Normal termination of Gaussian 16 at Wed Apr  9 03:47:19 2025.
