 Gaussian 16, Revision C.01,

 ----------------------------------------------------------------------
 #t hf aug-cc-pvdz symm=none int=(grid=ultrafine) guess=(read,tcheck) s
 table=(opt,rrhf)
 ----------------------------------------------------------------------
 -----
 title
 -----
 Symbolic Z-matrix:
 Charge =  0 Multiplicity = 1

 SCF Done:  E(RHF) =  -322.530184965     A.U. after   15 cycles
 Normal termination of Gaussian 16 at Wed Apr  9 19:10:56 2025.
 Gaussian 16:  ES64L-G16RevC.01  3-Jul-2019

 ----------------------------------------------------------------------
 #t hf aug-cc-pvdz iop(5/13=1,5/36=2,99/5=2) pseudo=read geom=check gue
 ss=(read,tcheck) scf=(maxcycle=1)
 ----------------------------------------------------------------------
 -----
 title
 -----
 Structure from the checkpoint file:  "Grambow2020_wb97xd3_008263_forward_mol1.chk"
 Charge =  0 Multiplicity = 1

                         Standard orientation:
 ---------------------------------------------------------------------
 Center     Atomic      Atomic             Coordinates (Angstroms)
 Number     Number       Type             X           Y           Z
 ---------------------------------------------------------------------
      1          6           0       -1.402941    1.189766    0.183734
      2          6           0       -0.158435    0.337641   -0.991157
      3          7           0       -0.746458   -1.023004   -0.947114
      4          6           0       -0.950223   -0.594808    0.389515
      5          6           0        0.369352   -0.567205    1.144240
      6          6           0        1.038675    0.150174   -0.024585
      7          8           0        2.177518    0.455999   -0.210353
      8          1           0       -1.721217    1.192228    1.232457
      9          1           0       -2.270876    1.242292   -0.465417
     10          1           0       -0.801212    2.086595    0.068119
     11          1           0       -0.022407   -1.733546   -1.000894
     12          1           0       -1.898687   -0.866832    0.833055
     13          1           0        0.760915   -1.555121    1.394576
     14          1           0        0.379978    0.054014    2.040254
 ---------------------------------------------------------------------

 SCF Done:  E(RHF) =  -324.034993458     A.U. after    2 cycles

 The electronic state is 1-A.
 Alpha  occ. eigenvalues --  -21.07097 -15.75712 -11.52972 -11.49324 -11.43887
 Alpha  occ. eigenvalues --  -11.43170 -11.41152  -1.72570  -1.52290  -1.15734
 Alpha  occ. eigenvalues --   -1.06984  -0.97529  -0.87100  -0.73407  -0.67195
 Alpha  occ. eigenvalues --   -0.66320  -0.64557  -0.61046  -0.56558  -0.52528
 Alpha  occ. eigenvalues --   -0.48348  -0.47076  -0.43501  -0.40260  -0.32628
 Alpha  occ. eigenvalues --   -0.25764
 Alpha virt. eigenvalues --    0.03203   0.04334   0.04799   0.05107   0.05880
 Alpha virt. eigenvalues --    0.06398   0.07147   0.09376   0.09655   0.11317
 Alpha virt. eigenvalues --    0.12004   0.13105   0.13941   0.14151   0.14649

 Mulliken charges:
               1
     1  C   -3.254695
     2  C   -0.987725
     3  N   -2.317203
     4  C    0.441329
     5  C   -4.012779
     6  C    5.425506
     7  O   -3.435573
     8  H    1.103693
     9  H    1.129021
    10  H    1.180119
    11  H    0.669370
    12  H    1.503554
    13  H    1.158022
    14  H    1.397361
 Sum of Mulliken charges =   0.00000

 Dipole moment (field-independent basis, Debye):
    X=             -1.2979    Y=             -1.3717    Z=              3.0007  Tot=              3.5455

 Test job not archived.
 1\1\GINC-SE231\SP\RHF\Aug-CC-pVDZ\C5H7N1O1\OHZDE\09-Apr-2025\0\\#t hf
 aug-cc-pvdz iop(5/13=1,5/36=2,99/5=2) pseudo=read geom=check guess=(re
 ad,tcheck) scf=(maxcycle=1)\\title\\0,1\C,0,-1.47155957,0.39975556,0.3
 4242705\C,0,-0.5424697,-1.11172706,-0.36995763\N,0,0.31939546,-1.38466
 542,0.80552526\C,0,0.28053587,0.03298827,0.81955243\C,0,1.11105139,0.5
 9730991,-0.32212879\C,0,0.47340244,-0.39210454,-1.29333435\O,0,0.69948
 307,-0.62100117,-2.44289794\H,0,-1.30084156,1.43663134,0.65366874\H,0,
 -2.12325056,-0.09658114,1.05405583\H,0,-1.96545396,0.47115033,-0.62231

 Normal termination of Gaussian 16 at Wed Apr  9 19:11:01 2025.
