 Gaussian 16, Revision C.01,

 ----------------------------------------------------------------------
 #t hf aug-cc-pvdz symm=none int=(grid=ultrafine) guess=(read,tcheck) s
 table=(opt,rrhf)
 ----------------------------------------------------------------------
 -----
 title
 -----
 Symbolic Z-matrix:
 Charge =  0 Multiplicity = 1

 SCF Done:  E(RHF) =  -304.559985374     A.U. after   15 cycles
 Normal termination of Gaussian 16 at Wed Apr  9 17:56:43 2025.
 Gaussian 16:  ES64L-G16RevC.01  3-Jul-2019

 ----------------------------------------------------------------------
 #t hf aug-cc-pvdz iop(5/13=1,5/36=2,99/5=2) pseudo=read geom=check gue
 ss=(read,tcheck) scf=(maxcycle=1)
 ----------------------------------------------------------------------
 -----
 title
 -----
 Structure from the checkpoint file:  "Grambow2020_wb97xd3_006274_forward_mol1.chk"
 Charge =  0 Multiplicity = 1

                         Standard orientation:
 ---------------------------------------------------------------------
 Center     Atomic      Atomic             Coordinates (Angstroms)
 Number     Number       Type             X           Y           Z
 ---------------------------------------------------------------------
      1          8           0        2.402304    0.470526   -0.346561
      2          6           0        1.844904   -0.117064    0.453765
      3          8           0        0.243905   -0.975721    0.065086
      4          6           0       -0.704021   -0.133489   -0.488347
      5          6           0       -1.328149    0.963675    0.332526
      6          6           0       -2.125648   -0.256380   -0.050832
      7          1           0        1.054551   -0.603697    1.145191
      8          1           0       -0.532330    0.087419   -1.538215
      9          1           0       -1.031438    1.046388    1.370996
     10          1           0       -1.554412    1.907364   -0.146313
     11          1           0       -2.321396   -0.979335    0.729938
     12          1           0       -2.907161   -0.157022   -0.792462
 ---------------------------------------------------------------------

 SCF Done:  E(RHF) =  -305.942310902     A.U. after    2 cycles

 The electronic state is 1-A.
 Alpha  occ. eigenvalues --  -21.18405 -21.01072 -11.58157 -11.42264 -11.39768
 Alpha  occ. eigenvalues --  -11.35410  -1.82295  -1.67629  -1.25146  -0.92045
 Alpha  occ. eigenvalues --   -0.85891  -0.79084  -0.67621  -0.65000  -0.59953
 Alpha  occ. eigenvalues --   -0.57954  -0.55165  -0.50549  -0.46309  -0.43625
 Alpha  occ. eigenvalues --   -0.39900  -0.31044  -0.24172
 Alpha virt. eigenvalues --    0.04273   0.05612   0.05938   0.06111   0.06536
 Alpha virt. eigenvalues --    0.06664   0.08927   0.09884   0.11525   0.12158
 Alpha virt. eigenvalues --    0.12814   0.13736   0.14246   0.15077   0.15715

 Mulliken charges:
               1
     1  O   -1.991760
     2  C    0.660007
     3  O   -2.903043
     4  C    1.334434
     5  C   -2.399686
     6  C   -2.945213
     7  H    1.968831
     8  H    1.278749
     9  H    1.264683
    10  H    1.211474
    11  H    1.240021
    12  H    1.281504
 Sum of Mulliken charges =  -0.00000

 Dipole moment (field-independent basis, Debye):
    X=              0.4158    Y=              0.8200    Z=             -0.2971  Tot=              0.9662

 Test job not archived.
 1\1\GINC-SE362\SP\RHF\Aug-CC-pVDZ\C4H6O2\OHZDE\09-Apr-2025\0\\#t hf au
 g-cc-pvdz iop(5/13=1,5/36=2,99/5=2) pseudo=read geom=check guess=(read
 ,tcheck) scf=(maxcycle=1)\\title\\0,1\O,0,2.5476926,-1.56179531,0.5386
 5952\C,0,2.34879462,-0.73714404,-0.22085856\O,0,1.19702838,0.66595395,
 0.17450475\C,0,-0.05555899,0.24247961,0.58181535\C,0,-0.9879062,-0.436
 86371,-0.38584\C,0,-1.26195703,0.96801502,0.08608683\H,0,1.88702621,0.
 08202799,-0.89559279\H,0,-0.08457531,-0.11099207,1.60880942\H,0,-0.654
 47203,-0.55140614,-1.4100465\H,0,-1.61629133,-1.24087163,-0.02565222\H

 Normal termination of Gaussian 16 at Wed Apr  9 17:56:46 2025.
