 Gaussian 16, Revision C.01,

 ----------------------------------------------------------------------
 #t hf aug-cc-pvdz symm=none int=(grid=ultrafine) guess=(read,tcheck) s
 table=(opt,rrhf)
 ----------------------------------------------------------------------
 -----
 title
 -----
 Symbolic Z-matrix:
 Charge =  0 Multiplicity = 1

 SCF Done:  E(RHF) =  -281.288015604     A.U. after   15 cycles
 Normal termination of Gaussian 16 at Wed Apr  9 03:05:10 2025.
 Gaussian 16:  ES64L-G16RevC.01  3-Jul-2019

 ----------------------------------------------------------------------
 #t hf aug-cc-pvdz iop(5/13=1,5/36=2,99/5=2) pseudo=read geom=check gue
 ss=(read,tcheck) scf=(maxcycle=1)
 ----------------------------------------------------------------------
 -----
 title
 -----
 Structure from the checkpoint file:  "Grambow2020_b97d3_006498_forward_mol2.chk"
 Charge =  0 Multiplicity = 1

                         Standard orientation:
 ---------------------------------------------------------------------
 Center     Atomic      Atomic             Coordinates (Angstroms)
 Number     Number       Type             X           Y           Z
 ---------------------------------------------------------------------
      1          8           0        0.159721    1.723879    0.000076
      2          6           0        0.043554    0.505307   -0.000021
      3          6           0       -1.216348   -0.198375   -0.000169
      4          6           0       -2.282038   -0.790347   -0.000085
      5          6           0        1.228136   -0.374281   -0.000064
      6          7           0        2.186469   -1.048646    0.000068
      7          1           0       -3.222866   -1.304332    0.000949
 ---------------------------------------------------------------------

 SCF Done:  E(RHF) =  -282.486032244     A.U. after    2 cycles

 The electronic state is 1-A.
 Alpha  occ. eigenvalues --  -21.12860 -15.81635 -11.59971 -11.48813 -11.46980
 Alpha  occ. eigenvalues --  -11.46265  -1.76695  -1.33762  -1.18504  -1.02825
 Alpha  occ. eigenvalues --   -0.84591  -0.73504  -0.61171  -0.58414  -0.56786
 Alpha  occ. eigenvalues --   -0.47791  -0.46230  -0.43054  -0.39971  -0.36331
 Alpha virt. eigenvalues --    0.02132   0.05073   0.06771   0.08659   0.09554
 Alpha virt. eigenvalues --    0.10390   0.11176   0.11731   0.12106   0.12326
 Alpha virt. eigenvalues --    0.13565   0.14013   0.14748   0.15997   0.16081

 Mulliken charges:
               1
     1  O   -2.957978
     2  C    3.117113
     3  C    2.246778
     4  C   -2.512698
     5  C    1.620583
     6  N   -2.335752
     7  H    0.821953
 Sum of Mulliken charges =   0.00000

 Dipole moment (field-independent basis, Debye):
    X=             -3.1982    Y=              0.2376    Z=              0.0011  Tot=              3.2070

 Test job not archived.
 1\1\GINC-SE459\SP\RHF\Aug-CC-pVDZ\C4H1N1O1\OHZDE\09-Apr-2025\0\\#t hf
 aug-cc-pvdz iop(5/13=1,5/36=2,99/5=2) pseudo=read geom=check guess=(re
 ad,tcheck) scf=(maxcycle=1)\\title\\0,1\O,0,-0.90177972,-1.80484559,0.
 20537883\C,0,-0.59386621,-0.62604285,0.08695418\C,0,0.75973879,-0.1398
 934,-0.03109173\C,0,1.90418528,0.26815048,-0.13043119\C,0,-1.62194306,
 0.43173629,0.05420942\N,0,-2.4595617,1.25090768,0.03135279\H,0,2.91322
 656,0.61998738,-0.21637226\\Version=ES64L-G16RevC.01\State=1-A\HF=-282
 .4860322\RMSD=6.565e-01\Dipole=1.2254944,-0.2970872,-0.043136\Quadrupo

 Normal termination of Gaussian 16 at Wed Apr  9 03:05:13 2025.
