 Gaussian 16, Revision C.01,

 ----------------------------------------------------------------------
 #t hf aug-cc-pvdz symm=none int=(grid=ultrafine) guess=(read,tcheck) s
 table=(opt,rrhf)
 ----------------------------------------------------------------------
 -----
 title
 -----
 Symbolic Z-matrix:
 Charge =  0 Multiplicity = 1

 SCF Done:  E(RHF) =  -337.367011727     A.U. after   16 cycles
 Normal termination of Gaussian 16 at Wed Apr  9 19:33:57 2025.
 Gaussian 16:  ES64L-G16RevC.01  3-Jul-2019

 ----------------------------------------------------------------------
 #t hf aug-cc-pvdz iop(5/13=1,5/36=2,99/5=2) pseudo=read geom=check gue
 ss=(read,tcheck) scf=(maxcycle=1)
 ----------------------------------------------------------------------
 -----
 title
 -----
 Structure from the checkpoint file:  "Grambow2020_wb97xd3_009446_reverse_mol1.chk"
 Charge =  0 Multiplicity = 1

                         Standard orientation:
 ---------------------------------------------------------------------
 Center     Atomic      Atomic             Coordinates (Angstroms)
 Number     Number       Type             X           Y           Z
 ---------------------------------------------------------------------
      1          7           0        1.131046   -0.416137    1.144456
      2          6           0        0.697675   -0.796084    0.051338
      3          6           0       -0.723898   -1.180314   -0.319529
      4          8           0       -1.462627   -0.000687    0.000585
      5          6           0       -0.725143    1.180290    0.318224
      6          6           0        0.697277    0.796138   -0.050854
      7          7           0        1.131850    0.416762   -1.143671
      8          1           0       -1.060270   -1.995830    0.319525
      9          1           0       -0.845615   -1.429112   -1.372742
     10          1           0       -1.060572    1.994741   -0.322843
     11          1           0       -0.848258    1.431141    1.370813
 ---------------------------------------------------------------------

 SCF Done:  E(RHF) =  -338.865021889     A.U. after    2 cycles

 The electronic state is 1-A.
 Alpha  occ. eigenvalues --  -21.08485 -15.77580 -15.77505 -11.52776 -11.51381
 Alpha  occ. eigenvalues --  -11.48330 -11.45665  -1.81386  -1.53048  -1.26075
 Alpha  occ. eigenvalues --   -1.12576  -0.99675  -0.79864  -0.79008  -0.68755
 Alpha  occ. eigenvalues --   -0.68356  -0.63099  -0.57234  -0.52663  -0.51324
 Alpha  occ. eigenvalues --   -0.47686  -0.43925  -0.42672  -0.33665  -0.30389
 Alpha virt. eigenvalues --    0.03275   0.05140   0.05752   0.06465   0.07911
 Alpha virt. eigenvalues --    0.08432   0.09569   0.10248   0.10588   0.10694
 Alpha virt. eigenvalues --    0.12677   0.13364   0.13485   0.14363   0.15994

 Mulliken charges:
               1
     1  N   -2.033796
     2  C    1.596423
     3  C   -0.997872
     4  O   -2.741407
     5  C   -0.997288
     6  C    1.595013
     7  N   -2.033682
     8  H    1.328745
     9  H    1.477633
    10  H    1.328379
    11  H    1.477853
 Sum of Mulliken charges =  -0.00000

 Dipole moment (field-independent basis, Debye):
    X=             -2.5887    Y=             -0.0014    Z=             -0.0013  Tot=              2.5887

 Test job not archived.
 1\1\GINC-SE174\SP\RHF\Aug-CC-pVDZ\C4H4N2O1\OHZDE\09-Apr-2025\0\\#t hf
 aug-cc-pvdz iop(5/13=1,5/36=2,99/5=2) pseudo=read geom=check guess=(re
 ad,tcheck) scf=(maxcycle=1)\\title\\0,1\N,0,0.95407135,-0.22720125,1.5
 6651375\C,0,0.90849535,0.5751964,0.62781319\C,0,0.94064799,0.28793816,
 -0.86298962\O,0,-0.17998486,-0.57940231,-1.04079336\C,0,-1.08004346,-0
 .73678472,0.05675266\C,0,-0.61855245,0.33864099,1.02502742\N,0,-0.5336
 9107,1.5570072,0.83684883\H,0,1.85295461,-0.25315762,-1.11101134\H,0,0
 .83119415,1.17911677,-1.47926471\H,0,-2.09327442,-0.51600897,-0.277059

 Normal termination of Gaussian 16 at Wed Apr  9 19:34:01 2025.
