 Gaussian 16, Revision C.01,

 ----------------------------------------------------------------------
 #t hf aug-cc-pvdz symm=none int=(grid=ultrafine) guess=(read,tcheck) s
 table=(opt,rrhf)
 ----------------------------------------------------------------------
 -----
 title
 -----
 Symbolic Z-matrix:
 Charge =  0 Multiplicity = 1

 SCF Done:  E(RHF) =  -283.548922474     A.U. after   17 cycles
 Normal termination of Gaussian 16 at Wed Apr  9 16:06:42 2025.
 Gaussian 16:  ES64L-G16RevC.01  3-Jul-2019

 ----------------------------------------------------------------------
 #t hf aug-cc-pvdz iop(5/13=1,5/36=2,99/5=2) pseudo=read geom=check gue
 ss=(read,tcheck) scf=(maxcycle=1)
 ----------------------------------------------------------------------
 -----
 title
 -----
 Structure from the checkpoint file:  "Grambow2020_b97d3_006722_reverse_mol1.chk"
 Charge =  0 Multiplicity = 1

                         Standard orientation:
 ---------------------------------------------------------------------
 Center     Atomic      Atomic             Coordinates (Angstroms)
 Number     Number       Type             X           Y           Z
 ---------------------------------------------------------------------
      1          6           0       -0.419045   -1.034362    0.341226
      2          6           0       -1.624673   -0.121847    0.069497
      3          8           0       -1.539958    1.026028   -0.316161
      4          6           0        1.216142    0.942137    0.470048
      5          7           0        1.936467    0.038650   -0.111909
      6          6           0        0.829464   -0.738944   -0.426538
      7          1           0       -0.218311   -0.914591    1.422708
      8          1           0       -0.737520   -2.075431    0.148673
      9          1           0       -2.615889   -0.592876    0.276487
     10          1           0        1.446751    1.982914    0.176923
     11          1           0        0.878031   -1.160695   -1.437538
 ---------------------------------------------------------------------

 SCF Done:  E(RHF) =  -284.817817434     A.U. after    2 cycles

 The electronic state is 1-A.
 Alpha  occ. eigenvalues --  -21.07603 -15.78152 -11.50166 -11.48647 -11.42303
 Alpha  occ. eigenvalues --  -11.39883  -1.71582  -1.44486  -1.16005  -0.94185
 Alpha  occ. eigenvalues --   -0.83794  -0.75017  -0.68119  -0.64634  -0.60935
 Alpha  occ. eigenvalues --   -0.54229  -0.51564  -0.49065  -0.45449  -0.43054
 Alpha  occ. eigenvalues --   -0.31278  -0.28886
 Alpha virt. eigenvalues --    0.03374   0.04679   0.05435   0.06026   0.06303
 Alpha virt. eigenvalues --    0.08502   0.09788   0.10686   0.10957   0.12023
 Alpha virt. eigenvalues --    0.12996   0.13438   0.13871   0.15049   0.15523

 Mulliken charges:
               1
     1  C   -3.018673
     2  C    1.404930
     3  O   -2.595877
     4  C   -1.191697
     5  N   -2.259224
     6  C    0.533789
     7  H    1.436656
     8  H    1.314992
     9  H    1.485114
    10  H    1.449895
    11  H    1.440095
 Sum of Mulliken charges =   0.00000

 Dipole moment (field-independent basis, Debye):
    X=             -0.6791    Y=             -1.3410    Z=             -0.5043  Tot=              1.5855

 Test job not archived.
 1\1\GINC-SE168\SP\RHF\Aug-CC-pVDZ\C4H5N1O1\OHZDE\09-Apr-2025\0\\#t hf
 aug-cc-pvdz iop(5/13=1,5/36=2,99/5=2) pseudo=read geom=check guess=(re
 ad,tcheck) scf=(maxcycle=1)\\title\\0,1\C,0,-0.90113749,0.09314438,-0.
 08762026\C,0,-0.42091019,-0.62796131,-1.35625987\O,0,0.73753426,-0.908
 61317,-1.58596793\C,0,1.45349849,0.95017655,0.47644472\N,0,0.97545404,
 0.6937747,1.65099258\C,0,-0.05977909,-0.07621773,1.13669203\H,0,-0.924
 24787,1.16315382,-0.36831515\H,0,-1.93295426,-0.24574108,0.11935217\H,
 0,-1.23160099,-0.8664772,-2.08640579\H,0,2.54575803,0.81109815,0.37671

 Normal termination of Gaussian 16 at Wed Apr  9 16:06:46 2025.
