 Gaussian 16, Revision C.01,

 ----------------------------------------------------------------------
 #t hf aug-cc-pvdz symm=none int=(grid=ultrafine) guess=(read,tcheck) s
 table=(opt,rrhf)
 ----------------------------------------------------------------------
 -----
 title
 -----
 Symbolic Z-matrix:
 Charge =  0 Multiplicity = 1

 SCF Done:  E(RHF) =  -323.699706519     A.U. after   15 cycles
 Normal termination of Gaussian 16 at Wed Apr  9 18:45:45 2025.
 Gaussian 16:  ES64L-G16RevC.01  3-Jul-2019

 ----------------------------------------------------------------------
 #t hf aug-cc-pvdz iop(5/13=1,5/36=2,99/5=2) pseudo=read geom=check gue
 ss=(read,tcheck) scf=(maxcycle=1)
 ----------------------------------------------------------------------
 -----
 title
 -----
 Structure from the checkpoint file:  "Grambow2020_wb97xd3_007621_forward_mol1.chk"
 Charge =  0 Multiplicity = 1

                         Standard orientation:
 ---------------------------------------------------------------------
 Center     Atomic      Atomic             Coordinates (Angstroms)
 Number     Number       Type             X           Y           Z
 ---------------------------------------------------------------------
      1          6           0       -2.529655   -0.245611   -0.599413
      2          6           0       -0.944257    0.891430   -0.495953
      3          7           0       -1.460093   -0.170007    0.822152
      4          6           0       -0.107129    0.231325    0.510988
      5          6           0        0.819522   -0.883644    0.102717
      6          6           0        2.191382   -0.399235   -0.276298
      7          8           0        2.589614    0.721865   -0.115352
      8          1           0       -2.167809   -1.074187   -1.193815
      9          1           0       -3.339972   -0.591537    0.053006
     10          1           0       -2.948746    0.522721   -1.248303
     11          1           0       -1.255622    1.879945   -0.137655
     12          1           0       -1.868479    0.451877    1.511051
     13          1           0        0.300478    0.880385    1.281152
     14          1           0        0.403012   -1.434535   -0.745683
     15          1           0        0.945128   -1.613696    0.912260
     16          1           0        2.856570   -1.171429   -0.716512
 ---------------------------------------------------------------------

 SCF Done:  E(RHF) =  -325.226038981     A.U. after    2 cycles

 The electronic state is 1-A.
 Alpha  occ. eigenvalues --  -21.06037 -15.76847 -11.48476 -11.45882 -11.43787
 Alpha  occ. eigenvalues --  -11.40014 -11.36661  -1.71181  -1.45734  -1.14673
 Alpha  occ. eigenvalues --   -1.02877  -0.95278  -0.85036  -0.76475  -0.72186
 Alpha  occ. eigenvalues --   -0.64717  -0.60700  -0.59151  -0.56971  -0.53002
 Alpha  occ. eigenvalues --   -0.50929  -0.48360  -0.46849  -0.42473  -0.37456
 Alpha  occ. eigenvalues --   -0.29157  -0.27720
 Alpha virt. eigenvalues --    0.03709   0.04821   0.05093   0.05640   0.05734
 Alpha virt. eigenvalues --    0.05958   0.06979   0.07505   0.08696   0.10392
 Alpha virt. eigenvalues --    0.11828   0.12114   0.12704   0.13856   0.14008

 Mulliken charges:
               1
     1  C   -3.312756
     2  C   -1.522874
     3  N   -1.895852
     4  C   -0.025236
     5  C   -3.331834
     6  C    1.463035
     7  O   -2.791738
     8  H    1.327989
     9  H    1.148598
    10  H    1.052716
    11  H    1.148999
    12  H    0.564822
    13  H    1.725857
    14  H    1.607656
    15  H    1.422983
    16  H    1.417635
 Sum of Mulliken charges =  -0.00000

 Dipole moment (field-independent basis, Debye):
    X=             -1.5846    Y=             -0.7777    Z=              1.6655  Tot=              2.4268

 Test job not archived.
 1\1\GINC-SE116\SP\RHF\Aug-CC-pVDZ\C5H9N1O1\OHZDE\09-Apr-2025\0\\#t hf
 aug-cc-pvdz iop(5/13=1,5/36=2,99/5=2) pseudo=read geom=check guess=(re
 ad,tcheck) scf=(maxcycle=1)\\title\\0,1\C,0,-1.76066722,0.61884611,1.1
 9118949\C,0,-0.98768049,-0.75517408,0.03723366\N,0,-0.88790705,0.97483
 913,-0.31946769\C,0,0.06623669,-0.04403418,-0.69351321\C,0,1.43623038,
 0.09927867,-0.08433304\C,0,2.36402824,-1.02509169,-0.45214794\O,0,2.12
 741389,-1.86534566,-1.27637098\H,0,-1.0216375,0.68618336,1.97864507\H,
 0,-2.27942798,1.57987132,1.09503642\H,0,-2.51327809,-0.12523958,1.4499

 Normal termination of Gaussian 16 at Wed Apr  9 18:45:50 2025.
