 Gaussian 16, Revision C.01,

 ----------------------------------------------------------------------
 #t hf aug-cc-pvdz symm=none int=(grid=ultrafine) guess=(read,tcheck) s
 table=(opt,rrhf)
 ----------------------------------------------------------------------
 -----
 title
 -----
 Symbolic Z-matrix:
 Charge =  0 Multiplicity = 1

 SCF Done:  E(RHF) =  -299.662045766     A.U. after   14 cycles
 Normal termination of Gaussian 16 at Wed Apr  9 17:44:17 2025.
 Gaussian 16:  ES64L-G16RevC.01  3-Jul-2019

 ----------------------------------------------------------------------
 #t hf aug-cc-pvdz iop(5/13=1,5/36=2,99/5=2) pseudo=read geom=check gue
 ss=(read,tcheck) scf=(maxcycle=1)
 ----------------------------------------------------------------------
 -----
 title
 -----
 Structure from the checkpoint file:  "Grambow2020_wb97xd3_006144_reverse_mol2.chk"
 Charge =  0 Multiplicity = 1

                         Standard orientation:
 ---------------------------------------------------------------------
 Center     Atomic      Atomic             Coordinates (Angstroms)
 Number     Number       Type             X           Y           Z
 ---------------------------------------------------------------------
      1          7           0       -2.032759    0.144512   -0.000868
      2          6           0       -0.783061    0.068607    0.000270
      3          6           0        0.211359    1.195239    0.000708
      4          6           0        1.477387    0.413845   -0.001078
      5          7           0        1.305558   -0.842463   -0.000314
      6          8           0       -0.070801   -1.107700    0.000917
      7          1           0       -2.460553   -0.778204   -0.001061
      8          1           0        0.096191    1.830876   -0.878523
      9          1           0        0.099955    1.827250    0.883311
     10          1           0        2.487117    0.801194   -0.002185
 ---------------------------------------------------------------------

 SCF Done:  E(RHF) =  -300.985725849     A.U. after    2 cycles

 The electronic state is 1-A.
 Alpha  occ. eigenvalues --  -21.11003 -15.80659 -15.73664 -11.51261 -11.46789
 Alpha  occ. eigenvalues --  -11.41736  -1.88939  -1.34820  -1.30044  -1.12560
 Alpha  occ. eigenvalues --   -0.84628  -0.81836  -0.72018  -0.67218  -0.60834
 Alpha  occ. eigenvalues --   -0.54384  -0.53862  -0.48835  -0.46854  -0.43630
 Alpha  occ. eigenvalues --   -0.36795  -0.30012
 Alpha virt. eigenvalues --    0.02938   0.04992   0.05939   0.06281   0.08798
 Alpha virt. eigenvalues --    0.09720   0.10810   0.11726   0.11944   0.13132
 Alpha virt. eigenvalues --    0.13339   0.14381   0.15188   0.16333   0.17701

 Mulliken charges:
               1
     1  N   -3.413717
     2  C    5.288401
     3  C   -3.633278
     4  C    0.774261
     5  N   -0.957126
     6  O   -2.881523
     7  H    0.745255
     8  H    1.297992
     9  H    1.298715
    10  H    1.481021
 Sum of Mulliken charges =  -0.00000

 Dipole moment (field-independent basis, Debye):
    X=              1.5639    Y=              1.2003    Z=              0.0014  Tot=              1.9714

 Test job not archived.
 1\1\GINC-SE045\SP\RHF\Aug-CC-pVDZ\C3H4N2O1\OHZDE\09-Apr-2025\0\\#t hf
 aug-cc-pvdz iop(5/13=1,5/36=2,99/5=2) pseudo=read geom=check guess=(re
 ad,tcheck) scf=(maxcycle=1)\\title\\0,1\N,0,2.00467483,-0.40440014,-0.
 33770046\C,0,0.79347283,-0.33264546,-0.02891472\C,0,-0.18768921,0.7496
 0368,-0.381374\C,0,-1.40362543,0.21545671,0.28914341\N,0,-1.21865057,-
 0.88861159,0.88467207\O,0,0.11984655,-1.27005695,0.71841409\H,0,2.4332
 1991,-1.24819821,0.03481344\H,0,0.12845501,1.71853594,0.00794342\H,0,-
 0.30358483,0.84854767,-1.46193745\H,0,-2.38836907,0.66183436,0.3140831

 Normal termination of Gaussian 16 at Wed Apr  9 17:44:22 2025.
