 Gaussian 16, Revision C.01,

 ----------------------------------------------------------------------
 #t hf aug-cc-pvdz symm=none int=(grid=ultrafine) guess=(read,tcheck) s
 table=(opt,rrhf)
 ----------------------------------------------------------------------
 -----
 title
 -----
 Symbolic Z-matrix:
 Charge =  0 Multiplicity = 1

 SCF Done:  E(RHF) =  -269.565754332     A.U. after   14 cycles
 Normal termination of Gaussian 16 at Wed Apr  9 18:05:45 2025.
 Gaussian 16:  ES64L-G16RevC.01  3-Jul-2019

 ----------------------------------------------------------------------
 #t hf aug-cc-pvdz iop(5/13=1,5/36=2,99/5=2) pseudo=read geom=check gue
 ss=(read,tcheck) scf=(maxcycle=1)
 ----------------------------------------------------------------------
 -----
 title
 -----
 Structure from the checkpoint file:  "Grambow2020_wb97xd3_006586_reverse_mol2.chk"
 Charge =  0 Multiplicity = 1

                         Standard orientation:
 ---------------------------------------------------------------------
 Center     Atomic      Atomic             Coordinates (Angstroms)
 Number     Number       Type             X           Y           Z
 ---------------------------------------------------------------------
      1          6           0       -0.293425    1.637685    0.207041
      2          6           0       -0.466675    0.228088   -0.355283
      3          6           0        0.491957   -0.788994    0.300427
      4          6           0        1.892293   -0.459903    0.057103
      5          6           0        3.037055   -0.181491   -0.154405
      6          6           0       -2.946603   -0.812776    0.092754
      7          6           0       -1.838347   -0.281520   -0.154297
      8          1           0       -0.489580    1.649710    1.280556
      9          1           0        0.725510    1.984382    0.033689
     10          1           0       -0.980249    2.336302   -0.272210
     11          1           0       -0.256977    0.238645   -1.428481
     12          1           0        0.304794   -0.818436    1.377242
     13          1           0        0.285181   -1.789211   -0.086216
     14          1           0        4.057876    0.058383   -0.337748
     15          1           0       -2.904087    0.293688   -0.526865
 ---------------------------------------------------------------------

 SCF Done:  E(RHF) =  -270.882726799     A.U. after    2 cycles

 The electronic state is 1-A.
 Alpha  occ. eigenvalues --  -11.49665 -11.46527 -11.43927 -11.41912 -11.41035
 Alpha  occ. eigenvalues --  -11.40189 -11.39174  -1.32667  -1.16776  -1.10473
 Alpha  occ. eigenvalues --   -1.02112  -0.91240  -0.75059  -0.70347  -0.66229
 Alpha  occ. eigenvalues --   -0.62237  -0.58671  -0.55362  -0.53946  -0.51946
 Alpha  occ. eigenvalues --   -0.49301  -0.41936  -0.38243  -0.37937  -0.37538
 Alpha virt. eigenvalues --    0.02718   0.04326   0.04927   0.05867   0.06030
 Alpha virt. eigenvalues --    0.06556   0.07031   0.07659   0.09001   0.10214
 Alpha virt. eigenvalues --    0.10718   0.11310   0.11927   0.12958   0.13081

 Mulliken charges:
               1
     1  C   -4.108073
     2  C   -1.961475
     3  C   -3.728997
     4  C    4.739021
     5  C   -4.537119
     6  C   -3.107251
     7  C    2.426480
     8  H    1.348165
     9  H    1.385080
    10  H    1.111826
    11  H    1.730327
    12  H    1.309050
    13  H    1.307470
    14  H    0.704525
    15  H    1.380970
 Sum of Mulliken charges =   0.00000

 Dipole moment (field-independent basis, Debye):
    X=              3.0566    Y=              1.9912    Z=             -0.8073  Tot=              3.7362

 Test job not archived.
 1\1\GINC-SE112\SP\RHF\Aug-CC-pVDZ\C7H8\OHZDE\09-Apr-2025\0\\#t hf aug-
 cc-pvdz iop(5/13=1,5/36=2,99/5=2) pseudo=read geom=check guess=(read,t
 check) scf=(maxcycle=1)\\title\\0,1\C,0,-0.18498415,-1.44933973,0.1624
 8993\C,0,-0.44920407,0.02437378,0.46505138\C,0,0.30815752,0.96712548,-
 0.49464092\C,0,1.75511467,0.81723117,-0.38376074\C,0,2.94048114,0.6880
 912,-0.27908856\C,0,-3.06488805,0.73316357,0.16506925\C,0,-1.88320348,
 0.36141269,0.35722167\H,0,-0.50029553,-1.69546393,-0.85292056\H,0,0.87
 944379,-1.66376013,0.25993228\H,0,-0.72988544,-2.09352728,0.85356189\H

 Normal termination of Gaussian 16 at Wed Apr  9 18:05:50 2025.
