 Gaussian 16, Revision C.01,

 ----------------------------------------------------------------------
 #t hf aug-cc-pvdz symm=none int=(grid=ultrafine) guess=(read,tcheck) s
 table=(opt,rrhf)
 ----------------------------------------------------------------------
 -----
 title
 -----
 Symbolic Z-matrix:
 Charge =  0 Multiplicity = 1

 SCF Done:  E(RHF) =  -269.794915338     A.U. after   16 cycles

 1\1\GINC-SE362\Stability\RHF\Aug-CC-pVDZ\C5H10O1\OHZDE\09-Apr-2025\0\\
 #t hf aug-cc-pvdz symm=none int=(grid=ultrafine) guess=(read,tcheck) s
 table=(opt,rrhf)\\title\\0,1\O,0,2.69950991,-0.03179295,-0.02450268\C,
 0,1.44736445,-0.09828421,0.48715182\C,0,0.34454417,0.12869967,-0.34563
 511\C,0,-0.90018845,-0.727216,-0.04910891\C,0,-1.91544143,0.35642605,-
 0.42799076\C,0,-0.76085124,1.27275371,-0.08558986\H,0,3.34238803,-0.25
 210981,0.65121432\H,0,0.9176816,-2.06174499,0.27969216\H,0,1.35149727,
 -0.08718108,1.56811856\H,0,0.61808912,0.13306408,-1.4015764\H,0,-0.965

 Normal termination of Gaussian 16 at Wed Apr  9 17:45:50 2025.
 Gaussian 16:  ES64L-G16RevC.01  3-Jul-2019

 ----------------------------------------------------------------------
 #t hf aug-cc-pvdz iop(5/13=1,5/36=2,99/5=2) pseudo=read geom=check gue
 ss=(read,tcheck) scf=(maxcycle=1)
 ----------------------------------------------------------------------
 -----
 title
 -----
 Structure from the checkpoint file:  "Grambow2020_wb97xd3_006158_forward_mol1.chk"
 Charge =  0 Multiplicity = 1

                         Standard orientation:
 ---------------------------------------------------------------------
 Center     Atomic      Atomic             Coordinates (Angstroms)
 Number     Number       Type             X           Y           Z
 ---------------------------------------------------------------------
      1          8           0       -2.465284   -0.277818   -0.255806
      2          6           0       -1.307357    0.049865    0.365410
      3          6           0       -0.091025   -0.092708   -0.313911
      4          6           0        0.969230    0.981881   -0.012255
      5          6           0        2.171159    0.039358   -0.137109
      6          6           0        1.131417   -1.004496    0.208257
      7          1           0       -3.210188   -0.086042    0.315828
      8          1           0       -1.051593    2.034721   -0.051378
      9          1           0       -1.341678    0.181982    1.442058
     10          1           0       -0.231872   -0.265717   -1.381660
     11          1           0        0.871014    1.339213    1.019162
     12          1           0       -0.282390    2.180791   -0.303177
     13          1           0        2.556336   -0.048633   -1.153532
     14          1           0        2.988690    0.176717    0.565615
     15          1           0        1.052336   -1.191534    1.276359
     16          1           0        1.131075   -1.942345   -0.345189
 ---------------------------------------------------------------------

 SCF Done:  E(RHF) =  -271.118529511     A.U. after    2 cycles

 The electronic state is 1-A.
 Alpha  occ. eigenvalues --  -21.12329 -11.49272 -11.46663 -11.40273 -11.39557
 Alpha  occ. eigenvalues --  -11.34667  -1.77093  -1.34450  -1.05715  -0.91833
 Alpha  occ. eigenvalues --   -0.87060  -0.79595  -0.69038  -0.66022  -0.64252
 Alpha  occ. eigenvalues --   -0.57121  -0.55313  -0.50348  -0.47265  -0.44541
 Alpha  occ. eigenvalues --   -0.43966  -0.42437  -0.40998  -0.19778
 Alpha virt. eigenvalues --    0.03615   0.04626   0.05133   0.05475   0.05970
 Alpha virt. eigenvalues --    0.06615   0.06884   0.07816   0.08183   0.08964
 Alpha virt. eigenvalues --    0.10205   0.11898   0.12878   0.13636   0.14346

 Mulliken charges:
               1
     1  O   -3.270351
     2  C    0.539991
     3  C   -0.958487
     4  C   -1.028451
     5  C   -3.221072
     6  C   -2.202127
     7  H    0.843760
     8  H    0.450298
     9  H    1.415026
    10  H    1.282213
    11  H    1.525979
    12  H   -0.463780
    13  H    1.366872
    14  H    1.205375
    15  H    1.343235
    16  H    1.171519
 Sum of Mulliken charges =   0.00000

 Dipole moment (field-independent basis, Debye):
    X=             -1.6886    Y=             -2.7213    Z=              1.2992  Tot=              3.4561

 Test job not archived.
 1\1\GINC-SE362\SP\RHF\Aug-CC-pVDZ\C5H10O1\OHZDE\09-Apr-2025\0\\#t hf a
 ug-cc-pvdz iop(5/13=1,5/36=2,99/5=2) pseudo=read geom=check guess=(rea
 d,tcheck) scf=(maxcycle=1)\\title\\0,1\O,0,2.69950991,-0.03179295,-0.0
 2450268\C,0,1.44736445,-0.09828421,0.48715182\C,0,0.34454417,0.1286996
 7,-0.34563511\C,0,-0.90018845,-0.727216,-0.04910891\C,0,-1.91544143,0.
 35642605,-0.42799076\C,0,-0.76085124,1.27275371,-0.08558986\H,0,3.3423
 8803,-0.25210981,0.65121432\H,0,0.9176816,-2.06174499,0.27969216\H,0,1
 .35149727,-0.08718108,1.56811856\H,0,0.61808912,0.13306408,-1.4015764\

 Normal termination of Gaussian 16 at Wed Apr  9 17:45:54 2025.
