 Gaussian 16, Revision C.01,

 ----------------------------------------------------------------------
 #t hf aug-cc-pvdz symm=none int=(grid=ultrafine) guess=(read,tcheck) s
 table=(opt,rrhf)
 ----------------------------------------------------------------------
 -----
 title
 -----
 Symbolic Z-matrix:
 Charge =  0 Multiplicity = 1

 SCF Done:  E(RHF) =  -322.566843709     A.U. after   15 cycles
 Normal termination of Gaussian 16 at Wed Apr  9 03:33:22 2025.
 Gaussian 16:  ES64L-G16RevC.01  3-Jul-2019

 ----------------------------------------------------------------------
 #t hf aug-cc-pvdz iop(5/13=1,5/36=2,99/5=2) pseudo=read geom=check gue
 ss=(read,tcheck) scf=(maxcycle=1)
 ----------------------------------------------------------------------
 -----
 title
 -----
 Structure from the checkpoint file:  "Grambow2020_wb97xd3_007021_forward_mol1.chk"
 Charge =  0 Multiplicity = 1

                         Standard orientation:
 ---------------------------------------------------------------------
 Center     Atomic      Atomic             Coordinates (Angstroms)
 Number     Number       Type             X           Y           Z
 ---------------------------------------------------------------------
      1          6           0        0.478918    1.872183   -0.412945
      2          6           0        0.011464    0.695744    0.433121
      3          6           0       -1.361845    0.310351    0.238239
      4          6           0       -2.288779   -0.434811   -0.069338
      5          7           0        0.071738   -1.654471   -0.284184
      6          6           0        0.834679   -0.663040    0.055356
      7          8           0        2.047797   -0.479183    0.169348
      8          1           0        0.038941    2.817386   -0.090856
      9          1           0        0.244615    1.707910   -1.465750
     10          1           0        1.561170    1.924790   -0.309171
     11          1           0        0.196648    0.870830    1.494804
     12          1           0       -2.455153    0.882422    0.340580
     13          1           0       -3.161896   -1.008500   -0.301105
     14          1           0        0.644520   -2.462637   -0.500597
 ---------------------------------------------------------------------

 SCF Done:  E(RHF) =  -324.072799810     A.U. after    2 cycles

 The electronic state is 1-A.
 Alpha  occ. eigenvalues --  -20.95622 -15.65407 -11.57761 -11.56183 -11.45631
 Alpha  occ. eigenvalues --  -11.42991 -11.38982  -1.63633  -1.33982  -1.22247
 Alpha  occ. eigenvalues --   -1.15944  -0.96264  -0.84651  -0.74391  -0.68644
 Alpha  occ. eigenvalues --   -0.65145  -0.61257  -0.55728  -0.53177  -0.48984
 Alpha  occ. eigenvalues --   -0.48430  -0.47114  -0.43821  -0.34328  -0.23081
 Alpha  occ. eigenvalues --   -0.22635
 Alpha virt. eigenvalues --    0.01084   0.03019   0.04067   0.05297   0.06123
 Alpha virt. eigenvalues --    0.06781   0.07384   0.08108   0.08535   0.09936
 Alpha virt. eigenvalues --    0.10885   0.12022   0.12395   0.12986   0.13737

 Mulliken charges:
               1
     1  C   -3.972692
     2  C   -3.696217
     3  C    3.593352
     4  C   -3.179750
     5  N   -3.077673
     6  C    5.824871
     7  O   -3.181600
     8  H    1.132462
     9  H    1.321997
    10  H    1.348317
    11  H    1.250696
    12  H    1.232643
    13  H    0.684116
    14  H    0.719477
 Sum of Mulliken charges =  -0.00000

 Dipole moment (field-independent basis, Debye):
    X=             -7.1457    Y=              2.7548    Z=              0.3373  Tot=              7.6657

 Test job not archived.
 1\1\GINC-SE453\SP\RHF\Aug-CC-pVDZ\C5H7N1O1\OHZDE\09-Apr-2025\0\\#t hf
 aug-cc-pvdz iop(5/13=1,5/36=2,99/5=2) pseudo=read geom=check guess=(re
 ad,tcheck) scf=(maxcycle=1)\\title\\0,1\C,0,-1.71891452,0.10694703,0.2
 771138\C,0,-0.40395302,0.17174138,-0.48775632\C,0,0.61316883,0.9938256
 3,0.11401182\C,0,1.69971106,1.24205186,0.63062193\N,0,1.51465122,-1.31
 490341,-0.09979185\C,0,0.30430738,-1.29771652,-0.56355372\O,0,-0.46514
 337,-2.12336106,-1.05823415\H,0,-2.27469295,1.04481232,0.22970298\H,0,
 -1.54538843,-0.15460472,1.3219873\H,0,-2.30996067,-0.68539777,-0.17858

 Normal termination of Gaussian 16 at Wed Apr  9 03:33:26 2025.
