 Gaussian 16, Revision C.01,

 ----------------------------------------------------------------------
 #t hf aug-cc-pvdz symm=none int=(grid=ultrafine) guess=(read,tcheck) s
 table=(opt,rrhf)
 ----------------------------------------------------------------------
 -----
 title
 -----
 Symbolic Z-matrix:
 Charge =  0 Multiplicity = 1

 SCF Done:  E(RHF) =  -322.501025971     A.U. after   15 cycles
 Normal termination of Gaussian 16 at Wed Apr  9 18:26:43 2025.
 Gaussian 16:  ES64L-G16RevC.01  3-Jul-2019

 ----------------------------------------------------------------------
 #t hf aug-cc-pvdz iop(5/13=1,5/36=2,99/5=2) pseudo=read geom=check gue
 ss=(read,tcheck) scf=(maxcycle=1)
 ----------------------------------------------------------------------
 -----
 title
 -----
 Structure from the checkpoint file:  "Grambow2020_wb97xd3_007141_forward_mol1.chk"
 Charge =  0 Multiplicity = 1

                         Standard orientation:
 ---------------------------------------------------------------------
 Center     Atomic      Atomic             Coordinates (Angstroms)
 Number     Number       Type             X           Y           Z
 ---------------------------------------------------------------------
      1          7           0       -2.257524   -0.402848   -0.004381
      2          6           0       -1.040913   -0.134476   -0.032642
      3          8           0       -0.548770    1.175779    0.247154
      4          6           0        0.734442    1.230502   -0.075109
      5          6           0        1.306999   -0.009832   -0.409651
      6          6           0        1.196774   -1.133429    0.568369
      7          6           0        0.099308   -0.975774   -0.444822
      8          1           0       -2.827419    0.400949    0.245200
      9          1           0        2.861756    1.220547    0.201414
     10          1           0        1.163732    2.205483   -0.231118
     11          1           0        2.436296    0.342984   -0.629966
     12          1           0        1.000356   -0.903162    1.609459
     13          1           0        1.860398   -1.972684    0.404660
     14          1           0       -0.081954   -1.742360   -1.183084
 ---------------------------------------------------------------------

 SCF Done:  E(RHF) =  -323.991994324     A.U. after    2 cycles

 The electronic state is 1-A.
 Alpha  occ. eigenvalues --  -21.16277 -15.76541 -11.56126 -11.53867 -11.47542
 Alpha  occ. eigenvalues --  -11.46388 -11.40506  -1.90011  -1.37618  -1.34323
 Alpha  occ. eigenvalues --   -1.06518  -0.96967  -0.86434  -0.80353  -0.76110
 Alpha  occ. eigenvalues --   -0.66156  -0.65428  -0.63100  -0.57685  -0.55878
 Alpha  occ. eigenvalues --   -0.49077  -0.46466  -0.43665  -0.40925  -0.37756
 Alpha  occ. eigenvalues --   -0.26502
 Alpha virt. eigenvalues --    0.03327   0.04478   0.04893   0.05467   0.05786
 Alpha virt. eigenvalues --    0.06124   0.06883   0.09206   0.09547   0.10371
 Alpha virt. eigenvalues --    0.11760   0.12006   0.12345   0.13327   0.13607

 Mulliken charges:
               1
     1  N   -3.600869
     2  C    4.849093
     3  O   -3.999057
     4  C    1.309591
     5  C   -0.890299
     6  C   -2.736104
     7  C   -1.780219
     8  H    0.745400
     9  H   -0.576611
    10  H    1.722827
    11  H    1.102791
    12  H    1.333108
    13  H    1.267673
    14  H    1.252676
 Sum of Mulliken charges =  -0.00000

 Dipole moment (field-independent basis, Debye):
    X=             -3.6179    Y=             -0.5014    Z=             -0.2962  Tot=              3.6644

 Test job not archived.
 1\1\GINC-SE103\SP\RHF\Aug-CC-pVDZ\C5H7N1O1\OHZDE\09-Apr-2025\0\\#t hf
 aug-cc-pvdz iop(5/13=1,5/36=2,99/5=2) pseudo=read geom=check guess=(re
 ad,tcheck) scf=(maxcycle=1)\\title\\0,1\N,0,1.80487784,-1.93320039,-0.
 00666689\C,0,1.05232787,-0.96488574,-0.2280271\O,0,1.54403251,0.273684
 55,-0.73932692\C,0,0.58384461,1.18219027,-0.66097407\C,0,-0.67508064,0
 .67276664,-0.29523723\C,0,-1.2557554,-0.44157849,-1.10282304\C,0,-0.38
 469593,-0.80299815,0.06613981\H,0,2.77390565,-1.7339797,-0.24002711\H,
 0,-1.02124314,2.44794602,-1.31180571\H,0,0.87851002,2.21712888,-0.6968

 Normal termination of Gaussian 16 at Wed Apr  9 18:26:47 2025.
