 Gaussian 16, Revision C.01,

 ----------------------------------------------------------------------
 #t hf aug-cc-pvdz symm=none int=(grid=ultrafine) guess=(read,tcheck) s
 table=(opt,rrhf)
 ----------------------------------------------------------------------
 -----
 title
 -----
 Symbolic Z-matrix:
 Charge =  0 Multiplicity = 1

 SCF Done:  E(RHF) =  -287.885728291     A.U. after   16 cycles

 1\1\GINC-SE362\Stability\RHF\Aug-CC-pVDZ\C6H11N1\OHZDE\09-Apr-2025\0\\
 #t hf aug-cc-pvdz symm=none int=(grid=ultrafine) guess=(read,tcheck) s
 table=(opt,rrhf)\\title\\0,1\C,0,-2.43570109,-0.13367594,-0.91141894\C
 ,0,-1.3512169,-0.3901297,0.12763737\C,0,0.00372028,0.10711481,-0.31520
 034\C,0,1.16011904,-0.01587862,0.75731886\C,0,2.46491529,-0.6473881,0.
 32551321\C,0,0.93193799,1.37186472,0.53258468\N,0,0.82620355,2.5776042
 1,0.39070378\H,0,-3.40254538,-0.51314828,-0.5762341\H,0,-2.54332808,0.
 93505751,-1.11012388\H,0,-2.19486681,-0.6235922,-1.85780064\H,0,-1.629

 Normal termination of Gaussian 16 at Wed Apr  9 18:15:27 2025.
 Gaussian 16:  ES64L-G16RevC.01  3-Jul-2019

 ----------------------------------------------------------------------
 #t hf aug-cc-pvdz iop(5/13=1,5/36=2,99/5=2) pseudo=read geom=check gue
 ss=(read,tcheck) scf=(maxcycle=1)
 ----------------------------------------------------------------------
 -----
 title
 -----
 Structure from the checkpoint file:  "Grambow2020_wb97xd3_006816_reverse_mol1.chk"
 Charge =  0 Multiplicity = 1

                         Standard orientation:
 ---------------------------------------------------------------------
 Center     Atomic      Atomic             Coordinates (Angstroms)
 Number     Number       Type             X           Y           Z
 ---------------------------------------------------------------------
      1          6           0       -2.805329   -0.103558   -0.268218
      2          6           0       -1.530998   -0.470241    0.482207
      3          6           0       -0.285017   -0.198191   -0.325712
      4          6           0        1.084274   -0.442098    0.428101
      5          6           0        2.137527   -1.277486   -0.265109
      6          6           0        0.989007    0.952683    0.156230
      7          7           0        1.008635    2.153299   -0.051750
      8          1           0       -3.692656   -0.321187    0.328795
      9          1           0       -2.820219    0.959424   -0.519428
     10          1           0       -2.885305   -0.665359   -1.201835
     11          1           0       -1.488801    0.098696    1.418030
     12          1           0       -1.573868   -1.528573    0.774768
     13          1           0       -0.252443   -0.635055   -1.322707
     14          1           0       -0.014613    1.435248   -0.509817
     15          1           0        0.930458   -0.703257    1.474817
     16          1           0        1.827905   -2.323919   -0.271971
     17          1           0        2.273339   -0.952794   -1.297545
     18          1           0        3.098975   -1.202970    0.244148
 ---------------------------------------------------------------------

 SCF Done:  E(RHF) =  -289.335145659     A.U. after    2 cycles

 The electronic state is 1-A.
 Alpha  occ. eigenvalues --  -15.74538 -11.50692 -11.47565 -11.42478 -11.40316
 Alpha  occ. eigenvalues --  -11.38102 -11.35260  -1.42525  -1.24515  -1.15429
 Alpha  occ. eigenvalues --   -1.02623  -0.91738  -0.82942  -0.72721  -0.67084
 Alpha  occ. eigenvalues --   -0.62303  -0.60173  -0.58480  -0.56108  -0.55814
 Alpha  occ. eigenvalues --   -0.51635  -0.50391  -0.48478  -0.46613  -0.43138
 Alpha  occ. eigenvalues --   -0.40334  -0.25571
 Alpha virt. eigenvalues --    0.03583   0.04821   0.05052   0.05451   0.05693
 Alpha virt. eigenvalues --    0.05797   0.06620   0.07033   0.07677   0.08476
 Alpha virt. eigenvalues --    0.09453   0.09942   0.11711   0.12367   0.13161

 Mulliken charges:
               1
     1  C   -3.936819
     2  C   -3.152785
     3  C   -1.609480
     4  C   -1.985307
     5  C   -4.302041
     6  C    3.066161
     7  N   -2.440518
     8  H    1.070501
     9  H    1.324354
    10  H    1.316136
    11  H    1.469410
    12  H    1.373732
    13  H    1.596321
    14  H    0.889648
    15  H    1.563186
    16  H    1.291489
    17  H    1.267113
    18  H    1.198899
 Sum of Mulliken charges =  -0.00000

 Dipole moment (field-independent basis, Debye):
    X=              0.1094    Y=             -2.8384    Z=              0.4187  Tot=              2.8712

 Test job not archived.
 1\1\GINC-SE362\SP\RHF\Aug-CC-pVDZ\C6H11N1\OHZDE\09-Apr-2025\0\\#t hf a
 ug-cc-pvdz iop(5/13=1,5/36=2,99/5=2) pseudo=read geom=check guess=(rea
 d,tcheck) scf=(maxcycle=1)\\title\\0,1\C,0,-2.43570109,-0.13367594,-0.
 91141894\C,0,-1.3512169,-0.3901297,0.12763737\C,0,0.00372028,0.1071148
 1,-0.31520034\C,0,1.16011904,-0.01587862,0.75731886\C,0,2.46491529,-0.
 6473881,0.32551321\C,0,0.93193799,1.37186472,0.53258468\N,0,0.82620355
 ,2.57760421,0.39070378\H,0,-3.40254538,-0.51314828,-0.5762341\H,0,-2.5
 4332808,0.93505751,-1.11012388\H,0,-2.19486681,-0.6235922,-1.85780064\

 Normal termination of Gaussian 16 at Wed Apr  9 18:15:32 2025.
