 Gaussian 16, Revision C.01,

 ----------------------------------------------------------------------
 #t hf aug-cc-pvdz symm=none int=(grid=ultrafine) guess=(read,tcheck) s
 table=(opt,rrhf)
 ----------------------------------------------------------------------
 -----
 title
 -----
 Symbolic Z-matrix:
 Charge =  0 Multiplicity = 1

 SCF Done:  E(RHF) =  -307.890397904     A.U. after   12 cycles

 1\1\GINC-SE226\Stability\RHF\Aug-CC-pVDZ\C6H10O1\OHZDE\09-Apr-2025\0\\
 #t hf aug-cc-pvdz symm=none int=(grid=ultrafine) guess=(read,tcheck) s
 table=(opt,rrhf)\\title\\0,1\C,0,-2.05989085,-0.51665711,0.24525429\C,
 0,-0.84654416,-0.03736142,-0.5186948\O,0,-0.52511519,1.27935501,-0.082
 64746\C,0,0.84421719,1.52549409,-0.3480425\C,0,1.52913975,0.18368942,-
 0.21625655\C,0,1.14179597,-0.62462826,0.98412031\C,0,0.4309214,-0.8295
 9608,-0.31971749\H,0,-2.89421008,0.17077246,0.1012474\H,0,-1.8404185,-
 0.57816088,1.31220039\H,0,-2.36306117,-1.50486871,-0.10564057\H,0,-1.0

 Normal termination of Gaussian 16 at Wed Apr  9 18:19:53 2025.
 Gaussian 16:  ES64L-G16RevC.01  3-Jul-2019

 ----------------------------------------------------------------------
 #t hf aug-cc-pvdz iop(5/13=1,5/36=2,99/5=2) pseudo=read geom=check gue
 ss=(read,tcheck) scf=(maxcycle=1)
 ----------------------------------------------------------------------
 -----
 title
 -----
 Structure from the checkpoint file:  "Grambow2020_wb97xd3_006888_forward_mol2.chk"
 Charge =  0 Multiplicity = 1

                         Standard orientation:
 ---------------------------------------------------------------------
 Center     Atomic      Atomic             Coordinates (Angstroms)
 Number     Number       Type             X           Y           Z
 ---------------------------------------------------------------------
      1          6           0        2.181898   -0.256394   -0.190902
      2          6           0        0.889458    0.171957    0.466112
      3          8           0        0.291369    1.191313   -0.327863
      4          6           0       -1.100038    1.216394   -0.064331
      5          6           0       -1.475818   -0.211964    0.260493
      6          6           0       -0.915741   -1.252951   -0.659820
      7          6           0       -0.183925   -0.890937    0.597454
      8          1           0        2.845854    0.599859   -0.314911
      9          1           0        1.986492   -0.689762   -1.172907
     10          1           0        2.691100   -1.001198    0.423574
     11          1           0        1.102403    0.569253    1.470943
     12          1           0       -1.326331    1.869056    0.790212
     13          1           0       -1.592732    1.619958   -0.951512
     14          1           0       -2.386800   -0.404873    0.811003
     15          1           0       -0.505750   -0.926760   -1.608537
     16          1           0       -1.411839   -2.213932   -0.682382
     17          1           0       -0.108346   -1.608738    1.403395
 ---------------------------------------------------------------------

 SCF Done:  E(RHF) =  -309.363046491     A.U. after    2 cycles

 The electronic state is 1-A.
 Alpha  occ. eigenvalues --  -21.03098 -11.49853 -11.43455 -11.41182 -11.39979
 Alpha  occ. eigenvalues --  -11.37609 -11.35202  -1.76959  -1.30790  -1.13622
 Alpha  occ. eigenvalues --   -0.98803  -0.91940  -0.81130  -0.78631  -0.72219
 Alpha  occ. eigenvalues --   -0.63556  -0.61796  -0.59312  -0.55601  -0.53108
 Alpha  occ. eigenvalues --   -0.50545  -0.46187  -0.46000  -0.38420  -0.37464
 Alpha  occ. eigenvalues --   -0.36329  -0.29191
 Alpha virt. eigenvalues --    0.04118   0.04843   0.05187   0.05483   0.05644
 Alpha virt. eigenvalues --    0.05846   0.06233   0.07098   0.07239   0.09483
 Alpha virt. eigenvalues --    0.11917   0.12228   0.12999   0.13558   0.14234

 Mulliken charges:
               1
     1  C   -3.914319
     2  C    0.244100
     3  O   -3.424263
     4  C   -1.956720
     5  C   -1.263544
     6  C   -2.669488
     7  C   -0.622014
     8  H    1.200292
     9  H    1.274302
    10  H    1.235913
    11  H    1.665376
    12  H    1.451936
    13  H    1.415420
    14  H    1.380604
    15  H    1.365958
    16  H    1.274643
    17  H    1.341806
 Sum of Mulliken charges =  -0.00000

 Dipole moment (field-independent basis, Debye):
    X=             -0.4822    Y=             -0.5778    Z=              0.4315  Tot=              0.8675

 Test job not archived.
 1\1\GINC-SE226\SP\RHF\Aug-CC-pVDZ\C6H10O1\OHZDE\09-Apr-2025\0\\#t hf a
 ug-cc-pvdz iop(5/13=1,5/36=2,99/5=2) pseudo=read geom=check guess=(rea
 d,tcheck) scf=(maxcycle=1)\\title\\0,1\C,0,-2.05989085,-0.51665711,0.2
 4525429\C,0,-0.84654416,-0.03736142,-0.5186948\O,0,-0.52511519,1.27935
 501,-0.08264746\C,0,0.84421719,1.52549409,-0.3480425\C,0,1.52913975,0.
 18368942,-0.21625655\C,0,1.14179597,-0.62462826,0.98412031\C,0,0.43092
 14,-0.82959608,-0.31971749\H,0,-2.89421008,0.17077246,0.1012474\H,0,-1
 .8404185,-0.57816088,1.31220039\H,0,-2.36306117,-1.50486871,-0.1056405

 Normal termination of Gaussian 16 at Wed Apr  9 18:19:59 2025.
