 Gaussian 16, Revision C.01,

 ----------------------------------------------------------------------
 #t hf aug-cc-pvdz symm=none int=(grid=ultrafine) guess=(read,tcheck) s
 table=(opt,rrhf)
 ----------------------------------------------------------------------
 -----
 title
 -----
 Symbolic Z-matrix:
 Charge =  0 Multiplicity = 1

 SCF Done:  E(RHF) =  -283.468239382     A.U. after   15 cycles
 Normal termination of Gaussian 16 at Wed Apr  9 17:53:40 2025.
 Gaussian 16:  ES64L-G16RevC.01  3-Jul-2019

 ----------------------------------------------------------------------
 #t hf aug-cc-pvdz iop(5/13=1,5/36=2,99/5=2) pseudo=read geom=check gue
 ss=(read,tcheck) scf=(maxcycle=1)
 ----------------------------------------------------------------------
 -----
 title
 -----
 Structure from the checkpoint file:  "Grambow2020_wb97xd3_006232_forward_mol1.chk"
 Charge =  0 Multiplicity = 1

                         Standard orientation:
 ---------------------------------------------------------------------
 Center     Atomic      Atomic             Coordinates (Angstroms)
 Number     Number       Type             X           Y           Z
 ---------------------------------------------------------------------
      1          8           0       -1.115305   -1.090408    0.293278
      2          6           0       -0.399764   -0.308541   -0.463588
      3          6           0       -0.757164    1.078482   -0.455099
      4          6           0        0.073607    0.765620    0.862333
      5          6           0        1.258325    0.159793    0.523721
      6          7           0        1.032830   -0.552560   -0.672562
      7          1           0       -1.796984    1.301853   -0.263807
      8          1           0       -0.236242    1.773526   -1.104021
      9          1           0       -0.812312   -0.290217    1.266212
     10          1           0        2.053294   -0.115374    1.208952
     11          1           0        1.434851   -0.250722   -1.549828
 ---------------------------------------------------------------------

 SCF Done:  E(RHF) =  -284.783262251     A.U. after    2 cycles

 The electronic state is 1-A.
 Alpha  occ. eigenvalues --  -21.04218 -15.77402 -11.53488 -11.46047 -11.44915
 Alpha  occ. eigenvalues --  -11.38831  -1.76706  -1.46780  -1.18180  -1.02422
 Alpha  occ. eigenvalues --   -0.84957  -0.77675  -0.69425  -0.67164  -0.62900
 Alpha  occ. eigenvalues --   -0.57690  -0.51764  -0.48312  -0.41465  -0.37435
 Alpha  occ. eigenvalues --   -0.30316  -0.26812
 Alpha virt. eigenvalues --    0.03609   0.04949   0.05391   0.06064   0.07745
 Alpha virt. eigenvalues --    0.08146   0.08693   0.09849   0.10402   0.12143
 Alpha virt. eigenvalues --    0.12973   0.14186   0.14361   0.15647   0.15797

 Mulliken charges:
               1
     1  O   -2.945898
     2  C    4.065632
     3  C   -2.884749
     4  C   -1.837857
     5  C    0.498250
     6  N   -2.676665
     7  H    1.327986
     8  H    1.412129
     9  H    1.023372
    10  H    1.399859
    11  H    0.617941
 Sum of Mulliken charges =  -0.00000

 Dipole moment (field-independent basis, Debye):
    X=              0.5919    Y=              0.8065    Z=             -1.9799  Tot=              2.2182

 Test job not archived.
 1\1\GINC-SE112\SP\RHF\Aug-CC-pVDZ\C4H5N1O1\OHZDE\09-Apr-2025\0\\#t hf
 aug-cc-pvdz iop(5/13=1,5/36=2,99/5=2) pseudo=read geom=check guess=(re
 ad,tcheck) scf=(maxcycle=1)\\title\\0,1\O,0,-0.38551738,0.72003705,-1.
 59179193\C,0,-0.41326645,0.69312093,-0.28999858\C,0,-1.19707739,-0.348
 57129,0.30342948\C,0,0.18352869,-0.97033468,-0.17722327\C,0,1.22170409
 ,-0.23854441,0.34423142\N,0,0.75740591,1.08351465,0.50540164\H,0,-2.04
 561836,-0.69271681,-0.27037758\H,0,-1.30570328,-0.39428173,1.38123126\
 H,0,0.01168937,-0.51153956,-1.52731274\H,0,2.27792007,-0.46171149,0.23

 Normal termination of Gaussian 16 at Wed Apr  9 17:53:43 2025.
