 Gaussian 16, Revision C.01,

 ----------------------------------------------------------------------
 #t hf aug-cc-pvdz symm=none int=(grid=ultrafine) guess=(read,tcheck) s
 table=(opt,rrhf)
 ----------------------------------------------------------------------
 -----
 title
 -----
 Symbolic Z-matrix:
 Charge =  0 Multiplicity = 1

 SCF Done:  E(RHF) =  -301.996794397     A.U. after   14 cycles
 Normal termination of Gaussian 16 at Wed Apr  9 17:07:22 2025.
 Gaussian 16:  ES64L-G16RevC.01  3-Jul-2019

 ----------------------------------------------------------------------
 #t hf aug-cc-pvdz iop(5/13=1,5/36=2,99/5=2) pseudo=read geom=check gue
 ss=(read,tcheck) scf=(maxcycle=1)
 ----------------------------------------------------------------------
 -----
 title
 -----
 Structure from the checkpoint file:  "Grambow2020_b97d3_007043_reverse_mol2.chk"
 Charge =  0 Multiplicity = 1

                         Standard orientation:
 ---------------------------------------------------------------------
 Center     Atomic      Atomic             Coordinates (Angstroms)
 Number     Number       Type             X           Y           Z
 ---------------------------------------------------------------------
      1          6           0       -2.105972   -0.993266    0.197627
      2          7           0       -1.150049    0.066992   -0.065789
      3          6           0       -1.585890    1.215117   -0.399085
      4          6           0        1.776766   -0.331416   -0.091626
      5          8           0        1.560441   -1.471794    0.122963
      6          7           0        1.905534    0.868162   -0.331589
      7          1           0       -1.900251   -1.827343   -0.489105
      8          1           0       -1.937763   -1.372369    1.216118
      9          1           0       -3.166824   -0.694159    0.093577
     10          1           0       -0.859248    2.009241   -0.600828
     11          1           0       -2.658552    1.467473   -0.500651
     12          1           0        0.645540    2.735111    2.386764
     13          1           0        2.825335    1.294666   -0.363624
     14          1           0        0.770420    2.273048    1.814185
 ---------------------------------------------------------------------

 SCF Done:  E(RHF) =  -303.381984633     A.U. after    2 cycles

 The electronic state is 1-A.
 Alpha  occ. eigenvalues --  -21.11924 -15.77261 -15.73368 -11.56581 -11.40907
 Alpha  occ. eigenvalues --  -11.38063  -1.75551  -1.36954  -1.34489  -1.01736
 Alpha  occ. eigenvalues --   -0.81568  -0.77842  -0.65027  -0.61331  -0.60632
 Alpha  occ. eigenvalues --   -0.59583  -0.58274  -0.57512  -0.56061  -0.51050
 Alpha  occ. eigenvalues --   -0.39253  -0.38974  -0.36366  -0.33820
 Alpha virt. eigenvalues --    0.03770   0.04661   0.05688   0.06186   0.06758
 Alpha virt. eigenvalues --    0.07221   0.07610   0.10137   0.10823   0.11055
 Alpha virt. eigenvalues --    0.12176   0.13205   0.13701   0.15208   0.15947

 Mulliken charges:
               1
     1  C   -3.129525
     2  N   -2.488301
     3  C   -1.475343
     4  C    3.768751
     5  O   -2.177454
     6  N   -2.365344
     7  H    1.335905
     8  H    1.388707
     9  H    1.287390
    10  H    1.592154
    11  H    1.473129
    12  H    0.087176
    13  H    0.845617
    14  H   -0.142862
 Sum of Mulliken charges =  -0.00000

 Dipole moment (field-independent basis, Debye):
    X=             -0.3445    Y=             -0.2913    Z=             -0.0213  Tot=              0.4516

 Test job not archived.
 1\1\GINC-SE045\SP\RHF\Aug-CC-pVDZ\C3H8N2O1\OHZDE\09-Apr-2025\0\\#t hf
 aug-cc-pvdz iop(5/13=1,5/36=2,99/5=2) pseudo=read geom=check guess=(re
 ad,tcheck) scf=(maxcycle=1)\\title\\0,1\C,0,-1.84061154,-1.09016557,0.
 3464687\N,0,-0.76576278,-0.27298085,-0.18666819\C,0,-1.06212159,0.7812
 5567,-0.83473515\C,0,2.08809834,-1.02315281,-0.05116786\O,0,1.73616687
 ,-2.02214308,0.46985826\N,0,2.36002478,0.03599586,-0.61456089\H,0,-1.7
 5278771,-2.10167159,-0.0763168\H,0,-1.70159169,-1.18757412,1.43298672\
 H,0,-2.85797618,-0.70263683,0.14524907\H,0,-0.24657298,1.39075284,-1.2

 Normal termination of Gaussian 16 at Wed Apr  9 17:07:28 2025.
