 Gaussian 16, Revision C.01,

 ----------------------------------------------------------------------
 #t hf aug-cc-pvdz symm=none int=(grid=ultrafine) guess=(read,tcheck) s
 table=(opt,rrhf)
 ----------------------------------------------------------------------
 -----
 title
 -----
 Symbolic Z-matrix:
 Charge =  0 Multiplicity = 1

 SCF Done:  E(RHF) =  -287.947201139     A.U. after   15 cycles

 1\1\GINC-SE219\Stability\RHF\Aug-CC-pVDZ\C6H11N1\OHZDE\09-Apr-2025\0\\
 #t hf aug-cc-pvdz symm=none int=(grid=ultrafine) guess=(read,tcheck) s
 table=(opt,rrhf)\\title\\0,1\C,0,-2.51799556,-0.0839097,-0.63137496\C,
 0,-1.1720649,0.60578301,-0.70621588\C,0,-0.02547617,-0.10148702,-1.024
 46365\C,0,1.30279542,-0.53550146,0.80818899\C,0,2.66565163,-0.03490903
 ,0.40975146\C,0,0.46821664,0.19340986,1.57739512\N,0,-0.48385209,0.864
 85786,1.82699417\H,0,-3.21676599,0.46571595,0.00102983\H,0,-2.97232031
 ,-0.17933732,-1.62104534\H,0,-2.41600323,-1.08780178,-0.21315306\H,0,-

 Normal termination of Gaussian 16 at Wed Apr  9 18:15:34 2025.
 Gaussian 16:  ES64L-G16RevC.01  3-Jul-2019

 ----------------------------------------------------------------------
 #t hf aug-cc-pvdz iop(5/13=1,5/36=2,99/5=2) pseudo=read geom=check gue
 ss=(read,tcheck) scf=(maxcycle=1)
 ----------------------------------------------------------------------
 -----
 title
 -----
 Structure from the checkpoint file:  "Grambow2020_wb97xd3_006812_forward_mol1.chk"
 Charge =  0 Multiplicity = 1

                         Standard orientation:
 ---------------------------------------------------------------------
 Center     Atomic      Atomic             Coordinates (Angstroms)
 Number     Number       Type             X           Y           Z
 ---------------------------------------------------------------------
      1          6           0       -2.661905   -0.158139    0.342275
      2          6           0       -1.448608   -0.408969   -0.528242
      3          6           0       -0.404957   -1.202830   -0.084671
      4          6           0        1.435559    0.016130    0.577090
      5          6           0        2.580941   -0.588944   -0.190184
      6          6           0        0.822144    1.148168    0.174943
      7          7           0       -0.054417    1.816206   -0.277763
      8          1           0       -3.174943    0.762772    0.061171
      9          1           0       -3.383540   -0.975595    0.264989
     10          1           0       -2.373271   -0.066338    1.391739
     11          1           0       -1.622868   -0.400113   -1.602957
     12          1           0       -0.846277    0.900496   -0.522201
     13          1           0       -0.434938   -1.635740    0.908598
     14          1           0        0.230521   -1.715199   -0.795245
     15          1           0        1.416419   -0.160500    1.648441
     16          1           0        2.611327   -1.668316   -0.029775
     17          1           0        2.477465   -0.404818   -1.260048
     18          1           0        3.541977   -0.182593    0.132364
 ---------------------------------------------------------------------

 SCF Done:  E(RHF) =  -289.421449126     A.U. after    2 cycles

 The electronic state is 1-A.
 Alpha  occ. eigenvalues --  -15.74338 -11.45120 -11.44521 -11.42265 -11.39365
 Alpha  occ. eigenvalues --  -11.38454 -11.35650  -1.36307  -1.19902  -1.16382
 Alpha  occ. eigenvalues --   -0.99566  -0.94731  -0.81702  -0.70821  -0.65970
 Alpha  occ. eigenvalues --   -0.64787  -0.58295  -0.57777  -0.57106  -0.54827
 Alpha  occ. eigenvalues --   -0.53259  -0.49962  -0.49082  -0.47232  -0.41936
 Alpha  occ. eigenvalues --   -0.33052  -0.31620
 Alpha virt. eigenvalues --    0.03461   0.04863   0.05205   0.05423   0.05817
 Alpha virt. eigenvalues --    0.06188   0.06406   0.06680   0.07644   0.08125
 Alpha virt. eigenvalues --    0.09149   0.10804   0.11332   0.12145   0.12529

 Mulliken charges:
               1
     1  C   -3.932212
     2  C   -2.571347
     3  C   -2.966423
     4  C   -1.279806
     5  C   -4.032307
     6  C    2.182876
     7  N   -2.844830
     8  H    1.143732
     9  H    1.259052
    10  H    1.249839
    11  H    1.234883
    12  H    2.397052
    13  H    1.409358
    14  H    1.509338
    15  H    1.376951
    16  H    1.309684
    17  H    1.353909
    18  H    1.200251
 Sum of Mulliken charges =  -0.00000

 Dipole moment (field-independent basis, Debye):
    X=              0.5085    Y=             -2.4380    Z=              0.3534  Tot=              2.5154

 Test job not archived.
 1\1\GINC-SE219\SP\RHF\Aug-CC-pVDZ\C6H11N1\OHZDE\09-Apr-2025\0\\#t hf a
 ug-cc-pvdz iop(5/13=1,5/36=2,99/5=2) pseudo=read geom=check guess=(rea
 d,tcheck) scf=(maxcycle=1)\\title\\0,1\C,0,-2.51799556,-0.0839097,-0.6
 3137496\C,0,-1.1720649,0.60578301,-0.70621588\C,0,-0.02547617,-0.10148
 702,-1.02446365\C,0,1.30279542,-0.53550146,0.80818899\C,0,2.66565163,-
 0.03490903,0.40975146\C,0,0.46821664,0.19340986,1.57739512\N,0,-0.4838
 5209,0.86485786,1.82699417\H,0,-3.21676599,0.46571595,0.00102983\H,0,-
 2.97232031,-0.17933732,-1.62104534\H,0,-2.41600323,-1.08780178,-0.2131

 Normal termination of Gaussian 16 at Wed Apr  9 18:15:40 2025.
