 Gaussian 16, Revision C.01,

 ----------------------------------------------------------------------
 #t hf aug-cc-pvdz symm=none int=(grid=ultrafine) guess=(read,tcheck) s
 table=(opt,rrhf)
 ----------------------------------------------------------------------
 -----
 title
 -----
 Symbolic Z-matrix:
 Charge =  0 Multiplicity = 1

 SCF Done:  E(RHF) =  -379.493661550     A.U. after   14 cycles
 Normal termination of Gaussian 16 at Wed Apr  9 19:16:55 2025.
 Gaussian 16:  ES64L-G16RevC.01  3-Jul-2019

 ----------------------------------------------------------------------
 #t hf aug-cc-pvdz iop(5/13=1,5/36=2,99/5=2) pseudo=read geom=check gue
 ss=(read,tcheck) scf=(maxcycle=1)
 ----------------------------------------------------------------------
 -----
 title
 -----
 Structure from the checkpoint file:  "Grambow2020_wb97xd3_008537_reverse_mol2.chk"
 Charge =  0 Multiplicity = 1

                         Standard orientation:
 ---------------------------------------------------------------------
 Center     Atomic      Atomic             Coordinates (Angstroms)
 Number     Number       Type             X           Y           Z
 ---------------------------------------------------------------------
      1          8           0       -0.216859    1.460684   -0.133306
      2          6           0        0.676087    0.464493   -0.123603
      3          6           0        2.054003    0.395246    0.462289
      4          8           0        2.126862   -0.973534   -0.025295
      5          6           0        0.829322   -0.793636   -0.536126
      6          6           0       -2.542689   -0.576984    0.622106
      7          8           0       -2.563542   -0.017364   -0.441868
      8          1           0       -1.063105    1.120267   -0.470530
      9          1           0        2.126712    0.431515    1.550251
     10          1           0        2.817554    1.019619   -0.002925
     11          1           0        0.314291   -1.570862   -1.079247
     12          1           0       -3.312050   -1.320221    0.890163
     13          1           0       -1.755432   -0.373319    1.368046
 ---------------------------------------------------------------------

 SCF Done:  E(RHF) =  -381.134094410     A.U. after    2 cycles

 The electronic state is 1-A.
 Alpha  occ. eigenvalues --  -21.10746 -21.09722 -21.04618 -11.50658 -11.46323
 Alpha  occ. eigenvalues --  -11.44400 -11.39819  -1.79930  -1.75291  -1.72579
 Alpha  occ. eigenvalues --   -1.07867  -0.97855  -0.92717  -0.76475  -0.70919
 Alpha  occ. eigenvalues --   -0.67800  -0.65361  -0.59277  -0.56572  -0.48554
 Alpha  occ. eigenvalues --   -0.48230  -0.47200  -0.43337  -0.38894  -0.38341
 Alpha  occ. eigenvalues --   -0.33419  -0.22213
 Alpha virt. eigenvalues --    0.02911   0.04858   0.05740   0.06260   0.06900
 Alpha virt. eigenvalues --    0.07624   0.08279   0.10316   0.10727   0.11815
 Alpha virt. eigenvalues --    0.12523   0.12988   0.14042   0.14350   0.15819

 Mulliken charges:
               1
     1  O   -3.817540
     2  C    2.505726
     3  C   -1.616543
     4  O   -2.799837
     5  C    0.301014
     6  C   -0.895422
     7  O   -2.176928
     8  H    1.488533
     9  H    1.411780
    10  H    1.384206
    11  H    1.213190
    12  H    1.409623
    13  H    1.592200
 Sum of Mulliken charges =   0.00000

 Dipole moment (field-independent basis, Debye):
    X=             -1.7146    Y=             -0.3440    Z=              0.9370  Tot=              1.9840

 Test job not archived.
 1\1\GINC-SE173\SP\RHF\Aug-CC-pVDZ\C4H6O3\OHZDE\09-Apr-2025\0\\#t hf au
 g-cc-pvdz iop(5/13=1,5/36=2,99/5=2) pseudo=read geom=check guess=(read
 ,tcheck) scf=(maxcycle=1)\\title\\0,1\O,0,1.07359634,-0.43075259,-1.04
 605835\C,0,-0.2304365,-0.18533081,-0.87544664\C,0,-1.43417316,-0.97943
 729,-1.28426033\O,0,-2.25093499,0.05869932,-0.67452492\C,0,-1.05387237
 ,0.71802105,-0.34398323\C,0,1.65995994,0.43306452,1.96097039\O,0,2.113
 33467,1.08177881,1.05583336\H,0,1.58476308,0.21689303,-0.5312779\H,0,-
 1.58007984,-1.93972746,-0.78745213\H,0,-1.63119262,-1.05727796,-2.3540

 Normal termination of Gaussian 16 at Wed Apr  9 19:16:59 2025.
