 Gaussian 16, Revision C.01,

 ----------------------------------------------------------------------
 #t hf aug-cc-pvdz symm=none int=(grid=ultrafine) guess=(read,tcheck) s
 table=(opt,rrhf)
 ----------------------------------------------------------------------
 -----
 title
 -----
 Symbolic Z-matrix:
 Charge =  0 Multiplicity = 1

 SCF Done:  E(RHF) =  -307.666434083     A.U. after   15 cycles

 1\1\GINC-SE162\Stability\RHF\Aug-CC-pVDZ\C6H10O1\OHZDE\09-Apr-2025\0\\
 #t hf aug-cc-pvdz symm=none int=(grid=ultrafine) guess=(read,tcheck) s
 table=(opt,rrhf)\\title\\0,1\C,0,1.8644261,-0.3748202,0.21267947\C,0,0
 .49367354,0.08862001,0.6294734\C,0,-0.05833349,1.41710814,-0.60714806\
 C,0,-1.62890167,1.3017858,-0.59112792\C,0,-1.88711148,0.12090069,0.007
 8683\C,0,-0.71552035,-0.80637623,0.42165557\O,0,-0.44553735,-1.7488825
 ,-0.61168218\H,0,1.84528528,-0.79792225,-0.78946153\H,0,2.58528962,0.4
 4231858,0.25058028\H,0,2.20546864,-1.15467514,0.89803758\H,0,0.5032624

 Normal termination of Gaussian 16 at Wed Apr  9 03:45:46 2025.
 Gaussian 16:  ES64L-G16RevC.01  3-Jul-2019

 ----------------------------------------------------------------------
 #t hf aug-cc-pvdz iop(5/13=1,5/36=2,99/5=2) pseudo=read geom=check gue
 ss=(read,tcheck) scf=(maxcycle=1)
 ----------------------------------------------------------------------
 -----
 title
 -----
 Structure from the checkpoint file:  "Grambow2020_wb97xd3_007815_reverse_mol1.chk"
 Charge =  0 Multiplicity = 1

                         Standard orientation:
 ---------------------------------------------------------------------
 Center     Atomic      Atomic             Coordinates (Angstroms)
 Number     Number       Type             X           Y           Z
 ---------------------------------------------------------------------
      1          6           0       -2.111951   -0.352050   -0.051331
      2          6           0       -0.752016   -0.353933    0.595221
      3          6           0        0.369909   -1.477877   -0.442498
      4          6           0        1.807104   -0.878785   -0.206278
      5          6           0        1.594278    0.339767    0.332048
      6          6           0        0.145838    0.867065    0.498381
      7          8           0       -0.225576    1.649878   -0.632217
      8          1           0       -2.059483    0.028290   -1.069298
      9          1           0       -2.547270   -1.351682   -0.056760
     10          1           0       -2.779923    0.301324    0.515340
     11          1           0       -0.807221   -0.704008    1.631667
     12          1           0       -0.003435   -1.051504   -1.363648
     13          1           0        0.182216   -2.542830   -0.346962
     14          1           0        0.498759   -1.100731    0.624664
     15          1           0        2.392369    1.052270    0.519082
     16          1           0        0.041882    1.485996    1.394666
     17          1           0        0.567740    1.818732   -1.144276
 ---------------------------------------------------------------------

 SCF Done:  E(RHF) =  -309.157026821     A.U. after    2 cycles

 The electronic state is 1-A.
 Alpha  occ. eigenvalues --  -21.07285 -11.52461 -11.46141 -11.44917 -11.41176
 Alpha  occ. eigenvalues --  -11.37711 -11.34928  -1.72755  -1.35320  -1.13832
 Alpha  occ. eigenvalues --   -1.03300  -0.96929  -0.83299  -0.74214  -0.70383
 Alpha  occ. eigenvalues --   -0.68150  -0.62046  -0.59399  -0.57575  -0.53699
 Alpha  occ. eigenvalues --   -0.52364  -0.49434  -0.46662  -0.41734  -0.33188
 Alpha  occ. eigenvalues --   -0.31691  -0.27144
 Alpha virt. eigenvalues --    0.03168   0.04468   0.04757   0.04873   0.05702
 Alpha virt. eigenvalues --    0.05950   0.06483   0.07153   0.07637   0.09272
 Alpha virt. eigenvalues --    0.10738   0.11304   0.12540   0.13026   0.13722

 Mulliken charges:
               1
     1  C   -4.162693
     2  C   -2.403333
     3  C   -3.821103
     4  C   -2.254643
     5  C   -0.019097
     6  C    1.039333
     7  O   -3.052904
     8  H    1.445817
     9  H    1.207279
    10  H    1.136226
    11  H    0.758023
    12  H    1.421343
    13  H    0.808432
    14  H    4.225793
    15  H    1.318963
    16  H    1.566841
    17  H    0.785724
 Sum of Mulliken charges =  -0.00000

 Dipole moment (field-independent basis, Debye):
    X=             -4.7661    Y=              0.3487    Z=              0.6034  Tot=              4.8167

 Test job not archived.
 1\1\GINC-SE162\SP\RHF\Aug-CC-pVDZ\C6H10O1\OHZDE\09-Apr-2025\0\\#t hf a
 ug-cc-pvdz iop(5/13=1,5/36=2,99/5=2) pseudo=read geom=check guess=(rea
 d,tcheck) scf=(maxcycle=1)\\title\\0,1\C,0,1.8644261,-0.3748202,0.2126
 7947\C,0,0.49367354,0.08862001,0.6294734\C,0,-0.05833349,1.41710814,-0
 .60714806\C,0,-1.62890167,1.3017858,-0.59112792\C,0,-1.88711148,0.1209
 0069,0.0078683\C,0,-0.71552035,-0.80637623,0.42165557\O,0,-0.44553735,
 -1.7488825,-0.61168218\H,0,1.84528528,-0.79792225,-0.78946153\H,0,2.58
 528962,0.44231858,0.25058028\H,0,2.20546864,-1.15467514,0.89803758\H,0

 Normal termination of Gaussian 16 at Wed Apr  9 03:45:52 2025.
