 Gaussian 16, Revision C.01,

 ----------------------------------------------------------------------
 #t hf aug-cc-pvdz symm=none int=(grid=ultrafine) guess=(read,tcheck) s
 table=(opt,rrhf)
 ----------------------------------------------------------------------
 -----
 title
 -----
 Symbolic Z-matrix:
 Charge =  0 Multiplicity = 1

 SCF Done:  E(RHF) =  -324.934150004     A.U. after   16 cycles
 Normal termination of Gaussian 16 at Wed Apr  9 19:07:16 2025.
 Gaussian 16:  ES64L-G16RevC.01  3-Jul-2019

 ----------------------------------------------------------------------
 #t hf aug-cc-pvdz iop(5/13=1,5/36=2,99/5=2) pseudo=read geom=check gue
 ss=(read,tcheck) scf=(maxcycle=1)
 ----------------------------------------------------------------------
 -----
 title
 -----
 Structure from the checkpoint file:  "Grambow2020_wb97xd3_008100_forward_mol1.chk"
 Charge =  0 Multiplicity = 1

                         Standard orientation:
 ---------------------------------------------------------------------
 Center     Atomic      Atomic             Coordinates (Angstroms)
 Number     Number       Type             X           Y           Z
 ---------------------------------------------------------------------
      1          6           0       -2.409254   -0.248689   -0.225933
      2          6           0       -1.322031   -0.145777    0.832645
      3          7           0       -0.179539    0.717445    0.563655
      4          6           0       -0.035479    1.268631   -0.654780
      5          6           0        1.073745   -0.316117   -0.281715
      6          8           0        0.674679   -1.434482   -0.515707
      7          6           0        2.342016    0.097845    0.418001
      8          1           0       -3.217829   -0.875852    0.152297
      9          1           0       -2.038347   -0.713045   -1.141882
     10          1           0       -2.840181    0.726044   -0.472481
     11          1           0       -0.922726   -1.151025    1.015550
     12          1           0       -1.752202    0.204177    1.773802
     13          1           0       -0.782540    1.152481   -1.442626
     14          1           0        0.571001    2.172149   -0.725750
     15          1           0        1.002866    0.466203   -1.288782
     16          1           0        2.336450   -0.353370    1.409103
     17          1           0        2.416958    1.177476    0.518951
     18          1           0        3.191904   -0.286857   -0.147416
 ---------------------------------------------------------------------

 SCF Done:  E(RHF) =  -326.528920965     A.U. after    2 cycles

 The electronic state is 1-A.
 Alpha  occ. eigenvalues --  -21.00953 -15.70918 -11.53202 -11.48337 -11.41299
 Alpha  occ. eigenvalues --  -11.40078 -11.35317  -1.69830  -1.42110  -1.15391
 Alpha  occ. eigenvalues --   -1.09002  -0.98721  -0.82778  -0.82143  -0.69100
 Alpha  occ. eigenvalues --   -0.65855  -0.63673  -0.59040  -0.58350  -0.55278
 Alpha  occ. eigenvalues --   -0.54164  -0.51516  -0.49058  -0.47891  -0.42708
 Alpha  occ. eigenvalues --   -0.35680  -0.29850  -0.26118
 Alpha virt. eigenvalues --    0.03362   0.04783   0.05112   0.05475   0.05780
 Alpha virt. eigenvalues --    0.06032   0.06317   0.07134   0.08327   0.08637
 Alpha virt. eigenvalues --    0.08916   0.10973   0.11663   0.13169   0.13476

 Mulliken charges:
               1
     1  C   -3.491800
     2  C   -2.603429
     3  N   -2.312768
     4  C   -2.423199
     5  C    3.344243
     6  O   -3.435775
     7  C   -3.979517
     8  H    1.106764
     9  H    1.340121
    10  H    1.250710
    11  H    1.704398
    12  H    1.381211
    13  H    1.668734
    14  H    1.378929
    15  H    1.418309
    16  H    1.242177
    17  H    1.322448
    18  H    1.088443
 Sum of Mulliken charges =   0.00000

 Dipole moment (field-independent basis, Debye):
    X=              0.1820    Y=              1.6368    Z=             -0.6890  Tot=              1.7852

 Test job not archived.
 1\1\GINC-SE084\SP\RHF\Aug-CC-pVDZ\C5H11N1O1\OHZDE\09-Apr-2025\0\\#t hf
  aug-cc-pvdz iop(5/13=1,5/36=2,99/5=2) pseudo=read geom=check guess=(r
 ead,tcheck) scf=(maxcycle=1)\\title\\0,1\C,0,-2.31391548,0.36615346,-0
 .07461857\C,0,-1.30143153,-0.7686077,-0.05403059\N,0,-0.02950912,-0.54
 349747,0.6200141\C,0,0.27942243,0.68878279,1.06181702\C,0,1.11743828,0
 .1386758,-0.63408791\O,0,0.57793503,0.34004991,-1.69857497\C,0,2.37929
 311,-0.6358167,-0.35594928\H,0,-3.2298241,0.01896526,-0.55498986\H,0,-
 1.95008116,1.22159262,-0.64734106\H,0,-2.58012114,0.70136947,0.9320359

 Normal termination of Gaussian 16 at Wed Apr  9 19:07:23 2025.
