 Gaussian 16, Revision C.01,

 ----------------------------------------------------------------------
 #t hf aug-cc-pvdz symm=none int=(grid=ultrafine) guess=(read,tcheck) s
 table=(opt,rrhf)
 ----------------------------------------------------------------------
 -----
 title
 -----
 Symbolic Z-matrix:
 Charge =  0 Multiplicity = 1

 SCF Done:  E(RHF) =  -323.819215439     A.U. after   15 cycles
 Normal termination of Gaussian 16 at Wed Apr  9 18:41:43 2025.
 Gaussian 16:  ES64L-G16RevC.01  3-Jul-2019

 ----------------------------------------------------------------------
 #t hf aug-cc-pvdz iop(5/13=1,5/36=2,99/5=2) pseudo=read geom=check gue
 ss=(read,tcheck) scf=(maxcycle=1)
 ----------------------------------------------------------------------
 -----
 title
 -----
 Structure from the checkpoint file:  "Grambow2020_wb97xd3_007532_forward_mol1.chk"
 Charge =  0 Multiplicity = 1

                         Standard orientation:
 ---------------------------------------------------------------------
 Center     Atomic      Atomic             Coordinates (Angstroms)
 Number     Number       Type             X           Y           Z
 ---------------------------------------------------------------------
      1          6           0       -2.816955   -0.235465    0.062030
      2          8           0       -1.557336    0.211907   -0.373488
      3          6           0       -0.496906   -0.441423    0.275343
      4          6           0        0.777848    0.173267   -0.279865
      5          6           0        1.077488    1.585842    0.154040
      6          6           0        1.960137   -0.829929    0.644952
      7          7           0        2.263557   -0.898593   -0.497903
      8          1           0       -3.569450    0.324377   -0.490550
      9          1           0       -2.955213   -0.057714    1.135792
     10          1           0       -2.949391   -1.306448   -0.135805
     11          1           0       -0.514420   -1.518917    0.071211
     12          1           0       -0.548229   -0.296838    1.361982
     13          1           0        0.717140    0.112954   -1.364738
     14          1           0        2.010645    1.935881   -0.284665
     15          1           0        0.264892    2.224964   -0.197717
     16          1           0        1.148147    1.662881    1.238721
 ---------------------------------------------------------------------

 SCF Done:  E(RHF) =  -325.343343084     A.U. after    2 cycles

 The electronic state is 1-A.
 Alpha  occ. eigenvalues --  -21.06007 -15.77501 -11.49721 -11.44256 -11.41344
 Alpha  occ. eigenvalues --  -11.40304 -11.38679  -1.77849  -1.40535  -1.16989
 Alpha  occ. eigenvalues --   -1.04010  -0.95362  -0.85353  -0.71295  -0.66401
 Alpha  occ. eigenvalues --   -0.64623  -0.61574  -0.59381  -0.57498  -0.56642
 Alpha  occ. eigenvalues --   -0.52079  -0.48183  -0.47123  -0.44420  -0.42511
 Alpha  occ. eigenvalues --   -0.39808  -0.31628
 Alpha virt. eigenvalues --    0.03715   0.05024   0.05166   0.05789   0.06353
 Alpha virt. eigenvalues --    0.06492   0.06733   0.07500   0.08235   0.09940
 Alpha virt. eigenvalues --    0.11246   0.11544   0.12824   0.13651   0.13930

 Mulliken charges:
               1
     1  C   -3.117467
     2  O   -3.168360
     3  C   -0.935556
     4  C   -1.616419
     5  C   -3.712916
     6  C    0.517721
     7  N   -1.155293
     8  H    1.314208
     9  H    1.351773
    10  H    1.353892
    11  H    1.633378
    12  H    1.859618
    13  H    1.738801
    14  H    1.276699
    15  H    1.337941
    16  H    1.321983
 Sum of Mulliken charges =  -0.00000

 Dipole moment (field-independent basis, Debye):
    X=             -2.4125    Y=              1.3692    Z=             -0.8025  Tot=              2.8877

 Test job not archived.
 1\1\GINC-SE135\SP\RHF\Aug-CC-pVDZ\C5H9N1O1\OHZDE\09-Apr-2025\0\\#t hf
 aug-cc-pvdz iop(5/13=1,5/36=2,99/5=2) pseudo=read geom=check guess=(re
 ad,tcheck) scf=(maxcycle=1)\\title\\0,1\C,0,2.48981903,0.34802093,0.12
 365117\O,0,1.11587534,0.63335621,0.20919834\C,0,0.31972176,-0.52302374
 ,0.17372478\C,0,-1.12117157,-0.04327961,0.24275792\C,0,-1.65309048,0.6
 4063316,-0.99124034\C,0,-1.92222779,-1.6611704,0.22747948\N,0,-2.35882
 355,-1.06476769,1.15299784\H,0,3.02147127,1.29737033,0.15679697\H,0,2.
 73382261,-0.16646778,-0.81413358\H,0,2.81959927,-0.27739589,0.96256746

 Normal termination of Gaussian 16 at Wed Apr  9 18:41:49 2025.
