 Gaussian 16, Revision C.01,

 ----------------------------------------------------------------------
 #t hf aug-cc-pvdz symm=none int=(grid=ultrafine) guess=(read,tcheck) s
 table=(opt,rrhf)
 ----------------------------------------------------------------------
 -----
 title
 -----
 Symbolic Z-matrix:
 Charge =  0 Multiplicity = 1

 SCF Done:  E(RHF) =  -247.706345910     A.U. after   18 cycles
 Normal termination of Gaussian 16 at Wed Apr  9 17:47:49 2025.
 Gaussian 16:  ES64L-G16RevC.01  3-Jul-2019

 ----------------------------------------------------------------------
 #t hf aug-cc-pvdz iop(5/13=1,5/36=2,99/5=2) pseudo=read geom=check gue
 ss=(read,tcheck) scf=(maxcycle=1)
 ----------------------------------------------------------------------
 -----
 title
 -----
 Structure from the checkpoint file:  "Grambow2020_wb97xd3_006168_forward_mol1.chk"
 Charge =  0 Multiplicity = 1

                         Standard orientation:
 ---------------------------------------------------------------------
 Center     Atomic      Atomic             Coordinates (Angstroms)
 Number     Number       Type             X           Y           Z
 ---------------------------------------------------------------------
      1          6           0       -2.008941   -0.165719   -0.521215
      2          6           0       -0.880173    0.071834    0.465383
      3          6           0        0.235770   -0.947034    0.479628
      4          6           0        0.106233    1.167608    0.136355
      5          6           0        1.229471    0.423326   -0.152134
      6          7           0        2.141236   -0.290192   -0.477403
      7          1           0       -2.681313    0.693645   -0.535132
      8          1           0       -2.593147   -1.052440   -0.259249
      9          1           0       -1.611976   -0.292220   -1.530345
     10          1           0       -1.268569    0.147205    1.486957
     11          1           0        0.248382   -1.757555   -0.240925
     12          1           0        0.687383   -1.176775    1.435144
     13          1           0        0.136427    2.169399    0.537275
 ---------------------------------------------------------------------

 SCF Done:  E(RHF) =  -248.895755609     A.U. after    2 cycles

 The electronic state is 1-A.
 Alpha  occ. eigenvalues --  -15.76818 -11.52841 -11.45215 -11.43670 -11.38502
 Alpha  occ. eigenvalues --  -11.36639  -1.41545  -1.23081  -1.04873  -0.98662
 Alpha  occ. eigenvalues --   -0.84217  -0.71309  -0.67891  -0.62070  -0.58388
 Alpha  occ. eigenvalues --   -0.54736  -0.51824  -0.50056  -0.48327  -0.47983
 Alpha  occ. eigenvalues --   -0.40889  -0.25454
 Alpha virt. eigenvalues --    0.03327   0.04433   0.05259   0.05448   0.05772
 Alpha virt. eigenvalues --    0.06176   0.06890   0.08190   0.10737   0.11127
 Alpha virt. eigenvalues --    0.11957   0.12891   0.13733   0.14704   0.14903

 Mulliken charges:
               1
     1  C   -3.997232
     2  C   -1.550741
     3  C   -3.026466
     4  C   -0.867748
     5  C    2.297085
     6  N   -2.284557
     7  H    1.198994
     8  H    1.244345
     9  H    1.343879
    10  H    1.399542
    11  H    1.449297
    12  H    1.376108
    13  H    1.417496
 Sum of Mulliken charges =   0.00000

 Dipole moment (field-independent basis, Debye):
    X=             -2.0124    Y=             -1.3800    Z=              1.8369  Tot=              3.0542

 Test job not archived.
 1\1\GINC-SE219\SP\RHF\Aug-CC-pVDZ\C5H7N1\OHZDE\09-Apr-2025\0\\#t hf au
 g-cc-pvdz iop(5/13=1,5/36=2,99/5=2) pseudo=read geom=check guess=(read
 ,tcheck) scf=(maxcycle=1)\\title\\0,1\C,0,1.55100004,0.50988844,-0.175
 79171\C,0,0.34701844,-0.4135576,-0.21579967\C,0,-0.59058337,-0.3595968
 2,0.96809874\C,0,-0.78276726,-0.03637946,-1.14493841\C,0,-1.75511423,0
 .31864999,-0.2353553\N,0,-2.52196079,0.69842435,0.60959595\H,0,2.07691
 792,0.48127519,-1.13149897\H,0,2.25454013,0.22089173,0.61015245\H,0,1.
 23462976,1.54031231,-0.00240601\H,0,0.66245159,-1.45563195,-0.33716658

 Normal termination of Gaussian 16 at Wed Apr  9 17:47:53 2025.
