 Gaussian 16, Revision C.01,

 ----------------------------------------------------------------------
 #t hf aug-cc-pvdz symm=none int=(grid=ultrafine) guess=(read,tcheck) s
 table=(opt,rrhf)
 ----------------------------------------------------------------------
 -----
 title
 -----
 Symbolic Z-matrix:
 Charge =  0 Multiplicity = 1

 SCF Done:  E(RHF) =  -338.754059289     A.U. after   15 cycles
 Normal termination of Gaussian 16 at Wed Apr  9 19:17:59 2025.
 Gaussian 16:  ES64L-G16RevC.01  3-Jul-2019

 ----------------------------------------------------------------------
 #t hf aug-cc-pvdz iop(5/13=1,5/36=2,99/5=2) pseudo=read geom=check gue
 ss=(read,tcheck) scf=(maxcycle=1)
 ----------------------------------------------------------------------
 -----
 title
 -----
 Structure from the checkpoint file:  "Grambow2020_wb97xd3_008554_forward_mol2.chk"
 Charge =  0 Multiplicity = 1

                         Standard orientation:
 ---------------------------------------------------------------------
 Center     Atomic      Atomic             Coordinates (Angstroms)
 Number     Number       Type             X           Y           Z
 ---------------------------------------------------------------------
      1          7           0       -1.939854    1.184443   -0.221099
      2          6           0       -2.192511   -0.002762    0.111391
      3          8           0       -1.293285   -0.992010    0.058155
      4          6           0       -0.006531   -0.673330   -0.459350
      5          6           0        0.848643    0.019266    0.601474
      6          6           0        2.216908    0.198897    0.129366
      7          7           0        3.287212    0.323794   -0.263147
      8          1           0       -2.759168    1.771229   -0.120682
      9          1           0       -3.142725   -0.393068    0.478542
     10          1           0       -0.106610   -0.037826   -1.339982
     11          1           0        0.433301   -1.628006   -0.742782
     12          1           0        0.422701    0.994649    0.838854
     13          1           0        0.868231   -0.580981    1.513244
 ---------------------------------------------------------------------

 SCF Done:  E(RHF) =  -340.278141914     A.U. after    2 cycles

 The electronic state is 1-A.
 Alpha  occ. eigenvalues --  -21.10598 -15.75766 -15.74683 -11.48519 -11.48017
 Alpha  occ. eigenvalues --  -11.44675 -11.41481  -1.83373  -1.33017  -1.32211
 Alpha  occ. eigenvalues --   -1.17622  -0.97553  -0.82460  -0.75566  -0.71400
 Alpha  occ. eigenvalues --   -0.66949  -0.61069  -0.59494  -0.55916  -0.52772
 Alpha  occ. eigenvalues --   -0.50376  -0.44859  -0.43563  -0.42027  -0.41801
 Alpha  occ. eigenvalues --   -0.33365
 Alpha virt. eigenvalues --    0.03076   0.04881   0.05130   0.05739   0.06648
 Alpha virt. eigenvalues --    0.07394   0.09276   0.10016   0.10196   0.11771
 Alpha virt. eigenvalues --    0.12523   0.12998   0.14265   0.14821   0.15024

 Mulliken charges:
               1
     1  N   -2.751718
     2  C    1.926583
     3  O   -3.184095
     4  C   -1.112137
     5  C   -3.375681
     6  C    2.294771
     7  N   -2.446695
     8  H    0.826984
     9  H    1.688105
    10  H    1.615565
    11  H    1.391950
    12  H    1.586392
    13  H    1.539975
 Sum of Mulliken charges =  -0.00000

 Dipole moment (field-independent basis, Debye):
    X=             -4.2744    Y=             -1.3101    Z=              1.2953  Tot=              4.6545

 Test job not archived.
 1\1\GINC-SE048\SP\RHF\Aug-CC-pVDZ\C4H6N2O1\OHZDE\09-Apr-2025\0\\#t hf
 aug-cc-pvdz iop(5/13=1,5/36=2,99/5=2) pseudo=read geom=check guess=(re
 ad,tcheck) scf=(maxcycle=1)\\title\\0,1\N,0,-1.77255102,1.02402719,-0.
 27540634\C,0,-1.90160461,-0.05869421,0.35300357\O,0,-0.95708074,-1.005
 34828,0.39513367\C,0,0.22418947,-0.77895494,-0.36542484\C,0,1.17038521
 ,0.16897794,0.37111835\C,0,2.44725945,0.27340196,-0.32601167\N,0,3.443
 89849,0.33445626,-0.8901038\H,0,-2.60608646,1.59318185,-0.19198564\H,0
 ,-2.76613183,-0.37996162,0.93560492\H,0,-0.035235,-0.37167523,-1.34328

 Normal termination of Gaussian 16 at Wed Apr  9 19:18:03 2025.
