 Gaussian 16, Revision C.01,

 ----------------------------------------------------------------------
 #t hf aug-cc-pvdz symm=none int=(grid=ultrafine) guess=(read,tcheck) s
 table=(opt,rrhf)
 ----------------------------------------------------------------------
 -----
 title
 -----
 Symbolic Z-matrix:
 Charge =  0 Multiplicity = 1

 SCF Done:  E(RHF) =  -380.758572973     A.U. after   13 cycles
 Normal termination of Gaussian 16 at Wed Apr  9 03:41:01 2025.
 Gaussian 16:  ES64L-G16RevC.01  3-Jul-2019

 ----------------------------------------------------------------------
 #t hf aug-cc-pvdz iop(5/13=1,5/36=2,99/5=2) pseudo=read geom=check gue
 ss=(read,tcheck) scf=(maxcycle=1)
 ----------------------------------------------------------------------
 -----
 title
 -----
 Structure from the checkpoint file:  "Grambow2020_wb97xd3_007514_reverse_mol2.chk"
 Charge =  0 Multiplicity = 1

                         Standard orientation:
 ---------------------------------------------------------------------
 Center     Atomic      Atomic             Coordinates (Angstroms)
 Number     Number       Type             X           Y           Z
 ---------------------------------------------------------------------
      1          8           0        2.460595   -0.241454   -0.740508
      2          6           0        1.952171    0.084454    0.541730
      3          6           0        0.586853   -0.557534    0.680110
      4          6           0       -0.426726    0.056461   -0.285211
      5          8           0       -0.642167    1.409285    0.000180
      6          6           0       -1.722734   -0.707214   -0.242156
      7          8           0       -2.771311   -0.178076    0.016871
      8          1           0        3.190945    0.342286   -0.945790
      9          1           0        1.856102    1.168222    0.664960
     10          1           0        2.614929   -0.295495    1.328558
     11          1           0        0.226485   -0.425266    1.703942
     12          1           0        0.681217   -1.630908    0.488214
     13          1           0       -0.028878   -0.055249   -1.305661
     14          1           0       -1.663219   -1.790099   -0.461359
     15          1           0       -1.591903    1.511463    0.147959
 ---------------------------------------------------------------------

 SCF Done:  E(RHF) =  -382.429101053     A.U. after    2 cycles

 The electronic state is 1-A.
 Alpha  occ. eigenvalues --  -21.07962 -21.07496 -21.06794 -11.49982 -11.46003
 Alpha  occ. eigenvalues --  -11.44135 -11.38374  -1.76836  -1.71674  -1.69057
 Alpha  occ. eigenvalues --   -1.18750  -1.02406  -0.87300  -0.80828  -0.71080
 Alpha  occ. eigenvalues --   -0.69128  -0.63092  -0.60596  -0.57220  -0.53401
 Alpha  occ. eigenvalues --   -0.50227  -0.47527  -0.44627  -0.42883  -0.40720
 Alpha  occ. eigenvalues --   -0.33214  -0.31883  -0.31344
 Alpha virt. eigenvalues --    0.04014   0.04710   0.05390   0.05555   0.06108
 Alpha virt. eigenvalues --    0.06767   0.07097   0.08176   0.10244   0.12209
 Alpha virt. eigenvalues --    0.12639   0.13520   0.13976   0.14150   0.15028

 Mulliken charges:
               1
     1  O   -2.629464
     2  C   -1.279146
     3  C   -2.499048
     4  C    0.717149
     5  O   -3.150597
     6  C    1.249943
     7  O   -2.761969
     8  H    0.778822
     9  H    1.530862
    10  H    1.242134
    11  H    1.409854
    12  H    1.475746
    13  H    1.760994
    14  H    1.443276
    15  H    0.711444
 Sum of Mulliken charges =  -0.00000

 Dipole moment (field-independent basis, Debye):
    X=              1.1415    Y=             -0.2849    Z=              0.1213  Tot=              1.1828

 Test job not archived.
 1\1\GINC-SE186\SP\RHF\Aug-CC-pVDZ\C4H8O3\OHZDE\09-Apr-2025\0\\#t hf au
 g-cc-pvdz iop(5/13=1,5/36=2,99/5=2) pseudo=read geom=check guess=(read
 ,tcheck) scf=(maxcycle=1)\\title\\0,1\O,0,-1.61646107,1.64618647,0.116
 01531\C,0,-1.5241598,0.33101389,-0.40422062\C,0,-0.60663593,-0.4660430
 9,0.50034451\C,0,0.82997997,0.05305571,0.44697189\O,0,1.37593191,-0.09
 933515,-0.83236738\C,0,1.68003518,-0.64681,1.4727815\O,0,2.67838769,-1
 .24861705,1.17661344\H,0,-1.97818483,2.224336,-0.55570011\H,0,-1.11541
 47,0.33567336,-1.4200329\H,0,-2.51208521,-0.14435582,-0.43133105\H,0,-

 Normal termination of Gaussian 16 at Wed Apr  9 03:41:07 2025.
