 Gaussian 16, Revision C.01,

 ----------------------------------------------------------------------
 #t hf aug-cc-pvdz symm=none int=(grid=ultrafine) guess=(read,tcheck) s
 table=(opt,rrhf)
 ----------------------------------------------------------------------
 -----
 title
 -----
 Symbolic Z-matrix:
 Charge =  0 Multiplicity = 1

 SCF Done:  E(RHF) =  -318.927395976     A.U. after   14 cycles
 Normal termination of Gaussian 16 at Wed Apr  9 18:21:17 2025.
 Gaussian 16:  ES64L-G16RevC.01  3-Jul-2019

 ----------------------------------------------------------------------
 #t hf aug-cc-pvdz iop(5/13=1,5/36=2,99/5=2) pseudo=read geom=check gue
 ss=(read,tcheck) scf=(maxcycle=1)
 ----------------------------------------------------------------------
 -----
 title
 -----
 Structure from the checkpoint file:  "Grambow2020_wb97xd3_006918_reverse_mol2.chk"
 Charge =  0 Multiplicity = 1

                         Standard orientation:
 ---------------------------------------------------------------------
 Center     Atomic      Atomic             Coordinates (Angstroms)
 Number     Number       Type             X           Y           Z
 ---------------------------------------------------------------------
      1          7           0       -2.464811   -0.506130    0.051678
      2          6           0       -1.232696   -0.196372   -0.030838
      3          6           0       -0.013862   -1.015025   -0.041624
      4          6           0        1.055821   -0.209189    0.004671
      5          7           0        2.386961   -0.515897    0.078548
      6          6           0        0.616005    1.230185    0.044050
      7          7           0       -0.810026    1.121030   -0.126744
      8          1           0       -2.573322   -1.512734    0.102576
      9          1           0        0.902823    1.683751    1.001184
     10          1           0       -0.017771   -2.094908   -0.063732
     11          1           0        3.039635    0.184649   -0.224819
     12          1           0        2.656263   -1.456587   -0.149066
     13          1           0        1.086994    1.810800   -0.758307
     14          1           0       -1.431095    1.834416    0.210242
 ---------------------------------------------------------------------

 SCF Done:  E(RHF) =  -320.422243601     A.U. after    2 cycles

 The electronic state is 1-A.
 Alpha  occ. eigenvalues --  -15.78491 -15.73259 -15.68487 -11.49738 -11.45535
 Alpha  occ. eigenvalues --  -11.43366 -11.37048  -1.50760  -1.36637  -1.25406
 Alpha  occ. eigenvalues --   -1.11007  -1.01172  -0.81937  -0.79779  -0.70391
 Alpha  occ. eigenvalues --   -0.68566  -0.65601  -0.59016  -0.55532  -0.52483
 Alpha  occ. eigenvalues --   -0.49149  -0.49132  -0.47799  -0.35453  -0.31372
 Alpha  occ. eigenvalues --   -0.28498
 Alpha virt. eigenvalues --    0.02879   0.04620   0.04814   0.05944   0.06303
 Alpha virt. eigenvalues --    0.07200   0.08496   0.08800   0.12036   0.12491
 Alpha virt. eigenvalues --    0.12613   0.13523   0.13904   0.14450   0.15062

 Mulliken charges:
               1
     1  N   -3.467605
     2  C    3.872187
     3  C   -2.798077
     4  C    4.891869
     5  N   -3.699052
     6  C   -2.838167
     7  N   -2.793893
     8  H    0.595183
     9  H    1.249305
    10  H    1.517036
    11  H    0.800881
    12  H    0.651414
    13  H    1.283432
    14  H    0.735486
 Sum of Mulliken charges =  -0.00000

 Dipole moment (field-independent basis, Debye):
    X=              5.1781    Y=              0.4400    Z=             -0.1235  Tot=              5.1982

 Test job not archived.
 1\1\GINC-SE045\SP\RHF\Aug-CC-pVDZ\C4H7N3\OHZDE\09-Apr-2025\0\\#t hf au
 g-cc-pvdz iop(5/13=1,5/36=2,99/5=2) pseudo=read geom=check guess=(read
 ,tcheck) scf=(maxcycle=1)\\title\\0,1\N,0,-2.61231087,-0.47477247,-0.6
 3817472\C,0,-1.39962463,-0.17991006,-0.38655182\C,0,-0.19762248,-1.010
 67821,-0.24205005\C,0,0.81911629,-0.24224055,0.17205424\N,0,2.10238821
 ,-0.58231191,0.50224275\C,0,0.35819153,1.18239175,0.32939949\N,0,-0.98
 818349,1.12823639,-0.1795144\H,0,-2.71288114,-1.47502534,-0.76854736\H
 ,0,0.40934419,1.47855114,1.38475028\H,0,-0.1783886,-2.07418634,-0.4297

 Normal termination of Gaussian 16 at Wed Apr  9 18:21:21 2025.
