 Gaussian 16, Revision C.01,

 ----------------------------------------------------------------------
 #t hf aug-cc-pvdz symm=none int=(grid=ultrafine) guess=(read,tcheck) s
 table=(opt,rrhf)
 ----------------------------------------------------------------------
 -----
 title
 -----
 Symbolic Z-matrix:
 Charge =  0 Multiplicity = 1

 SCF Done:  E(RHF) =  -376.837976334     A.U. after   14 cycles
 Normal termination of Gaussian 16 at Wed Apr  9 03:58:45 2025.
 Gaussian 16:  ES64L-G16RevC.01  3-Jul-2019

 ----------------------------------------------------------------------
 #t hf aug-cc-pvdz iop(5/13=1,5/36=2,99/5=2) pseudo=read geom=check gue
 ss=(read,tcheck) scf=(maxcycle=1)
 ----------------------------------------------------------------------
 -----
 title
 -----
 Structure from the checkpoint file:  "Grambow2020_wb97xd3_008740_forward_mol1.chk"
 Charge =  0 Multiplicity = 1

                         Standard orientation:
 ---------------------------------------------------------------------
 Center     Atomic      Atomic             Coordinates (Angstroms)
 Number     Number       Type             X           Y           Z
 ---------------------------------------------------------------------
      1          7           0       -2.590349   -0.565254    0.032712
      2          6           0       -1.312765   -0.154879   -0.001272
      3          8           0       -0.422092   -1.086689   -0.058288
      4          7           0       -0.958354    1.103067    0.003834
      5          6           0        0.463683    1.455429   -0.086904
      6          6           0        2.506857    0.110114    0.151243
      7          8           0        2.361711   -1.080246   -0.084472
      8          1           0       -2.765851   -1.548479    0.123660
      9          1           0       -3.337166    0.080351    0.201943
     10          1           0       -1.701523    1.788588    0.026855
     11          1           0        0.685130    2.157141    0.720944
     12          1           0        0.626114    1.952710   -1.047315
     13          1           0        2.536274    0.495351    1.183139
     14          1           0        2.862416    0.816466   -0.615534
     15          1           0        0.471924   -0.635325   -0.085835
 ---------------------------------------------------------------------

 SCF Done:  E(RHF) =  -378.529100060     A.U. after    2 cycles

 The electronic state is 1-A.
 Alpha  occ. eigenvalues --  -21.12076 -21.00538 -15.82348 -15.78802 -11.55288
 Alpha  occ. eigenvalues --  -11.43857 -11.30824  -1.83273  -1.65893  -1.45200
 Alpha  occ. eigenvalues --   -1.35157  -0.97587  -0.87485  -0.84008  -0.77679
 Alpha  occ. eigenvalues --   -0.73504  -0.64693  -0.63746  -0.62057  -0.54588
 Alpha  occ. eigenvalues --   -0.52715  -0.49539  -0.47733  -0.41575  -0.40283
 Alpha  occ. eigenvalues --   -0.35219  -0.25807  -0.25354
 Alpha virt. eigenvalues --    0.02097   0.04123   0.04996   0.06220   0.06672
 Alpha virt. eigenvalues --    0.07282   0.07962   0.08802   0.10893   0.11500
 Alpha virt. eigenvalues --    0.13393   0.13732   0.15059   0.15329   0.15686

 Mulliken charges:
               1
     1  N   -2.818737
     2  C    5.502913
     3  O   -3.419803
     4  N   -2.607747
     5  C   -2.457450
     6  C   -0.444832
     7  O   -2.351716
     8  H    0.653890
     9  H    0.640422
    10  H    0.681350
    11  H    1.288282
    12  H    1.239957
    13  H    1.245074
    14  H    1.259443
    15  H    1.588954
 Sum of Mulliken charges =  -0.00000

 Dipole moment (field-independent basis, Debye):
    X=             -6.3876    Y=             -0.3070    Z=              0.6435  Tot=              6.4273

 Test job not archived.
 1\1\GINC-SE080\SP\RHF\Aug-CC-pVDZ\C3H8N2O2\OHZDE\09-Apr-2025\0\\#t hf
 aug-cc-pvdz iop(5/13=1,5/36=2,99/5=2) pseudo=read geom=check guess=(re
 ad,tcheck) scf=(maxcycle=1)\\title\\0,1\N,0,2.29214577,1.32144256,-0.4
 4874052\C,0,1.1323263,0.70694424,-0.16768128\O,0,0.43698953,1.22397164
 ,0.78835797\N,0,0.69584689,-0.34161507,-0.81426459\C,0,-0.61035396,-0.
 91456368,-0.46763619\C,0,-2.1059839,-0.55147077,1.44871511\O,0,-1.9717
 0029,0.53092753,2.00004556\H,0,2.59329736,2.05848767,0.16107522\H,0,2.
 9501714,0.91832516,-1.08723811\H,0,1.27359491,-0.68842483,-1.56838624\

 Normal termination of Gaussian 16 at Wed Apr  9 03:58:50 2025.
