 Gaussian 16, Revision C.01,

 ----------------------------------------------------------------------
 #t hf aug-cc-pvdz symm=none int=(grid=ultrafine) guess=(read,tcheck) s
 table=(opt,rrhf)
 ----------------------------------------------------------------------
 -----
 title
 -----
 Symbolic Z-matrix:
 Charge =  0 Multiplicity = 1

 SCF Done:  E(RHF) =  -343.676652000     A.U. after   15 cycles
 Normal termination of Gaussian 16 at Wed Apr  9 18:48:53 2025.
 Gaussian 16:  ES64L-G16RevC.01  3-Jul-2019

 ----------------------------------------------------------------------
 #t hf aug-cc-pvdz iop(5/13=1,5/36=2,99/5=2) pseudo=read geom=check gue
 ss=(read,tcheck) scf=(maxcycle=1)
 ----------------------------------------------------------------------
 -----
 title
 -----
 Structure from the checkpoint file:  "Grambow2020_wb97xd3_007682_reverse_mol2.chk"
 Charge =  0 Multiplicity = 1

                         Standard orientation:
 ---------------------------------------------------------------------
 Center     Atomic      Atomic             Coordinates (Angstroms)
 Number     Number       Type             X           Y           Z
 ---------------------------------------------------------------------
      1          6           0       -2.127451   -0.352572   -0.005714
      2          6           0       -0.676111   -0.486684    0.420455
      3          6           0        0.145916   -1.450584   -0.409648
      4          8           0        1.361640   -1.002548   -0.407198
      5          6           0        1.555661    0.239227    0.359868
      6          6           0        0.158354    0.806077    0.491758
      7          8           0       -0.154662    1.742564   -0.515492
      8          1           0       -2.600071   -1.334266   -0.019075
      9          1           0       -2.211784    0.069999   -1.007235
     10          1           0       -2.680227    0.295693    0.675286
     11          1           0       -0.639069   -0.962764    1.413904
     12          1           0        1.996349   -0.042734    1.316990
     13          1           0        2.242428    0.871559   -0.198788
     14          1           0        0.027040    1.336278    1.434537
     15          1           0       -0.128703    1.313313   -1.374419
 ---------------------------------------------------------------------

 SCF Done:  E(RHF) =  -345.235690218     A.U. after    2 cycles

 The electronic state is 1-A.
 Alpha  occ. eigenvalues --  -21.11445 -21.08475 -11.50168 -11.44143 -11.42776
 Alpha  occ. eigenvalues --  -11.40478 -11.36879  -1.83662  -1.72633  -1.22058
 Alpha  occ. eigenvalues --   -1.09578  -0.98521  -0.85271  -0.75128  -0.71349
 Alpha  occ. eigenvalues --   -0.66843  -0.62542  -0.59531  -0.55916  -0.52751
 Alpha  occ. eigenvalues --   -0.49711  -0.48108  -0.45010  -0.41843  -0.39064
 Alpha  occ. eigenvalues --   -0.35664  -0.30128
 Alpha virt. eigenvalues --    0.03475   0.04768   0.04875   0.05322   0.05779
 Alpha virt. eigenvalues --    0.06649   0.06769   0.08762   0.09664   0.10441
 Alpha virt. eigenvalues --    0.11949   0.12277   0.12824   0.13422   0.14465

 Mulliken charges:
               1
     1  C   -3.632883
     2  C   -0.304508
     3  C    0.164245
     4  O   -2.656517
     5  C   -1.722230
     6  C    1.122626
     7  O   -3.489437
     8  H    1.225648
     9  H    1.305784
    10  H    1.220632
    11  H    1.555129
    12  H    1.483386
    13  H    1.293745
    14  H    1.695839
    15  H    0.738541
 Sum of Mulliken charges =  -0.00000

 Dipole moment (field-independent basis, Debye):
    X=              0.7767    Y=              2.2039    Z=              1.5794  Tot=              2.8204

 Test job not archived.
 1\1\GINC-SE115\SP\RHF\Aug-CC-pVDZ\C5H8O2\OHZDE\09-Apr-2025\0\\#t hf au
 g-cc-pvdz iop(5/13=1,5/36=2,99/5=2) pseudo=read geom=check guess=(read
 ,tcheck) scf=(maxcycle=1)\\title\\0,1\C,0,1.67421488,-0.88291085,0.322
 82597\C,0,0.63179943,0.22099046,0.29514327\C,0,0.73090616,1.16231348,-
 0.88722378\O,0,-0.4733775,1.56346298,-1.14704399\C,0,-1.50917196,1.007
 95774,-0.26014793\C,0,-0.84689319,-0.2062697,0.35484634\O,0,-1.1238644
 7,-1.39951265,-0.34443684\H,0,2.67233754,-0.44894835,0.27087778\H,0,1.
 56182974,-1.5591541,-0.52498727\H,0,1.59511799,-1.47736446,1.23383482\

 Normal termination of Gaussian 16 at Wed Apr  9 18:48:58 2025.
