 Gaussian 16, Revision C.01,

 ----------------------------------------------------------------------
 #t hf aug-cc-pvdz symm=none int=(grid=ultrafine) guess=(read,tcheck) s
 table=(opt,rrhf)
 ----------------------------------------------------------------------
 -----
 title
 -----
 Symbolic Z-matrix:
 Charge =  0 Multiplicity = 1

 SCF Done:  E(RHF) =  -224.605448809     A.U. after   19 cycles
 Normal termination of Gaussian 16 at Wed Apr  9 16:59:01 2025.
 Gaussian 16:  ES64L-G16RevC.01  3-Jul-2019

 ----------------------------------------------------------------------
 #t hf aug-cc-pvdz iop(5/13=1,5/36=2,99/5=2) pseudo=read geom=check gue
 ss=(read,tcheck) scf=(maxcycle=1)
 ----------------------------------------------------------------------
 -----
 title
 -----
 Structure from the checkpoint file:  "Grambow2020_b97d3_006891_reverse_mol1.chk"
 Charge =  0 Multiplicity = 1

                         Standard orientation:
 ---------------------------------------------------------------------
 Center     Atomic      Atomic             Coordinates (Angstroms)
 Number     Number       Type             X           Y           Z
 ---------------------------------------------------------------------
      1          7           0       -0.944892   -1.107789   -0.120198
      2          6           0        1.511136   -0.683945   -0.006458
      3          6           0        1.541743    0.547855    0.017842
      4          6           0       -0.712892    1.241504    0.063707
      5          7           0       -1.195273    0.115579    0.013652
      6          1           0       -1.438507   -1.649347    0.606983
      7          1           0        1.594568   -1.748439   -0.051616
      8          1           0        1.934181    1.544703    0.045998
      9          1           0       -1.149010    2.166062   -0.306089
 ---------------------------------------------------------------------

 SCF Done:  E(RHF) =  -225.663642916     A.U. after    2 cycles

 The electronic state is 1-A.
 Alpha  occ. eigenvalues --  -15.86024 -15.78056 -11.44641 -11.41247 -11.39245
 Alpha  occ. eigenvalues --   -1.54039  -1.15917  -1.08050  -0.79599  -0.77753
 Alpha  occ. eigenvalues --   -0.68097  -0.63914  -0.62408  -0.56988  -0.37969
 Alpha  occ. eigenvalues --   -0.36899  -0.36398  -0.31164
 Alpha virt. eigenvalues --    0.03427   0.05283   0.05560   0.06060   0.09354
 Alpha virt. eigenvalues --    0.09746   0.11186   0.12223   0.13396   0.13685
 Alpha virt. eigenvalues --    0.14977   0.15474   0.15598   0.16044   0.17784

 Mulliken charges:
               1
     1  N   -1.323418
     2  C   -0.936057
     3  C   -0.569383
     4  C   -0.214836
     5  N   -0.581750
     6  H    0.652052
     7  H    0.609041
     8  H    0.827991
     9  H    1.536359
 Sum of Mulliken charges =  -0.00000

 Dipole moment (field-independent basis, Debye):
    X=             -1.0303    Y=              0.2960    Z=              0.2752  Tot=              1.1067

 Test job not archived.
 1\1\GINC-SE173\SP\RHF\Aug-CC-pVDZ\C3H4N2\OHZDE\09-Apr-2025\0\\#t hf au
 g-cc-pvdz iop(5/13=1,5/36=2,99/5=2) pseudo=read geom=check guess=(read
 ,tcheck) scf=(maxcycle=1)\\title\\0,1\N,0,-1.15432466,-1.04501749,0.28
 564304\C,0,-0.72028378,1.39001875,-0.0412554\C,0,0.50929432,1.40624483
 ,-0.12331797\C,0,1.18556832,-0.85183823,-0.02160791\N,0,0.0600154,-1.3
 174418,0.11712412\H,0,-1.73169288,-1.58896577,-0.37503875\H,0,-1.78104
 496,1.487434,0.04501445\H,0,1.50632775,1.7852137,-0.22730778\H,0,2.123
 21449,-1.26670399,0.3395872\\Version=ES64L-G16RevC.01\State=1-A\HF=-22

 Normal termination of Gaussian 16 at Wed Apr  9 16:59:05 2025.
