 Gaussian 16, Revision C.01,

 ----------------------------------------------------------------------
 #t hf aug-cc-pvdz symm=none int=(grid=ultrafine) guess=(read,tcheck) s
 table=(opt,rrhf)
 ----------------------------------------------------------------------
 -----
 title
 -----
 Symbolic Z-matrix:
 Charge =  0 Multiplicity = 1

 SCF Done:  E(RHF) =  -267.509522757     A.U. after   16 cycles
 Normal termination of Gaussian 16 at Wed Apr  9 03:20:54 2025.
 Gaussian 16:  ES64L-G16RevC.01  3-Jul-2019

 ----------------------------------------------------------------------
 #t hf aug-cc-pvdz iop(5/13=1,5/36=2,99/5=2) pseudo=read geom=check gue
 ss=(read,tcheck) scf=(maxcycle=1)
 ----------------------------------------------------------------------
 -----
 title
 -----
 Structure from the checkpoint file:  "Grambow2020_wb97xd3_006076_forward_mol1.chk"
 Charge =  0 Multiplicity = 1

                         Standard orientation:
 ---------------------------------------------------------------------
 Center     Atomic      Atomic             Coordinates (Angstroms)
 Number     Number       Type             X           Y           Z
 ---------------------------------------------------------------------
      1          8           0        1.004350   -0.255513    0.782053
      2          6           0        0.204534    1.146709   -0.039621
      3          6           0       -1.202677    0.706129    0.056068
      4          6           0       -1.094670   -0.848108   -0.075726
      5          6           0        0.382828   -1.139319   -0.209548
      6          6           0        1.042969    0.134067   -0.621814
      7          1           0        0.537974    2.156932    0.183603
      8          1           0       -1.740828    1.099173   -0.812497
      9          1           0       -1.699463    1.085141    0.951126
     10          1           0       -1.504713   -1.344174    0.805188
     11          1           0       -1.632495   -1.217160   -0.948922
     12          1           0        2.006822    0.267333   -1.091073
 ---------------------------------------------------------------------

 SCF Done:  E(RHF) =  -268.767869679     A.U. after    2 cycles

 The electronic state is 1-A.
 Alpha  occ. eigenvalues --  -21.10958 -11.53897 -11.46622 -11.43474 -11.38430
 Alpha  occ. eigenvalues --  -11.34699  -1.84524  -1.24278  -1.06142  -0.98277
 Alpha  occ. eigenvalues --   -0.84609  -0.79815  -0.72304  -0.64110  -0.57693
 Alpha  occ. eigenvalues --   -0.53646  -0.50483  -0.49427  -0.42150  -0.37771
 Alpha  occ. eigenvalues --   -0.36798  -0.27601
 Alpha virt. eigenvalues --    0.03237   0.04420   0.05093   0.05268   0.06299
 Alpha virt. eigenvalues --    0.07003   0.08880   0.10007   0.10113   0.12637
 Alpha virt. eigenvalues --    0.13608   0.14127   0.14931   0.15092   0.15313

 Mulliken charges:
               1
     1  O   -1.783047
     2  C   -0.859940
     3  C   -3.400047
     4  C   -2.702622
     5  C   -0.662948
     6  C    1.106637
     7  H    1.412774
     8  H    1.394044
     9  H    1.297728
    10  H    1.406918
    11  H    1.393948
    12  H    1.396555
 Sum of Mulliken charges =  -0.00000

 Dipole moment (field-independent basis, Debye):
    X=             -0.3251    Y=              3.7229    Z=              0.8268  Tot=              3.8275

 Test job not archived.
 1\1\GINC-SE334\SP\RHF\Aug-CC-pVDZ\C5H6O1\OHZDE\09-Apr-2025\0\\#t hf au
 g-cc-pvdz iop(5/13=1,5/36=2,99/5=2) pseudo=read geom=check guess=(read
 ,tcheck) scf=(maxcycle=1)\\title\\0,1\O,0,0.03197698,-1.43403041,-0.44
 865757\C,0,-0.28525821,-0.50254577,1.07212412\C,0,-0.8279203,0.73829,0
 .48106135\C,0,-0.0235758,0.87386323,-0.85285652\C,0,0.88814313,-0.3313
 1941,-0.89774873\C,0,0.9824165,-0.85926781,0.49496231\H,0,-0.72824429,
 -1.0093493,1.92563188\H,0,-0.56425474,1.57146574,1.14045006\H,0,-1.915
 80448,0.71857983,0.39334068\H,0,-0.69344501,0.87982677,-1.71394071\H,0

 Normal termination of Gaussian 16 at Wed Apr  9 03:20:58 2025.
