 Gaussian 16, Revision C.01,

 ----------------------------------------------------------------------
 #t hf aug-cc-pvdz symm=none int=(grid=ultrafine) guess=(read,tcheck) s
 table=(opt,rrhf)
 ----------------------------------------------------------------------
 -----
 title
 -----
 Symbolic Z-matrix:
 Charge =  0 Multiplicity = 1

 SCF Done:  E(RHF) =  -305.690380762     A.U. after   15 cycles
 Normal termination of Gaussian 16 at Wed Apr  9 03:05:54 2025.
 Gaussian 16:  ES64L-G16RevC.01  3-Jul-2019

 ----------------------------------------------------------------------
 #t hf aug-cc-pvdz iop(5/13=1,5/36=2,99/5=2) pseudo=read geom=check gue
 ss=(read,tcheck) scf=(maxcycle=1)
 ----------------------------------------------------------------------
 -----
 title
 -----
 Structure from the checkpoint file:  "Grambow2020_b97d3_006511_reverse_mol1.chk"
 Charge =  0 Multiplicity = 1

                         Standard orientation:
 ---------------------------------------------------------------------
 Center     Atomic      Atomic             Coordinates (Angstroms)
 Number     Number       Type             X           Y           Z
 ---------------------------------------------------------------------
      1          8           0       -2.438229   -0.026509   -0.488080
      2          6           0       -1.129098    0.225192    0.815067
      3          6           0       -0.026322    0.083776   -0.072815
      4          6           0        1.154442    1.045574   -0.208340
      5          6           0        2.000599   -0.238004   -0.042626
      6          8           0        0.823752   -1.086593    0.030878
      7          1           0       -2.706178   -0.970366   -0.408583
      8          1           0       -1.461510    1.224395    1.102264
      9          1           0       -1.389034   -0.568809    1.520888
     10          1           0       -1.269839   -0.027756   -0.910925
     11          1           0        1.253677    1.547891   -1.178934
     12          1           0        1.262910    1.787087    0.595637
     13          1           0        2.589022   -0.283484    0.887923
     14          1           0        2.639048   -0.503373   -0.898376
 ---------------------------------------------------------------------

 SCF Done:  E(RHF) =  -307.113246129     A.U. after    2 cycles

 The electronic state is 1-A.
 Alpha  occ. eigenvalues --  -21.05600 -21.02871 -11.50779 -11.45433 -11.41280
 Alpha  occ. eigenvalues --  -11.36853  -1.75036  -1.64341  -1.13863  -1.07600
 Alpha  occ. eigenvalues --   -0.90422  -0.77113  -0.68303  -0.65707  -0.65051
 Alpha  occ. eigenvalues --   -0.58380  -0.51936  -0.49494  -0.46870  -0.45322
 Alpha  occ. eigenvalues --   -0.39582  -0.35191  -0.33075  -0.20471
 Alpha virt. eigenvalues --    0.03672   0.05135   0.05272   0.05806   0.05995
 Alpha virt. eigenvalues --    0.06340   0.07038   0.08548   0.10147   0.11142
 Alpha virt. eigenvalues --    0.12600   0.13266   0.14029   0.14259   0.14819

 Mulliken charges:
               1
     1  O   -1.804984
     2  C   -2.336398
     3  C    2.240085
     4  C   -3.408353
     5  C   -1.882872
     6  O   -2.855482
     7  H    0.848986
     8  H    1.157337
     9  H    1.265754
    10  H    1.546879
    11  H    1.121737
    12  H    1.205765
    13  H    1.448570
    14  H    1.452975
 Sum of Mulliken charges =  -0.00000

 Dipole moment (field-independent basis, Debye):
    X=             -0.6247    Y=              0.4432    Z=              1.1106  Tot=              1.3491

 Test job not archived.
 1\1\GINC-SE177\SP\RHF\Aug-CC-pVDZ\C4H8O2\OHZDE\09-Apr-2025\0\\#t hf au
 g-cc-pvdz iop(5/13=1,5/36=2,99/5=2) pseudo=read geom=check guess=(read
 ,tcheck) scf=(maxcycle=1)\\title\\0,1\O,0,-2.05122517,-0.7406346,1.387
 08478\C,0,-1.37676583,-0.30786689,-0.29612214\C,0,-0.06651948,0.006855
 75,0.16066523\C,0,1.24441335,-0.53435883,-0.41044732\C,0,1.64194938,0.
 9590799,-0.46164029\O,0,0.38495382,1.38465641,0.12939433\H,0,-2.528236
 59,0.06499169,1.69107424\H,0,-1.56964847,-1.28694822,-0.73836976\H,0,-
 2.07234503,0.4804202,-0.59771557\H,0,-0.84417641,-0.44654527,1.3651897

 Normal termination of Gaussian 16 at Wed Apr  9 03:05:58 2025.
