 Gaussian 16, Revision C.01,

 ----------------------------------------------------------------------
 #t hf aug-cc-pvdz symm=none int=(grid=ultrafine) guess=(read,tcheck) s
 table=(opt,rrhf)
 ----------------------------------------------------------------------
 -----
 title
 -----
 Symbolic Z-matrix:
 Charge =  0 Multiplicity = 1

 SCF Done:  E(RHF) =  -338.749573840     A.U. after   15 cycles
 Normal termination of Gaussian 16 at Wed Apr  9 03:27:44 2025.
 Gaussian 16:  ES64L-G16RevC.01  3-Jul-2019

 ----------------------------------------------------------------------
 #t hf aug-cc-pvdz iop(5/13=1,5/36=2,99/5=2) pseudo=read geom=check gue
 ss=(read,tcheck) scf=(maxcycle=1)
 ----------------------------------------------------------------------
 -----
 title
 -----
 Structure from the checkpoint file:  "Grambow2020_wb97xd3_006691_reverse_mol2.chk"
 Charge =  0 Multiplicity = 1

                         Standard orientation:
 ---------------------------------------------------------------------
 Center     Atomic      Atomic             Coordinates (Angstroms)
 Number     Number       Type             X           Y           Z
 ---------------------------------------------------------------------
      1          6           0       -2.991009    0.384250   -0.253868
      2          6           0       -1.955276   -0.436893    0.463281
      3          6           0       -0.729402   -0.564720    0.050780
      4          7           0        0.404986   -0.746235   -0.373348
      5          6           0        1.434882    0.200627   -0.037747
      6          7           0        2.636057   -0.414029    0.024120
      7          8           0        1.247292    1.376703    0.133989
      8          1           0       -2.578076    0.836873   -1.154174
      9          1           0       -3.844439   -0.233649   -0.540262
     10          1           0       -3.358143    1.186223    0.389120
     11          1           0       -2.215372   -0.944725    1.385169
     12          1           0        3.453104    0.142728    0.190713
     13          1           0        2.722120   -1.378803   -0.232551
 ---------------------------------------------------------------------

 SCF Done:  E(RHF) =  -340.279555508     A.U. after    2 cycles

 The electronic state is 1-A.
 Alpha  occ. eigenvalues --  -21.03148 -15.78481 -15.76356 -11.51365 -11.48832
 Alpha  occ. eigenvalues --  -11.42299 -11.38494  -1.72650  -1.41925  -1.33351
 Alpha  occ. eigenvalues --   -1.18061  -0.97869  -0.87341  -0.74195  -0.68819
 Alpha  occ. eigenvalues --   -0.65909  -0.61501  -0.57584  -0.55919  -0.55691
 Alpha  occ. eigenvalues --   -0.52451  -0.48246  -0.42606  -0.34208  -0.33072
 Alpha  occ. eigenvalues --   -0.28342
 Alpha virt. eigenvalues --    0.03159   0.04681   0.05546   0.06053   0.06707
 Alpha virt. eigenvalues --    0.06984   0.09738   0.10725   0.11314   0.11888
 Alpha virt. eigenvalues --    0.12596   0.12879   0.13350   0.14395   0.16035

 Mulliken charges:
               1
     1  C   -4.152407
     2  C   -1.085101
     3  C    1.805691
     4  N   -2.937602
     5  C    5.430850
     6  N   -2.821754
     7  O   -2.829536
     8  H    1.318407
     9  H    1.235493
    10  H    1.222996
    11  H    1.393299
    12  H    0.669626
    13  H    0.750037
 Sum of Mulliken charges =   0.00000

 Dipole moment (field-independent basis, Debye):
    X=              0.1420    Y=             -1.1166    Z=              0.3662  Tot=              1.1836

 Test job not archived.
 1\1\GINC-SE015\SP\RHF\Aug-CC-pVDZ\C4H6N2O1\OHZDE\09-Apr-2025\0\\#t hf
 aug-cc-pvdz iop(5/13=1,5/36=2,99/5=2) pseudo=read geom=check guess=(re
 ad,tcheck) scf=(maxcycle=1)\\title\\0,1\C,0,-2.54769271,-0.4338735,-0.
 48210369\C,0,-1.52101302,0.2556369,0.37336508\C,0,-0.25827072,-0.05210
 692,0.36702641\N,0,0.91841168,-0.38759581,0.41735766\C,0,1.84506467,0.
 17477586,-0.52864196\N,0,3.07753011,0.26345276,0.01690057\O,0,1.559469
 53,0.492037,-1.65363912\H,0,-2.09262639,-1.21786019,-1.08560235\H,0,-3
 .32682966,-0.88454274,0.13596235\H,0,-3.02526423,0.27788854,-1.1579007

 Normal termination of Gaussian 16 at Wed Apr  9 03:27:47 2025.
