 Gaussian 16, Revision C.01,

 ----------------------------------------------------------------------
 #t hf aug-cc-pvdz symm=none int=(grid=ultrafine) guess=(read,tcheck) s
 table=(opt,rrhf)
 ----------------------------------------------------------------------
 -----
 title
 -----
 Symbolic Z-matrix:
 Charge =  0 Multiplicity = 1

 SCF Done:  E(RHF) =  -338.596563091     A.U. after   15 cycles
 Normal termination of Gaussian 16 at Wed Apr  9 03:59:37 2025.
 Gaussian 16:  ES64L-G16RevC.01  3-Jul-2019

 ----------------------------------------------------------------------
 #t hf aug-cc-pvdz iop(5/13=1,5/36=2,99/5=2) pseudo=read geom=check gue
 ss=(read,tcheck) scf=(maxcycle=1)
 ----------------------------------------------------------------------
 -----
 title
 -----
 Structure from the checkpoint file:  "Grambow2020_wb97xd3_008803_forward_mol1.chk"
 Charge =  0 Multiplicity = 1

                         Standard orientation:
 ---------------------------------------------------------------------
 Center     Atomic      Atomic             Coordinates (Angstroms)
 Number     Number       Type             X           Y           Z
 ---------------------------------------------------------------------
      1          7           0       -1.828571   -0.977836    0.012692
      2          6           0       -0.458322   -0.597190   -0.020420
      3          6           0       -0.110805    0.711843   -0.021931
      4          8           0       -0.871565    1.818676    0.013148
      5          7           0        1.262263    0.799562   -0.002895
      6          6           0        1.898924   -0.624864   -0.084141
      7          6           0        0.747699   -1.369928    0.002224
      8          1           0       -2.021449   -1.620536    0.768316
      9          1           0       -2.112979   -1.421580   -0.850298
     10          1           0       -1.785834    1.510027    0.071322
     11          1           0        1.766842    1.585209   -0.384488
     12          1           0        1.855308    0.376310    0.899521
     13          1           0        0.769803   -2.450080    0.067461
 ---------------------------------------------------------------------

 SCF Done:  E(RHF) =  -340.145645461     A.U. after    2 cycles

 The electronic state is 1-A.
 Alpha  occ. eigenvalues --  -21.12010 -15.82125 -15.76315 -11.48645 -11.42882
 Alpha  occ. eigenvalues --  -11.37930 -11.35314  -1.78595  -1.50508  -1.34462
 Alpha  occ. eigenvalues --   -1.11739  -1.02388  -0.82751  -0.80364  -0.69234
 Alpha  occ. eigenvalues --   -0.68411  -0.65338  -0.61206  -0.56685  -0.52999
 Alpha  occ. eigenvalues --   -0.46056  -0.45248  -0.40205  -0.37016  -0.32088
 Alpha  occ. eigenvalues --   -0.25887
 Alpha virt. eigenvalues --    0.03195   0.05431   0.05537   0.05767   0.06076
 Alpha virt. eigenvalues --    0.07132   0.09950   0.10516   0.12319   0.12814
 Alpha virt. eigenvalues --    0.13587   0.14099   0.14367   0.14488   0.15185

 Mulliken charges:
               1
     1  N   -3.272619
     2  C    2.007234
     3  C    4.191490
     4  O   -3.691410
     5  N   -2.703654
     6  C   -2.632322
     7  C    1.008771
     8  H    0.444103
     9  H    0.429695
    10  H    0.683590
    11  H    0.719405
    12  H    1.146074
    13  H    1.669644
 Sum of Mulliken charges =  -0.00000

 Dipole moment (field-independent basis, Debye):
    X=             -3.1244    Y=              1.7982    Z=              0.2575  Tot=              3.6141

 Test job not archived.
 1\1\GINC-SE341\SP\RHF\Aug-CC-pVDZ\C4H6N2O1\OHZDE\09-Apr-2025\0\\#t hf
 aug-cc-pvdz iop(5/13=1,5/36=2,99/5=2) pseudo=read geom=check guess=(re
 ad,tcheck) scf=(maxcycle=1)\\title\\0,1\N,0,-1.85313587,0.57109899,-0.
 03420777\C,0,-0.44896202,0.36015333,0.05162095\C,0,0.05891576,-0.89478
 419,0.01249013\O,0,-0.55528355,-2.08334809,-0.11055436\N,0,1.43164218,
 -0.81240923,0.05948665\C,0,1.88109435,0.67339361,0.2364264\C,0,0.65088
 395,1.2750851,0.12485397\H,0,-2.09058538,1.22264914,-0.7692808\H,0,-2.
 22928063,0.93245089,0.83210014\H,0,-1.49739371,-1.88658829,-0.2013833\

 Normal termination of Gaussian 16 at Wed Apr  9 03:59:41 2025.
