 Gaussian 16, Revision C.01,

 ----------------------------------------------------------------------
 #t hf aug-cc-pvdz symm=none int=(grid=ultrafine) guess=(read,tcheck) s
 table=(opt,rrhf)
 ----------------------------------------------------------------------
 -----
 title
 -----
 Symbolic Z-matrix:
 Charge =  0 Multiplicity = 1

 SCF Done:  E(RHF) =  -268.670670826     A.U. after   17 cycles
 Normal termination of Gaussian 16 at Wed Apr  9 17:55:57 2025.
 Gaussian 16:  ES64L-G16RevC.01  3-Jul-2019

 ----------------------------------------------------------------------
 #t hf aug-cc-pvdz iop(5/13=1,5/36=2,99/5=2) pseudo=read geom=check gue
 ss=(read,tcheck) scf=(maxcycle=1)
 ----------------------------------------------------------------------
 -----
 title
 -----
 Structure from the checkpoint file:  "Grambow2020_wb97xd3_006253_forward_mol1.chk"
 Charge =  0 Multiplicity = 1

                         Standard orientation:
 ---------------------------------------------------------------------
 Center     Atomic      Atomic             Coordinates (Angstroms)
 Number     Number       Type             X           Y           Z
 ---------------------------------------------------------------------
      1          6           0        1.337863    1.263275    0.089968
      2          6           0        1.362018   -0.020156   -0.414859
      3          6           0        0.898828   -1.234777    0.454025
      4          6           0       -0.147892   -0.632591   -0.330016
      5          6           0       -1.150298    0.384033    0.254645
      6          8           0       -2.321422    0.067587   -0.163965
      7          1           0        1.003725    1.471302    1.097589
      8          1           0        1.809212    2.078406   -0.445906
      9          1           0       -0.712150    1.427119   -0.090451
     10          1           0        1.869343   -0.216450   -1.348588
     11          1           0        0.920865   -1.016433    1.515820
     12          1           0        1.324048   -2.190504    0.169538
     13          1           0       -0.438609   -1.071525   -1.277640
     14          1           0       -1.008168    0.418685    1.368780
 ---------------------------------------------------------------------

 SCF Done:  E(RHF) =  -269.945312938     A.U. after    2 cycles

 The electronic state is 1-A.
 Alpha  occ. eigenvalues --  -20.91600 -11.53069 -11.48338 -11.47516 -11.42664
 Alpha  occ. eigenvalues --  -11.39649  -1.58203  -1.37715  -1.10099  -0.95613
 Alpha  occ. eigenvalues --   -0.88245  -0.80967  -0.73441  -0.66721  -0.63531
 Alpha  occ. eigenvalues --   -0.58884  -0.57084  -0.51559  -0.48550  -0.43330
 Alpha  occ. eigenvalues --   -0.37703  -0.20349  -0.19675
 Alpha virt. eigenvalues --    0.01971   0.03170   0.04026   0.04192   0.05019
 Alpha virt. eigenvalues --    0.05207   0.06741   0.07600   0.08219   0.10127
 Alpha virt. eigenvalues --    0.11280   0.12261   0.12943   0.13487   0.13857

 Mulliken charges:
               1
     1  C   -3.183085
     2  C   -0.655416
     3  C   -2.442892
     4  C   -1.179311
     5  C    0.026085
     6  O   -2.766282
     7  H    1.512767
     8  H    1.382072
     9  H    0.993844
    10  H    1.291230
    11  H    1.398310
    12  H    1.311931
    13  H    1.205289
    14  H    1.105458
 Sum of Mulliken charges =  -0.00000

 Dipole moment (field-independent basis, Debye):
    X=              6.0296    Y=             -0.3978    Z=             -0.0447  Tot=              6.0429

 Test job not archived.
 1\1\GINC-SE219\SP\RHF\Aug-CC-pVDZ\C5H8O1\OHZDE\09-Apr-2025\0\\#t hf au
 g-cc-pvdz iop(5/13=1,5/36=2,99/5=2) pseudo=read geom=check guess=(read
 ,tcheck) scf=(maxcycle=1)\\title\\0,1\C,0,-1.33692785,-0.695226,-0.263
 43376\C,0,-0.82533876,0.57012539,-0.46291051\C,0,-0.05416552,1.3143053
 7,0.67563992\C,0,0.78220238,0.52204599,-0.18794904\C,0,1.26119028,-0.8
 9648037,0.18423472\O,0,2.50745077,-0.98111605,-0.11000432\H,0,-1.22615
 43,-1.21046254,0.6812798\H,0,-2.00804923,-1.1419677,-0.98716543\H,0,0.
 51376406,-1.59907543,-0.40466859\H,0,-1.10890765,1.12710779,-1.3444547

 Normal termination of Gaussian 16 at Wed Apr  9 17:56:01 2025.
