 Gaussian 16, Revision C.01,

 ----------------------------------------------------------------------
 #t hf aug-cc-pvdz symm=none int=(grid=ultrafine) guess=(read,tcheck) s
 table=(opt,rrhf)
 ----------------------------------------------------------------------
 -----
 title
 -----
 Symbolic Z-matrix:
 Charge =  0 Multiplicity = 1

 SCF Done:  E(RHF) =  -306.592030861     A.U. after   17 cycles
 Normal termination of Gaussian 16 at Wed Apr  9 03:51:45 2025.
 Gaussian 16:  ES64L-G16RevC.01  3-Jul-2019

 ----------------------------------------------------------------------
 #t hf aug-cc-pvdz iop(5/13=1,5/36=2,99/5=2) pseudo=read geom=check gue
 ss=(read,tcheck) scf=(maxcycle=1)
 ----------------------------------------------------------------------
 -----
 title
 -----
 Structure from the checkpoint file:  "Grambow2020_wb97xd3_008207_reverse_mol1.chk"
 Charge =  0 Multiplicity = 1

                         Standard orientation:
 ---------------------------------------------------------------------
 Center     Atomic      Atomic             Coordinates (Angstroms)
 Number     Number       Type             X           Y           Z
 ---------------------------------------------------------------------
      1          6           0       -1.750242    0.100814    0.206116
      2          8           0       -1.345616   -0.274662   -1.068377
      3          6           0        0.261270   -1.054389    0.384106
      4          6           0        1.546649   -0.837588   -0.067928
      5          6           0        1.686366    0.534624   -0.236206
      6          6           0        0.450628    1.197745    0.008602
      7          6           0       -0.385838    0.211773    0.857160
      8          1           0       -2.323376    1.042130    0.240807
      9          1           0       -2.356100   -0.674642    0.700993
     10          1           0       -0.219659   -2.019037    0.475664
     11          1           0        2.254994   -1.591718   -0.376591
     12          1           0        2.582413    1.021065   -0.605576
     13          1           0        0.433063    2.262788    0.214618
     14          1           0       -0.196752    0.852504   -0.948567
     15          1           0       -0.262653    0.386336    1.934572
 ---------------------------------------------------------------------

 SCF Done:  E(RHF) =  -308.053896026     A.U. after    2 cycles

 The electronic state is 1-A.
 Alpha  occ. eigenvalues --  -20.92906 -11.52692 -11.49912 -11.45199 -11.42143
 Alpha  occ. eigenvalues --  -11.39795 -11.36931  -1.60588  -1.36515  -1.08461
 Alpha  occ. eigenvalues --   -1.06055  -0.90891  -0.80644  -0.79680  -0.73101
 Alpha  occ. eigenvalues --   -0.67809  -0.59562  -0.55969  -0.53290  -0.51351
 Alpha  occ. eigenvalues --   -0.47038  -0.44881  -0.40777  -0.37320  -0.23290
 Alpha  occ. eigenvalues --   -0.20966
 Alpha virt. eigenvalues --    0.03313   0.04163   0.04524   0.04768   0.05033
 Alpha virt. eigenvalues --    0.06586   0.06836   0.08004   0.08939   0.11017
 Alpha virt. eigenvalues --    0.11717   0.12005   0.12409   0.13910   0.14251

 Mulliken charges:
               1
     1  C   -0.736538
     2  O   -2.011461
     3  C   -0.252958
     4  C   -0.638615
     5  C   -0.774586
     6  C   -3.103824
     7  C   -4.200981
     8  H    1.396180
     9  H    1.320120
    10  H    1.462843
    11  H    1.320410
    12  H    1.451080
    13  H    1.273054
    14  H    1.780464
    15  H    1.714813
 Sum of Mulliken charges =   0.00000

 Dipole moment (field-independent basis, Debye):
    X=              2.8598    Y=              0.0708    Z=              1.0726  Tot=              3.0551

 Test job not archived.
 1\1\GINC-SE212\SP\RHF\Aug-CC-pVDZ\C6H8O1\OHZDE\09-Apr-2025\0\\#t hf au
 g-cc-pvdz iop(5/13=1,5/36=2,99/5=2) pseudo=read geom=check guess=(read
 ,tcheck) scf=(maxcycle=1)\\title\\0,1\C,0,-1.6571058,-0.23608231,-0.61
 325553\O,0,-0.75502634,-0.92839008,-1.41075162\C,0,0.10869083,-0.94915
 288,0.72309985\C,0,1.46342333,-0.69031356,0.75829939\C,0,1.64732366,0.
 56214686,0.18529993\C,0,0.41554255,1.06879703,-0.31742132\C,0,-0.68874
 561,0.285285,0.42992409\H,0,-2.20166651,0.56700165,-1.1369664\H,0,-2.4
 0651012,-0.89887883,-0.15239379\H,0,-0.35740418,-1.89736884,0.9551858\

 Normal termination of Gaussian 16 at Wed Apr  9 03:51:50 2025.
