 Gaussian 16, Revision C.01,

 ----------------------------------------------------------------------
 #t hf aug-cc-pvdz symm=none int=(grid=ultrafine) guess=(read,tcheck) s
 table=(opt,rrhf)
 ----------------------------------------------------------------------
 -----
 title
 -----
 Symbolic Z-matrix:
 Charge =  0 Multiplicity = 1

 SCF Done:  E(RHF) =  -302.697527727     A.U. after   16 cycles
 Normal termination of Gaussian 16 at Wed Apr  9 18:31:51 2025.
 Gaussian 16:  ES64L-G16RevC.01  3-Jul-2019

 ----------------------------------------------------------------------
 #t hf aug-cc-pvdz iop(5/13=1,5/36=2,99/5=2) pseudo=read geom=check gue
 ss=(read,tcheck) scf=(maxcycle=1)
 ----------------------------------------------------------------------
 -----
 title
 -----
 Structure from the checkpoint file:  "Grambow2020_wb97xd3_007232_reverse_mol1.chk"
 Charge =  0 Multiplicity = 1

                         Standard orientation:
 ---------------------------------------------------------------------
 Center     Atomic      Atomic             Coordinates (Angstroms)
 Number     Number       Type             X           Y           Z
 ---------------------------------------------------------------------
      1          6           0       -2.315616   -0.299279    0.246458
      2          7           0       -0.936071   -0.055713   -0.105993
      3          6           0       -0.205490    1.148219    0.207012
      4          7           0        0.949624    1.163685   -0.430544
      5          6           0        1.194990   -0.187189   -0.489139
      6          6           0        1.978815   -0.657916    0.564561
      7          6           0       -0.050018   -0.891125   -0.567567
      8          1           0       -2.981431    0.277951   -0.395788
      9          1           0       -2.542545   -1.358667    0.142488
     10          1           0       -2.469070   -0.006518    1.285021
     11          1           0       -0.798891    2.024581    0.448241
     12          1           0        2.714299    0.007078    0.997746
     13          1           0        0.506173    0.288471    1.475636
     14          1           0        2.108087   -1.720915    0.741741
     15          1           0       -0.247586   -1.944045   -0.707278
 ---------------------------------------------------------------------

 SCF Done:  E(RHF) =  -304.178096405     A.U. after    2 cycles

 The electronic state is 1-A.
 Alpha  occ. eigenvalues --  -15.81619 -15.67445 -11.48298 -11.45227 -11.44018
 Alpha  occ. eigenvalues --  -11.42102 -11.38605  -1.60287  -1.33387  -1.13264
 Alpha  occ. eigenvalues --   -1.07173  -0.95512  -0.81697  -0.79950  -0.70454
 Alpha  occ. eigenvalues --   -0.68710  -0.62543  -0.61129  -0.59356  -0.56468
 Alpha  occ. eigenvalues --   -0.50428  -0.49577  -0.41111  -0.36248  -0.32894
 Alpha  occ. eigenvalues --   -0.26496
 Alpha virt. eigenvalues --    0.02716   0.04516   0.04765   0.05490   0.05891
 Alpha virt. eigenvalues --    0.06843   0.07083   0.08933   0.09497   0.10134
 Alpha virt. eigenvalues --    0.10677   0.11361   0.12640   0.12896   0.13673

 Mulliken charges:
               1
     1  C   -3.144016
     2  N   -2.803925
     3  C    0.504429
     4  N   -2.890555
     5  C   -0.086656
     6  C   -2.245921
     7  C    0.576420
     8  H    1.424214
     9  H    1.458711
    10  H    1.482514
    11  H    1.375334
    12  H    1.401104
    13  H    0.227756
    14  H    1.249805
    15  H    1.470786
 Sum of Mulliken charges =  -0.00000

 Dipole moment (field-independent basis, Debye):
    X=             -4.4531    Y=             -2.7943    Z=             -0.2922  Tot=              5.2653

 Test job not archived.
 1\1\GINC-SE168\SP\RHF\Aug-CC-pVDZ\C5H8N2\OHZDE\09-Apr-2025\0\\#t hf au
 g-cc-pvdz iop(5/13=1,5/36=2,99/5=2) pseudo=read geom=check guess=(read
 ,tcheck) scf=(maxcycle=1)\\title\\0,1\C,0,-2.07050684,-0.03310404,-0.5
 2573349\N,0,-0.76346961,0.27007832,0.00945256\C,0,-0.22840473,-0.27182
 577,1.23469505\N,0,0.88404019,0.35499576,1.56721124\C,0,1.34461519,0.6
 8076684,0.31411809\C,0,2.23360836,-0.25560287,-0.21422991\C,0,0.229408
 37,0.89160617,-0.55971344\H,0,-2.8452267,0.47938146,0.04536361\H,0,-2.
 12488922,0.27745297,-1.56746633\H,0,-2.23091431,-1.10970726,-0.4703636

 Normal termination of Gaussian 16 at Wed Apr  9 18:31:56 2025.
