 Gaussian 16, Revision C.01,

 ----------------------------------------------------------------------
 #t hf aug-cc-pvdz symm=none int=(grid=ultrafine) guess=(read,tcheck) s
 table=(opt,rrhf)
 ----------------------------------------------------------------------
 -----
 title
 -----
 Symbolic Z-matrix:
 Charge =  0 Multiplicity = 1

 SCF Done:  E(RHF) =  -306.682908081     A.U. after   14 cycles
 Normal termination of Gaussian 16 at Wed Apr  9 18:39:34 2025.
 Gaussian 16:  ES64L-G16RevC.01  3-Jul-2019

 ----------------------------------------------------------------------
 #t hf aug-cc-pvdz iop(5/13=1,5/36=2,99/5=2) pseudo=read geom=check gue
 ss=(read,tcheck) scf=(maxcycle=1)
 ----------------------------------------------------------------------
 -----
 title
 -----
 Structure from the checkpoint file:  "Grambow2020_wb97xd3_007369_reverse_mol2.chk"
 Charge =  0 Multiplicity = 1

                         Standard orientation:
 ---------------------------------------------------------------------
 Center     Atomic      Atomic             Coordinates (Angstroms)
 Number     Number       Type             X           Y           Z
 ---------------------------------------------------------------------
      1          6           0        2.050656   -0.339951   -0.671129
      2          6           0        1.544156   -0.949746    0.622822
      3          6           0        0.837845    0.180042   -0.015191
      4          6           0        0.275110    1.469568    0.378389
      5          6           0       -1.650428   -0.224506    0.268382
      6          8           0       -2.683032   -0.571602   -0.238955
      7          6           0       -0.558231    0.474314   -0.436233
      8          1           0        2.949697    0.261874   -0.626791
      9          1           0        1.934731   -0.920286   -1.577734
     10          1           0        1.098146   -1.934980    0.570048
     11          1           0        2.106752   -0.753420    1.526898
     12          1           0       -0.009856    1.619426    1.413789
     13          1           0        0.590561    2.363668   -0.143784
     14          1           0       -1.448591   -0.426475    1.343579
     15          1           0       -0.751826    0.704687   -1.476605
 ---------------------------------------------------------------------

 SCF Done:  E(RHF) =  -308.116937963     A.U. after    2 cycles

 The electronic state is 1-A.
 Alpha  occ. eigenvalues --  -21.05448 -11.48566 -11.45847 -11.45266 -11.44068
 Alpha  occ. eigenvalues --  -11.40159 -11.38510  -1.70532  -1.38860  -1.19041
 Alpha  occ. eigenvalues --   -0.95451  -0.88185  -0.83000  -0.78482  -0.67380
 Alpha  occ. eigenvalues --   -0.66187  -0.64643  -0.55841  -0.52604  -0.51972
 Alpha  occ. eigenvalues --   -0.50798  -0.45535  -0.40423  -0.40208  -0.35650
 Alpha  occ. eigenvalues --   -0.28586
 Alpha virt. eigenvalues --    0.03656   0.04868   0.05101   0.05282   0.06014
 Alpha virt. eigenvalues --    0.06197   0.06429   0.08091   0.09308   0.10855
 Alpha virt. eigenvalues --    0.12401   0.12907   0.13496   0.13695   0.14384

 Mulliken charges:
               1
     1  C   -3.205295
     2  C   -2.606298
     3  C    2.996412
     4  C   -2.886575
     5  C    1.035320
     6  O   -2.945874
     7  C   -1.730718
     8  H    1.146543
     9  H    1.118960
    10  H    1.204158
    11  H    1.103866
    12  H    1.238720
    13  H    1.160093
    14  H    1.331182
    15  H    1.039506
 Sum of Mulliken charges =   0.00000

 Dipole moment (field-independent basis, Debye):
    X=              2.1242    Y=              0.6388    Z=              0.2439  Tot=              2.2316

 Test job not archived.
 1\1\GINC-SE131\SP\RHF\Aug-CC-pVDZ\C6H8O1\OHZDE\09-Apr-2025\0\\#t hf au
 g-cc-pvdz iop(5/13=1,5/36=2,99/5=2) pseudo=read geom=check guess=(read
 ,tcheck) scf=(maxcycle=1)\\title\\0,1\C,0,-1.75491099,0.43993697,-0.33
 371794\C,0,-1.24608038,0.00319966,1.02755139\C,0,-0.39185867,-0.096717
 68,-0.17356407\C,0,0.47551119,-1.08568394,-0.80922748\C,0,1.9675675,0.
 5251893,0.52063697\O,0,2.83668393,1.35511155,0.51948204\C,0,0.97720006
 ,0.34036695,-0.55766651\H,0,-2.49290639,-0.18529701,-0.82041903\H,0,-1
 .87072104,1.50213468,-0.50831415\H,0,-1.03068498,0.77788682,1.75271427

 Normal termination of Gaussian 16 at Wed Apr  9 18:39:39 2025.
