 Gaussian 16, Revision C.01,

 ----------------------------------------------------------------------
 #t hf aug-cc-pvdz symm=none int=(grid=ultrafine) guess=(read,tcheck) s
 table=(opt,rrhf)
 ----------------------------------------------------------------------
 -----
 title
 -----
 Symbolic Z-matrix:
 Charge =  0 Multiplicity = 1

 SCF Done:  E(RHF) =  -322.770484432     A.U. after   14 cycles
 Normal termination of Gaussian 16 at Wed Apr  9 03:33:21 2025.
 Gaussian 16:  ES64L-G16RevC.01  3-Jul-2019

 ----------------------------------------------------------------------
 #t hf aug-cc-pvdz iop(5/13=1,5/36=2,99/5=2) pseudo=read geom=check gue
 ss=(read,tcheck) scf=(maxcycle=1)
 ----------------------------------------------------------------------
 -----
 title
 -----
 Structure from the checkpoint file:  "Grambow2020_wb97xd3_007008_forward_mol2.chk"
 Charge =  0 Multiplicity = 1

                         Standard orientation:
 ---------------------------------------------------------------------
 Center     Atomic      Atomic             Coordinates (Angstroms)
 Number     Number       Type             X           Y           Z
 ---------------------------------------------------------------------
      1          6           0       -1.869793   -0.749473   -0.397992
      2          6           0       -0.623343   -0.482099    0.441513
      3          6           0        0.526922   -1.427718    0.227212
      4          6           0        1.595940   -0.728693   -0.141621
      5          7           0        1.307091    0.639829   -0.203619
      6          6           0       -0.009523    0.881335    0.108819
      7          8           0       -0.554058    1.957820    0.105161
      8          1           0       -2.335409   -1.692560   -0.108998
      9          1           0       -1.616151   -0.805599   -1.458124
     10          1           0       -2.592060    0.055436   -0.259076
     11          1           0       -0.907283   -0.447190    1.499496
     12          1           0        0.484837   -2.497803    0.356503
     13          1           0        2.591440   -1.077059   -0.373273
     14          1           0        1.936237    1.363308   -0.500072
 ---------------------------------------------------------------------

 SCF Done:  E(RHF) =  -324.254476216     A.U. after    2 cycles

 The electronic state is 1-A.
 Alpha  occ. eigenvalues --  -21.02908 -15.77466 -11.50528 -11.46557 -11.43302
 Alpha  occ. eigenvalues --  -11.39490 -11.36859  -1.70948  -1.46620  -1.20453
 Alpha  occ. eigenvalues --   -1.06695  -0.96533  -0.82331  -0.79932  -0.69482
 Alpha  occ. eigenvalues --   -0.64273  -0.60095  -0.56824  -0.56342  -0.52680
 Alpha  occ. eigenvalues --   -0.48683  -0.47923  -0.46271  -0.41532  -0.28047
 Alpha  occ. eigenvalues --   -0.27294
 Alpha virt. eigenvalues --    0.03270   0.04806   0.05235   0.05793   0.06120
 Alpha virt. eigenvalues --    0.06891   0.07553   0.09689   0.11242   0.11778
 Alpha virt. eigenvalues --    0.12114   0.12743   0.13366   0.14621   0.14946

 Mulliken charges:
               1
     1  C   -3.715884
     2  C   -3.813330
     3  C   -0.171055
     4  C    0.298211
     5  N   -3.195763
     6  C    5.275812
     7  O   -3.523856
     8  H    1.221640
     9  H    1.383950
    10  H    1.236277
    11  H    1.599901
    12  H    1.314539
    13  H    1.304726
    14  H    0.784833
 Sum of Mulliken charges =  -0.00000

 Dipole moment (field-independent basis, Debye):
    X=              1.7842    Y=             -1.4396    Z=             -0.3144  Tot=              2.3140

 Test job not archived.
 1\1\GINC-SE095\SP\RHF\Aug-CC-pVDZ\C5H7N1O1\OHZDE\09-Apr-2025\0\\#t hf
 aug-cc-pvdz iop(5/13=1,5/36=2,99/5=2) pseudo=read geom=check guess=(re
 ad,tcheck) scf=(maxcycle=1)\\title\\0,1\C,0,-1.77700081,0.13781305,0.2
 5251949\C,0,-0.44127808,0.24526269,-0.47836744\C,0,0.5833202,1.1452224
 6,0.15684993\C,0,1.68182581,0.43883361,0.40539247\N,0,1.52989908,-0.89
 118358,-0.00461023\C,0,0.27714033,-1.10672197,-0.52763271\O,0,-0.15287
 903,-2.15986475,-0.92928625\H,0,-2.30945618,1.08941167,0.22645056\H,0,
 -1.62391285,-0.13834323,1.2973473\H,0,-2.39842284,-0.62489134,-0.21754

 Normal termination of Gaussian 16 at Wed Apr  9 03:33:26 2025.
