 Gaussian 16, Revision C.01,

 ----------------------------------------------------------------------
 #t hf aug-cc-pvdz symm=none int=(grid=ultrafine) guess=(read,tcheck) s
 table=(opt,rrhf)
 ----------------------------------------------------------------------
 -----
 title
 -----
 Symbolic Z-matrix:
 Charge =  0 Multiplicity = 1

 SCF Done:  E(RHF) =  -307.610643762     A.U. after   16 cycles

 1\1\GINC-SE037\Stability\RHF\Aug-CC-pVDZ\C6H10O1\OHZDE\09-Apr-2025\0\\
 #t hf aug-cc-pvdz symm=none int=(grid=ultrafine) guess=(read,tcheck) s
 table=(opt,rrhf)\\title\\0,1\C,0,1.80228382,-0.72874605,0.0699468\C,0,
 0.83247389,0.37038183,0.45370199\C,0,0.11477903,1.04936942,-0.68242772
 \C,0,-1.59635345,0.59566012,0.51215492\O,0,-2.29216185,-0.11404637,-0.
 37119961\C,0,-1.20184061,-0.88350124,-0.83035547\C,0,-0.43063818,0.013
 86724,1.15094611\H,0,2.14043476,-1.28747596,0.94505647\H,0,2.68195499,
 -0.31749814,-0.43075939\H,0,1.31323299,-1.43295381,-0.60885154\H,0,1.3

 Normal termination of Gaussian 16 at Wed Apr  9 19:16:16 2025.
 Gaussian 16:  ES64L-G16RevC.01  3-Jul-2019

 ----------------------------------------------------------------------
 #t hf aug-cc-pvdz iop(5/13=1,5/36=2,99/5=2) pseudo=read geom=check gue
 ss=(read,tcheck) scf=(maxcycle=1)
 ----------------------------------------------------------------------
 -----
 title
 -----
 Structure from the checkpoint file:  "Grambow2020_wb97xd3_008493_forward_mol1.chk"
 Charge =  0 Multiplicity = 1

                         Standard orientation:
 ---------------------------------------------------------------------
 Center     Atomic      Atomic             Coordinates (Angstroms)
 Number     Number       Type             X           Y           Z
 ---------------------------------------------------------------------
      1          6           0        2.182330    0.536618   -0.325776
      2          6           0        1.184830   -0.527892    0.083728
      3          6           0        0.312702   -0.200936    1.266687
      4          6           0       -1.235379   -0.789985   -0.081394
      5          8           0       -1.967591    0.319851   -0.064782
      6          6           0       -0.880069    1.212873   -0.171994
      7          6           0        0.024947   -0.814970   -0.799992
      8          1           0        2.643393    0.303964   -1.287876
      9          1           0        2.977704    0.634289    0.416851
     10          1           0        1.675581    1.500929   -0.421463
     11          1           0        1.739152   -1.465696    0.260649
     12          1           0        0.088704   -1.053113    1.905164
     13          1           0        0.500551    0.687378    1.864091
     14          1           0       -1.883101   -1.674405   -0.007532
     15          1           0       -0.838127    1.904255    0.662059
     16          1           0       -0.838649    1.709788   -1.138532
     17          1           0        0.139352   -1.600454   -1.562703
 ---------------------------------------------------------------------

 SCF Done:  E(RHF) =  -309.128218543     A.U. after    2 cycles

 The electronic state is 1-A.
 Alpha  occ. eigenvalues --  -21.07517 -11.50091 -11.44493 -11.41572 -11.41146
 Alpha  occ. eigenvalues --  -11.38382 -11.35582  -1.81238  -1.28272  -1.05346
 Alpha  occ. eigenvalues --   -0.98578  -0.93448  -0.85920  -0.73937  -0.70067
 Alpha  occ. eigenvalues --   -0.64384  -0.62744  -0.59813  -0.57430  -0.52334
 Alpha  occ. eigenvalues --   -0.49682  -0.47421  -0.45239  -0.42638  -0.38895
 Alpha  occ. eigenvalues --   -0.27537  -0.25105
 Alpha virt. eigenvalues --    0.03956   0.04797   0.04872   0.05288   0.05531
 Alpha virt. eigenvalues --    0.05688   0.06146   0.06800   0.07341   0.08410
 Alpha virt. eigenvalues --    0.09287   0.10841   0.12017   0.13157   0.13454

 Mulliken charges:
               1
     1  C   -4.103516
     2  C   -1.078871
     3  C   -2.725498
     4  C    0.238710
     5  O   -3.021583
     6  C   -1.519744
     7  C   -0.986596
     8  H    1.305944
     9  H    1.237261
    10  H    1.319193
    11  H    1.315838
    12  H    1.086111
    13  H    1.405734
    14  H    1.374367
    15  H    1.282651
    16  H    1.480249
    17  H    1.389749
 Sum of Mulliken charges =   0.00000

 Dipole moment (field-independent basis, Debye):
    X=             -0.1228    Y=             -0.1619    Z=              0.2278  Tot=              0.3053

 Test job not archived.
 1\1\GINC-SE037\SP\RHF\Aug-CC-pVDZ\C6H10O1\OHZDE\09-Apr-2025\0\\#t hf a
 ug-cc-pvdz iop(5/13=1,5/36=2,99/5=2) pseudo=read geom=check guess=(rea
 d,tcheck) scf=(maxcycle=1)\\title\\0,1\C,0,1.80228382,-0.72874605,0.06
 99468\C,0,0.83247389,0.37038183,0.45370199\C,0,0.11477903,1.04936942,-
 0.68242772\C,0,-1.59635345,0.59566012,0.51215492\O,0,-2.29216185,-0.11
 404637,-0.37119961\C,0,-1.20184061,-0.88350124,-0.83035547\C,0,-0.4306
 3818,0.01386724,1.15094611\H,0,2.14043476,-1.28747596,0.94505647\H,0,2
 .68195499,-0.31749814,-0.43075939\H,0,1.31323299,-1.43295381,-0.608851

 Normal termination of Gaussian 16 at Wed Apr  9 19:16:22 2025.
