 Gaussian 16, Revision C.01,

 ----------------------------------------------------------------------
 #t hf aug-cc-pvdz symm=none int=(grid=ultrafine) guess=(read,tcheck) s
 table=(opt,rrhf)
 ----------------------------------------------------------------------
 -----
 title
 -----
 Symbolic Z-matrix:
 Charge =  0 Multiplicity = 1

 SCF Done:  E(RHF) =  -358.446375935     A.U. after   16 cycles
 Normal termination of Gaussian 16 at Wed Apr  9 18:13:58 2025.
 Gaussian 16:  ES64L-G16RevC.01  3-Jul-2019

 ----------------------------------------------------------------------
 #t hf aug-cc-pvdz iop(5/13=1,5/36=2,99/5=2) pseudo=read geom=check gue
 ss=(read,tcheck) scf=(maxcycle=1)
 ----------------------------------------------------------------------
 -----
 title
 -----
 Structure from the checkpoint file:  "Grambow2020_wb97xd3_006786_reverse_mol1.chk"
 Charge =  0 Multiplicity = 1

                         Standard orientation:
 ---------------------------------------------------------------------
 Center     Atomic      Atomic             Coordinates (Angstroms)
 Number     Number       Type             X           Y           Z
 ---------------------------------------------------------------------
      1          8           0        1.811399   -0.625920   -0.232788
      2          6           0        0.867259   -0.674514    0.569345
      3          6           0        0.251849    0.696862    0.625884
      4          6           0        0.748375    1.100739   -0.703280
      5          7           0       -1.133665    0.952378    0.379077
      6          6           0       -1.648732   -0.154621   -0.158760
      7          8           0       -1.016762   -1.217728   -0.326452
      8          1           0        0.742214   -1.512802    1.253808
      9          1           0        0.646734    1.283925    1.456017
     10          1           0        0.355136    0.549331   -1.543472
     11          1           0        1.228625    2.054865   -0.904551
     12          1           0       -2.706658   -0.103578   -0.440558
 ---------------------------------------------------------------------

 SCF Done:  E(RHF) =  -360.024323056     A.U. after    2 cycles

 The electronic state is 1-A.
 Alpha  occ. eigenvalues --  -21.07498 -21.01941 -15.70460 -11.55193 -11.52488
 Alpha  occ. eigenvalues --  -11.45899 -11.44645  -1.76576  -1.69538  -1.38091
 Alpha  occ. eigenvalues --   -1.13181  -0.99242  -0.84940  -0.80503  -0.76377
 Alpha  occ. eigenvalues --   -0.64803  -0.62447  -0.56802  -0.53361  -0.52750
 Alpha  occ. eigenvalues --   -0.47419  -0.47010  -0.39493  -0.32209  -0.28532
 Alpha  occ. eigenvalues --   -0.27298
 Alpha virt. eigenvalues --    0.03112   0.04564   0.05254   0.06033   0.06241
 Alpha virt. eigenvalues --    0.06580   0.09873   0.10389   0.11053   0.11383
 Alpha virt. eigenvalues --    0.12571   0.12941   0.13984   0.14131   0.14567

 Mulliken charges:
               1
     1  O   -2.548008
     2  C    1.953593
     3  C   -1.829500
     4  C   -2.086913
     5  N   -2.509693
     6  C    2.047138
     7  O   -2.514701
     8  H    1.444390
     9  H    1.559441
    10  H    1.345065
    11  H    1.431771
    12  H    1.707417
 Sum of Mulliken charges =   0.00000

 Dipole moment (field-independent basis, Debye):
    X=              2.6461    Y=              0.7410    Z=             -0.4620  Tot=              2.7865

 Test job not archived.
 1\1\GINC-SE173\SP\RHF\Aug-CC-pVDZ\C4H5N1O2\OHZDE\09-Apr-2025\0\\#t hf
 aug-cc-pvdz iop(5/13=1,5/36=2,99/5=2) pseudo=read geom=check guess=(re
 ad,tcheck) scf=(maxcycle=1)\\title\\0,1\O,0,1.18245129,0.71186835,-1.4
 1953156\C,0,1.10842203,-0.29044598,-0.69354021\C,0,0.53693913,0.149437
 01,0.62650098\C,0,-0.12104699,1.34833367,0.07329813\N,0,-0.62897538,-0
 .43235058,1.21643091\C,0,-1.21549651,-1.17731735,0.27779973\O,0,-0.753
 73959,-1.36254438,-0.86682856\H,0,1.62343208,-1.21690263,-0.94512548\H
 ,0,1.31945249,0.35713955,1.35741158\H,0,-0.91444837,1.16856836,-0.6357

 Normal termination of Gaussian 16 at Wed Apr  9 18:14:02 2025.
