 Gaussian 16, Revision C.01,

 ----------------------------------------------------------------------
 #t hf aug-cc-pvdz symm=none int=(grid=ultrafine) guess=(read,tcheck) s
 table=(opt,rrhf)
 ----------------------------------------------------------------------
 -----
 title
 -----
 Symbolic Z-matrix:
 Charge =  0 Multiplicity = 1

 SCF Done:  E(RHF) =  -335.419031407     A.U. after   15 cycles
 Normal termination of Gaussian 16 at Wed Apr  9 16:09:40 2025.
 Gaussian 16:  ES64L-G16RevC.01  3-Jul-2019

 ----------------------------------------------------------------------
 #t hf aug-cc-pvdz iop(5/13=1,5/36=2,99/5=2) pseudo=read geom=check gue
 ss=(read,tcheck) scf=(maxcycle=1)
 ----------------------------------------------------------------------
 -----
 title
 -----
 Structure from the checkpoint file:  "Grambow2020_b97d3_006736_forward_mol1.chk"
 Charge =  0 Multiplicity = 1

                         Standard orientation:
 ---------------------------------------------------------------------
 Center     Atomic      Atomic             Coordinates (Angstroms)
 Number     Number       Type             X           Y           Z
 ---------------------------------------------------------------------
      1          8           0       -1.955654   -0.038625    0.003561
      2          6           0       -0.684355   -0.154175   -0.005217
      3          7           0       -0.076081    1.040845   -0.004241
      4          6           0        1.256141    0.739716    0.002002
      5          7           0        1.520181   -0.549623    0.002684
      6          8           0        0.179273   -1.170527   -0.001339
      7          1           0       -1.395043    1.258050    0.010218
      8          1           0        2.066679    1.463369    0.002200
 ---------------------------------------------------------------------

 SCF Done:  E(RHF) =  -336.849641387     A.U. after    2 cycles

 The electronic state is 1-A.
 Alpha  occ. eigenvalues --  -21.15624 -21.09515 -15.81191 -15.78270 -11.55051
 Alpha  occ. eigenvalues --  -11.49458  -1.92377  -1.75050  -1.44303  -1.25347
 Alpha  occ. eigenvalues --   -0.92345  -0.82919  -0.75747  -0.68338  -0.59022
 Alpha  occ. eigenvalues --   -0.54964  -0.49875  -0.49265  -0.44282  -0.43040
 Alpha  occ. eigenvalues --   -0.37245  -0.30979
 Alpha virt. eigenvalues --    0.03166   0.05245   0.08976   0.09426   0.09709
 Alpha virt. eigenvalues --    0.10719   0.11916   0.12771   0.14111   0.14721
 Alpha virt. eigenvalues --    0.16024   0.16921   0.17253   0.18508   0.19110

 Mulliken charges:
               1
     1  O   -2.556510
     2  C    5.231319
     3  N   -2.584415
     4  C    1.254580
     5  N   -0.777773
     6  O   -2.558424
     7  H    0.403903
     8  H    1.587320
 Sum of Mulliken charges =   0.00000

 Dipole moment (field-independent basis, Debye):
    X=              0.3588    Y=              1.4316    Z=              0.0096  Tot=              1.4759

 Test job not archived.
 1\1\GINC-SE125\SP\RHF\Aug-CC-pVDZ\C2H2N2O2\OHZDE\09-Apr-2025\0\\#t hf
 aug-cc-pvdz iop(5/13=1,5/36=2,99/5=2) pseudo=read geom=check guess=(re
 ad,tcheck) scf=(maxcycle=1)\\title\\0,1\O,0,2.02281781,0.55836718,0.09
 175632\C,0,0.92838511,-0.08088148,0.24409813\N,0,-0.13916958,0.7111769
 ,0.0679111\C,0,-1.20774467,-0.12031897,0.24761866\N,0,-0.88461357,-1.3
 6588706,0.52377327\O,0,0.59287717,-1.34166941,0.5210251\H,0,0.95395367
 ,1.45877712,-0.11436083\H,0,-2.25237094,0.17171971,0.18347526\\Version
 =ES64L-G16RevC.01\State=1-A\HF=-336.8496414\RMSD=6.822e-02\Dipole=-0.3

 Normal termination of Gaussian 16 at Wed Apr  9 16:09:42 2025.
