 Gaussian 16, Revision C.01,

 ----------------------------------------------------------------------
 #t hf aug-cc-pvdz symm=none int=(grid=ultrafine) guess=(read,tcheck) s
 table=(opt,rrhf)
 ----------------------------------------------------------------------
 -----
 title
 -----
 Symbolic Z-matrix:
 Charge =  0 Multiplicity = 1

 SCF Done:  E(RHF) =  -375.736124204     A.U. after   14 cycles
 Normal termination of Gaussian 16 at Wed Apr  9 18:56:40 2025.
 Gaussian 16:  ES64L-G16RevC.01  3-Jul-2019

 ----------------------------------------------------------------------
 #t hf aug-cc-pvdz iop(5/13=1,5/36=2,99/5=2) pseudo=read geom=check gue
 ss=(read,tcheck) scf=(maxcycle=1)
 ----------------------------------------------------------------------
 -----
 title
 -----
 Structure from the checkpoint file:  "Grambow2020_wb97xd3_007858_reverse_mol2.chk"
 Charge =  0 Multiplicity = 1

                         Standard orientation:
 ---------------------------------------------------------------------
 Center     Atomic      Atomic             Coordinates (Angstroms)
 Number     Number       Type             X           Y           Z
 ---------------------------------------------------------------------
      1          7           0        1.310495   -0.724626   -1.019139
      2          6           0        1.179311    0.055669    0.073348
      3          8           0        1.892571    1.004132    0.324726
      4          6           0        0.073325   -0.365431    1.036267
      5          8           0       -1.056110   -0.956128    0.392577
      6          6           0       -1.932868   -0.240009   -0.324068
      7          7           0       -1.648331    1.054021   -0.399407
      8          1           0        1.996125   -0.473727   -1.708592
      9          1           0        0.627553   -1.429798   -1.231966
     10          1           0       -0.200870    0.493048    1.651548
     11          1           0        0.470378   -1.137511    1.695780
     12          1           0       -2.285381    1.618856   -0.930814
     13          1           0       -0.853255    1.537954    0.002148
 ---------------------------------------------------------------------

 SCF Done:  E(RHF) =  -377.386611136     A.U. after    2 cycles

 The electronic state is 1-A.
 Alpha  occ. eigenvalues --  -21.10045 -21.04099 -15.79739 -15.79048 -11.52268
 Alpha  occ. eigenvalues --  -11.44131 -11.41779  -1.82169  -1.71744  -1.36749
 Alpha  occ. eigenvalues --   -1.35661  -1.08484  -0.85634  -0.81001  -0.74936
 Alpha  occ. eigenvalues --   -0.73600  -0.65090  -0.64250  -0.60925  -0.54027
 Alpha  occ. eigenvalues --   -0.51952  -0.49339  -0.43213  -0.37558  -0.35443
 Alpha  occ. eigenvalues --   -0.33599  -0.28840
 Alpha virt. eigenvalues --    0.03326   0.04540   0.05627   0.06298   0.06657
 Alpha virt. eigenvalues --    0.07314   0.10106   0.10729   0.10994   0.13113
 Alpha virt. eigenvalues --    0.13368   0.13566   0.13901   0.14976   0.15567

 Mulliken charges:
               1
     1  N   -3.050636
     2  C    5.170838
     3  O   -3.316803
     4  C   -1.500505
     5  O   -2.004285
     6  C    1.006233
     7  N   -1.992778
     8  H    0.692948
     9  H    0.800700
    10  H    1.343084
    11  H    1.299841
    12  H    0.820924
    13  H    0.730440
 Sum of Mulliken charges =  -0.00000

 Dipole moment (field-independent basis, Debye):
    X=              1.0713    Y=              0.6701    Z=             -0.4514  Tot=              1.3418

 Test job not archived.
 1\1\GINC-SE219\SP\RHF\Aug-CC-pVDZ\C3H6N2O2\OHZDE\09-Apr-2025\0\\#t hf
 aug-cc-pvdz iop(5/13=1,5/36=2,99/5=2) pseudo=read geom=check guess=(re
 ad,tcheck) scf=(maxcycle=1)\\title\\0,1\N,0,-1.56811903,0.92418573,-0.
 18979561\C,0,-1.16629659,-0.34961304,-0.00118794\O,0,-1.66613082,-1.31
 114262,-0.54629394\C,0,-0.03783565,-0.52565884,1.01040812\O,0,0.881145
 75,0.56671065,1.04335835\C,0,1.77149735,0.78868836,0.06708424\N,0,1.70
 922655,-0.07821602,-0.93578661\H,0,-2.28113007,1.10633294,-0.87303908\
 H,0,-1.05069985,1.68986667,0.20388446\H,0,0.45699663,-1.4795026,0.8205

 Normal termination of Gaussian 16 at Wed Apr  9 18:56:44 2025.
