 Gaussian 16, Revision C.01,

 ----------------------------------------------------------------------
 #t hf aug-cc-pvdz symm=none int=(grid=ultrafine) guess=(read,tcheck) s
 table=(opt,rrhf)
 ----------------------------------------------------------------------
 -----
 title
 -----
 Symbolic Z-matrix:
 Charge =  0 Multiplicity = 1

 SCF Done:  E(RHF) =  -318.785356148     A.U. after   15 cycles
 Normal termination of Gaussian 16 at Wed Apr  9 18:20:40 2025.
 Gaussian 16:  ES64L-G16RevC.01  3-Jul-2019

 ----------------------------------------------------------------------
 #t hf aug-cc-pvdz iop(5/13=1,5/36=2,99/5=2) pseudo=read geom=check gue
 ss=(read,tcheck) scf=(maxcycle=1)
 ----------------------------------------------------------------------
 -----
 title
 -----
 Structure from the checkpoint file:  "Grambow2020_wb97xd3_006917_reverse_mol2.chk"
 Charge =  0 Multiplicity = 1

                         Standard orientation:
 ---------------------------------------------------------------------
 Center     Atomic      Atomic             Coordinates (Angstroms)
 Number     Number       Type             X           Y           Z
 ---------------------------------------------------------------------
      1          7           0        2.499950   -0.696324   -0.084894
      2          6           0        1.348403    0.078012    0.007592
      3          6           0        0.106203   -0.687405    0.004038
      4          6           0       -1.071908   -0.049482   -0.058914
      5          7           0       -2.459622   -0.551662    0.058919
      6          6           0       -2.018413    0.900013   -0.178345
      7          7           0        1.327223    1.356271    0.046871
      8          1           0        3.354651   -0.248013    0.197474
      9          1           0        2.427596   -1.653185    0.214565
     10          1           0        0.124416   -1.768937    0.003728
     11          1           0       -2.707805   -0.914337    0.972367
     12          1           0       -2.898366   -1.029740   -0.714702
     13          1           0       -2.325460    1.665373    0.516319
     14          1           0        2.266407    1.744028    0.017753
 ---------------------------------------------------------------------

 SCF Done:  E(RHF) =  -320.281136750     A.U. after    2 cycles

 The electronic state is 1-A.
 Alpha  occ. eigenvalues --  -15.84308 -15.75361 -15.67935 -11.48001 -11.46378
 Alpha  occ. eigenvalues --  -11.39685 -11.36895  -1.50652  -1.41131  -1.21265
 Alpha  occ. eigenvalues --   -1.10081  -0.99861  -0.83745  -0.75071  -0.72818
 Alpha  occ. eigenvalues --   -0.68414  -0.66922  -0.59700  -0.54418  -0.51884
 Alpha  occ. eigenvalues --   -0.49004  -0.46191  -0.40963  -0.36148  -0.31755
 Alpha  occ. eigenvalues --   -0.25198
 Alpha virt. eigenvalues --    0.02834   0.04375   0.05230   0.05471   0.06048
 Alpha virt. eigenvalues --    0.06725   0.08706   0.10372   0.12191   0.12505
 Alpha virt. eigenvalues --    0.12543   0.13440   0.13747   0.14486   0.15376

 Mulliken charges:
               1
     1  N   -3.415612
     2  C    3.392109
     3  C   -2.087192
     4  C    5.794217
     5  N   -2.685210
     6  C   -3.436090
     7  N   -3.525748
     8  H    0.635931
     9  H    0.685099
    10  H    1.550101
    11  H    0.628430
    12  H    0.624528
    13  H    1.078552
    14  H    0.760885
 Sum of Mulliken charges =  -0.00000

 Dipole moment (field-independent basis, Debye):
    X=             -1.7653    Y=             -4.2358    Z=              1.9571  Tot=              4.9888

 Test job not archived.
 1\1\GINC-SE229\SP\RHF\Aug-CC-pVDZ\C4H7N3\OHZDE\09-Apr-2025\0\\#t hf au
 g-cc-pvdz iop(5/13=1,5/36=2,99/5=2) pseudo=read geom=check guess=(read
 ,tcheck) scf=(maxcycle=1)\\title\\0,1\N,0,-2.49672238,-0.59553849,0.10
 113725\C,0,-1.3542627,0.19077615,-0.00231943\C,0,-0.10173773,-0.550180
 96,0.10304703\C,0,1.0632211,0.11152617,0.165246\N,0,2.46191953,-0.3728
 6065,0.13641978\C,0,1.98985434,1.08382983,0.25273061\N,0,-1.35087024,1
 .46325023,-0.13168565\H,0,-3.34635332,-0.18360272,-0.24479028\H,0,-2.3
 9821925,-1.56970187,-0.12645068\H,0,-0.10360828,-1.62914721,0.17967535

 Normal termination of Gaussian 16 at Wed Apr  9 18:20:44 2025.
