 Gaussian 16, Revision C.01,

 ----------------------------------------------------------------------
 #t hf aug-cc-pvdz symm=none int=(grid=ultrafine) guess=(read,tcheck) s
 table=(opt,rrhf)
 ----------------------------------------------------------------------
 -----
 title
 -----
 Symbolic Z-matrix:
 Charge =  0 Multiplicity = 1

 SCF Done:  E(RHF) =  -267.581886921     A.U. after   14 cycles
 Normal termination of Gaussian 16 at Wed Apr  9 03:20:55 2025.
 Gaussian 16:  ES64L-G16RevC.01  3-Jul-2019

 ----------------------------------------------------------------------
 #t hf aug-cc-pvdz iop(5/13=1,5/36=2,99/5=2) pseudo=read geom=check gue
 ss=(read,tcheck) scf=(maxcycle=1)
 ----------------------------------------------------------------------
 -----
 title
 -----
 Structure from the checkpoint file:  "Grambow2020_wb97xd3_006078_reverse_mol2.chk"
 Charge =  0 Multiplicity = 1

                         Standard orientation:
 ---------------------------------------------------------------------
 Center     Atomic      Atomic             Coordinates (Angstroms)
 Number     Number       Type             X           Y           Z
 ---------------------------------------------------------------------
      1          8           0       -0.394573   -1.039160    0.090366
      2          6           0       -1.602066   -0.393835    0.149103
      3          6           0       -1.868199    0.830370   -0.269703
      4          6           0        1.408625    0.938105    0.344666
      5          6           0        0.721579   -0.320327   -0.023493
      6          6           0        1.964208   -0.307445   -0.340878
      7          1           0       -2.347558   -1.054680    0.571758
      8          1           0       -2.876289    1.205816   -0.168938
      9          1           0       -1.122256    1.474198   -0.713065
     10          1           0        1.239754    1.844443   -0.237789
     11          1           0        1.663797    1.134477    1.387165
     12          1           0        2.854257   -0.772181   -0.720231
 ---------------------------------------------------------------------

 SCF Done:  E(RHF) =  -268.812842031     A.U. after    2 cycles

 The electronic state is 1-A.
 Alpha  occ. eigenvalues --  -21.11542 -11.47515 -11.45782 -11.43572 -11.39523
 Alpha  occ. eigenvalues --  -11.38327  -1.82756  -1.27915  -1.12211  -0.88238
 Alpha  occ. eigenvalues --   -0.84906  -0.74609  -0.67938  -0.64633  -0.61463
 Alpha  occ. eigenvalues --   -0.56015  -0.54431  -0.48748  -0.44086  -0.38970
 Alpha  occ. eigenvalues --   -0.35283  -0.27285
 Alpha virt. eigenvalues --    0.03479   0.05253   0.05502   0.05904   0.06670
 Alpha virt. eigenvalues --    0.07350   0.09941   0.10703   0.11207   0.12225
 Alpha virt. eigenvalues --    0.12275   0.13357   0.13976   0.14680   0.15368

 Mulliken charges:
               1
     1  O   -4.248304
     2  C    0.881243
     3  C   -3.371225
     4  C   -2.891020
     5  C    3.697798
     6  C   -1.714946
     7  H    1.667355
     8  H    1.272332
     9  H    1.573579
    10  H    1.230119
    11  H    1.122262
    12  H    0.780807
 Sum of Mulliken charges =   0.00000

 Dipole moment (field-independent basis, Debye):
    X=             -0.3131    Y=             -0.2693    Z=              0.1171  Tot=              0.4292

 Test job not archived.
 1\1\GINC-SE080\SP\RHF\Aug-CC-pVDZ\C5H6O1\OHZDE\09-Apr-2025\0\\#t hf au
 g-cc-pvdz iop(5/13=1,5/36=2,99/5=2) pseudo=read geom=check guess=(read
 ,tcheck) scf=(maxcycle=1)\\title\\0,1\O,0,-0.09625255,-0.87581816,0.97
 187107\C,0,-1.24124882,-0.21902659,1.3400299\C,0,-1.95204939,0.6118970
 5,0.59892709\C,0,1.09176892,0.81132148,-0.75089817\C,0,0.62717019,-0.4
 0227135,-0.04197977\C,0,1.52495116,-0.64184921,-0.92607211\H,0,-1.5166
 8357,-0.50451948,2.34687654\H,0,-2.84518958,1.04953923,1.0209798\H,0,-
 1.68216315,0.8720021,-0.41449352\H,0,0.4592097,1.28033021,-1.50529786\

 Normal termination of Gaussian 16 at Wed Apr  9 03:20:59 2025.
