 Gaussian 16, Revision C.01,

 ----------------------------------------------------------------------
 #t hf aug-cc-pvdz symm=none int=(grid=ultrafine) guess=(read,tcheck) s
 table=(opt,rrhf)
 ----------------------------------------------------------------------
 -----
 title
 -----
 Symbolic Z-matrix:
 Charge =  0 Multiplicity = 1

 SCF Done:  E(RHF) =  -308.880673843     A.U. after   16 cycles

 1\1\GINC-SE108\Stability\RHF\Aug-CC-pVDZ\C6H12O1\OHZDE\09-Apr-2025\0\\
 #t hf aug-cc-pvdz symm=none int=(grid=ultrafine) guess=(read,tcheck) s
 table=(opt,rrhf)\\title\\0,1\C,0,2.6872441,0.4493778,0.79886792\C,0,1.
 53337744,0.13035068,-0.12402231\O,0,0.56504876,-0.62811892,0.57552573\
 C,0,-0.42800205,-1.32714321,-0.39635954\C,0,-1.15349356,-0.05653715,1.
 01445793\C,0,-1.71047143,-0.47708087,-0.24028192\C,0,-1.97417617,0.561
 71284,-1.31112214\H,0,3.13153184,-0.46879206,1.1851864\H,0,2.35638554,
 1.05290884,1.64647606\H,0,3.45646221,1.00853653,0.26311046\H,0,1.82892

 Normal termination of Gaussian 16 at Wed Apr  9 19:34:43 2025.
 Gaussian 16:  ES64L-G16RevC.01  3-Jul-2019

 ----------------------------------------------------------------------
 #t hf aug-cc-pvdz iop(5/13=1,5/36=2,99/5=2) pseudo=read geom=check gue
 ss=(read,tcheck) scf=(maxcycle=1)
 ----------------------------------------------------------------------
 -----
 title
 -----
 Structure from the checkpoint file:  "Grambow2020_wb97xd3_009424_forward_mol1.chk"
 Charge =  0 Multiplicity = 1

                         Standard orientation:
 ---------------------------------------------------------------------
 Center     Atomic      Atomic             Coordinates (Angstroms)
 Number     Number       Type             X           Y           Z
 ---------------------------------------------------------------------
      1          6           0        2.844545    0.292340    0.260544
      2          6           0        1.461288    0.549891   -0.291886
      3          8           0        0.672526   -0.616627   -0.152623
      4          6           0       -0.596934   -0.561367   -1.049709
      5          6           0       -0.813350   -0.797550    0.957419
      6          6           0       -1.723179   -0.283211   -0.027020
      7          6           0       -2.198072    1.150645    0.090726
      8          1           0        3.312180   -0.545618   -0.257929
      9          1           0        2.803896    0.056473    1.325847
     10          1           0        3.473562    1.175005    0.131580
     11          1           0        1.463586    0.787203   -1.362302
     12          1           0        0.987295    1.395918    0.222502
     13          1           0       -0.628866   -1.582470   -1.440241
     14          1           0       -0.389203   -0.174138    1.740024
     15          1           0       -0.769210   -1.863322    1.133246
     16          1           0       -2.535259   -0.977267   -0.244535
     17          1           0       -2.634922    1.470979   -0.855599
     18          1           0       -2.945253    1.265487    0.881332
     19          1           0       -1.363797    1.820286    0.306611
 ---------------------------------------------------------------------

 SCF Done:  E(RHF) =  -310.403361086     A.U. after    2 cycles

 The electronic state is 1-A.
 Alpha  occ. eigenvalues --  -21.04116 -11.51606 -11.42523 -11.42269 -11.37273
 Alpha  occ. eigenvalues --  -11.35785 -11.34579  -1.75364  -1.25801  -1.11007
 Alpha  occ. eigenvalues --   -1.01581  -0.91903  -0.86996  -0.76208  -0.69591
 Alpha  occ. eigenvalues --   -0.63764  -0.61662  -0.58414  -0.58217  -0.53940
 Alpha  occ. eigenvalues --   -0.52628  -0.50897  -0.48842  -0.46092  -0.45561
 Alpha  occ. eigenvalues --   -0.39002  -0.30975  -0.21969
 Alpha virt. eigenvalues --    0.03646   0.04679   0.04848   0.04929   0.05603
 Alpha virt. eigenvalues --    0.05715   0.06022   0.06802   0.07339   0.08115
 Alpha virt. eigenvalues --    0.08512   0.09637   0.11081   0.12206   0.12932

 Mulliken charges:
               1
     1  C   -3.726639
     2  C   -1.912325
     3  O   -2.336121
     4  C   -0.447458
     5  C   -2.292518
     6  C   -1.509105
     7  C   -4.290278
     8  H    1.307326
     9  H    1.280819
    10  H    1.095037
    11  H    1.736076
    12  H    1.730339
    13  H    1.191864
    14  H    1.646511
    15  H    1.257810
    16  H    1.450822
    17  H    1.293017
    18  H    1.158671
    19  H    1.366151
 Sum of Mulliken charges =   0.00000

 Dipole moment (field-independent basis, Debye):
    X=              0.4423    Y=             -0.8475    Z=              3.1447  Tot=              3.2868

 Test job not archived.
 1\1\GINC-SE108\SP\RHF\Aug-CC-pVDZ\C6H12O1\OHZDE\09-Apr-2025\0\\#t hf a
 ug-cc-pvdz iop(5/13=1,5/36=2,99/5=2) pseudo=read geom=check guess=(rea
 d,tcheck) scf=(maxcycle=1)\\title\\0,1\C,0,2.6872441,0.4493778,0.79886
 792\C,0,1.53337744,0.13035068,-0.12402231\O,0,0.56504876,-0.62811892,0
 .57552573\C,0,-0.42800205,-1.32714321,-0.39635954\C,0,-1.15349356,-0.0
 5653715,1.01445793\C,0,-1.71047143,-0.47708087,-0.24028192\C,0,-1.9741
 7617,0.56171284,-1.31112214\H,0,3.13153184,-0.46879206,1.1851864\H,0,2
 .35638554,1.05290884,1.64647606\H,0,3.45646221,1.00853653,0.26311046\H

 Normal termination of Gaussian 16 at Wed Apr  9 19:34:51 2025.
