 Gaussian 16, Revision C.01,

 ----------------------------------------------------------------------
 #t hf aug-cc-pvdz symm=none int=(grid=ultrafine) guess=(read,tcheck) s
 table=(opt,rrhf)
 ----------------------------------------------------------------------
 -----
 title
 -----
 Symbolic Z-matrix:
 Charge =  0 Multiplicity = 1

 SCF Done:  E(RHF) =  -359.719712623     A.U. after   15 cycles
 Normal termination of Gaussian 16 at Wed Apr  9 03:53:38 2025.
 Gaussian 16:  ES64L-G16RevC.01  3-Jul-2019

 ----------------------------------------------------------------------
 #t hf aug-cc-pvdz iop(5/13=1,5/36=2,99/5=2) pseudo=read geom=check gue
 ss=(read,tcheck) scf=(maxcycle=1)
 ----------------------------------------------------------------------
 -----
 title
 -----
 Structure from the checkpoint file:  "Grambow2020_wb97xd3_008366_forward_mol2.chk"
 Charge =  0 Multiplicity = 1

                         Standard orientation:
 ---------------------------------------------------------------------
 Center     Atomic      Atomic             Coordinates (Angstroms)
 Number     Number       Type             X           Y           Z
 ---------------------------------------------------------------------
      1          8           0        1.262819   -1.450875   -0.253738
      2          6           0        1.165949   -0.172133    0.312089
      3          6           0        0.998628    1.047173   -0.613044
      4          7           0       -0.107742    1.510332    0.250639
      5          6           0       -0.243372    0.176540    0.833236
      6          6           0       -1.323747   -0.685970    0.222038
      7          8           0       -2.107281   -0.279340   -0.592302
      8          1           0        2.162368   -1.602592   -0.547548
      9          1           0        1.927904   -0.014697    1.080057
     10          1           0        0.681444    0.728118   -1.611027
     11          1           0        1.834700    1.744302   -0.692788
     12          1           0       -0.937376    1.797711   -0.254925
     13          1           0       -0.374382    0.149966    1.921642
     14          1           0       -1.369516   -1.727070    0.592506
 ---------------------------------------------------------------------

 SCF Done:  E(RHF) =  -361.317568610     A.U. after    2 cycles

 The electronic state is 1-A.
 Alpha  occ. eigenvalues --  -21.09145 -21.06568 -15.72005 -11.50536 -11.48303
 Alpha  occ. eigenvalues --  -11.43148 -11.38926  -1.74914  -1.71341  -1.44198
 Alpha  occ. eigenvalues --   -1.05884  -1.02678  -0.87943  -0.76804  -0.72650
 Alpha  occ. eigenvalues --   -0.68843  -0.64065  -0.58955  -0.55282  -0.51884
 Alpha  occ. eigenvalues --   -0.48558  -0.46748  -0.43775  -0.41450  -0.35462
 Alpha  occ. eigenvalues --   -0.32432  -0.29235
 Alpha virt. eigenvalues --    0.03639   0.04923   0.05052   0.05389   0.06300
 Alpha virt. eigenvalues --    0.07084   0.07335   0.10134   0.10520   0.12219
 Alpha virt. eigenvalues --    0.12788   0.13457   0.13818   0.14193   0.14764

 Mulliken charges:
               1
     1  O   -3.347985
     2  C    1.335998
     3  C   -2.373066
     4  N   -1.958675
     5  C   -1.626216
     6  C    2.004244
     7  O   -2.811195
     8  H    0.801155
     9  H    1.490179
    10  H    1.475330
    11  H    1.255673
    12  H    0.660794
    13  H    1.587149
    14  H    1.506616
 Sum of Mulliken charges =   0.00000

 Dipole moment (field-independent basis, Debye):
    X=              1.4593    Y=             -0.5810    Z=              0.0074  Tot=              1.5707

 Test job not archived.
 1\1\GINC-SE135\SP\RHF\Aug-CC-pVDZ\C4H7N1O2\OHZDE\09-Apr-2025\0\\#t hf
 aug-cc-pvdz iop(5/13=1,5/36=2,99/5=2) pseudo=read geom=check guess=(re
 ad,tcheck) scf=(maxcycle=1)\\title\\0,1\O,0,-0.67503224,-1.47251451,0.
 92057482\C,0,-0.72292926,-0.63560148,-0.20281564\C,0,-1.09061481,0.848
 07546,-0.01819664\N,0,0.07156921,1.20740656,-0.85767841\C,0,0.65718567
 ,-0.11667017,-0.6559672\C,0,1.700857,-0.19956458,0.4342509\O,0,2.12423
 367,0.76359242,1.01347906\H,0,-1.56161306,-1.76252893,1.14056955\H,0,-
 1.266491,-1.10301145,-1.02816766\H,0,-0.98845568,1.13852349,1.03231548

 Normal termination of Gaussian 16 at Wed Apr  9 03:53:43 2025.
