 Gaussian 16, Revision C.01,

 ----------------------------------------------------------------------
 #t hf aug-cc-pvdz symm=none int=(grid=ultrafine) guess=(read,tcheck) s
 table=(opt,rrhf)
 ----------------------------------------------------------------------
 -----
 title
 -----
 Symbolic Z-matrix:
 Charge =  0 Multiplicity = 1

 SCF Done:  E(RHF) =  -345.869003272     A.U. after   16 cycles

 1\1\GINC-SE340\Stability\RHF\Aug-CC-pVDZ\C5H12O2\OHZDE\09-Apr-2025\0\\
 #t hf aug-cc-pvdz symm=none int=(grid=ultrafine) guess=(read,tcheck) s
 table=(opt,rrhf)\\title\\0,1\C,0,2.29621308,0.28434767,1.61450282\C,0,
 0.86689014,0.47219344,1.1237776\C,0,0.70637065,0.22634356,-0.38389704\
 O,0,1.17950811,-1.07575839,-0.72005558\C,0,-0.67139157,0.48594056,-0.9
 1378781\C,0,-2.32100736,-0.49921668,-1.72201443\O,0,-1.65898891,-0.430
 02274,-0.10872596\H,0,2.64517029,-0.72577704,1.39990646\H,0,2.97389732
 ,0.98093965,1.11445444\H,0,2.37445293,0.45574426,2.69011905\H,0,0.2031

 Normal termination of Gaussian 16 at Wed Apr  9 19:05:09 2025.
 Gaussian 16:  ES64L-G16RevC.01  3-Jul-2019

 ----------------------------------------------------------------------
 #t hf aug-cc-pvdz iop(5/13=1,5/36=2,99/5=2) pseudo=read geom=check gue
 ss=(read,tcheck) scf=(maxcycle=1)
 ----------------------------------------------------------------------
 -----
 title
 -----
 Structure from the checkpoint file:  "Grambow2020_wb97xd3_008067_forward_mol1.chk"
 Charge =  0 Multiplicity = 1

                         Standard orientation:
 ---------------------------------------------------------------------
 Center     Atomic      Atomic             Coordinates (Angstroms)
 Number     Number       Type             X           Y           Z
 ---------------------------------------------------------------------
      1          6           0        2.874707   -0.255103   -0.132333
      2          6           0        1.434746   -0.734357   -0.006279
      3          6           0        0.481478    0.344506    0.529097
      4          8           0        0.547496    1.507068   -0.293351
      5          6           0       -0.926762   -0.120779    0.745370
      6          6           0       -2.860509    0.134764    0.010307
      7          8           0       -1.450203   -0.671267   -0.627742
      8          1           0        2.934799    0.606283   -0.797598
      9          1           0        3.269504    0.050490    0.839928
     10          1           0        3.523695   -1.040747   -0.524795
     11          1           0        1.077191   -1.072159   -0.985716
     12          1           0        1.388423   -1.599054    0.664567
     13          1           0        0.838369    0.665819    1.514837
     14          1           0        0.017274    1.328218   -1.073427
     15          1           0       -0.938263   -0.978836    1.425570
     16          1           0       -3.493057   -0.332536   -0.755434
     17          1           0       -3.216584   -0.082375    1.007773
     18          1           0       -2.731236    1.193109   -0.152340
     19          1           0       -1.470420   -1.638803   -0.671588
 ---------------------------------------------------------------------

 SCF Done:  E(RHF) =  -347.515495513     A.U. after    2 cycles

 The electronic state is 1-A.
 Alpha  occ. eigenvalues --  -21.10500 -21.03504 -11.48675 -11.42585 -11.38771
 Alpha  occ. eigenvalues --  -11.35276 -11.32730  -1.75286  -1.67764  -1.16999
 Alpha  occ. eigenvalues --   -1.03559  -1.01222  -0.87044  -0.79177  -0.67167
 Alpha  occ. eigenvalues --   -0.62563  -0.61720  -0.60361  -0.58002  -0.57553
 Alpha  occ. eigenvalues --   -0.51099  -0.47894  -0.47408  -0.45480  -0.43986
 Alpha  occ. eigenvalues --   -0.40418  -0.35569  -0.28888  -0.23055
 Alpha virt. eigenvalues --    0.03180   0.04489   0.04698   0.05151   0.05453
 Alpha virt. eigenvalues --    0.06088   0.06693   0.07074   0.07490   0.08539
 Alpha virt. eigenvalues --    0.09211   0.09805   0.12374   0.12630   0.13242

 Mulliken charges:
               1
     1  C   -3.841409
     2  C   -3.079014
     3  C    1.609239
     4  O   -3.184409
     5  C   -1.219933
     6  C   -3.067877
     7  O   -1.872586
     8  H    1.348602
     9  H    1.247703
    10  H    1.095226
    11  H    1.498668
    12  H    1.315126
    13  H    1.868294
    14  H    0.699904
    15  H    1.253997
    16  H    1.169398
    17  H    1.202807
    18  H    1.171536
    19  H    0.784727
 Sum of Mulliken charges =   0.00000

 Dipole moment (field-independent basis, Debye):
    X=             -2.4123    Y=             -1.8526    Z=             -1.3431  Tot=              3.3249

 Test job not archived.
 1\1\GINC-SE340\SP\RHF\Aug-CC-pVDZ\C5H12O2\OHZDE\09-Apr-2025\0\\#t hf a
 ug-cc-pvdz iop(5/13=1,5/36=2,99/5=2) pseudo=read geom=check guess=(rea
 d,tcheck) scf=(maxcycle=1)\\title\\0,1\C,0,2.29621308,0.28434767,1.614
 50282\C,0,0.86689014,0.47219344,1.1237776\C,0,0.70637065,0.22634356,-0
 .38389704\O,0,1.17950811,-1.07575839,-0.72005558\C,0,-0.67139157,0.485
 94056,-0.91378781\C,0,-2.32100736,-0.49921668,-1.72201443\O,0,-1.65898
 891,-0.43002274,-0.10872596\H,0,2.64517029,-0.72577704,1.39990646\H,0,
 2.97389732,0.98093965,1.11445444\H,0,2.37445293,0.45574426,2.69011905\

 Normal termination of Gaussian 16 at Wed Apr  9 19:05:14 2025.
