 Gaussian 16, Revision C.01,

 ----------------------------------------------------------------------
 #t hf aug-cc-pvdz symm=none int=(grid=ultrafine) guess=(read,tcheck) s
 table=(opt,rrhf)
 ----------------------------------------------------------------------
 -----
 title
 -----
 Symbolic Z-matrix:
 Charge =  0 Multiplicity = 1

 SCF Done:  E(RHF) =  -262.430155126     A.U. after   17 cycles
 Normal termination of Gaussian 16 at Wed Apr  9 16:59:58 2025.
 Gaussian 16:  ES64L-G16RevC.01  3-Jul-2019

 ----------------------------------------------------------------------
 #t hf aug-cc-pvdz iop(5/13=1,5/36=2,99/5=2) pseudo=read geom=check gue
 ss=(read,tcheck) scf=(maxcycle=1)
 ----------------------------------------------------------------------
 -----
 title
 -----
 Structure from the checkpoint file:  "Grambow2020_b97d3_006898_forward_mol1.chk"
 Charge =  0 Multiplicity = 1

                         Standard orientation:
 ---------------------------------------------------------------------
 Center     Atomic      Atomic             Coordinates (Angstroms)
 Number     Number       Type             X           Y           Z
 ---------------------------------------------------------------------
      1          6           0       -1.232268   -0.634747    0.462377
      2          6           0       -0.181601   -1.128459   -0.268034
      3          7           0        1.186887   -0.843165   -0.126728
      4          7           0        1.268626    0.442744    0.190474
      5          6           0        0.176471    1.224484    0.127698
      6          6           0       -1.065267    0.611044   -0.341228
      7          1           0       -1.383533   -0.740419    1.534516
      8          1           0       -0.448161   -0.330877   -1.266001
      9          1           0        0.311160    2.292341    0.285189
     10          1           0       -1.852062    1.147974   -0.884808
 ---------------------------------------------------------------------

 SCF Done:  E(RHF) =  -263.667506006     A.U. after    2 cycles

 The electronic state is 1-A.
 Alpha  occ. eigenvalues --  -15.79363 -15.78361 -11.50657 -11.47322 -11.45212
 Alpha  occ. eigenvalues --  -11.42477  -1.58628  -1.27518  -1.17135  -0.92575
 Alpha  occ. eigenvalues --   -0.86118  -0.79494  -0.69858  -0.62719  -0.61102
 Alpha  occ. eigenvalues --   -0.56669  -0.48955  -0.44667  -0.38751  -0.37003
 Alpha  occ. eigenvalues --   -0.30047
 Alpha virt. eigenvalues --    0.03173   0.04856   0.05282   0.05417   0.06869
 Alpha virt. eigenvalues --    0.08895   0.09812   0.10509   0.11318   0.11869
 Alpha virt. eigenvalues --    0.12870   0.13522   0.14086   0.14407   0.15772

 Mulliken charges:
               1
     1  C   -0.623524
     2  C   -0.379542
     3  N   -1.273728
     4  N   -1.595926
     5  C    0.236045
     6  C   -1.716200
     7  H    1.273278
     8  H    1.460300
     9  H    1.449225
    10  H    1.170071
 Sum of Mulliken charges =   0.00000

 Dipole moment (field-independent basis, Debye):
    X=             -2.7512    Y=              1.6013    Z=              0.3632  Tot=              3.2039

 Test job not archived.
 1\1\GINC-SE113\SP\RHF\Aug-CC-pVDZ\C4H4N2\OHZDE\09-Apr-2025\0\\#t hf au
 g-cc-pvdz iop(5/13=1,5/36=2,99/5=2) pseudo=read geom=check guess=(read
 ,tcheck) scf=(maxcycle=1)\\title\\0,1\C,0,0.93472668,0.79562885,-0.518
 84316\C,0,1.3072616,-0.34239814,0.1499356\N,0,0.80969289,-1.64688862,-
 0.00769891\N,0,-0.49073376,-1.52396246,-0.24145111\C,0,-1.0925417,-0.3
 3006628,-0.09897216\C,0,-0.27038765,0.78842614,0.36053941\H,0,0.996228
 44,0.9674289,-1.59133242\H,0,0.62195765,0.00482269,1.20488886\H,0,-2.1
 7609329,-0.29776938,-0.18916273\H,0,-0.64751686,1.62685829,0.95855562\

 Normal termination of Gaussian 16 at Wed Apr  9 17:00:01 2025.
