 Gaussian 16, Revision C.01,

 ----------------------------------------------------------------------
 #t hf aug-cc-pvdz symm=none int=(grid=ultrafine) guess=(read,tcheck) s
 table=(opt,rrhf)
 ----------------------------------------------------------------------
 -----
 title
 -----
 Symbolic Z-matrix:
 Charge =  0 Multiplicity = 1

 SCF Done:  E(RHF) =  -266.800683379     A.U. after   13 cycles
 Normal termination of Gaussian 16 at Wed Apr  9 03:04:06 2025.
 Gaussian 16:  ES64L-G16RevC.01  3-Jul-2019

 ----------------------------------------------------------------------
 #t hf aug-cc-pvdz iop(5/13=1,5/36=2,99/5=2) pseudo=read geom=check gue
 ss=(read,tcheck) scf=(maxcycle=1)
 ----------------------------------------------------------------------
 -----
 title
 -----
 Structure from the checkpoint file:  "Grambow2020_b97d3_006471_forward_mol2.chk"
 Charge =  0 Multiplicity = 1

                         Standard orientation:
 ---------------------------------------------------------------------
 Center     Atomic      Atomic             Coordinates (Angstroms)
 Number     Number       Type             X           Y           Z
 ---------------------------------------------------------------------
      1          8           0        1.516653   -0.723382   -0.065855
      2          6           0        1.089147    0.627015   -0.079214
      3          6           0       -0.427110    0.730710   -0.020941
      4          6           0       -1.282609   -0.303285   -0.621244
      5          8           0       -1.048251   -0.277666    0.806851
      6          1           0        0.951452   -1.152462    0.610800
      7          1           0        1.514377    1.200572    0.767932
      8          1           0        1.459913    1.080930   -1.009533
      9          1           0       -0.834621    1.739660    0.108811
     10          1           0       -0.813112   -1.135414   -1.150818
     11          1           0       -2.301797   -0.051539   -0.926761
 ---------------------------------------------------------------------

 SCF Done:  E(RHF) =  -267.985912848     A.U. after    2 cycles

 The electronic state is 1-A.
 Alpha  occ. eigenvalues --  -21.06871 -21.06619 -11.49231 -11.44123 -11.40986
 Alpha  occ. eigenvalues --   -1.78909  -1.69471  -1.07352  -0.96393  -0.84303
 Alpha  occ. eigenvalues --   -0.71460  -0.65875  -0.60600  -0.55472  -0.54212
 Alpha  occ. eigenvalues --   -0.44537  -0.41442  -0.37745  -0.33150  -0.31444
 Alpha virt. eigenvalues --    0.03855   0.05229   0.05563   0.05763   0.06500
 Alpha virt. eigenvalues --    0.07444   0.10071   0.10957   0.12350   0.13592
 Alpha virt. eigenvalues --    0.14244   0.15208   0.15936   0.17115   0.18006

 Mulliken charges:
               1
     1  O   -2.551012
     2  C   -1.111806
     3  C   -0.053403
     4  C   -1.652157
     5  O   -2.399612
     6  H    0.884777
     7  H    1.210427
     8  H    1.393738
     9  H    1.393955
    10  H    1.479860
    11  H    1.405233
 Sum of Mulliken charges =  -0.00000

 Dipole moment (field-independent basis, Debye):
    X=             -0.6000    Y=              0.4721    Z=             -0.0874  Tot=              0.7685

 Test job not archived.
 1\1\GINC-SE188\SP\RHF\Aug-CC-pVDZ\C3H6O2\OHZDE\09-Apr-2025\0\\#t hf au
 g-cc-pvdz iop(5/13=1,5/36=2,99/5=2) pseudo=read geom=check guess=(read
 ,tcheck) scf=(maxcycle=1)\\title\\0,1\O,0,-1.69353533,-0.39715418,-0.3
 2503411\C,0,-0.93623126,0.75443962,0.00182384\C,0,0.55426265,0.4524191
 6,0.02173147\C,0,1.0550791,-0.87462441,0.40841739\O,0,0.96960136,-0.49
 615137,-0.98603108\H,0,-1.19710084,-0.8163765,-1.0593563\H,0,-1.118592
 95,1.58185953,-0.71201464\H,0,-1.26294937,1.0926152,0.99575106\H,0,1.2
 1786683,1.31737981,0.13288425\H,0,0.34000633,-1.63783912,0.72383684\H,

 Normal termination of Gaussian 16 at Wed Apr  9 03:04:09 2025.
