 Gaussian 16, Revision C.01,

 ----------------------------------------------------------------------
 #t hf aug-cc-pvdz symm=none int=(grid=ultrafine) guess=(read,tcheck) s
 table=(opt,rrhf)
 ----------------------------------------------------------------------
 -----
 title
 -----
 Symbolic Z-matrix:
 Charge =  0 Multiplicity = 1

 SCF Done:  E(RHF) =  -245.672828905     A.U. after   15 cycles
 Normal termination of Gaussian 16 at Wed Apr  9 17:41:26 2025.
 Gaussian 16:  ES64L-G16RevC.01  3-Jul-2019

 ----------------------------------------------------------------------
 #t hf aug-cc-pvdz iop(5/13=1,5/36=2,99/5=2) pseudo=read geom=check gue
 ss=(read,tcheck) scf=(maxcycle=1)
 ----------------------------------------------------------------------
 -----
 title
 -----
 Structure from the checkpoint file:  "Grambow2020_wb97xd3_006116_forward_mol1.chk"
 Charge =  0 Multiplicity = 1

                         Standard orientation:
 ---------------------------------------------------------------------
 Center     Atomic      Atomic             Coordinates (Angstroms)
 Number     Number       Type             X           Y           Z
 ---------------------------------------------------------------------
      1          6           0        0.567271    0.993167   -0.147945
      2          6           0        1.100965   -0.402014   -0.249394
      3          7           0       -0.036510   -1.227538   -0.166842
      4          6           0       -1.041712   -0.455054    0.049640
      5          8           0       -0.844420    0.845088    0.179489
      6          1           0        1.046145    1.655290    0.566600
      7          1           0        0.602024    1.440427   -1.145527
      8          1           0        1.998252   -0.713656    0.739278
      9          1           0        1.675602   -0.580847    1.517110
     10          1           0       -2.070230   -0.785749    0.140717
 ---------------------------------------------------------------------

 SCF Done:  E(RHF) =  -246.788054872     A.U. after    2 cycles

 The electronic state is 1-A.
 Alpha  occ. eigenvalues --  -21.11671 -15.73358 -11.48748 -11.46537 -11.40659
 Alpha  occ. eigenvalues --   -1.85971  -1.37782  -1.11843  -0.87711  -0.81964
 Alpha  occ. eigenvalues --   -0.72994  -0.68300  -0.60924  -0.55631  -0.51928
 Alpha  occ. eigenvalues --   -0.47831  -0.39516  -0.36054  -0.29918
 Alpha virt. eigenvalues --    0.03166   0.05247   0.05686   0.05942   0.07467
 Alpha virt. eigenvalues --    0.09710   0.09880   0.10358   0.10518   0.12589
 Alpha virt. eigenvalues --    0.13931   0.14261   0.15503   0.16243   0.17839

 Mulliken charges:
               1
     1  C   -1.398352
     2  C   -0.699036
     3  N   -2.637569
     4  C    2.280932
     5  O   -2.808883
     6  H    1.408843
     7  H    1.401628
     8  H    0.225106
     9  H    0.523685
    10  H    1.703647
 Sum of Mulliken charges =  -0.00000

 Dipole moment (field-independent basis, Debye):
    X=             -1.8881    Y=              2.5743    Z=              0.6578  Tot=              3.2596

 Test job not archived.
 1\1\GINC-SE030\SP\RHF\Aug-CC-pVDZ\C3H5N1O1\OHZDE\09-Apr-2025\0\\#t hf
 aug-cc-pvdz iop(5/13=1,5/36=2,99/5=2) pseudo=read geom=check guess=(re
 ad,tcheck) scf=(maxcycle=1)\\title\\0,1\C,0,-0.63858052,-0.75135168,-0
 .13786984\C,0,-0.60086311,0.71385649,-0.44347057\N,0,0.76927199,1.0295
 3195,-0.51581769\C,0,1.41398021,-0.03873766,-0.20408283\O,0,0.74302039
 ,-1.12670362,0.13102308\H,0,-1.27543855,-1.06957535,0.68154943\H,0,-0.
 92375992,-1.27895148,-1.05259919\H,0,-1.22555068,1.482744,0.50431343\H
 ,0,-0.91667891,1.33998276,1.28596611\H,0,2.49428208,-0.12934841,-0.188

 Normal termination of Gaussian 16 at Wed Apr  9 17:41:29 2025.
