 Gaussian 16, Revision C.01,

 ----------------------------------------------------------------------
 #t hf aug-cc-pvdz symm=none int=(grid=ultrafine) guess=(read,tcheck) s
 table=(opt,rrhf)
 ----------------------------------------------------------------------
 -----
 title
 -----
 Symbolic Z-matrix:
 Charge =  0 Multiplicity = 1

 SCF Done:  E(RHF) =  -304.516952849     A.U. after   17 cycles
 Normal termination of Gaussian 16 at Wed Apr  9 17:03:05 2025.
 Gaussian 16:  ES64L-G16RevC.01  3-Jul-2019

 ----------------------------------------------------------------------
 #t hf aug-cc-pvdz iop(5/13=1,5/36=2,99/5=2) pseudo=read geom=check gue
 ss=(read,tcheck) scf=(maxcycle=1)
 ----------------------------------------------------------------------
 -----
 title
 -----
 Structure from the checkpoint file:  "Grambow2020_b97d3_006918_reverse_mol2.chk"
 Charge =  0 Multiplicity = 1

                         Standard orientation:
 ---------------------------------------------------------------------
 Center     Atomic      Atomic             Coordinates (Angstroms)
 Number     Number       Type             X           Y           Z
 ---------------------------------------------------------------------
      1          8           0       -1.151948   -1.183982   -0.443562
      2          6           0       -0.371780   -0.081579   -0.024508
      3          6           0       -1.225306    1.138669    0.343113
      4          6           0        0.792097    0.334023   -0.952759
      5          8           0        1.709609    0.062866    0.033450
      6          6           0        0.780262   -0.395860    0.937866
      7          1           0       -1.884739   -1.270580    0.196302
      8          1           0       -1.822461    1.440203   -0.528980
      9          1           0       -1.908413    0.892075    1.170098
     10          1           0        0.903538    1.317484   -1.433238
     11          1           0       -0.604979    1.985282    0.664297
     12          1           0        1.004129   -1.367047    1.390142
 ---------------------------------------------------------------------

 SCF Done:  E(RHF) =  -305.894710002     A.U. after    2 cycles

 The electronic state is 1-A.
 Alpha  occ. eigenvalues --  -21.16651 -21.09204 -11.48341 -11.43941 -11.41497
 Alpha  occ. eigenvalues --  -11.39043  -1.86620  -1.72119  -1.15503  -0.98126
 Alpha  occ. eigenvalues --   -0.96318  -0.74673  -0.67694  -0.65380  -0.62938
 Alpha  occ. eigenvalues --   -0.57919  -0.54831  -0.51521  -0.46769  -0.41928
 Alpha  occ. eigenvalues --   -0.38851  -0.33480  -0.27005
 Alpha virt. eigenvalues --    0.03407   0.05129   0.05173   0.06142   0.06277
 Alpha virt. eigenvalues --    0.06810   0.08406   0.09973   0.10728   0.12178
 Alpha virt. eigenvalues --    0.12612   0.13504   0.14812   0.15198   0.15663

 Mulliken charges:
               1
     1  O   -3.420543
     2  C    2.989814
     3  C   -3.791971
     4  C   -0.375898
     5  O   -2.401355
     6  C   -0.241747
     7  H    0.730658
     8  H    1.200204
     9  H    1.166664
    10  H    1.418719
    11  H    1.288005
    12  H    1.437448
 Sum of Mulliken charges =   0.00000

 Dipole moment (field-independent basis, Debye):
    X=             -0.5882    Y=              0.3852    Z=              0.4199  Tot=              0.8189

 Test job not archived.
 1\1\GINC-SE454\SP\RHF\Aug-CC-pVDZ\C4H6O2\OHZDE\09-Apr-2025\0\\#t hf au
 g-cc-pvdz iop(5/13=1,5/36=2,99/5=2) pseudo=read geom=check guess=(read
 ,tcheck) scf=(maxcycle=1)\\title\\0,1\O,0,0.03976264,-1.32778501,-1.11
 399658\C,0,0.06549434,-0.18937546,-0.27559192\C,0,-0.86239898,-0.32986
 921,0.9376403\C,0,-0.14710933,1.17917413,-0.9617812\O,0,1.10404346,1.5
 9600387,-0.57599332\C,0,1.44938177,0.40363309,0.01652479\H,0,0.1060978
 7,-2.10886511,-0.53139826\H,0,-1.89294678,-0.48894222,0.59017701\H,0,-
 0.56035716,-1.19166645,1.55198847\H,0,-0.96131132,1.88438684,-0.737669

 Normal termination of Gaussian 16 at Wed Apr  9 17:03:09 2025.
