 Gaussian 16, Revision C.01,

 ----------------------------------------------------------------------
 #t hf aug-cc-pvdz symm=none int=(grid=ultrafine) guess=(read,tcheck) s
 table=(opt,rrhf)
 ----------------------------------------------------------------------
 -----
 title
 -----
 Symbolic Z-matrix:
 Charge =  0 Multiplicity = 1

 SCF Done:  E(RHF) =  -286.726902355     A.U. after   16 cycles
 Normal termination of Gaussian 16 at Wed Apr  9 18:42:56 2025.
 Gaussian 16:  ES64L-G16RevC.01  3-Jul-2019

 ----------------------------------------------------------------------
 #t hf aug-cc-pvdz iop(5/13=1,5/36=2,99/5=2) pseudo=read geom=check gue
 ss=(read,tcheck) scf=(maxcycle=1)
 ----------------------------------------------------------------------
 -----
 title
 -----
 Structure from the checkpoint file:  "Grambow2020_wb97xd3_007562_reverse_mol2.chk"
 Charge =  0 Multiplicity = 1

                         Standard orientation:
 ---------------------------------------------------------------------
 Center     Atomic      Atomic             Coordinates (Angstroms)
 Number     Number       Type             X           Y           Z
 ---------------------------------------------------------------------
      1          6           0       -2.464065   -0.971176   -0.279439
      2          6           0        0.239376    0.972964   -0.468163
      3          6           0        0.898902   -0.256995    0.005813
      4          6           0        2.358146   -0.247961    0.030364
      5          6           0        3.553401   -0.250871    0.084263
      6          6           0       -1.168444    1.075720   -0.054482
      7          7           0       -1.848297   -0.016292    0.624635
      8          1           0       -1.697479   -1.507567   -0.843324
      9          1           0       -3.148267   -0.509993   -1.007406
     10          1           0       -3.020038   -1.713928    0.292943
     11          1           0        0.557968   -0.954844   -0.784884
     12          1           0        0.472902   -0.672079    0.928847
     13          1           0        4.616646   -0.241719    0.125993
     14          1           0       -1.056386    1.932186    0.635856
     15          1           0       -1.748250    1.502853   -0.889857
     16          1           0       -2.542917    0.349047    1.259252
 ---------------------------------------------------------------------

 SCF Done:  E(RHF) =  -288.109896822     A.U. after    2 cycles

 The electronic state is 1-A.
 Alpha  occ. eigenvalues --  -15.72846 -11.46291 -11.43203 -11.40380 -11.39482
 Alpha  occ. eigenvalues --  -11.39210 -11.38229  -1.40523  -1.22063  -1.08983
 Alpha  occ. eigenvalues --   -1.01334  -0.93663  -0.77423  -0.71253  -0.68418
 Alpha  occ. eigenvalues --   -0.64671  -0.60557  -0.59461  -0.59225  -0.52717
 Alpha  occ. eigenvalues --   -0.51545  -0.48871  -0.36934  -0.35922  -0.34095
 Alpha  occ. eigenvalues --   -0.31566
 Alpha virt. eigenvalues --    0.03232   0.04849   0.04997   0.05455   0.05722
 Alpha virt. eigenvalues --    0.06499   0.07028   0.07850   0.08117   0.08816
 Alpha virt. eigenvalues --    0.10260   0.11510   0.12047   0.12858   0.13215

 Mulliken charges:
               1
     1  C   -3.568587
     2  C   -0.402288
     3  C   -3.526588
     4  C    4.154375
     5  C   -4.005581
     6  C   -1.547013
     7  N   -2.448927
     8  H    1.501298
     9  H    1.274642
    10  H    1.265407
    11  H    1.604784
    12  H    1.459383
    13  H    0.687093
    14  H    1.386089
    15  H    1.513046
    16  H    0.652865
 Sum of Mulliken charges =  -0.00000

 Dipole moment (field-independent basis, Debye):
    X=             -2.7472    Y=             -0.9310    Z=              1.0732  Tot=              3.0928

 Test job not archived.
 1\1\GINC-SE115\SP\RHF\Aug-CC-pVDZ\C6H9N1\OHZDE\09-Apr-2025\0\\#t hf au
 g-cc-pvdz iop(5/13=1,5/36=2,99/5=2) pseudo=read geom=check guess=(read
 ,tcheck) scf=(maxcycle=1)\\title\\0,1\C,0,-1.98446686,0.94108012,-0.41
 684503\C,0,0.84169595,0.21129441,1.19688131\C,0,1.15613232,-0.44698075
 ,-0.08383332\C,0,2.51567285,-0.95383549,-0.24139838\C,0,3.61688744,-1.
 40081293,-0.37954798\C,0,-0.60084184,0.28697109,1.47438397\N,0,-1.5918
 7891,-0.12177647,0.49119375\H,0,-1.14469704,1.22227909,-1.05641477\H,0
 ,-2.33007999,1.85184482,0.09483542\H,0,-2.78258099,0.58984898,-1.07110

 Normal termination of Gaussian 16 at Wed Apr  9 18:43:01 2025.
