 Gaussian 16, Revision C.01,

 ----------------------------------------------------------------------
 #t hf aug-cc-pvdz symm=none int=(grid=ultrafine) guess=(read,tcheck) s
 table=(opt,rrhf)
 ----------------------------------------------------------------------
 -----
 title
 -----
 Symbolic Z-matrix:
 Charge =  0 Multiplicity = 1

 SCF Done:  E(RHF) =  -306.624543684     A.U. after   16 cycles
 Normal termination of Gaussian 16 at Wed Apr  9 18:35:27 2025.
 Gaussian 16:  ES64L-G16RevC.01  3-Jul-2019

 ----------------------------------------------------------------------
 #t hf aug-cc-pvdz iop(5/13=1,5/36=2,99/5=2) pseudo=read geom=check gue
 ss=(read,tcheck) scf=(maxcycle=1)
 ----------------------------------------------------------------------
 -----
 title
 -----
 Structure from the checkpoint file:  "Grambow2020_wb97xd3_007302_forward_mol1.chk"
 Charge =  0 Multiplicity = 1

                         Standard orientation:
 ---------------------------------------------------------------------
 Center     Atomic      Atomic             Coordinates (Angstroms)
 Number     Number       Type             X           Y           Z
 ---------------------------------------------------------------------
      1          6           0        2.549305   -0.166087    0.378825
      2          6           0        1.214440    0.548791    0.491359
      3          6           0        0.145376   -0.036528   -0.382605
      4          8           0        0.256674   -0.960579   -1.116849
      5          6           0       -1.193517    1.421131   -0.689207
      6          6           0       -1.450018    0.391931   -0.007077
      7          6           0       -2.203861   -0.623204    0.756845
      8          1           0        2.457795   -1.219135    0.646645
      9          1           0        3.280163    0.294592    1.044133
     10          1           0        2.935419   -0.117523   -0.639333
     11          1           0        1.280058    1.608272    0.228536
     12          1           0        0.828850    0.537083    1.516267
     13          1           0       -2.264058   -1.553885    0.192362
     14          1           0       -1.730477   -0.828203    1.718948
     15          1           0       -3.211491   -0.252782    0.938388
 ---------------------------------------------------------------------

 SCF Done:  E(RHF) =  -308.072863798     A.U. after    2 cycles

 The electronic state is 1-A.
 Alpha  occ. eigenvalues --  -21.08987 -11.54640 -11.44397 -11.43053 -11.40606
 Alpha  occ. eigenvalues --  -11.40105 -11.37743  -1.75121  -1.25946  -1.17562
 Alpha  occ. eigenvalues --   -1.04488  -0.95013  -0.75099  -0.68880  -0.65244
 Alpha  occ. eigenvalues --   -0.63261  -0.60908  -0.58622  -0.55265  -0.51956
 Alpha  occ. eigenvalues --   -0.51666  -0.48378  -0.45227  -0.42127  -0.36707
 Alpha  occ. eigenvalues --   -0.30516
 Alpha virt. eigenvalues --    0.02805   0.04631   0.05417   0.05646   0.05830
 Alpha virt. eigenvalues --    0.06615   0.07386   0.07709   0.08895   0.10834
 Alpha virt. eigenvalues --    0.11218   0.11329   0.12064   0.12907   0.13321

 Mulliken charges:
               1
     1  C   -3.717167
     2  C   -3.462772
     3  C    4.189898
     4  O   -3.439341
     5  C   -2.378072
     6  C    3.338308
     7  C   -5.212055
     8  H    1.294097
     9  H    1.092512
    10  H    1.265652
    11  H    1.575378
    12  H    1.593522
    13  H    1.277121
    14  H    1.333845
    15  H    1.249071
 Sum of Mulliken charges =   0.00000

 Dipole moment (field-independent basis, Debye):
    X=              0.5349    Y=             -2.5521    Z=              2.2899  Tot=              3.4703

 Test job not archived.
 1\1\GINC-SE362\SP\RHF\Aug-CC-pVDZ\C6H8O1\OHZDE\09-Apr-2025\0\\#t hf au
 g-cc-pvdz iop(5/13=1,5/36=2,99/5=2) pseudo=read geom=check guess=(read
 ,tcheck) scf=(maxcycle=1)\\title\\0,1\C,0,-2.28085951,-0.60976692,0.39
 573557\C,0,-1.11362292,0.04221152,-0.32402835\C,0,-0.054047,0.56266428
 ,0.60103247\O,0,-0.05879521,0.51083679,1.7853731\C,0,0.92000559,1.9943
 1193,-0.40545441\C,0,1.45410728,0.89478408,-0.09542013\C,0,2.47847844,
 -0.14952605,0.11057713\H,0,-1.94921571,-1.44941903,1.00729776\H,0,-3.0
 0978733,-0.97854461,-0.3265393\H,0,-2.78118807,0.10010194,1.05440566\H

 Normal termination of Gaussian 16 at Wed Apr  9 18:35:31 2025.
