 Gaussian 16, Revision C.01,

 ----------------------------------------------------------------------
 #t hf aug-cc-pvdz symm=none int=(grid=ultrafine) guess=(read,tcheck) s
 table=(opt,rrhf)
 ----------------------------------------------------------------------
 -----
 title
 -----
 Symbolic Z-matrix:
 Charge =  0 Multiplicity = 1

 SCF Done:  E(RHF) =  -191.801967430     A.U. after   15 cycles
 Normal termination of Gaussian 16 at Wed Apr  9 03:21:19 2025.
 Gaussian 16:  ES64L-G16RevC.01  3-Jul-2019

 ----------------------------------------------------------------------
 #t hf aug-cc-pvdz iop(5/13=1,5/36=2,99/5=2) pseudo=read geom=check gue
 ss=(read,tcheck) scf=(maxcycle=1)
 ----------------------------------------------------------------------
 -----
 title
 -----
 Structure from the checkpoint file:  "Grambow2020_wb97xd3_006095_reverse_mol1.chk"
 Charge =  0 Multiplicity = 1

                         Standard orientation:
 ---------------------------------------------------------------------
 Center     Atomic      Atomic             Coordinates (Angstroms)
 Number     Number       Type             X           Y           Z
 ---------------------------------------------------------------------
      1          6           0        1.708618    0.008830    0.191578
      2          6           0        0.383119   -0.278862   -0.390342
      3          6           0       -1.649716   -0.204551    0.214196
      4          8           0       -0.604009    0.571034   -0.124378
      5          1           0        1.894525    1.086655    0.151172
      6          1           0        2.497536   -0.514975   -0.347857
      7          1           0        1.773044   -0.281521    1.248821
      8          1           0        0.127023   -1.155139   -0.966556
      9          1           0       -2.618967    0.106122   -0.144923
     10          1           0       -1.493214   -0.961915    0.961779
 ---------------------------------------------------------------------

 SCF Done:  E(RHF) =  -192.713160422     A.U. after    2 cycles

 The electronic state is 1-A.
 Alpha  occ. eigenvalues --  -21.14128 -11.45511 -11.39566 -11.38376  -1.84264
 Alpha  occ. eigenvalues --   -1.13183  -0.93375  -0.84471  -0.66505  -0.64244
 Alpha  occ. eigenvalues --   -0.58575  -0.57270  -0.53590  -0.47879  -0.38762
 Alpha  occ. eigenvalues --   -0.24232
 Alpha virt. eigenvalues --    0.03576   0.05468   0.05808   0.06061   0.06545
 Alpha virt. eigenvalues --    0.06584   0.09346   0.10289   0.13115   0.13937
 Alpha virt. eigenvalues --    0.14164   0.14838   0.16459   0.17024   0.17088

 Mulliken charges:
               1
     1  C   -3.503839
     2  C    0.499368
     3  C   -1.797022
     4  O   -3.030373
     5  H    1.225237
     6  H    1.217856
     7  H    1.251265
     8  H    1.463072
     9  H    1.367811
    10  H    1.306626
 Sum of Mulliken charges =  -0.00000

 Dipole moment (field-independent basis, Debye):
    X=              1.1047    Y=              0.2285    Z=              0.0409  Tot=              1.1288

 Test job not archived.
 1\1\GINC-SE184\SP\RHF\Aug-CC-pVDZ\C3H6O1\OHZDE\09-Apr-2025\0\\#t hf au
 g-cc-pvdz iop(5/13=1,5/36=2,99/5=2) pseudo=read geom=check guess=(read
 ,tcheck) scf=(maxcycle=1)\\title\\0,1\C,0,-1.49201093,0.18521913,0.227
 95389\C,0,-0.22693863,-0.25907242,-0.3889278\C,0,1.85224987,-0.1215812
 5,0.01291335\O,0,0.72090228,-0.72646084,0.41768641\H,0,-1.75843905,-0.
 49978295,1.03893394\H,0,-2.29916928,0.21099131,-0.50388197\H,0,-1.4105
 5069,1.18493311,0.67533921\H,0,0.02196362,-0.18189397,-1.43657241\H,0,
 2.74764011,-0.72421604,0.00665183\H,0,1.83968171,0.94851592,-0.0952844

 Normal termination of Gaussian 16 at Wed Apr  9 03:21:22 2025.
