 Gaussian 16, Revision C.01,

 ----------------------------------------------------------------------
 #t hf aug-cc-pvdz symm=none int=(grid=ultrafine) guess=(read,tcheck) s
 table=(opt,rrhf)
 ----------------------------------------------------------------------
 -----
 title
 -----
 Symbolic Z-matrix:
 Charge =  0 Multiplicity = 1

 SCF Done:  E(RHF) =  -338.782104794     A.U. after   14 cycles
 Normal termination of Gaussian 16 at Wed Apr  9 03:59:36 2025.
 Gaussian 16:  ES64L-G16RevC.01  3-Jul-2019

 ----------------------------------------------------------------------
 #t hf aug-cc-pvdz iop(5/13=1,5/36=2,99/5=2) pseudo=read geom=check gue
 ss=(read,tcheck) scf=(maxcycle=1)
 ----------------------------------------------------------------------
 -----
 title
 -----
 Structure from the checkpoint file:  "Grambow2020_wb97xd3_008808_reverse_mol2.chk"
 Charge =  0 Multiplicity = 1

                         Standard orientation:
 ---------------------------------------------------------------------
 Center     Atomic      Atomic             Coordinates (Angstroms)
 Number     Number       Type             X           Y           Z
 ---------------------------------------------------------------------
      1          7           0        1.885588   -0.900839   -0.070137
      2          6           0        0.551486   -0.615564   -0.012004
      3          6           0        0.158793    0.829137   -0.007292
      4          8           0        0.914345    1.777667    0.017799
      5          7           0       -1.197226    0.839094   -0.020180
      6          6           0       -1.770591   -0.485758    0.010282
      7          6           0       -0.553958   -1.366583    0.008555
      8          1           0        2.481283   -0.116590    0.144184
      9          1           0        2.200575   -1.791709    0.266796
     10          1           0       -2.383522   -0.630971    0.906733
     11          1           0       -1.722580    1.692253    0.024549
     12          1           0       -2.407046   -0.664530   -0.863185
     13          1           0       -0.616388   -2.444967    0.013504
 ---------------------------------------------------------------------

 SCF Done:  E(RHF) =  -340.314508798     A.U. after    2 cycles

 The electronic state is 1-A.
 Alpha  occ. eigenvalues --  -21.02314 -15.76209 -15.75940 -11.50165 -11.46455
 Alpha  occ. eigenvalues --  -11.43914 -11.38043  -1.70637  -1.46493  -1.35007
 Alpha  occ. eigenvalues --   -1.12035  -1.01838  -0.85759  -0.77814  -0.69374
 Alpha  occ. eigenvalues --   -0.67006  -0.65457  -0.58710  -0.55465  -0.52734
 Alpha  occ. eigenvalues --   -0.50421  -0.47705  -0.46096  -0.31084  -0.29215
 Alpha  occ. eigenvalues --   -0.28556
 Alpha virt. eigenvalues --    0.03327   0.04941   0.05120   0.05906   0.06255
 Alpha virt. eigenvalues --    0.07793   0.09069   0.11260   0.11530   0.13199
 Alpha virt. eigenvalues --    0.13383   0.13733   0.14352   0.14660   0.14988

 Mulliken charges:
               1
     1  N   -3.638571
     2  C    2.333148
     3  C    4.329301
     4  O   -3.679328
     5  N   -2.660507
     6  C   -2.559455
     7  C   -0.463466
     8  H    0.769976
     9  H    0.604778
    10  H    1.299651
    11  H    0.854694
    12  H    1.292932
    13  H    1.516848
 Sum of Mulliken charges =  -0.00000

 Dipole moment (field-independent basis, Debye):
    X=             -1.1259    Y=             -1.7447    Z=              0.6934  Tot=              2.1892

 Test job not archived.
 1\1\GINC-SE069\SP\RHF\Aug-CC-pVDZ\C4H6N2O1\OHZDE\09-Apr-2025\0\\#t hf
 aug-cc-pvdz iop(5/13=1,5/36=2,99/5=2) pseudo=read geom=check guess=(re
 ad,tcheck) scf=(maxcycle=1)\\title\\0,1\N,0,-1.83926946,0.98515949,-0.
 46741279\C,0,-0.63736878,0.44085224,-0.11562638\C,0,-0.35989044,-0.959
 03474,-0.56807955\O,0,-1.12762251,-1.68621909,-1.16220625\N,0,0.904590
 76,-1.23081042,-0.16030699\C,0,1.50511066,-0.14333063,0.57567728\C,0,0
 .4272275,0.90234706,0.5477857\H,0,-2.51755876,0.309685,-0.78283505\H,0
 ,-2.20180266,1.74245529,0.08164289\H,0,1.75705348,-0.44867669,1.597285

 Normal termination of Gaussian 16 at Wed Apr  9 03:59:40 2025.
