 Gaussian 16, Revision C.01,

 ----------------------------------------------------------------------
 #t hf aug-cc-pvdz symm=none int=(grid=ultrafine) guess=(read,tcheck) s
 table=(opt,rrhf)
 ----------------------------------------------------------------------
 -----
 title
 -----
 Symbolic Z-matrix:
 Charge =  0 Multiplicity = 1

 SCF Done:  E(RHF) =  -245.701635354     A.U. after   16 cycles
 Normal termination of Gaussian 16 at Wed Apr  9 03:21:51 2025.
 Gaussian 16:  ES64L-G16RevC.01  3-Jul-2019

 ----------------------------------------------------------------------
 #t hf aug-cc-pvdz iop(5/13=1,5/36=2,99/5=2) pseudo=read geom=check gue
 ss=(read,tcheck) scf=(maxcycle=1)
 ----------------------------------------------------------------------
 -----
 title
 -----
 Structure from the checkpoint file:  "Grambow2020_wb97xd3_006113_forward_mol1.chk"
 Charge =  0 Multiplicity = 1

                         Standard orientation:
 ---------------------------------------------------------------------
 Center     Atomic      Atomic             Coordinates (Angstroms)
 Number     Number       Type             X           Y           Z
 ---------------------------------------------------------------------
      1          6           0       -1.490929    0.018475    0.547640
      2          6           0        2.054263   -0.525302    0.080425
      3          7           0        1.155570    0.341382   -0.074731
      4          6           0        0.080263    0.937998   -0.141658
      5          8           0       -1.692512   -0.642053   -0.480422
      6          1           0       -1.006982   -0.435024    1.433497
      7          1           0       -2.113046    0.896824    0.794236
      8          1           0        3.030231   -0.230588    0.446126
      9          1           0        1.841740   -1.558064   -0.176510
     10          1           0       -0.162419    1.486578   -1.049301
 ---------------------------------------------------------------------

 SCF Done:  E(RHF) =  -246.819316020     A.U. after    2 cycles

 The electronic state is 1-A.
 Alpha  occ. eigenvalues --  -20.99916 -15.83831 -11.47442 -11.44372 -11.43451
 Alpha  occ. eigenvalues --   -1.65518  -1.45774  -1.08121  -0.89450  -0.79151
 Alpha  occ. eigenvalues --   -0.69480  -0.68446  -0.61867  -0.58599  -0.49425
 Alpha  occ. eigenvalues --   -0.46713  -0.40846  -0.27208  -0.25879
 Alpha virt. eigenvalues --    0.02815   0.05070   0.05605   0.06275   0.06643
 Alpha virt. eigenvalues --    0.08310   0.09963   0.10648   0.12057   0.12674
 Alpha virt. eigenvalues --    0.13774   0.14333   0.15337   0.16570   0.16938

 Mulliken charges:
               1
     1  C   -0.712874
     2  C   -1.390883
     3  N   -2.590647
     4  C   -0.314785
     5  O   -2.128688
     6  H    1.299022
     7  H    1.319324
     8  H    1.422857
     9  H    1.446999
    10  H    1.649675
 Sum of Mulliken charges =  -0.00000

 Dipole moment (field-independent basis, Debye):
    X=              2.8900    Y=              0.2859    Z=              0.2233  Tot=              2.9126

 Test job not archived.
 1\1\GINC-SE058\SP\RHF\Aug-CC-pVDZ\C3H5N1O1\OHZDE\09-Apr-2025\0\\#t hf
 aug-cc-pvdz iop(5/13=1,5/36=2,99/5=2) pseudo=read geom=check guess=(re
 ad,tcheck) scf=(maxcycle=1)\\title\\0,1\C,0,-0.04675095,-1.69126423,-0
 .19357551\C,0,-0.52245756,1.80590893,0.59753573\N,0,0.10821853,1.04210
 754,-0.17817051\C,0,0.59713496,0.06215248,-0.74151989\O,0,0.69542232,-
 1.77803226,0.79409617\H,0,-1.11365893,-1.41809692,-0.08543114\H,0,0.16
 633406,-2.25285206,-1.12015521\H,0,-0.94560914,2.72852695,0.21961322\H
 ,0,-0.61468799,1.53596484,1.6446278\H,0,1.6697407,0.03886072,-0.922144

 Normal termination of Gaussian 16 at Wed Apr  9 03:21:54 2025.
