 Gaussian 16, Revision C.01,

 ----------------------------------------------------------------------
 #t hf aug-cc-pvdz symm=none int=(grid=ultrafine) guess=(read,tcheck) s
 table=(opt,rrhf)
 ----------------------------------------------------------------------
 -----
 title
 -----
 Symbolic Z-matrix:
 Charge =  0 Multiplicity = 1

 SCF Done:  E(RHF) =  -307.911717139     A.U. after   14 cycles

 1\1\GINC-SE100\Stability\RHF\Aug-CC-pVDZ\C6H10O1\OHZDE\09-Apr-2025\0\\
 #t hf aug-cc-pvdz symm=none int=(grid=ultrafine) guess=(read,tcheck) s
 table=(opt,rrhf)\\title\\0,1\C,0,-2.24206405,0.24418059,0.34736277\C,0
 ,-0.74469139,0.14069466,0.52590906\C,0,-0.10040702,-0.93938485,-0.3316
 709\C,0,1.40448088,-0.98655544,-0.08269019\C,0,1.94497347,0.41211573,-
 0.0205993\C,0,1.14616834,1.46854637,0.08195908\O,0,-0.20090018,1.42571
 222,0.21311556\H,0,-2.72594474,-0.68076441,0.6653861\H,0,-2.48841846,0
 .42518169,-0.70069167\H,0,-2.6417951,1.06666041,0.94110267\H,0,-0.5078

 Normal termination of Gaussian 16 at Wed Apr  9 19:29:22 2025.
 Gaussian 16:  ES64L-G16RevC.01  3-Jul-2019

 ----------------------------------------------------------------------
 #t hf aug-cc-pvdz iop(5/13=1,5/36=2,99/5=2) pseudo=read geom=check gue
 ss=(read,tcheck) scf=(maxcycle=1)
 ----------------------------------------------------------------------
 -----
 title
 -----
 Structure from the checkpoint file:  "Grambow2020_wb97xd3_009028_reverse_mol2.chk"
 Charge =  0 Multiplicity = 1

                         Standard orientation:
 ---------------------------------------------------------------------
 Center     Atomic      Atomic             Coordinates (Angstroms)
 Number     Number       Type             X           Y           Z
 ---------------------------------------------------------------------
      1          6           0        2.358949    0.035829   -0.015287
      2          6           0        0.888269    0.052890    0.333314
      3          6           0        0.124500    1.209156   -0.296624
      4          6           0       -1.344355    1.160836    0.114515
      5          6           0       -1.837112   -0.254921    0.043165
      6          6           0       -1.003932   -1.281732   -0.083810
      7          8           0        0.347751   -1.200964   -0.091550
      8          1           0        2.850142    0.929905    0.372219
      9          1           0        2.492667    0.005070   -1.098358
     10          1           0        2.843701   -0.840595    0.415622
     11          1           0        0.764193    0.102489    1.424503
     12          1           0        0.212888    1.126119   -1.384343
     13          1           0        0.588291    2.153333   -0.002820
     14          1           0       -1.471350    1.564284    1.125035
     15          1           0       -2.900105   -0.458116    0.053600
     16          1           0       -1.339341   -2.305164   -0.201138
     17          1           0       -1.941018    1.798051   -0.543556
 ---------------------------------------------------------------------

 SCF Done:  E(RHF) =  -309.386950514     A.U. after    2 cycles

 The electronic state is 1-A.
 Alpha  occ. eigenvalues --  -21.05740 -11.45765 -11.44623 -11.42397 -11.39220
 Alpha  occ. eigenvalues --  -11.36778 -11.35100  -1.78528  -1.23721  -1.16072
 Alpha  occ. eigenvalues --   -1.01798  -0.91526  -0.86219  -0.74228  -0.68836
 Alpha  occ. eigenvalues --   -0.62869  -0.60718  -0.58682  -0.54740  -0.52248
 Alpha  occ. eigenvalues --   -0.50798  -0.50109  -0.48567  -0.43161  -0.41192
 Alpha  occ. eigenvalues --   -0.36158  -0.25820
 Alpha virt. eigenvalues --    0.03988   0.05008   0.05248   0.05531   0.05801
 Alpha virt. eigenvalues --    0.05978   0.06487   0.06643   0.08155   0.09255
 Alpha virt. eigenvalues --    0.10915   0.12083   0.13323   0.13637   0.14452

 Mulliken charges:
               1
     1  C   -4.155873
     2  C    0.472900
     3  C   -2.895501
     4  C   -3.255700
     5  C   -0.742569
     6  C    0.739311
     7  O   -4.117236
     8  H    1.227027
     9  H    1.249470
    10  H    1.192529
    11  H    1.931665
    12  H    1.407454
    13  H    1.364323
    14  H    1.270010
    15  H    1.390698
    16  H    1.704033
    17  H    1.217458
 Sum of Mulliken charges =   0.00000

 Dipole moment (field-independent basis, Debye):
    X=              0.4769    Y=              0.5053    Z=              0.1165  Tot=              0.7046

 Test job not archived.
 1\1\GINC-SE100\SP\RHF\Aug-CC-pVDZ\C6H10O1\OHZDE\09-Apr-2025\0\\#t hf a
 ug-cc-pvdz iop(5/13=1,5/36=2,99/5=2) pseudo=read geom=check guess=(rea
 d,tcheck) scf=(maxcycle=1)\\title\\0,1\C,0,-2.24206405,0.24418059,0.34
 736277\C,0,-0.74469139,0.14069466,0.52590906\C,0,-0.10040702,-0.939384
 85,-0.3316709\C,0,1.40448088,-0.98655544,-0.08269019\C,0,1.94497347,0.
 41211573,-0.0205993\C,0,1.14616834,1.46854637,0.08195908\O,0,-0.200900
 18,1.42571222,0.21311556\H,0,-2.72594474,-0.68076441,0.6653861\H,0,-2.
 48841846,0.42518169,-0.70069167\H,0,-2.6417951,1.06666041,0.94110267\H

 Normal termination of Gaussian 16 at Wed Apr  9 19:29:28 2025.
