 Gaussian 16, Revision C.01,

 ----------------------------------------------------------------------
 #t hf aug-cc-pvdz symm=none int=(grid=ultrafine) guess=(read,tcheck) s
 table=(opt,rrhf)
 ----------------------------------------------------------------------
 -----
 title
 -----
 Symbolic Z-matrix:
 Charge =  0 Multiplicity = 1

 SCF Done:  E(RHF) =  -360.766114260     A.U. after   17 cycles
 Normal termination of Gaussian 16 at Wed Apr  9 19:20:15 2025.
 Gaussian 16:  ES64L-G16RevC.01  3-Jul-2019

 ----------------------------------------------------------------------
 #t hf aug-cc-pvdz iop(5/13=1,5/36=2,99/5=2) pseudo=read geom=check gue
 ss=(read,tcheck) scf=(maxcycle=1)
 ----------------------------------------------------------------------
 -----
 title
 -----
 Structure from the checkpoint file:  "Grambow2020_wb97xd3_008629_reverse_mol1.chk"
 Charge =  0 Multiplicity = 1

                         Standard orientation:
 ---------------------------------------------------------------------
 Center     Atomic      Atomic             Coordinates (Angstroms)
 Number     Number       Type             X           Y           Z
 ---------------------------------------------------------------------
      1          6           0       -1.156253   -1.410359   -0.355769
      2          6           0       -2.077357   -0.409045   -0.067446
      3          6           0       -1.072361    1.295772    0.228873
      4          8           0        0.027011    1.298969   -0.395798
      5          6           0        1.089342   -0.240099    0.139392
      6          8           0        1.129254   -0.371809    1.330472
      7          7           0        2.150518   -0.179231   -0.718982
      8          1           0       -0.814806   -2.074219    0.430655
      9          1           0       -1.071154   -1.795643   -1.367260
     10          1           0        0.111432   -0.706812   -0.439943
     11          1           0       -2.718582   -0.083277   -0.876525
     12          1           0       -2.536984   -0.416099    0.913141
     13          1           0       -1.896067    1.864455   -0.207841
     14          1           0       -1.044205    1.264047    1.324886
     15          1           0        3.012421    0.114029   -0.286024
     16          1           0        1.953964    0.253243   -1.605905
 ---------------------------------------------------------------------

 SCF Done:  E(RHF) =  -362.454505445     A.U. after    2 cycles

 The electronic state is 1-A.
 Alpha  occ. eigenvalues --  -21.02835 -21.02210 -15.76588 -11.51998 -11.47791
 Alpha  occ. eigenvalues --  -11.44581 -11.39130  -1.72732  -1.67118  -1.33514
 Alpha  occ. eigenvalues --   -1.18639  -0.95636  -0.84890  -0.83021  -0.71409
 Alpha  occ. eigenvalues --   -0.67841  -0.64510  -0.63439  -0.58475  -0.56061
 Alpha  occ. eigenvalues --   -0.52124  -0.50727  -0.48459  -0.42018  -0.35775
 Alpha  occ. eigenvalues --   -0.32193  -0.26841  -0.26582
 Alpha virt. eigenvalues --    0.03819   0.04610   0.04880   0.05567   0.05690
 Alpha virt. eigenvalues --    0.06075   0.07040   0.07995   0.09129   0.10760
 Alpha virt. eigenvalues --    0.11873   0.12661   0.13457   0.13952   0.14762

 Mulliken charges:
               1
     1  C   -3.914642
     2  C   -2.767389
     3  C   -1.022636
     4  O   -2.473183
     5  C    3.874463
     6  O   -3.138072
     7  N   -3.012465
     8  H    0.994320
     9  H    0.855373
    10  H    4.090254
    11  H    1.302911
    12  H    1.370118
    13  H    1.216874
    14  H    1.382960
    15  H    0.596608
    16  H    0.644507
 Sum of Mulliken charges =  -0.00000

 Dipole moment (field-independent basis, Debye):
    X=             -0.3069    Y=              0.2202    Z=             -1.5556  Tot=              1.6008

 Test job not archived.
 1\1\GINC-SE135\SP\RHF\Aug-CC-pVDZ\C4H9N1O2\OHZDE\09-Apr-2025\0\\#t hf
 aug-cc-pvdz iop(5/13=1,5/36=2,99/5=2) pseudo=read geom=check guess=(re
 ad,tcheck) scf=(maxcycle=1)\\title\\0,1\C,0,-1.2310325,-0.15353317,-1.
 0031023\C,0,-1.56801029,0.71515682,0.02937888\C,0,0.04544565,0.9633105
 6,1.18670436\O,0,1.1139836,0.78284802,0.53516466\C,0,1.09866093,-0.987
 07659,-0.27158072\O,0,0.77470941,-1.83833689,0.50817766\N,0,2.22138908
 ,-0.96651341,-1.04982493\H,0,-1.47068113,-1.20800146,-0.92295338\H,0,-
 1.10495131,0.22532421,-2.01274175\H,0,0.19452456,-0.36903824,-0.828648

 Normal termination of Gaussian 16 at Wed Apr  9 19:20:20 2025.
