 Gaussian 16, Revision C.01,

 ----------------------------------------------------------------------
 #t hf aug-cc-pvdz symm=none int=(grid=ultrafine) guess=(read,tcheck) s
 table=(opt,rrhf)
 ----------------------------------------------------------------------
 -----
 title
 -----
 Symbolic Z-matrix:
 Charge =  0 Multiplicity = 1

 SCF Done:  E(RHF) =  -381.741695653     A.U. after   14 cycles

 1\1\GINC-SE045\Stability\RHF\Aug-CC-pVDZ\C4H10O3\OHZDE\09-Apr-2025\0\\
 #t hf aug-cc-pvdz symm=none int=(grid=ultrafine) guess=(read,tcheck) s
 table=(opt,rrhf)\\title\\0,1\C,0,2.66472236,0.51564477,-0.21100811\O,0
 ,1.53702012,-0.09682144,0.36365207\C,0,0.36287024,0.08956393,-0.391092
 38\C,0,-0.77432324,-0.46978984,0.43619469\O,0,-0.84341994,0.15233879,1
 .69627449\C,0,-2.13341285,-0.19015842,-0.20997594\O,0,-2.30411673,0.85
 042779,-1.0017687\H,0,3.50723929,0.33760667,0.45535856\H,0,2.51555001,
 1.59612231,-0.32484384\H,0,2.89076195,0.08758609,-1.19522858\H,0,0.179

 Normal termination of Gaussian 16 at Wed Apr  9 19:25:17 2025.
 Gaussian 16:  ES64L-G16RevC.01  3-Jul-2019

 ----------------------------------------------------------------------
 #t hf aug-cc-pvdz iop(5/13=1,5/36=2,99/5=2) pseudo=read geom=check gue
 ss=(read,tcheck) scf=(maxcycle=1)
 ----------------------------------------------------------------------
 -----
 title
 -----
 Structure from the checkpoint file:  "Grambow2020_wb97xd3_008923_reverse_mol1.chk"
 Charge =  0 Multiplicity = 1

                         Standard orientation:
 ---------------------------------------------------------------------
 Center     Atomic      Atomic             Coordinates (Angstroms)
 Number     Number       Type             X           Y           Z
 ---------------------------------------------------------------------
      1          6           0        2.842455   -0.507168   -0.170054
      2          8           0        1.726312    0.246938    0.233195
      3          6           0        0.516443   -0.468488    0.147233
      4          6           0       -0.590592    0.520252    0.442798
      5          8           0       -0.550187    1.612266   -0.443481
      6          6           0       -1.973558   -0.100624    0.231202
      7          8           0       -2.145631   -1.094070   -0.618711
      8          1           0        3.716485    0.137539   -0.092599
      9          1           0        2.736893   -0.850555   -1.206194
     10          1           0        2.985127   -1.381901    0.476092
     11          1           0        0.370930   -0.885579   -0.855475
     12          1           0        0.495537   -1.296778    0.870514
     13          1           0       -0.506261    0.870271    1.482446
     14          1           0        0.379282    1.820708   -0.582123
     15          1           0       -2.762153    0.664585    0.320015
     16          1           0       -2.158051   -0.638360    1.539742
     17          1           0       -2.270224   -1.224832    0.772481
 ---------------------------------------------------------------------

 SCF Done:  E(RHF) =  -383.471628705     A.U. after    2 cycles

 The electronic state is 1-A.
 Alpha  occ. eigenvalues --  -21.07666 -21.06021 -20.99969 -11.52879 -11.47458
 Alpha  occ. eigenvalues --  -11.41556 -11.41029  -1.79440  -1.72249  -1.67539
 Alpha  occ. eigenvalues --   -1.13729  -1.02407  -0.93996  -0.84675  -0.75617
 Alpha  occ. eigenvalues --   -0.68556  -0.65523  -0.63951  -0.60483  -0.58495
 Alpha  occ. eigenvalues --   -0.55898  -0.50312  -0.47255  -0.41872  -0.40778
 Alpha  occ. eigenvalues --   -0.33460  -0.31929  -0.29859  -0.27345
 Alpha virt. eigenvalues --    0.03513   0.04433   0.04771   0.05431   0.05785
 Alpha virt. eigenvalues --    0.06281   0.06725   0.07834   0.08061   0.09358
 Alpha virt. eigenvalues --    0.11019   0.12037   0.13570   0.14132   0.14442

 Mulliken charges:
               1
     1  C   -3.071781
     2  O   -3.099894
     3  C   -0.476427
     4  C    0.112482
     5  O   -3.189550
     6  C    0.402534
     7  O   -2.611107
     8  H    1.316660
     9  H    1.358939
    10  H    1.313915
    11  H    1.647741
    12  H    1.559851
    13  H    1.735093
    14  H    0.830853
    15  H    1.263934
    16  H   -0.198640
    17  H    1.105398
 Sum of Mulliken charges =   0.00000

 Dipole moment (field-independent basis, Debye):
    X=              1.3760    Y=              0.2902    Z=              0.6725  Tot=              1.5588

 Test job not archived.
 1\1\GINC-SE045\SP\RHF\Aug-CC-pVDZ\C4H10O3\OHZDE\09-Apr-2025\0\\#t hf a
 ug-cc-pvdz iop(5/13=1,5/36=2,99/5=2) pseudo=read geom=check guess=(rea
 d,tcheck) scf=(maxcycle=1)\\title\\0,1\C,0,2.66472236,0.51564477,-0.21
 100811\O,0,1.53702012,-0.09682144,0.36365207\C,0,0.36287024,0.08956393
 ,-0.39109238\C,0,-0.77432324,-0.46978984,0.43619469\O,0,-0.84341994,0.
 15233879,1.69627449\C,0,-2.13341285,-0.19015842,-0.20997594\O,0,-2.304
 11673,0.85042779,-1.0017687\H,0,3.50723929,0.33760667,0.45535856\H,0,2
 .51555001,1.59612231,-0.32484384\H,0,2.89076195,0.08758609,-1.19522858

 Normal termination of Gaussian 16 at Wed Apr  9 19:25:22 2025.
