 Gaussian 16, Revision C.01,

 ----------------------------------------------------------------------
 #t hf aug-cc-pvdz symm=none int=(grid=ultrafine) guess=(read,tcheck) s
 table=(opt,rrhf)
 ----------------------------------------------------------------------
 -----
 title
 -----
 Symbolic Z-matrix:
 Charge =  0 Multiplicity = 1

 SCF Done:  E(RHF) =  -306.694589592     A.U. after   14 cycles
 Normal termination of Gaussian 16 at Wed Apr  9 03:27:21 2025.
 Gaussian 16:  ES64L-G16RevC.01  3-Jul-2019

 ----------------------------------------------------------------------
 #t hf aug-cc-pvdz iop(5/13=1,5/36=2,99/5=2) pseudo=read geom=check gue
 ss=(read,tcheck) scf=(maxcycle=1)
 ----------------------------------------------------------------------
 -----
 title
 -----
 Structure from the checkpoint file:  "Grambow2020_wb97xd3_006668_reverse_mol2.chk"
 Charge =  0 Multiplicity = 1

                         Standard orientation:
 ---------------------------------------------------------------------
 Center     Atomic      Atomic             Coordinates (Angstroms)
 Number     Number       Type             X           Y           Z
 ---------------------------------------------------------------------
      1          6           0       -2.480241   -0.000893   -0.186608
      2          6           0       -0.998659    0.036474   -0.448645
      3          6           0       -0.103673   -0.708787    0.481258
      4          8           0        1.147999   -1.150720    0.005982
      5          6           0        1.867232   -0.034680   -0.302437
      6          6           0        1.256590    1.112740   -0.021904
      7          6           0       -0.099265    0.804862    0.498931
      8          1           0       -2.971081    0.892122   -0.579176
      9          1           0       -2.690009   -0.047268    0.884798
     10          1           0       -2.941246   -0.873931   -0.653761
     11          1           0       -0.698604    0.056711   -1.491149
     12          1           0       -0.508747   -1.343785    1.258318
     13          1           0        2.840819   -0.224928   -0.728869
     14          1           0        1.673268    2.097839   -0.157954
     15          1           0       -0.540306    1.390712    1.296359
 ---------------------------------------------------------------------

 SCF Done:  E(RHF) =  -308.133329503     A.U. after    2 cycles

 The electronic state is 1-A.
 Alpha  occ. eigenvalues --  -21.06996 -11.47165 -11.44702 -11.43237 -11.39959
 Alpha  occ. eigenvalues --  -11.38104 -11.35969  -1.80866  -1.31028  -1.12010
 Alpha  occ. eigenvalues --   -1.04122  -0.85418  -0.82701  -0.78310  -0.71979
 Alpha  occ. eigenvalues --   -0.61345  -0.58983  -0.57367  -0.52822  -0.51889
 Alpha  occ. eigenvalues --   -0.50005  -0.46908  -0.44068  -0.40954  -0.34939
 Alpha  occ. eigenvalues --   -0.24442
 Alpha virt. eigenvalues --    0.03861   0.04878   0.05362   0.05676   0.05957
 Alpha virt. eigenvalues --    0.06110   0.06478   0.07335   0.10682   0.11443
 Alpha virt. eigenvalues --    0.11965   0.12382   0.13430   0.14138   0.14801

 Mulliken charges:
               1
     1  C   -4.628279
     2  C   -0.785702
     3  C    1.668870
     4  O   -4.071428
     5  C    0.236366
     6  C   -1.157109
     7  C   -1.870078
     8  H    1.182031
     9  H    1.223083
    10  H    1.152257
    11  H    1.522616
    12  H    1.494315
    13  H    1.464279
    14  H    1.265188
    15  H    1.303590
 Sum of Mulliken charges =   0.00000

 Dipole moment (field-independent basis, Debye):
    X=             -0.4883    Y=              0.1425    Z=              0.0725  Tot=              0.5138

 Test job not archived.
 1\1\GINC-SE342\SP\RHF\Aug-CC-pVDZ\C6H8O1\OHZDE\09-Apr-2025\0\\#t hf au
 g-cc-pvdz iop(5/13=1,5/36=2,99/5=2) pseudo=read geom=check guess=(read
 ,tcheck) scf=(maxcycle=1)\\title\\0,1\C,0,2.06305765,-0.58908993,-0.07
 774113\C,0,0.71135477,0.01279865,-0.35301542\C,0,-0.03311091,0.6151301
 1,0.78895613\O,0,-0.9814127,1.62355075,0.52121058\C,0,-1.96240065,1.05
 014054,-0.23166829\C,0,-1.80809245,-0.25368797,-0.44232149\C,0,-0.5281
 7634,-0.67866531,0.17865329\H,0,2.29623848,-1.37650307,-0.79754414\H,0
 ,2.10083881,-1.03373035,0.91972152\H,0,2.8499363,0.16621402,-0.1350962

 Normal termination of Gaussian 16 at Wed Apr  9 03:27:25 2025.
