 Gaussian 16, Revision C.01,

 ----------------------------------------------------------------------
 #t hf aug-cc-pvdz symm=none int=(grid=ultrafine) guess=(read,tcheck) s
 table=(opt,rrhf)
 ----------------------------------------------------------------------
 -----
 title
 -----
 Symbolic Z-matrix:
 Charge =  0 Multiplicity = 1

 SCF Done:  E(RHF) =  -360.975472577     A.U. after   13 cycles
 Normal termination of Gaussian 16 at Wed Apr  9 19:19:09 2025.
 Gaussian 16:  ES64L-G16RevC.01  3-Jul-2019

 ----------------------------------------------------------------------
 #t hf aug-cc-pvdz iop(5/13=1,5/36=2,99/5=2) pseudo=read geom=check gue
 ss=(read,tcheck) scf=(maxcycle=1)
 ----------------------------------------------------------------------
 -----
 title
 -----
 Structure from the checkpoint file:  "Grambow2020_wb97xd3_008624_forward_mol2.chk"
 Charge =  0 Multiplicity = 1

                         Standard orientation:
 ---------------------------------------------------------------------
 Center     Atomic      Atomic             Coordinates (Angstroms)
 Number     Number       Type             X           Y           Z
 ---------------------------------------------------------------------
      1          6           0       -3.240619    0.196849    0.004417
      2          6           0       -1.942860   -0.600312    0.000083
      3          6           0       -0.733041    0.307155   -0.004325
      4          8           0        0.434178   -0.519289   -0.003820
      5          6           0        1.609879    0.134533   -0.001984
      6          8           0        1.726792    1.334388    0.005070
      7          7           0        2.640382   -0.749838   -0.029777
      8          1           0       -3.314463    0.840440   -0.875323
      9          1           0       -4.106583   -0.465964    0.002987
     10          1           0       -3.311853    0.835093    0.888227
     11          1           0       -1.895443   -1.250661    0.877678
     12          1           0       -1.902083   -1.251206   -0.877309
     13          1           0       -0.717017    0.950318   -0.887846
     14          1           0       -0.714098    0.954974    0.875729
     15          1           0        3.564740   -0.386954    0.101050
     16          1           0        2.466204   -1.727313    0.104100
 ---------------------------------------------------------------------

 SCF Done:  E(RHF) =  -362.606989960     A.U. after    2 cycles

 The electronic state is 1-A.
 Alpha  occ. eigenvalues --  -21.08230 -21.02500 -15.77796 -11.51615 -11.44663
 Alpha  occ. eigenvalues --  -11.39889 -11.35895  -1.85029  -1.65907  -1.34504
 Alpha  occ. eigenvalues --   -1.19714  -0.99517  -0.86433  -0.80088  -0.71770
 Alpha  occ. eigenvalues --   -0.67502  -0.65797  -0.59552  -0.58947  -0.54630
 Alpha  occ. eigenvalues --   -0.54241  -0.48889  -0.47613  -0.45822  -0.42188
 Alpha  occ. eigenvalues --   -0.35565  -0.31709  -0.29376
 Alpha virt. eigenvalues --    0.03634   0.04528   0.05617   0.05928   0.05971
 Alpha virt. eigenvalues --    0.06320   0.06387   0.08233   0.08690   0.10517
 Alpha virt. eigenvalues --    0.12109   0.13417   0.14111   0.14419   0.14853

 Mulliken charges:
               1
     1  C   -3.646537
     2  C   -3.265870
     3  C   -1.535868
     4  O   -2.927940
     5  C    6.035903
     6  O   -2.833955
     7  N   -2.862439
     8  H    1.268903
     9  H    1.113408
    10  H    1.268147
    11  H    1.413390
    12  H    1.413697
    13  H    1.612520
    14  H    1.624676
    15  H    0.602805
    16  H    0.719159
 Sum of Mulliken charges =  -0.00000

 Dipole moment (field-independent basis, Debye):
    X=             -0.3871    Y=             -2.1092    Z=              0.3394  Tot=              2.1711

 Test job not archived.
 1\1\GINC-SE118\SP\RHF\Aug-CC-pVDZ\C4H9N1O2\OHZDE\09-Apr-2025\0\\#t hf
 aug-cc-pvdz iop(5/13=1,5/36=2,99/5=2) pseudo=read geom=check guess=(re
 ad,tcheck) scf=(maxcycle=1)\\title\\0,1\C,0,-2.66441226,0.08907448,-0.
 14247418\C,0,-1.26721032,0.61234571,-0.44854155\C,0,-0.19742659,-0.311
 99649,0.088424\O,0,1.07464924,0.25009288,-0.24517568\C,0,2.14639413,-0
 .45612391,0.15778848\O,0,2.09292465,-1.50082405,0.75704781\N,0,3.29141
 074,0.1867107,-0.18937431\H,0,-2.82447281,-0.01040701,0.93367185\H,0,-
 3.42825127,0.76435507,-0.52946502\H,0,-2.82873963,-0.89228978,-0.59355

 Normal termination of Gaussian 16 at Wed Apr  9 19:19:14 2025.
