 Gaussian 16, Revision C.01,

 ----------------------------------------------------------------------
 #t hf aug-cc-pvdz symm=none int=(grid=ultrafine) guess=(read,tcheck) s
 table=(opt,rrhf)
 ----------------------------------------------------------------------
 -----
 title
 -----
 Symbolic Z-matrix:
 Charge =  0 Multiplicity = 1

 SCF Done:  E(RHF) =  -305.856337764     A.U. after   13 cycles
 Normal termination of Gaussian 16 at Wed Apr  9 03:05:51 2025.
 Gaussian 16:  ES64L-G16RevC.01  3-Jul-2019

 ----------------------------------------------------------------------
 #t hf aug-cc-pvdz iop(5/13=1,5/36=2,99/5=2) pseudo=read geom=check gue
 ss=(read,tcheck) scf=(maxcycle=1)
 ----------------------------------------------------------------------
 -----
 title
 -----
 Structure from the checkpoint file:  "Grambow2020_b97d3_006509_reverse_mol2.chk"
 Charge =  0 Multiplicity = 1

                         Standard orientation:
 ---------------------------------------------------------------------
 Center     Atomic      Atomic             Coordinates (Angstroms)
 Number     Number       Type             X           Y           Z
 ---------------------------------------------------------------------
      1          6           0       -0.644139    1.547178    0.031345
      2          6           0       -0.506289    0.039658   -0.020013
      3          6           0       -1.773101   -0.717179   -0.365551
      4          8           0        0.257337   -0.555748    1.093363
      5          6           0        0.812537   -0.602113   -0.214113
      6          8           0        2.009783    0.060900   -0.444369
      7          1           0       -1.336401    1.839667    0.833396
      8          1           0        0.314862    2.047937    0.217683
      9          1           0       -1.043036    1.923957   -0.921113
     10          1           0       -1.584986   -1.797881   -0.396258
     11          1           0       -2.160050   -0.400022   -1.344557
     12          1           0       -2.550804   -0.526253    0.388670
     13          1           0        2.015718    0.854847    0.123984
     14          1           0        0.873688   -1.588739   -0.683767
 ---------------------------------------------------------------------

 SCF Done:  E(RHF) =  -307.249124815     A.U. after    2 cycles

 The electronic state is 1-A.
 Alpha  occ. eigenvalues --  -21.08975 -21.05598 -11.54243 -11.44306 -11.40556
 Alpha  occ. eigenvalues --  -11.38029  -1.81772  -1.67686  -1.17187  -1.02954
 Alpha  occ. eigenvalues --   -0.92976  -0.81378  -0.67480  -0.64311  -0.60833
 Alpha  occ. eigenvalues --   -0.56632  -0.55208  -0.54908  -0.49903  -0.47822
 Alpha  occ. eigenvalues --   -0.45163  -0.38356  -0.31833  -0.28389
 Alpha virt. eigenvalues --    0.03522   0.05008   0.05518   0.05722   0.05943
 Alpha virt. eigenvalues --    0.06817   0.07089   0.09037   0.10421   0.12018
 Alpha virt. eigenvalues --    0.13561   0.14316   0.14850   0.15246   0.15794

 Mulliken charges:
               1
     1  C   -4.218984
     2  C    2.915954
     3  C   -4.397253
     4  O   -2.799630
     5  C    1.850257
     6  O   -2.944753
     7  H    1.138822
     8  H    1.311938
     9  H    1.194767
    10  H    1.298824
    11  H    1.229601
    12  H    1.162714
    13  H    0.571040
    14  H    1.686704
 Sum of Mulliken charges =  -0.00000

 Dipole moment (field-independent basis, Debye):
    X=             -0.8319    Y=              0.4485    Z=             -0.0430  Tot=              0.9461

 Test job not archived.
 1\1\GINC-SE097\SP\RHF\Aug-CC-pVDZ\C4H8O2\OHZDE\09-Apr-2025\0\\#t hf au
 g-cc-pvdz iop(5/13=1,5/36=2,99/5=2) pseudo=read geom=check guess=(read
 ,tcheck) scf=(maxcycle=1)\\title\\0,1\C,0,-0.79083735,1.16736276,-0.23
 189384\C,0,0.1919728,0.04232696,0.01837648\C,0,1.13729096,0.25278282,1
 .18417789\O,0,0.8476633,-0.49418901,-1.18970485\C,0,-0.06529466,-1.324
 83796,-0.48513264\O,0,-1.21457785,-1.74347356,-1.14079694\H,0,-0.25562
 13,2.08702174,-0.50727349\H,0,-1.49465105,0.93441662,-1.04155237\H,0,-
 1.37540842,1.36912027,0.67685681\H,0,1.80360508,-0.6105978,1.30602064\

 Normal termination of Gaussian 16 at Wed Apr  9 03:05:55 2025.
