 Gaussian 16, Revision C.01,

 ----------------------------------------------------------------------
 #t hf aug-cc-pvdz symm=none int=(grid=ultrafine) guess=(read,tcheck) s
 table=(opt,rrhf)
 ----------------------------------------------------------------------
 -----
 title
 -----
 Symbolic Z-matrix:
 Charge =  0 Multiplicity = 1

 SCF Done:  E(RHF) =  -321.918304420     A.U. after   13 cycles
 Normal termination of Gaussian 16 at Wed Apr  9 16:01:47 2025.
 Gaussian 16:  ES64L-G16RevC.01  3-Jul-2019

 ----------------------------------------------------------------------
 #t hf aug-cc-pvdz iop(5/13=1,5/36=2,99/5=2) pseudo=read geom=check gue
 ss=(read,tcheck) scf=(maxcycle=1)
 ----------------------------------------------------------------------
 -----
 title
 -----
 Structure from the checkpoint file:  "Grambow2020_b97d3_006702_forward_mol2.chk"
 Charge =  0 Multiplicity = 1

                         Standard orientation:
 ---------------------------------------------------------------------
 Center     Atomic      Atomic             Coordinates (Angstroms)
 Number     Number       Type             X           Y           Z
 ---------------------------------------------------------------------
      1          6           0        2.440908   -0.008231    0.041464
      2          7           0        1.131016   -0.622580   -0.069358
      3          6           0       -0.019005    0.117294   -0.019011
      4          8           0       -0.089584    1.338674   -0.016918
      5          8           0       -1.100300   -0.729288    0.007144
      6          6           0       -2.370105   -0.054449    0.021719
      7          1           0        3.150063   -0.504231   -0.635112
      8          1           0        2.838862   -0.051026    1.068662
      9          1           0        2.342225    1.042044   -0.249479
     10          1           0        1.040622   -1.625910    0.038281
     11          1           0       -2.462577    0.591159    0.904159
     12          1           0       -3.117820   -0.853085    0.052734
     13          1           0       -2.500202    0.556335   -0.880585
 ---------------------------------------------------------------------

 SCF Done:  E(RHF) =  -323.347004017     A.U. after    2 cycles

 The electronic state is 1-A.
 Alpha  occ. eigenvalues --  -21.08529 -21.02800 -15.76187 -11.51346 -11.41278
 Alpha  occ. eigenvalues --  -11.39975  -1.83135  -1.65220  -1.38494  -1.04853
 Alpha  occ. eigenvalues --   -0.96251  -0.79186  -0.70182  -0.64234  -0.63238
 Alpha  occ. eigenvalues --   -0.60236  -0.56720  -0.52633  -0.52044  -0.51714
 Alpha  occ. eigenvalues --   -0.42686  -0.33517  -0.31438  -0.29503
 Alpha virt. eigenvalues --    0.03369   0.04940   0.05649   0.05791   0.06400
 Alpha virt. eigenvalues --    0.07226   0.07668   0.10401   0.11519   0.13278
 Alpha virt. eigenvalues --    0.13710   0.14174   0.14897   0.15494   0.17321

 Mulliken charges:
               1
     1  C   -3.444828
     2  N   -2.526958
     3  C    6.003644
     4  O   -2.605428
     5  O   -2.759502
     6  C   -3.193785
     7  H    1.287250
     8  H    1.289952
     9  H    1.330217
    10  H    0.755150
    11  H    1.277086
    12  H    1.325852
    13  H    1.261349
 Sum of Mulliken charges =  -0.00000

 Dipole moment (field-independent basis, Debye):
    X=              0.3453    Y=             -1.8261    Z=              0.1917  Tot=              1.8683

 Test job not archived.
 1\1\GINC-SE454\SP\RHF\Aug-CC-pVDZ\C3H7N1O2\OHZDE\09-Apr-2025\0\\#t hf
 aug-cc-pvdz iop(5/13=1,5/36=2,99/5=2) pseudo=read geom=check guess=(re
 ad,tcheck) scf=(maxcycle=1)\\title\\0,1\C,0,-2.33412133,-0.19561628,-0
 .09214172\N,0,-1.06402015,0.50544845,-0.12172014\C,0,0.1265856,-0.1629
 4432,-0.21230881\O,0,0.26555735,-1.3619105,-0.41211672\O,0,1.15903329,
 0.7308734,-0.06491723\C,0,2.46462826,0.1394941,-0.18204068\H,0,-3.0871
 5599,0.36100126,-0.66641364\H,0,-2.70726297,-0.34471793,0.93443849\H,0
 ,-2.18423838,-1.17660222,-0.55329775\H,0,-1.02727408,1.48135835,0.1478

 Normal termination of Gaussian 16 at Wed Apr  9 16:01:51 2025.
