 Gaussian 16, Revision C.01,

 ----------------------------------------------------------------------
 #t hf aug-cc-pvdz symm=none int=(grid=ultrafine) guess=(read,tcheck) s
 table=(opt,rrhf)
 ----------------------------------------------------------------------
 -----
 title
 -----
 Symbolic Z-matrix:
 Charge =  0 Multiplicity = 1

 SCF Done:  E(RHF) =  -308.852198685     A.U. after   17 cycles

 1\1\GINC-SE173\Stability\RHF\Aug-CC-pVDZ\C6H12O1\OHZDE\09-Apr-2025\0\\
 #t hf aug-cc-pvdz symm=none int=(grid=ultrafine) guess=(read,tcheck) s
 table=(opt,rrhf)\\title\\0,1\C,0,2.14434202,0.36564629,-0.59405876\C,0
 ,0.90013304,-0.74914886,0.42385992\O,0,1.22892785,-1.03251539,1.695334
 49\C,0,0.47635502,0.55013489,0.02346037\C,0,-0.66078423,0.82265776,-0.
 95322819\C,0,-1.73087398,0.59229903,0.01487059\C,0,-2.08148546,-0.8065
 8402,0.30667962\H,0,2.27594781,1.43280835,-0.78310591\H,0,2.1488411,-0
 .16696262,-1.54055572\H,0,2.97466738,0.03643112,0.03457601\H,0,0.94587

 Normal termination of Gaussian 16 at Wed Apr  9 18:44:07 2025.
 Gaussian 16:  ES64L-G16RevC.01  3-Jul-2019

 ----------------------------------------------------------------------
 #t hf aug-cc-pvdz iop(5/13=1,5/36=2,99/5=2) pseudo=read geom=check gue
 ss=(read,tcheck) scf=(maxcycle=1)
 ----------------------------------------------------------------------
 -----
 title
 -----
 Structure from the checkpoint file:  "Grambow2020_wb97xd3_007570_reverse_mol1.chk"
 Charge =  0 Multiplicity = 1

                         Standard orientation:
 ---------------------------------------------------------------------
 Center     Atomic      Atomic             Coordinates (Angstroms)
 Number     Number       Type             X           Y           Z
 ---------------------------------------------------------------------
      1          6           0        1.989508   -1.004348    0.221767
      2          6           0        0.873117    0.597119    0.348090
      3          8           0        1.311070    1.701835   -0.278687
      4          6           0        0.368946   -0.527801   -0.364942
      5          6           0       -0.850803   -1.338284    0.055298
      6          6           0       -1.832163   -0.376157   -0.441307
      7          6           0       -2.104019    0.799577    0.400535
      8          1           0        2.064176   -1.864902   -0.445889
      9          1           0        1.940825   -1.353661    1.248977
     10          1           0        2.878634   -0.388785    0.068329
     11          1           0        0.899388    0.657995    1.425402
     12          1           0        0.886472    1.753100   -1.143530
     13          1           0        0.510241   -0.496653   -1.439032
     14          1           0       -0.866389   -1.506321    1.137954
     15          1           0       -0.840422   -2.307772   -0.444598
     16          1           0       -2.173090   -0.433788   -1.465049
     17          1           0       -2.739324    1.537011   -0.092715
     18          1           0       -1.152711    1.328632    0.692353
     19          1           0       -2.563870    0.559822    1.370651
 ---------------------------------------------------------------------

 SCF Done:  E(RHF) =  -310.383076583     A.U. after    2 cycles

 The electronic state is 1-A.
 Alpha  occ. eigenvalues --  -21.14216 -11.54460 -11.45871 -11.42887 -11.40358
 Alpha  occ. eigenvalues --  -11.35077 -11.28945  -1.79939  -1.29740  -1.13062
 Alpha  occ. eigenvalues --   -1.00082  -0.96216  -0.86471  -0.76858  -0.69045
 Alpha  occ. eigenvalues --   -0.65378  -0.61369  -0.59650  -0.58626  -0.57705
 Alpha  occ. eigenvalues --   -0.53955  -0.50907  -0.48577  -0.45072  -0.43193
 Alpha  occ. eigenvalues --   -0.42608  -0.37917  -0.16405
 Alpha virt. eigenvalues --    0.03517   0.04505   0.04718   0.04966   0.05382
 Alpha virt. eigenvalues --    0.05946   0.06450   0.06615   0.06859   0.08713
 Alpha virt. eigenvalues --    0.08907   0.09473   0.11584   0.12222   0.13525

 Mulliken charges:
               1
     1  C   -4.050293
     2  C    1.796144
     3  O   -3.470197
     4  C    0.470008
     5  C   -4.220739
     6  C   -1.271491
     7  C   -4.060810
     8  H    1.038497
     9  H    1.287253
    10  H    1.027956
    11  H    1.520264
    12  H    0.685290
    13  H    1.400861
    14  H    1.249400
    15  H    1.278437
    16  H    1.312982
    17  H    1.283928
    18  H    1.542391
    19  H    1.180118
 Sum of Mulliken charges =  -0.00000

 Dipole moment (field-independent basis, Debye):
    X=              5.0002    Y=              0.3493    Z=              0.2356  Tot=              5.0180

 Test job not archived.
 1\1\GINC-SE173\SP\RHF\Aug-CC-pVDZ\C6H12O1\OHZDE\09-Apr-2025\0\\#t hf a
 ug-cc-pvdz iop(5/13=1,5/36=2,99/5=2) pseudo=read geom=check guess=(rea
 d,tcheck) scf=(maxcycle=1)\\title\\0,1\C,0,2.14434202,0.36564629,-0.59
 405876\C,0,0.90013304,-0.74914886,0.42385992\O,0,1.22892785,-1.0325153
 9,1.69533449\C,0,0.47635502,0.55013489,0.02346037\C,0,-0.66078423,0.82
 265776,-0.95322819\C,0,-1.73087398,0.59229903,0.01487059\C,0,-2.081485
 46,-0.80658402,0.30667962\H,0,2.27594781,1.43280835,-0.78310591\H,0,2.
 1488411,-0.16696262,-1.54055572\H,0,2.97466738,0.03643112,0.03457601\H

 Normal termination of Gaussian 16 at Wed Apr  9 18:44:15 2025.
