 Gaussian 16, Revision C.01,

 ----------------------------------------------------------------------
 #t hf aug-cc-pvdz symm=none int=(grid=ultrafine) guess=(read,tcheck) s
 table=(opt,rrhf)
 ----------------------------------------------------------------------
 -----
 title
 -----
 Symbolic Z-matrix:
 Charge =  0 Multiplicity = 1

 SCF Done:  E(RHF) =  -302.157037607     A.U. after   18 cycles
 Normal termination of Gaussian 16 at Wed Apr  9 16:04:10 2025.
 Gaussian 16:  ES64L-G16RevC.01  3-Jul-2019

 ----------------------------------------------------------------------
 #t hf aug-cc-pvdz iop(5/13=1,5/36=2,99/5=2) pseudo=read geom=check gue
 ss=(read,tcheck) scf=(maxcycle=1)
 ----------------------------------------------------------------------
 -----
 title
 -----
 Structure from the checkpoint file:  "Grambow2020_b97d3_006707_reverse_mol1.chk"
 Charge =  0 Multiplicity = 1

                         Standard orientation:
 ---------------------------------------------------------------------
 Center     Atomic      Atomic             Coordinates (Angstroms)
 Number     Number       Type             X           Y           Z
 ---------------------------------------------------------------------
      1          8           0       -2.353855   -0.367207    0.016655
      2          6           0       -1.212312   -0.022737    0.112383
      3          6           0       -0.343706    1.098539   -0.066450
      4          6           0        0.951196    1.155957   -0.111370
      5          6           0        1.710096   -0.027275    0.131993
      6          8           0        1.186006   -1.164214   -0.140584
      7          1           0        0.010796   -0.947463   -0.003849
      8          1           0        2.700354   -0.028073    0.595941
 ---------------------------------------------------------------------

 SCF Done:  E(RHF) =  -303.468826217     A.U. after    2 cycles

 The electronic state is 1-A.
 Alpha  occ. eigenvalues --  -21.14912 -21.11365 -11.55957 -11.52778 -11.46446
 Alpha  occ. eigenvalues --  -11.42305  -1.81085  -1.73808  -1.22015  -1.02242
 Alpha  occ. eigenvalues --   -0.85619  -0.75311  -0.66141  -0.60054  -0.58194
 Alpha  occ. eigenvalues --   -0.54524  -0.50168  -0.43533  -0.38802  -0.37094
 Alpha  occ. eigenvalues --   -0.28045
 Alpha virt. eigenvalues --    0.02451   0.03205   0.04536   0.07321   0.08843
 Alpha virt. eigenvalues --    0.09517   0.09918   0.11527   0.11635   0.12732
 Alpha virt. eigenvalues --    0.13315   0.14146   0.14411   0.15238   0.16204

 Mulliken charges:
               1
     1  O   -2.481854
     2  C    1.094180
     3  C    0.944373
     4  C   -0.784472
     5  C    1.028044
     6  O   -3.080628
     7  H    1.760730
     8  H    1.519628
 Sum of Mulliken charges =   0.00000

 Dipole moment (field-independent basis, Debye):
    X=              1.3792    Y=             -3.3044    Z=              0.6599  Tot=              3.6409

 Test job not archived.
 1\1\GINC-SE041\SP\RHF\Aug-CC-pVDZ\C4H2O2\OHZDE\09-Apr-2025\0\\#t hf au
 g-cc-pvdz iop(5/13=1,5/36=2,99/5=2) pseudo=read geom=check guess=(read
 ,tcheck) scf=(maxcycle=1)\\title\\0,1\O,0,-2.51515359,-0.6586882,0.540
 68561\C,0,-1.45878062,-0.16594241,0.27194375\C,0,-0.8533263,0.88395884
 ,-0.48624439\C,0,0.38908956,1.07879179,-0.80330611\C,0,1.38681456,0.20
 16595,-0.28332847\O,0,1.06043321,-1.00330886,0.00498671\H,0,-0.1063749
 4,-0.89778111,0.27741811\H,0,2.41067013,0.51306245,-0.05837021\\Versio
 n=ES64L-G16RevC.01\State=1-A\HF=-303.4688262\RMSD=4.391e-01\Dipole=0.8

 Normal termination of Gaussian 16 at Wed Apr  9 16:04:13 2025.
