 Gaussian 16, Revision C.01,

 ----------------------------------------------------------------------
 #t hf aug-cc-pvdz symm=none int=(grid=ultrafine) guess=(read,tcheck) s
 table=(opt,rrhf)
 ----------------------------------------------------------------------
 -----
 title
 -----
 Symbolic Z-matrix:
 Charge =  0 Multiplicity = 1

 SCF Done:  E(RHF) =  -269.572552383     A.U. after   13 cycles
 Normal termination of Gaussian 16 at Wed Apr  9 19:07:58 2025.
 Gaussian 16:  ES64L-G16RevC.01  3-Jul-2019

 ----------------------------------------------------------------------
 #t hf aug-cc-pvdz iop(5/13=1,5/36=2,99/5=2) pseudo=read geom=check gue
 ss=(read,tcheck) scf=(maxcycle=1)
 ----------------------------------------------------------------------
 -----
 title
 -----
 Structure from the checkpoint file:  "Grambow2020_wb97xd3_008143_forward_mol2.chk"
 Charge =  0 Multiplicity = 1

                         Standard orientation:
 ---------------------------------------------------------------------
 Center     Atomic      Atomic             Coordinates (Angstroms)
 Number     Number       Type             X           Y           Z
 ---------------------------------------------------------------------
      1          6           0        2.184985    0.271971   -0.000090
      2          6           0        0.708070    0.087807   -0.000311
      3          6           0       -0.463110    1.109736   -0.000424
      4          6           0       -1.324433    0.123987    0.755522
      5          6           0       -1.325045    0.123928   -0.755345
      6          6           0       -0.158395   -0.892716   -0.758343
      7          6           0       -0.158140   -0.892134    0.758734
      8          1           0        2.689056   -0.697234    0.003479
      9          1           0        2.515561    0.819127   -0.886437
     10          1           0        2.514767    0.825383    0.882692
     11          1           0       -0.490727    2.190087   -0.000289
     12          1           0       -2.135886    0.311895    1.443109
     13          1           0       -2.137474    0.309623   -1.442319
     14          1           0        0.130897   -1.677682   -1.442413
     15          1           0        0.130219   -1.676678    1.443713
 ---------------------------------------------------------------------

 SCF Done:  E(RHF) =  -270.897706566     A.U. after    2 cycles

 The electronic state is 1-A.
 Alpha  occ. eigenvalues --  -11.51659 -11.50042 -11.41697 -11.39869 -11.39563
 Alpha  occ. eigenvalues --  -11.38092 -11.34109  -1.52933  -1.11428  -1.03080
 Alpha  occ. eigenvalues --   -0.92045  -0.89056  -0.74817  -0.74450  -0.69048
 Alpha  occ. eigenvalues --   -0.60138  -0.57596  -0.55526  -0.52232  -0.51819
 Alpha  occ. eigenvalues --   -0.51055  -0.37553  -0.36933  -0.29437  -0.29091
 Alpha virt. eigenvalues --    0.03909   0.04902   0.04993   0.05546   0.05944
 Alpha virt. eigenvalues --    0.06372   0.06499   0.06969   0.10474   0.12092
 Alpha virt. eigenvalues --    0.12189   0.12571   0.13114   0.13324   0.13978

 Mulliken charges:
               1
     1  C   -5.290832
     2  C    2.762903
     3  C   -1.521485
     4  C   -1.181318
     5  C   -1.181878
     6  C   -1.319843
     7  C   -1.319280
     8  H    1.023579
     9  H    1.169065
    10  H    1.168892
    11  H    1.080327
    12  H    1.052360
    13  H    1.052325
    14  H    1.252511
    15  H    1.252673
 Sum of Mulliken charges =   0.00000

 Dipole moment (field-independent basis, Debye):
    X=              0.0831    Y=              0.0312    Z=              0.0010  Tot=              0.0888

 Test job not archived.
 1\1\GINC-SE232\SP\RHF\Aug-CC-pVDZ\C7H8\OHZDE\09-Apr-2025\0\\#t hf aug-
 cc-pvdz iop(5/13=1,5/36=2,99/5=2) pseudo=read geom=check guess=(read,t
 check) scf=(maxcycle=1)\\title\\0,1\C,0,2.02162394,-0.01317376,0.01820
 906\C,0,0.53336222,-0.00306,0.00524486\C,0,-0.50802043,-1.13196966,-0.
 23368059\C,0,-1.47275291,-0.12114766,-0.81036455\C,0,-1.4885267,-0.420
 72821,0.6704202\C,0,-0.45104461,0.70190177,0.91120975\C,0,-0.43550054,
 1.00216343,-0.57577526\H,0,2.40695962,0.98871085,0.22119603\H,0,2.4059
 6936,-0.68368211,0.79084638\H,0,2.42367391,-0.33908809,-0.94431868\H,0

 Normal termination of Gaussian 16 at Wed Apr  9 19:08:03 2025.
