 Gaussian 16, Revision C.01,

 ----------------------------------------------------------------------
 #t hf aug-cc-pvdz symm=none int=(grid=ultrafine) guess=(read,tcheck) s
 table=(opt,rrhf)
 ----------------------------------------------------------------------
 -----
 title
 -----
 Symbolic Z-matrix:
 Charge =  0 Multiplicity = 1

 SCF Done:  E(RHF) =  -271.919800677     A.U. after   15 cycles
 Normal termination of Gaussian 16 at Wed Apr  9 03:39:53 2025.
 Gaussian 16:  ES64L-G16RevC.01  3-Jul-2019

 ----------------------------------------------------------------------
 #t hf aug-cc-pvdz iop(5/13=1,5/36=2,99/5=2) pseudo=read geom=check gue
 ss=(read,tcheck) scf=(maxcycle=1)
 ----------------------------------------------------------------------
 -----
 title
 -----
 Structure from the checkpoint file:  "Grambow2020_wb97xd3_007441_reverse_mol1.chk"
 Charge =  0 Multiplicity = 1

                         Standard orientation:
 ---------------------------------------------------------------------
 Center     Atomic      Atomic             Coordinates (Angstroms)
 Number     Number       Type             X           Y           Z
 ---------------------------------------------------------------------
      1          6           0        2.680219    0.049974   -0.179388
      2          6           0        1.382700   -0.724955    0.017563
      3          6           0        0.265116    0.155565    0.546792
      4          6           0       -0.370911    1.252891   -0.342990
      5          6           0       -1.793759    0.859805    0.141418
      6          6           0       -1.754699   -0.926589   -0.573535
      7          6           0       -1.159073   -0.377982    0.724069
      8          1           0        3.470375   -0.585806   -0.582053
      9          1           0        3.036603    0.467802    0.765187
     10          1           0        2.538041    0.882102   -0.873470
     11          1           0        1.087316   -1.177103   -0.934358
     12          1           0        1.545889   -1.555112    0.712952
     13          1           0        0.589828    0.604877    1.489458
     14          1           0       -0.190230    1.166842   -1.416257
     15          1           0       -0.155976    2.283732   -0.057149
     16          1           0       -2.329397   -0.042993   -1.044448
     17          1           0       -2.551234   -1.635965   -0.375480
     18          1           0       -1.030988   -1.261063   -1.310661
     19          1           0       -1.507790   -0.879568    1.622704
 ---------------------------------------------------------------------

 SCF Done:  E(RHF) =  -273.318913964     A.U. after    2 cycles

 The electronic state is 1-A.
 Alpha  occ. eigenvalues --  -11.47374 -11.42909 -11.41709 -11.40227 -11.39083
 Alpha  occ. eigenvalues --  -11.36731 -11.34670  -1.39896  -1.17393  -1.06037
 Alpha  occ. eigenvalues --   -0.95222  -0.89647  -0.82225  -0.74476  -0.68669
 Alpha  occ. eigenvalues --   -0.62831  -0.60700  -0.56410  -0.56144  -0.52359
 Alpha  occ. eigenvalues --   -0.50914  -0.48952  -0.46720  -0.44979  -0.42158
 Alpha  occ. eigenvalues --   -0.38269  -0.28869
 Alpha virt. eigenvalues --    0.04041   0.04736   0.04935   0.05211   0.05683
 Alpha virt. eigenvalues --    0.05750   0.06229   0.06611   0.07440   0.08380
 Alpha virt. eigenvalues --    0.08876   0.09139   0.11033   0.13031   0.13239

 Mulliken charges:
               1
     1  C   -4.092972
     2  C   -3.995135
     3  C    0.776270
     4  C   -3.233321
     5  C   -0.593554
     6  C   -3.460455
     7  C   -1.435078
     8  H    1.076490
     9  H    1.281115
    10  H    1.416341
    11  H    1.447918
    12  H    1.364033
    13  H    1.430071
    14  H    1.501460
    15  H    1.390712
    16  H    1.197555
    17  H    1.226075
    18  H    1.371150
    19  H    1.331327
 Sum of Mulliken charges =  -0.00000

 Dipole moment (field-independent basis, Debye):
    X=              1.6874    Y=             -1.8565    Z=             -0.4201  Tot=              2.5437

 Test job not archived.
 1\1\GINC-SE339\SP\RHF\Aug-CC-pVDZ\C7H12\OHZDE\09-Apr-2025\0\\#t hf aug
 -cc-pvdz iop(5/13=1,5/36=2,99/5=2) pseudo=read geom=check guess=(read,
 tcheck) scf=(maxcycle=1)\\title\\0,1\C,0,2.33637624,0.36815177,-0.7697
 4787\C,0,1.04980433,-0.44862952,-0.74827984\C,0,0.27323832,-0.25906265
 ,0.54222601\C,0,-0.42133681,1.08866592,0.86091089\C,0,-1.68790883,0.34
 707513,1.3703231\C,0,-2.11940737,-0.47792431,-0.31403768\C,0,-1.103221
 47,-0.89683439,0.74963382\H,0,2.87531908,0.24361404,-1.71034994\H,0,3.
 00574196,0.06988014,0.04068095\H,0,2.12615337,1.43352264,-0.64649234\H

 Normal termination of Gaussian 16 at Wed Apr  9 03:40:00 2025.
