 Gaussian 16, Revision C.01,

 ----------------------------------------------------------------------
 #t hf aug-cc-pvdz symm=none int=(grid=ultrafine) guess=(read,tcheck) s
 table=(opt,rrhf)
 ----------------------------------------------------------------------
 -----
 title
 -----
 Symbolic Z-matrix:
 Charge =  0 Multiplicity = 1

 SCF Done:  E(RHF) =  -358.588506217     A.U. after   14 cycles
 Normal termination of Gaussian 16 at Wed Apr  9 03:52:21 2025.
 Gaussian 16:  ES64L-G16RevC.01  3-Jul-2019

 ----------------------------------------------------------------------
 #t hf aug-cc-pvdz iop(5/13=1,5/36=2,99/5=2) pseudo=read geom=check gue
 ss=(read,tcheck) scf=(maxcycle=1)
 ----------------------------------------------------------------------
 -----
 title
 -----
 Structure from the checkpoint file:  "Grambow2020_wb97xd3_008316_forward_mol2.chk"
 Charge =  0 Multiplicity = 1

                         Standard orientation:
 ---------------------------------------------------------------------
 Center     Atomic      Atomic             Coordinates (Angstroms)
 Number     Number       Type             X           Y           Z
 ---------------------------------------------------------------------
      1          6           0        2.150086   -0.161918    0.000948
      2          6           0        0.672619   -0.219539   -0.001784
      3          6           0       -0.320318    0.695201   -0.000635
      4          8           0       -0.203915    2.035481   -0.000448
      5          7           0       -1.546859    0.074670    0.001174
      6          6           0       -1.255891   -1.180041    0.000762
      7          8           0        0.050275   -1.447590   -0.001029
      8          1           0        2.568986   -0.638657    0.889936
      9          1           0        2.573506   -0.653220   -0.877776
     10          1           0        2.462848    0.881479   -0.005562
     11          1           0       -1.092695    2.400458    0.000855
     12          1           0       -1.934482   -2.018095    0.000389
 ---------------------------------------------------------------------

 SCF Done:  E(RHF) =  -360.164373709     A.U. after    2 cycles

 The electronic state is 1-A.
 Alpha  occ. eigenvalues --  -21.12699 -21.10882 -15.74111 -11.48359 -11.45951
 Alpha  occ. eigenvalues --  -11.42776 -11.38694  -1.88616  -1.76254  -1.36839
 Alpha  occ. eigenvalues --   -1.15513  -1.01145  -0.84850  -0.77585  -0.70348
 Alpha  occ. eigenvalues --   -0.64769  -0.62766  -0.57702  -0.56221  -0.52258
 Alpha  occ. eigenvalues --   -0.46797  -0.46498  -0.44008  -0.40313  -0.36813
 Alpha  occ. eigenvalues --   -0.26882
 Alpha virt. eigenvalues --    0.03545   0.05067   0.05696   0.06529   0.06868
 Alpha virt. eigenvalues --    0.09060   0.10048   0.10754   0.12120   0.12603
 Alpha virt. eigenvalues --    0.13218   0.14154   0.14670   0.15435   0.16221

 Mulliken charges:
               1
     1  C   -4.439222
     2  C    3.958358
     3  C    3.263809
     4  O   -3.719956
     5  N   -3.228885
     6  C    2.201404
     7  O   -3.955056
     8  H    1.149418
     9  H    1.150456
    10  H    1.105814
    11  H    0.813130
    12  H    1.700732
 Sum of Mulliken charges =  -0.00000

 Dipole moment (field-independent basis, Debye):
    X=              0.9542    Y=             -0.6203    Z=              0.0029  Tot=              1.1381

 Test job not archived.
 1\1\GINC-SE252\SP\RHF\Aug-CC-pVDZ\C4H5N1O2\OHZDE\09-Apr-2025\0\\#t hf
 aug-cc-pvdz iop(5/13=1,5/36=2,99/5=2) pseudo=read geom=check guess=(re
 ad,tcheck) scf=(maxcycle=1)\\title\\0,1\C,0,-1.70516348,-0.60432193,0.
 16629719\C,0,-0.26567508,-0.27839806,0.07751138\C,0,0.45715927,0.86157
 374,0.05201815\O,0,0.00139862,2.12596789,0.11109065\N,0,1.7986762,0.57
 911812,-0.04807086\C,0,1.83974528,-0.70786228,-0.07897143\O,0,0.649071
 59,-1.30369267,-0.00869434\H,0,-2.0476884,-1.15333204,-0.71365741\H,0,
 -1.92737172,-1.20760487,1.04918541\H,0,-2.27369898,0.3224708,0.2323443

 Normal termination of Gaussian 16 at Wed Apr  9 03:52:26 2025.
