 Gaussian 16, Revision C.01,

 ----------------------------------------------------------------------
 #t hf aug-cc-pvdz symm=none int=(grid=ultrafine) guess=(read,tcheck) s
 table=(opt,rrhf)
 ----------------------------------------------------------------------
 -----
 title
 -----
 Symbolic Z-matrix:
 Charge =  0 Multiplicity = 1

 SCF Done:  E(RHF) =  -286.837139657     A.U. after   15 cycles
 Normal termination of Gaussian 16 at Wed Apr  9 18:29:34 2025.
 Gaussian 16:  ES64L-G16RevC.01  3-Jul-2019

 ----------------------------------------------------------------------
 #t hf aug-cc-pvdz iop(5/13=1,5/36=2,99/5=2) pseudo=read geom=check gue
 ss=(read,tcheck) scf=(maxcycle=1)
 ----------------------------------------------------------------------
 -----
 title
 -----
 Structure from the checkpoint file:  "Grambow2020_wb97xd3_007184_reverse_mol1.chk"
 Charge =  0 Multiplicity = 1

                         Standard orientation:
 ---------------------------------------------------------------------
 Center     Atomic      Atomic             Coordinates (Angstroms)
 Number     Number       Type             X           Y           Z
 ---------------------------------------------------------------------
      1          6           0        2.497271   -0.609418   -0.029384
      2          6           0        1.104083   -0.069542   -0.053814
      3          6           0        0.694623    1.263166   -0.068484
      4          6           0       -0.686115    1.286766    0.059684
      5          6           0       -1.117111   -0.043006    0.127069
      6          6           0       -2.474496   -0.619057   -0.125611
      7          7           0        0.045117   -0.901598    0.018697
      8          1           0        2.536274   -1.583053   -0.517533
      9          1           0        3.183290    0.064183   -0.544203
     10          1           0        2.860612   -0.734392    0.994228
     11          1           0        1.349892    2.121530   -0.121876
     12          1           0       -1.325279    2.156956    0.087677
     13          1           0       -2.547917   -1.629573    0.276523
     14          1           0       -3.248818   -0.004195    0.333638
     15          1           0       -2.669765   -0.673706   -1.198715
     16          1           0       -0.563634   -0.660013    1.102626
 ---------------------------------------------------------------------

 SCF Done:  E(RHF) =  -288.248881540     A.U. after    2 cycles

 The electronic state is 1-A.
 Alpha  occ. eigenvalues --  -15.74249 -11.47267 -11.42963 -11.41215 -11.39473
 Alpha  occ. eigenvalues --  -11.38048 -11.35529  -1.50431  -1.15932  -1.12064
 Alpha  occ. eigenvalues --   -1.05679  -0.92796  -0.79560  -0.74041  -0.66197
 Alpha  occ. eigenvalues --   -0.64663  -0.57935  -0.56723  -0.55865  -0.53670
 Alpha  occ. eigenvalues --   -0.48356  -0.47949  -0.46582  -0.39026  -0.35584
 Alpha  occ. eigenvalues --   -0.29188
 Alpha virt. eigenvalues --    0.03438   0.05068   0.05449   0.05511   0.05999
 Alpha virt. eigenvalues --    0.06776   0.06950   0.07236   0.07849   0.11222
 Alpha virt. eigenvalues --    0.11405   0.11902   0.12128   0.12793   0.13371

 Mulliken charges:
               1
     1  C   -4.917044
     2  C    4.463816
     3  C   -2.576224
     4  C   -2.384626
     5  C    2.664881
     6  C   -4.478556
     7  N   -3.769408
     8  H    1.258482
     9  H    1.132753
    10  H    1.139278
    11  H    1.469358
    12  H    1.364501
    13  H    1.233841
    14  H    1.096818
    15  H    1.122081
    16  H    1.180049
 Sum of Mulliken charges =   0.00000

 Dipole moment (field-independent basis, Debye):
    X=             -0.5013    Y=              0.6568    Z=              0.2579  Tot=              0.8656

 Test job not archived.
 1\1\GINC-SE105\SP\RHF\Aug-CC-pVDZ\C6H9N1\OHZDE\09-Apr-2025\0\\#t hf au
 g-cc-pvdz iop(5/13=1,5/36=2,99/5=2) pseudo=read geom=check guess=(read
 ,tcheck) scf=(maxcycle=1)\\title\\0,1\C,0,-2.54881441,-0.39660225,0.13
 873717\C,0,-1.12050248,0.04256729,0.12922482\C,0,-0.61533731,1.3394769
 ,0.21179977\C,0,0.75627768,1.27637022,0.01658079\C,0,1.08633169,-0.072
 09052,-0.1603689\C,0,2.40845005,-0.75689136,-0.01467961\N,0,-0.1289501
 6,-0.85367518,-0.05121438\H,0,-2.63614535,-1.39687185,0.56254105\H,0,-
 3.16027398,0.28530272,0.7307862\H,0,-2.96613271,-0.42444728,-0.8714546

 Normal termination of Gaussian 16 at Wed Apr  9 18:29:39 2025.
