 Gaussian 16, Revision C.01,

 ----------------------------------------------------------------------
 #t hf aug-cc-pvdz symm=none int=(grid=ultrafine) guess=(read,tcheck) s
 table=(opt,rrhf)
 ----------------------------------------------------------------------
 -----
 title
 -----
 Symbolic Z-matrix:
 Charge =  0 Multiplicity = 1

 SCF Done:  E(RHF) =  -269.980152690     A.U. after   12 cycles

 1\1\GINC-SE219\Stability\RHF\Aug-CC-pVDZ\C5H10O1\OHZDE\09-Apr-2025\0\\
 #t hf aug-cc-pvdz symm=none int=(grid=ultrafine) guess=(read,tcheck) s
 table=(opt,rrhf)\\title\\0,1\C,0,2.01021981,-1.38059783,0.93627481\O,0
 ,1.82865218,0.01585207,0.88651562\C,0,-0.48904027,1.11336303,-1.314614
 66\C,0,-1.26768989,1.5381358,-0.09033273\C,0,-1.57567738,0.02028099,0.
 09740042\C,0,-0.75330635,-0.18425111,-1.15511377\H,0,2.48507515,-1.769
 42757,0.02784721\H,0,1.0659637,-1.91722065,1.09063944\H,0,2.66494708,-
 1.59458253,1.78081889\H,0,0.06720172,1.67372254,-2.05648565\H,0,-0.681

 Normal termination of Gaussian 16 at Wed Apr  9 17:50:54 2025.
 Gaussian 16:  ES64L-G16RevC.01  3-Jul-2019

 ----------------------------------------------------------------------
 #t hf aug-cc-pvdz iop(5/13=1,5/36=2,99/5=2) pseudo=read geom=check gue
 ss=(read,tcheck) scf=(maxcycle=1)
 ----------------------------------------------------------------------
 -----
 title
 -----
 Structure from the checkpoint file:  "Grambow2020_wb97xd3_006206_reverse_mol2.chk"
 Charge =  0 Multiplicity = 1

                         Standard orientation:
 ---------------------------------------------------------------------
 Center     Atomic      Atomic             Coordinates (Angstroms)
 Number     Number       Type             X           Y           Z
 ---------------------------------------------------------------------
      1          6           0        2.625006    0.344840    0.019405
      2          8           0        1.822956   -0.783428   -0.243731
      3          6           0       -1.373634   -0.591356    0.836143
      4          6           0       -1.736600   -0.588109   -0.631453
      5          6           0       -1.222538    0.884882   -0.636028
      6          6           0       -0.935315    0.668384    0.832833
      7          1           0        2.844862    0.457036    1.087578
      8          1           0        2.165553    1.274147   -0.339348
      9          1           0        3.567750    0.205430   -0.509282
     10          1           0       -1.458504   -1.347625    1.607269
     11          1           0       -1.167627   -1.272776   -1.263111
     12          1           0       -2.799696   -0.703257   -0.850108
     13          1           0       -1.981438    1.636567   -0.860662
     14          1           0       -0.350873    1.059411   -1.269955
     15          1           0        0.987279   -0.671242    0.220756
     16          1           0       -0.532472    1.317885    1.601315
 ---------------------------------------------------------------------

 SCF Done:  E(RHF) =  -271.287200102     A.U. after    2 cycles

 The electronic state is 1-A.
 Alpha  occ. eigenvalues --  -21.05318 -11.48384 -11.41304 -11.39804 -11.39169
 Alpha  occ. eigenvalues --  -11.35567  -1.69348  -1.33837  -0.96560  -0.95264
 Alpha  occ. eigenvalues --   -0.93320  -0.74544  -0.69892  -0.64420  -0.62443
 Alpha  occ. eigenvalues --   -0.59014  -0.53244  -0.50641  -0.50523  -0.44380
 Alpha  occ. eigenvalues --   -0.43024  -0.40972  -0.34550  -0.30770
 Alpha virt. eigenvalues --    0.03889   0.04783   0.05176   0.05599   0.05717
 Alpha virt. eigenvalues --    0.06656   0.06892   0.07144   0.07945   0.10023
 Alpha virt. eigenvalues --    0.11788   0.12513   0.12790   0.13489   0.14163

 Mulliken charges:
               1
     1  C   -2.579138
     2  O   -2.717789
     3  C   -0.635315
     4  C   -3.146635
     5  C   -3.183028
     6  C   -0.965240
     7  H    1.302938
     8  H    1.360400
     9  H    1.271036
    10  H    1.190605
    11  H    1.292340
    12  H    1.259670
    13  H    1.219179
    14  H    1.448767
    15  H    1.553230
    16  H    1.328980
 Sum of Mulliken charges =  -0.00000

 Dipole moment (field-independent basis, Debye):
    X=             -0.6851    Y=              0.5780    Z=              0.3952  Tot=              0.9796

 Test job not archived.
 1\1\GINC-SE219\SP\RHF\Aug-CC-pVDZ\C5H10O1\OHZDE\09-Apr-2025\0\\#t hf a
 ug-cc-pvdz iop(5/13=1,5/36=2,99/5=2) pseudo=read geom=check guess=(rea
 d,tcheck) scf=(maxcycle=1)\\title\\0,1\C,0,2.01021981,-1.38059783,0.93
 627481\O,0,1.82865218,0.01585207,0.88651562\C,0,-0.48904027,1.11336303
 ,-1.31461466\C,0,-1.26768989,1.5381358,-0.09033273\C,0,-1.57567738,0.0
 2028099,0.09740042\C,0,-0.75330635,-0.18425111,-1.15511377\H,0,2.48507
 515,-1.76942757,0.02784721\H,0,1.0659637,-1.91722065,1.09063944\H,0,2.
 66494708,-1.59458253,1.78081889\H,0,0.06720172,1.67372254,-2.05648565\

 Normal termination of Gaussian 16 at Wed Apr  9 17:50:59 2025.
