 Gaussian 16, Revision C.01,

 ----------------------------------------------------------------------
 #t hf aug-cc-pvdz symm=none int=(grid=ultrafine) guess=(read,tcheck) s
 table=(opt,rrhf)
 ----------------------------------------------------------------------
 -----
 title
 -----
 Symbolic Z-matrix:
 Charge =  0 Multiplicity = 1

 SCF Done:  E(RHF) =  -323.778481569     A.U. after   16 cycles
 Normal termination of Gaussian 16 at Wed Apr  9 18:45:00 2025.
 Gaussian 16:  ES64L-G16RevC.01  3-Jul-2019

 ----------------------------------------------------------------------
 #t hf aug-cc-pvdz iop(5/13=1,5/36=2,99/5=2) pseudo=read geom=check gue
 ss=(read,tcheck) scf=(maxcycle=1)
 ----------------------------------------------------------------------
 -----
 title
 -----
 Structure from the checkpoint file:  "Grambow2020_wb97xd3_007601_forward_mol1.chk"
 Charge =  0 Multiplicity = 1

                         Standard orientation:
 ---------------------------------------------------------------------
 Center     Atomic      Atomic             Coordinates (Angstroms)
 Number     Number       Type             X           Y           Z
 ---------------------------------------------------------------------
      1          6           0       -2.319607   -1.172293    0.232585
      2          6           0       -1.526593   -0.170268   -0.538422
      3          7           0       -1.347496    1.094099   -0.092302
      4          6           0        0.006942    1.170238   -0.159238
      5          6           0        0.925239    0.379880    0.728921
      6          6           0        1.767247   -0.586538   -0.071182
      7          8           0        2.949696   -0.489083   -0.249111
      8          1           0       -1.754606   -1.609906    1.062148
      9          1           0       -3.198522   -0.689235    0.676655
     10          1           0       -2.654903   -1.990089   -0.405554
     11          1           0       -1.225224   -0.376002   -1.554709
     12          1           0       -2.029176    1.765053    0.237612
     13          1           0        0.461131    1.992074   -0.712750
     14          1           0        0.330620   -0.197688    1.442529
     15          1           0        1.602578    1.041481    1.278838
     16          1           0        1.183625   -1.407832   -0.541746
 ---------------------------------------------------------------------

 SCF Done:  E(RHF) =  -325.306704402     A.U. after    2 cycles

 The electronic state is 1-A.
 Alpha  occ. eigenvalues --  -21.05124 -15.78474 -11.47025 -11.44123 -11.43356
 Alpha  occ. eigenvalues --  -11.39414 -11.37752  -1.70036  -1.46260  -1.14913
 Alpha  occ. eigenvalues --   -1.10212  -0.89856  -0.86318  -0.79921  -0.70339
 Alpha  occ. eigenvalues --   -0.64617  -0.63022  -0.58071  -0.56823  -0.55704
 Alpha  occ. eigenvalues --   -0.54263  -0.51848  -0.48515  -0.42136  -0.35781
 Alpha  occ. eigenvalues --   -0.28444  -0.26114
 Alpha virt. eigenvalues --    0.03530   0.04712   0.05139   0.05411   0.05511
 Alpha virt. eigenvalues --    0.06305   0.06589   0.07261   0.08864   0.09490
 Alpha virt. eigenvalues --    0.10825   0.11745   0.12919   0.13530   0.14090

 Mulliken charges:
               1
     1  C   -3.571328
     2  C   -0.042323
     3  N   -3.361706
     4  C    0.156967
     5  C   -3.890704
     6  C    1.998891
     7  O   -2.849168
     8  H    1.294133
     9  H    1.200649
    10  H    1.234650
    11  H    1.453154
    12  H    0.619221
    13  H    1.482348
    14  H    1.662968
    15  H    1.156222
    16  H    1.456027
 Sum of Mulliken charges =   0.00000

 Dipole moment (field-independent basis, Debye):
    X=             -3.1688    Y=              0.8516    Z=              0.6443  Tot=              3.3439

 Test job not archived.
 1\1\GINC-SE108\SP\RHF\Aug-CC-pVDZ\C5H9N1O1\OHZDE\09-Apr-2025\0\\#t hf
 aug-cc-pvdz iop(5/13=1,5/36=2,99/5=2) pseudo=read geom=check guess=(re
 ad,tcheck) scf=(maxcycle=1)\\title\\0,1\C,0,-1.54915952,0.09881985,1.5
 5938314\C,0,-1.25596678,-0.16484814,0.11997525\N,0,-0.99180713,0.83702
 28,-0.74962059\C,0,0.18322282,0.38967097,-1.26339241\C,0,1.45545251,0.
 30601865,-0.46891447\C,0,1.92497542,-1.12354863,-0.33110913\O,0,2.8955
 9884,-1.58621436,-0.8632482\H,0,-0.64463413,0.28818244,2.14664995\H,0,
 -2.17359731,0.99559757,1.65373085\H,0,-2.07091282,-0.74074127,2.019106

 Normal termination of Gaussian 16 at Wed Apr  9 18:45:05 2025.
