 Gaussian 16, Revision C.01,

 ----------------------------------------------------------------------
 #t hf aug-cc-pvdz symm=none int=(grid=ultrafine) guess=(read,tcheck) s
 table=(opt,rrhf)
 ----------------------------------------------------------------------
 -----
 title
 -----
 Symbolic Z-matrix:
 Charge =  0 Multiplicity = 1

 SCF Done:  E(RHF) =  -286.745545892     A.U. after   15 cycles
 Normal termination of Gaussian 16 at Wed Apr  9 19:00:58 2025.
 Gaussian 16:  ES64L-G16RevC.01  3-Jul-2019

 ----------------------------------------------------------------------
 #t hf aug-cc-pvdz iop(5/13=1,5/36=2,99/5=2) pseudo=read geom=check gue
 ss=(read,tcheck) scf=(maxcycle=1)
 ----------------------------------------------------------------------
 -----
 title
 -----
 Structure from the checkpoint file:  "Grambow2020_wb97xd3_007990_reverse_mol2.chk"
 Charge =  0 Multiplicity = 1

                         Standard orientation:
 ---------------------------------------------------------------------
 Center     Atomic      Atomic             Coordinates (Angstroms)
 Number     Number       Type             X           Y           Z
 ---------------------------------------------------------------------
      1          6           0       -3.514191    0.387419   -0.070109
      2          6           0       -2.139157   -0.088137    0.023831
      3          6           0       -1.006201   -0.468777    0.107164
      4          6           0        0.383060   -0.912644    0.190494
      5          6           0        1.323024    0.096032   -0.450756
      6          6           0        1.961325    1.236196    0.243323
      7          7           0        2.738368   -0.089567   -0.078968
      8          1           0       -4.065960   -0.160679   -0.835211
      9          1           0       -3.535493    1.447229   -0.328319
     10          1           0       -4.033191    0.260285    0.881156
     11          1           0        0.475440   -1.891913   -0.292882
     12          1           0        0.655555   -1.037474    1.244735
     13          1           0        1.175563    0.175297   -1.526997
     14          1           0        1.739847    1.151168    1.316006
     15          1           0        2.924897   -0.792507    0.621555
     16          1           0        3.447616   -0.024964   -0.790954
 ---------------------------------------------------------------------

 SCF Done:  E(RHF) =  -288.140012295     A.U. after    2 cycles

 The electronic state is 1-A.
 Alpha  occ. eigenvalues --  -15.81591 -11.48143 -11.43896 -11.43133 -11.38498
 Alpha  occ. eigenvalues --  -11.38290 -11.33622  -1.48139  -1.20610  -1.11888
 Alpha  occ. eigenvalues --   -0.99494  -0.94218  -0.82253  -0.73999  -0.66309
 Alpha  occ. eigenvalues --   -0.62712  -0.61140  -0.58213  -0.57780  -0.55917
 Alpha  occ. eigenvalues --   -0.53266  -0.45911  -0.41569  -0.34795  -0.34614
 Alpha  occ. eigenvalues --   -0.27708
 Alpha virt. eigenvalues --    0.03041   0.04237   0.05095   0.05317   0.05632
 Alpha virt. eigenvalues --    0.06450   0.07101   0.07517   0.07733   0.09796
 Alpha virt. eigenvalues --    0.10745   0.12062   0.12811   0.13461   0.14305

 Mulliken charges:
               1
     1  C   -5.346255
     2  C    1.908598
     3  C    3.302146
     4  C   -4.533622
     5  C    1.115452
     6  C   -2.208933
     7  N   -2.432609
     8  H    0.879532
     9  H    0.883078
    10  H    0.854314
    11  H    0.844978
    12  H    0.869916
    13  H    1.424983
    14  H    1.022814
    15  H    0.678505
    16  H    0.737103
 Sum of Mulliken charges =  -0.00000

 Dipole moment (field-independent basis, Debye):
    X=              0.4926    Y=             -3.9298    Z=             -0.2578  Tot=              3.9689

 Test job not archived.
 1\1\GINC-SE220\SP\RHF\Aug-CC-pVDZ\C6H9N1\OHZDE\09-Apr-2025\0\\#t hf au
 g-cc-pvdz iop(5/13=1,5/36=2,99/5=2) pseudo=read geom=check guess=(read
 ,tcheck) scf=(maxcycle=1)\\title\\0,1\C,0,2.68637317,0.41167795,2.2779
 1721\C,0,1.64892163,-0.05949716,1.36831015\C,0,0.79735413,-0.43628272,
 0.61446313\C,0,-0.25865032,-0.87625473,-0.29399101\C,0,-1.42114275,0.1
 0389235,-0.30317288\C,0,-1.55107517,1.27276662,-1.20094634\N,0,-2.3333
 3292,-0.06566499,-1.44992104\H,0,2.68938765,-0.16873211,3.20168977\H,0
 ,2.52295604,1.4594235,2.53452428\H,0,3.67207868,0.32554515,1.81814068\

 Normal termination of Gaussian 16 at Wed Apr  9 19:01:03 2025.
