 Gaussian 16, Revision C.01,

 ----------------------------------------------------------------------
 #t hf aug-cc-pvdz symm=none int=(grid=ultrafine) guess=(read,tcheck) s
 table=(opt,rrhf)
 ----------------------------------------------------------------------
 -----
 title
 -----
 Symbolic Z-matrix:
 Charge =  0 Multiplicity = 1

 SCF Done:  E(RHF) =  -306.535796901     A.U. after   17 cycles
 Normal termination of Gaussian 16 at Wed Apr  9 19:29:18 2025.
 Gaussian 16:  ES64L-G16RevC.01  3-Jul-2019

 ----------------------------------------------------------------------
 #t hf aug-cc-pvdz iop(5/13=1,5/36=2,99/5=2) pseudo=read geom=check gue
 ss=(read,tcheck) scf=(maxcycle=1)
 ----------------------------------------------------------------------
 -----
 title
 -----
 Structure from the checkpoint file:  "Grambow2020_wb97xd3_009027_forward_mol1.chk"
 Charge =  0 Multiplicity = 1

                         Standard orientation:
 ---------------------------------------------------------------------
 Center     Atomic      Atomic             Coordinates (Angstroms)
 Number     Number       Type             X           Y           Z
 ---------------------------------------------------------------------
      1          6           0        2.181826   -0.055161    0.367470
      2          6           0        0.780729   -0.085269   -0.139088
      3          8           0        0.131103   -1.217954   -0.043240
      4          6           0       -1.184813   -0.944972   -0.379852
      5          6           0       -1.669869    0.176278    0.478407
      6          6           0       -0.634405    1.204093    0.277858
      7          6           0        0.099984    0.943781   -0.898353
      8          1           0        2.766636   -0.814756   -0.157444
      9          1           0        2.631068    0.918782    0.183020
     10          1           0        2.235136   -0.269093    1.435672
     11          1           0       -1.759188   -1.862737   -0.437360
     12          1           0       -2.594223    0.591050    0.062295
     13          1           0       -1.869476   -0.116108    1.521063
     14          1           0       -0.594377    2.127509    0.849922
     15          1           0        0.694884    1.736487   -1.349897
 ---------------------------------------------------------------------

 SCF Done:  E(RHF) =  -308.009104444     A.U. after    2 cycles

 The electronic state is 1-A.
 Alpha  occ. eigenvalues --  -21.10252 -11.49038 -11.47177 -11.41544 -11.40399
 Alpha  occ. eigenvalues --  -11.39924 -11.36079  -1.84658  -1.28254  -1.15485
 Alpha  occ. eigenvalues --   -1.03715  -0.88212  -0.83615  -0.73162  -0.69247
 Alpha  occ. eigenvalues --   -0.63628  -0.62028  -0.58256  -0.55596  -0.54008
 Alpha  occ. eigenvalues --   -0.51270  -0.47980  -0.42326  -0.40539  -0.30994
 Alpha  occ. eigenvalues --   -0.23771
 Alpha virt. eigenvalues --    0.03576   0.04789   0.05123   0.05374   0.05857
 Alpha virt. eigenvalues --    0.06386   0.06544   0.07041   0.08725   0.10756
 Alpha virt. eigenvalues --    0.11682   0.11992   0.12878   0.13466   0.13880

 Mulliken charges:
               1
     1  C   -4.439053
     2  C    4.612306
     3  O   -3.828091
     4  C   -0.559608
     5  C   -3.632961
     6  C   -0.677840
     7  C   -2.166741
     8  H    1.258565
     9  H    1.208458
    10  H    1.209686
    11  H    1.506887
    12  H    1.467900
    13  H    1.347880
    14  H    1.290548
    15  H    1.402062
 Sum of Mulliken charges =   0.00000

 Dipole moment (field-independent basis, Debye):
    X=              1.2679    Y=              0.8597    Z=              1.7474  Tot=              2.3238

 Test job not archived.
 1\1\GINC-SE048\SP\RHF\Aug-CC-pVDZ\C6H8O1\OHZDE\09-Apr-2025\0\\#t hf au
 g-cc-pvdz iop(5/13=1,5/36=2,99/5=2) pseudo=read geom=check guess=(read
 ,tcheck) scf=(maxcycle=1)\\title\\0,1\C,0,2.08058735,0.35446669,-0.253
 97474\C,0,0.63374537,0.4521271,0.08908775\O,0,-0.11714156,1.20006915,-
 0.67963054\C,0,-1.42710398,0.97026358,-0.29149688\C,0,-1.68299042,-0.4
 9995959,-0.33682397\C,0,-0.57505395,-1.04274306,0.467334\C,0,-0.019074
 91,-0.03731605,1.28621432\H,0,2.51359144,1.35795553,-0.26015093\H,0,2.
 60608679,-0.24667327,0.48554331\H,0,2.23837991,-0.08544695,-1.23949125

 Normal termination of Gaussian 16 at Wed Apr  9 19:29:22 2025.
