 Gaussian 16, Revision C.01,

 ----------------------------------------------------------------------
 #t hf aug-cc-pvdz symm=none int=(grid=ultrafine) guess=(read,tcheck) s
 table=(opt,rrhf)
 ----------------------------------------------------------------------
 -----
 title
 -----
 Symbolic Z-matrix:
 Charge =  0 Multiplicity = 1

 SCF Done:  E(RHF) =  -359.664851224     A.U. after   15 cycles
 Normal termination of Gaussian 16 at Wed Apr  9 19:33:50 2025.
 Gaussian 16:  ES64L-G16RevC.01  3-Jul-2019

 ----------------------------------------------------------------------
 #t hf aug-cc-pvdz iop(5/13=1,5/36=2,99/5=2) pseudo=read geom=check gue
 ss=(read,tcheck) scf=(maxcycle=1)
 ----------------------------------------------------------------------
 -----
 title
 -----
 Structure from the checkpoint file:  "Grambow2020_wb97xd3_009392_forward_mol1.chk"
 Charge =  0 Multiplicity = 1

                         Standard orientation:
 ---------------------------------------------------------------------
 Center     Atomic      Atomic             Coordinates (Angstroms)
 Number     Number       Type             X           Y           Z
 ---------------------------------------------------------------------
      1          6           0       -0.784496    1.588270   -0.106261
      2          7           0       -0.312095    0.210243   -0.021048
      3          6           0       -1.248072   -0.819292    0.076707
      4          8           0       -2.430102   -0.633182    0.048658
      5          6           0        1.010671   -0.073420    0.015430
      6          8           0        1.859482    0.881605    0.147729
      7          6           0        1.716635   -1.302095   -0.158957
      8          1           0       -1.743659    1.588052   -0.618083
      9          1           0       -0.911961    2.012372    0.889520
     10          1           0       -0.052215    2.176032   -0.652982
     11          1           0       -0.777374   -1.805387    0.188315
     12          1           0        2.199934   -1.620303    0.762810
     13          1           0        2.567742   -0.054856   -0.214314
     14          1           0        1.298729   -2.115768   -0.740538
 ---------------------------------------------------------------------

 SCF Done:  E(RHF) =  -361.290042210     A.U. after    2 cycles

 The electronic state is 1-A.
 Alpha  occ. eigenvalues --  -21.07915 -21.07653 -15.80714 -11.54089 -11.51818
 Alpha  occ. eigenvalues --  -11.41802 -11.36062  -1.79420  -1.74812  -1.46175
 Alpha  occ. eigenvalues --   -1.11941  -1.03304  -0.93273  -0.79414  -0.71302
 Alpha  occ. eigenvalues --   -0.67819  -0.63985  -0.59148  -0.58184  -0.57566
 Alpha  occ. eigenvalues --   -0.52770  -0.50982  -0.48800  -0.42618  -0.34841
 Alpha  occ. eigenvalues --   -0.32871  -0.28628
 Alpha virt. eigenvalues --    0.03241   0.05385   0.05489   0.06247   0.06578
 Alpha virt. eigenvalues --    0.06700   0.07273   0.09094   0.10932   0.11908
 Alpha virt. eigenvalues --    0.12366   0.13106   0.13255   0.13637   0.14681

 Mulliken charges:
               1
     1  C   -3.548574
     2  N   -3.145826
     3  C    2.130024
     4  O   -2.738484
     5  C    5.409042
     6  O   -3.050669
     7  C   -4.240837
     8  H    1.369863
     9  H    1.361234
    10  H    1.391378
    11  H    1.630205
    12  H    1.061447
    13  H    1.077084
    14  H    1.294113
 Sum of Mulliken charges =  -0.00000

 Dipole moment (field-independent basis, Debye):
    X=             -0.9190    Y=              1.6992    Z=              0.3378  Tot=              1.9611

 Test job not archived.
 1\1\GINC-SE097\SP\RHF\Aug-CC-pVDZ\C4H7N1O2\OHZDE\09-Apr-2025\0\\#t hf
 aug-cc-pvdz iop(5/13=1,5/36=2,99/5=2) pseudo=read geom=check guess=(re
 ad,tcheck) scf=(maxcycle=1)\\title\\0,1\C,0,-1.61869542,-0.84977821,-0
 .3118489\N,0,-0.52161507,0.03672985,0.06218122\C,0,-0.81202548,1.22236
 163,0.73708179\O,0,-1.91983188,1.53169239,1.06828995\C,0,0.75587304,-0
 .2505734,-0.27985261\O,0,0.99206823,-1.22212346,-1.08630001\C,0,1.9972
 7157,0.29282929,0.16968137\H,0,-2.4048825,-0.75088379,0.43252019\H,0,-
 2.01658308,-0.57657591,-1.28895492\H,0,-1.2464854,-1.86984061,-0.35104

 Normal termination of Gaussian 16 at Wed Apr  9 19:33:55 2025.
