 Gaussian 16, Revision C.01,

 ----------------------------------------------------------------------
 #t hf aug-cc-pvdz symm=none int=(grid=ultrafine) guess=(read,tcheck) s
 table=(opt,rrhf)
 ----------------------------------------------------------------------
 -----
 title
 -----
 Symbolic Z-matrix:
 Charge =  0 Multiplicity = 1

 SCF Done:  E(RHF) =  -268.860408566     A.U. after   15 cycles
 Normal termination of Gaussian 16 at Wed Apr  9 03:05:28 2025.
 Gaussian 16:  ES64L-G16RevC.01  3-Jul-2019

 ----------------------------------------------------------------------
 #t hf aug-cc-pvdz iop(5/13=1,5/36=2,99/5=2) pseudo=read geom=check gue
 ss=(read,tcheck) scf=(maxcycle=1)
 ----------------------------------------------------------------------
 -----
 title
 -----
 Structure from the checkpoint file:  "Grambow2020_b97d3_006487_reverse_mol2.chk"
 Charge =  0 Multiplicity = 1

                         Standard orientation:
 ---------------------------------------------------------------------
 Center     Atomic      Atomic             Coordinates (Angstroms)
 Number     Number       Type             X           Y           Z
 ---------------------------------------------------------------------
      1          8           0       -2.631775    0.647723   -0.203323
      2          6           0       -1.697617    0.000804    0.124453
      3          6           0        1.769044    1.215742    0.050761
      4          6           0        1.834386   -0.315268    0.054701
      5          6           0        0.535927   -0.980357   -0.446950
      6          6           0       -0.652998   -0.731528    0.468572
      7          1           0        1.579711    1.596030   -0.964481
      8          1           0        2.711885    1.654772    0.405640
      9          1           0        2.665412   -0.654764   -0.584521
     10          1           0        2.053077   -0.677545    1.072019
     11          1           0        0.689531   -2.067679   -0.535147
     12          1           0        0.306985   -0.613153   -1.458447
     13          1           0       -0.643683   -1.131344    1.482718
     14          1           0        0.958834    1.575536    0.699577
 ---------------------------------------------------------------------

 SCF Done:  E(RHF) =  -270.126341620     A.U. after    2 cycles

 The electronic state is 1-A.
 Alpha  occ. eigenvalues --  -21.12647 -11.53492 -11.44343 -11.40826 -11.38886
 Alpha  occ. eigenvalues --  -11.35699  -1.75112  -1.25302  -1.10857  -0.97424
 Alpha  occ. eigenvalues --   -0.84281  -0.72219  -0.63276  -0.61983  -0.59804
 Alpha  occ. eigenvalues --   -0.54894  -0.54370  -0.53506  -0.48349  -0.46652
 Alpha  occ. eigenvalues --   -0.46128  -0.43642  -0.27544
 Alpha virt. eigenvalues --    0.03537   0.05183   0.05369   0.05718   0.06048
 Alpha virt. eigenvalues --    0.06672   0.06765   0.07734   0.08974   0.11798
 Alpha virt. eigenvalues --    0.12256   0.13031   0.13550   0.14246   0.14725

 Mulliken charges:
               1
     1  O   -2.394492
     2  C    1.557938
     3  C   -3.713407
     4  C   -2.915377
     5  C   -3.100792
     6  C   -0.265150
     7  H    1.242780
     8  H    1.161277
     9  H    1.306925
    10  H    1.382768
    11  H    1.251205
    12  H    1.522978
    13  H    1.489981
    14  H    1.473365
 Sum of Mulliken charges =   0.00000

 Dipole moment (field-independent basis, Debye):
    X=              0.3173    Y=             -0.0009    Z=             -0.0924  Tot=              0.3305

 Test job not archived.
 1\1\GINC-SE419\SP\RHF\Aug-CC-pVDZ\C5H8O1\OHZDE\09-Apr-2025\0\\#t hf au
 g-cc-pvdz iop(5/13=1,5/36=2,99/5=2) pseudo=read geom=check guess=(read
 ,tcheck) scf=(maxcycle=1)\\title\\0,1\O,0,0.86179231,2.98985791,1.3051
 6188\C,0,1.06264504,1.99753045,0.69398452\C,0,-1.58459031,-0.27089717,
 -0.46602359\C,0,-0.28258602,-1.07883738,-0.4488748\C,0,0.78922915,-0.4
 8456075,0.48816423\C,0,1.29066772,0.87703736,0.03182322\H,0,-2.0253240
 1,-0.2188776,0.54106663\H,0,-2.32650381,-0.72676882,-1.13638337\H,0,-0
 .48900439,-2.11204936,-0.1258738\H,0,0.12953822,-1.14548308,-1.4685410

 Normal termination of Gaussian 16 at Wed Apr  9 03:05:32 2025.
