 Gaussian 16, Revision C.01,

 ----------------------------------------------------------------------
 #t hf aug-cc-pvdz symm=none int=(grid=ultrafine) guess=(read,tcheck) s
 table=(opt,rrhf)
 ----------------------------------------------------------------------
 -----
 title
 -----
 Symbolic Z-matrix:
 Charge =  0 Multiplicity = 1

 SCF Done:  E(RHF) =  -307.725320278     A.U. after   15 cycles

 1\1\GINC-SE224\Stability\RHF\Aug-CC-pVDZ\C6H10O1\OHZDE\09-Apr-2025\0\\
 #t hf aug-cc-pvdz symm=none int=(grid=ultrafine) guess=(read,tcheck) s
 table=(opt,rrhf)\\title\\0,1\C,0,-2.25472059,-0.33953798,0.26156901\C,
 0,-1.16967366,0.26473924,-0.5637959\O,0,-0.53212803,1.22048053,0.11890
 583\C,0,0.77290054,1.47813623,-0.36577342\C,0,1.55580822,0.16725683,-0
 .26194322\C,0,1.19399091,-0.73310624,0.8806132\C,0,0.70785091,-1.02009
 511,-0.49016417\H,0,-3.09773558,0.35666817,0.25972612\H,0,-1.96151534,
 -0.50266469,1.3050398\H,0,-2.59462649,-1.27577224,-0.17826833\H,0,-0.4

 Normal termination of Gaussian 16 at Wed Apr  9 18:20:33 2025.
 Gaussian 16:  ES64L-G16RevC.01  3-Jul-2019

 ----------------------------------------------------------------------
 #t hf aug-cc-pvdz iop(5/13=1,5/36=2,99/5=2) pseudo=read geom=check gue
 ss=(read,tcheck) scf=(maxcycle=1)
 ----------------------------------------------------------------------
 -----
 title
 -----
 Structure from the checkpoint file:  "Grambow2020_wb97xd3_006897_forward_mol1.chk"
 Charge =  0 Multiplicity = 1

                         Standard orientation:
 ---------------------------------------------------------------------
 Center     Atomic      Atomic             Coordinates (Angstroms)
 Number     Number       Type             X           Y           Z
 ---------------------------------------------------------------------
      1          6           0       -2.268079   -0.529305    0.127099
      2          6           0       -1.163495    0.230711   -0.525568
      3          8           0       -0.552204    1.027870    0.355821
      4          6           0        0.764631    1.379305   -0.027373
      5          6           0        1.552665    0.075057   -0.169037
      6          6           0        1.163713   -1.039062    0.755331
      7          6           0        0.719379   -1.041415   -0.658984
      8          1           0       -3.115173    0.152350    0.241814
      9          1           0       -2.004196   -0.901159    1.123845
     10          1           0       -2.589028   -1.356639   -0.503803
     11          1           0       -0.381324   -0.367496   -1.218604
     12          1           0        0.751347    1.920548   -0.977598
     13          1           0        1.153798    2.023552    0.759869
     14          1           0        2.582430    0.190763   -0.484587
     15          1           0        0.438634   -0.805531    1.532937
     16          1           0        1.921855   -1.753323    1.052349
     17          1           0        1.046412   -1.777772   -1.381600
 ---------------------------------------------------------------------

 SCF Done:  E(RHF) =  -309.213732379     A.U. after    2 cycles

 The electronic state is 1-A.
 Alpha  occ. eigenvalues --  -21.07950 -11.46519 -11.43842 -11.41293 -11.40138
 Alpha  occ. eigenvalues --  -11.37081 -11.35946  -1.81290  -1.30352  -1.12748
 Alpha  occ. eigenvalues --   -1.00338  -0.89229  -0.80952  -0.78961  -0.70847
 Alpha  occ. eigenvalues --   -0.64516  -0.62311  -0.60357  -0.56252  -0.53162
 Alpha  occ. eigenvalues --   -0.51190  -0.48524  -0.43870  -0.41492  -0.37534
 Alpha  occ. eigenvalues --   -0.37160  -0.23702
 Alpha virt. eigenvalues --    0.04123   0.04933   0.05214   0.05635   0.05729
 Alpha virt. eigenvalues --    0.05931   0.06796   0.06931   0.07285   0.09502
 Alpha virt. eigenvalues --    0.10993   0.12153   0.12241   0.13945   0.14346

 Mulliken charges:
               1
     1  C   -3.865178
     2  C   -0.053429
     3  O   -3.056677
     4  C   -2.198870
     5  C   -1.109554
     6  C   -2.619143
     7  C   -1.860999
     8  H    1.269121
     9  H    1.435905
    10  H    1.241337
    11  H    2.594544
    12  H    1.514621
    13  H    1.423813
    14  H    1.339745
    15  H    1.471061
    16  H    1.255797
    17  H    1.217905
 Sum of Mulliken charges =  -0.00000

 Dipole moment (field-independent basis, Debye):
    X=              0.9020    Y=              0.1796    Z=              0.5752  Tot=              1.0848

 Test job not archived.
 1\1\GINC-SE224\SP\RHF\Aug-CC-pVDZ\C6H10O1\OHZDE\09-Apr-2025\0\\#t hf a
 ug-cc-pvdz iop(5/13=1,5/36=2,99/5=2) pseudo=read geom=check guess=(rea
 d,tcheck) scf=(maxcycle=1)\\title\\0,1\C,0,-2.25472059,-0.33953798,0.2
 6156901\C,0,-1.16967366,0.26473924,-0.5637959\O,0,-0.53212803,1.220480
 53,0.11890583\C,0,0.77290054,1.47813623,-0.36577342\C,0,1.55580822,0.1
 6725683,-0.26194322\C,0,1.19399091,-0.73310624,0.8806132\C,0,0.7078509
 1,-1.02009511,-0.49016417\H,0,-3.09773558,0.35666817,0.25972612\H,0,-1
 .96151534,-0.50266469,1.3050398\H,0,-2.59462649,-1.27577224,-0.1782683

 Normal termination of Gaussian 16 at Wed Apr  9 18:20:39 2025.
