 Gaussian 16, Revision C.01,

 ----------------------------------------------------------------------
 #t hf aug-cc-pvdz symm=none int=(grid=ultrafine) guess=(read,tcheck) s
 table=(opt,rrhf)
 ----------------------------------------------------------------------
 -----
 title
 -----
 Symbolic Z-matrix:
 Charge =  0 Multiplicity = 1

 SCF Done:  E(RHF) =  -308.815419542     A.U. after   18 cycles

 1\1\GINC-SE041\Stability\RHF\Aug-CC-pVDZ\C6H12O1\OHZDE\09-Apr-2025\0\\
 #t hf aug-cc-pvdz symm=none int=(grid=ultrafine) guess=(read,tcheck) s
 table=(opt,rrhf)\\title\\0,1\C,0,1.99503622,0.28012413,-0.64887166\C,0
 ,0.77376258,-0.32255599,0.76447901\O,0,1.3441791,-0.27081241,1.9886043
 1\C,0,-0.23078204,0.725059,0.34725313\C,0,0.16229156,0.81538547,-1.081
 53604\C,0,-1.63458765,0.40141248,0.41834755\C,0,-2.24549696,-0.8625226
 8,-0.10790211\H,0,2.17322437,0.45109397,-1.72371116\H,0,2.57079597,-0.
 63932696,-0.47294114\H,0,2.46354189,1.10033785,-0.10733587\H,0,0.53454

 Normal termination of Gaussian 16 at Wed Apr  9 18:45:11 2025.
 Gaussian 16:  ES64L-G16RevC.01  3-Jul-2019

 ----------------------------------------------------------------------
 #t hf aug-cc-pvdz iop(5/13=1,5/36=2,99/5=2) pseudo=read geom=check gue
 ss=(read,tcheck) scf=(maxcycle=1)
 ----------------------------------------------------------------------
 -----
 title
 -----
 Structure from the checkpoint file:  "Grambow2020_wb97xd3_007583_forward_mol1.chk"
 Charge =  0 Multiplicity = 1

                         Standard orientation:
 ---------------------------------------------------------------------
 Center     Atomic      Atomic             Coordinates (Angstroms)
 Number     Number       Type             X           Y           Z
 ---------------------------------------------------------------------
      1          6           0        1.829690    1.026208   -0.375526
      2          6           0        0.730615   -0.594920   -0.247961
      3          8           0        1.443787   -1.663731    0.171043
      4          6           0       -0.208724    0.112909    0.699302
      5          6           0        0.019963    1.494424    0.206127
      6          6           0       -1.619228   -0.177162    0.616796
      7          6           0       -2.408742   -0.213459   -0.657186
      8          1           0        1.895689    2.095858   -0.635823
      9          1           0        2.329389    0.558316   -1.235305
     10          1           0        2.436848    0.870375    0.514746
     11          1           0        0.355174   -0.680143   -1.270566
     12          1           0        1.628740   -2.266479   -0.551934
     13          1           0        0.176306   -0.003565    1.714009
     14          1           0       -0.463134    1.737597   -0.735434
     15          1           0        0.056468    2.330795    0.902340
     16          1           0       -2.127021   -0.544904    1.502619
     17          1           0       -1.868344    0.223463   -1.501937
     18          1           0       -3.351616    0.335426   -0.565164
     19          1           0       -2.680239   -1.234891   -0.955210
 ---------------------------------------------------------------------

 SCF Done:  E(RHF) =  -310.354857047     A.U. after    2 cycles

 The electronic state is 1-A.
 Alpha  occ. eigenvalues --  -21.12313 -11.49250 -11.44375 -11.41047 -11.37591
 Alpha  occ. eigenvalues --  -11.37318 -11.33899  -1.77353  -1.28836  -1.08542
 Alpha  occ. eigenvalues --   -0.99674  -0.94286  -0.86932  -0.77245  -0.70304
 Alpha  occ. eigenvalues --   -0.63735  -0.60515  -0.58846  -0.56634  -0.53687
 Alpha  occ. eigenvalues --   -0.52268  -0.49867  -0.48980  -0.45767  -0.42899
 Alpha  occ. eigenvalues --   -0.42573  -0.33005  -0.18809
 Alpha virt. eigenvalues --    0.03568   0.04719   0.04908   0.05149   0.05884
 Alpha virt. eigenvalues --    0.05947   0.06317   0.06552   0.06839   0.08563
 Alpha virt. eigenvalues --    0.08713   0.09274   0.10735   0.12671   0.13110

 Mulliken charges:
               1
     1  C   -3.895610
     2  C    1.919609
     3  O   -3.260646
     4  C   -2.328334
     5  C   -2.389507
     6  C   -1.255716
     7  C   -4.421632
     8  H    1.019443
     9  H    1.023138
    10  H    1.269731
    11  H    1.879245
    12  H    0.672239
    13  H    1.431039
    14  H    1.624450
    15  H    1.424472
    16  H    1.301738
    17  H    1.576219
    18  H    1.188053
    19  H    1.222067
 Sum of Mulliken charges =  -0.00000

 Dipole moment (field-independent basis, Debye):
    X=              2.1633    Y=             -1.2005    Z=             -1.1237  Tot=              2.7173

 Test job not archived.
 1\1\GINC-SE041\SP\RHF\Aug-CC-pVDZ\C6H12O1\OHZDE\09-Apr-2025\0\\#t hf a
 ug-cc-pvdz iop(5/13=1,5/36=2,99/5=2) pseudo=read geom=check guess=(rea
 d,tcheck) scf=(maxcycle=1)\\title\\0,1\C,0,1.99503622,0.28012413,-0.64
 887166\C,0,0.77376258,-0.32255599,0.76447901\O,0,1.3441791,-0.27081241
 ,1.98860431\C,0,-0.23078204,0.725059,0.34725313\C,0,0.16229156,0.81538
 547,-1.08153604\C,0,-1.63458765,0.40141248,0.41834755\C,0,-2.24549696,
 -0.86252268,-0.10790211\H,0,2.17322437,0.45109397,-1.72371116\H,0,2.57
 079597,-0.63932696,-0.47294114\H,0,2.46354189,1.10033785,-0.10733587\H

 Normal termination of Gaussian 16 at Wed Apr  9 18:45:18 2025.
