 Gaussian 16, Revision C.01,

 ----------------------------------------------------------------------
 #t hf aug-cc-pvdz symm=none int=(grid=ultrafine) guess=(read,tcheck) s
 table=(opt,rrhf)
 ----------------------------------------------------------------------
 -----
 title
 -----
 Symbolic Z-matrix:
 Charge =  0 Multiplicity = 1

 SCF Done:  E(RHF) =  -344.749455867     A.U. after   16 cycles

 1\1\GINC-SE340\Stability\RHF\Aug-CC-pVDZ\C5H10O2\OHZDE\09-Apr-2025\0\\
 #t hf aug-cc-pvdz symm=none int=(grid=ultrafine) guess=(read,tcheck) s
 table=(opt,rrhf)\\title\\0,1\C,0,-1.35253943,-1.47049072,-0.24894324\C
 ,0,-0.39175643,-0.36742139,0.00869851\C,0,1.07477538,-0.58381455,-0.16
 079655\C,0,1.95592054,0.43483005,0.55667265\O,0,1.91231308,1.71472712,
 -0.03383126\C,0,-1.81919595,1.17584918,-0.16506139\O,0,-0.74019436,0.7
 7338114,0.58313174\H,0,-1.5926661,-1.62700749,-1.30268753\H,0,-0.92804
 334,-2.41279295,0.12419433\H,0,-2.29754731,-1.22772155,0.24562508\H,0,

 Normal termination of Gaussian 16 at Wed Apr  9 18:44:43 2025.
 Gaussian 16:  ES64L-G16RevC.01  3-Jul-2019

 ----------------------------------------------------------------------
 #t hf aug-cc-pvdz iop(5/13=1,5/36=2,99/5=2) pseudo=read geom=check gue
 ss=(read,tcheck) scf=(maxcycle=1)
 ----------------------------------------------------------------------
 -----
 title
 -----
 Structure from the checkpoint file:  "Grambow2020_wb97xd3_007599_reverse_mol1.chk"
 Charge =  0 Multiplicity = 1

                         Standard orientation:
 ---------------------------------------------------------------------
 Center     Atomic      Atomic             Coordinates (Angstroms)
 Number     Number       Type             X           Y           Z
 ---------------------------------------------------------------------
      1          6           0        1.967977   -1.118957    0.057768
      2          6           0        0.670220   -0.401862   -0.030814
      3          6           0       -0.612796   -1.122017    0.217208
      4          6           0       -1.851361   -0.427217   -0.341385
      5          8           0       -2.187934    0.748610    0.360671
      6          6           0        1.499701    1.525242    0.187573
      7          8           0        0.554725    0.823121   -0.519579
      8          1           0        2.346512   -1.249488    1.073744
      9          1           0        1.854413   -2.124153   -0.371238
     10          1           0        2.722866   -0.533668   -0.475294
     11          1           0       -0.750700   -1.249226    1.299348
     12          1           0       -0.527133   -2.137100   -0.189711
     13          1           0       -2.705346   -1.098234   -0.238040
     14          1           0       -1.720614   -0.225166   -1.410974
     15          1           0       -1.518771    1.408535    0.164693
     16          1           0        2.007761    2.298131   -0.369122
     17          1           0        1.314231    1.605390    1.245752
 ---------------------------------------------------------------------

 SCF Done:  E(RHF) =  -346.362021775     A.U. after    2 cycles

 The electronic state is 1-A.
 Alpha  occ. eigenvalues --  -21.13048 -21.06534 -11.51158 -11.45394 -11.40741
 Alpha  occ. eigenvalues --  -11.39186 -11.35953  -1.84717  -1.71050  -1.21185
 Alpha  occ. eigenvalues --   -1.08869  -0.95090  -0.90175  -0.77159  -0.69059
 Alpha  occ. eigenvalues --   -0.66627  -0.63019  -0.61960  -0.58904  -0.55853
 Alpha  occ. eigenvalues --   -0.53391  -0.53214  -0.49662  -0.48048  -0.41675
 Alpha  occ. eigenvalues --   -0.36890  -0.31711  -0.23972
 Alpha virt. eigenvalues --    0.03531   0.04639   0.04820   0.05389   0.05956
 Alpha virt. eigenvalues --    0.06099   0.06558   0.07022   0.07536   0.08645
 Alpha virt. eigenvalues --    0.09478   0.11408   0.12888   0.13109   0.13987

 Mulliken charges:
               1
     1  C   -4.249493
     2  C    4.019132
     3  C   -3.098878
     4  C   -1.134155
     5  O   -2.658666
     6  C   -2.317733
     7  O   -3.539087
     8  H    1.277483
     9  H    1.215601
    10  H    1.375390
    11  H    1.411215
    12  H    1.459768
    13  H    1.181325
    14  H    1.479860
    15  H    0.924694
    16  H    1.283841
    17  H    1.369704
 Sum of Mulliken charges =   0.00000

 Dipole moment (field-independent basis, Debye):
    X=             -0.3690    Y=             -1.5488    Z=             -0.5950  Tot=              1.6997

 Test job not archived.
 1\1\GINC-SE340\SP\RHF\Aug-CC-pVDZ\C5H10O2\OHZDE\09-Apr-2025\0\\#t hf a
 ug-cc-pvdz iop(5/13=1,5/36=2,99/5=2) pseudo=read geom=check guess=(rea
 d,tcheck) scf=(maxcycle=1)\\title\\0,1\C,0,-1.35253943,-1.47049072,-0.
 24894324\C,0,-0.39175643,-0.36742139,0.00869851\C,0,1.07477538,-0.5838
 1455,-0.16079655\C,0,1.95592054,0.43483005,0.55667265\O,0,1.91231308,1
 .71472712,-0.03383126\C,0,-1.81919595,1.17584918,-0.16506139\O,0,-0.74
 019436,0.77338114,0.58313174\H,0,-1.5926661,-1.62700749,-1.30268753\H,
 0,-0.92804334,-2.41279295,0.12419433\H,0,-2.29754731,-1.22772155,0.245

 Normal termination of Gaussian 16 at Wed Apr  9 18:44:48 2025.
