 Gaussian 16, Revision C.01,

 ----------------------------------------------------------------------
 #t hf aug-cc-pvdz symm=none int=(grid=ultrafine) guess=(read,tcheck) s
 table=(opt,rrhf)
 ----------------------------------------------------------------------
 -----
 title
 -----
 Symbolic Z-matrix:
 Charge =  0 Multiplicity = 1

 SCF Done:  E(RHF) =  -380.654899683     A.U. after   14 cycles
 Normal termination of Gaussian 16 at Wed Apr  9 03:40:53 2025.
 Gaussian 16:  ES64L-G16RevC.01  3-Jul-2019

 ----------------------------------------------------------------------
 #t hf aug-cc-pvdz iop(5/13=1,5/36=2,99/5=2) pseudo=read geom=check gue
 ss=(read,tcheck) scf=(maxcycle=1)
 ----------------------------------------------------------------------
 -----
 title
 -----
 Structure from the checkpoint file:  "Grambow2020_wb97xd3_007510_forward_mol1.chk"
 Charge =  0 Multiplicity = 1

                         Standard orientation:
 ---------------------------------------------------------------------
 Center     Atomic      Atomic             Coordinates (Angstroms)
 Number     Number       Type             X           Y           Z
 ---------------------------------------------------------------------
      1          8           0       -0.809651   -0.683956   -0.890655
      2          6           0       -1.973033    0.051517   -0.423493
      3          6           0       -1.219320    0.869420    0.619590
      4          6           0        0.063867    0.080157    0.318425
      5          8           0        0.275856   -1.044000    0.970632
      6          6           0        1.288661    0.814776   -0.159370
      7          8           0        2.348096   -0.054544   -0.405716
      8          1           0       -0.463079   -1.416966   -0.005723
      9          1           0       -2.738148   -0.626876   -0.046107
     10          1           0       -2.378051    0.633392   -1.249033
     11          1           0       -1.534399    0.741878    1.652716
     12          1           0       -1.143301    1.930126    0.380313
     13          1           0        1.062359    1.383209   -1.063912
     14          1           0        1.523895    1.538801    0.639301
     15          1           0        2.195268   -0.818773    0.167443
 ---------------------------------------------------------------------

 SCF Done:  E(RHF) =  -382.361436866     A.U. after    2 cycles

 The electronic state is 1-A.
 Alpha  occ. eigenvalues --  -21.06696 -21.06439 -21.01892 -11.54020 -11.47431
 Alpha  occ. eigenvalues --  -11.44896 -11.40367  -1.85792  -1.71440  -1.62822
 Alpha  occ. eigenvalues --   -1.17795  -1.05335  -0.92997  -0.78698  -0.72110
 Alpha  occ. eigenvalues --   -0.68173  -0.67148  -0.61601  -0.58591  -0.57087
 Alpha  occ. eigenvalues --   -0.53915  -0.45982  -0.45054  -0.39876  -0.38552
 Alpha  occ. eigenvalues --   -0.31875  -0.30449  -0.26841
 Alpha virt. eigenvalues --    0.03563   0.04617   0.04987   0.05420   0.05695
 Alpha virt. eigenvalues --    0.06043   0.07452   0.07837   0.10673   0.11485
 Alpha virt. eigenvalues --    0.12180   0.13293   0.14053   0.14354   0.14842

 Mulliken charges:
               1
     1  O   -2.433519
     2  C   -1.569208
     3  C   -3.194128
     4  C    4.989606
     5  O   -3.345868
     6  C   -0.424496
     7  O   -2.863356
     8  H    0.098542
     9  H    1.399348
    10  H    1.358263
    11  H    1.235893
    12  H    1.412206
    13  H    1.373069
    14  H    1.189338
    15  H    0.774309
 Sum of Mulliken charges =   0.00000

 Dipole moment (field-independent basis, Debye):
    X=             -2.2637    Y=              1.1278    Z=             -0.7240  Tot=              2.6307

 Test job not archived.
 1\1\GINC-SE009\SP\RHF\Aug-CC-pVDZ\C4H8O3\OHZDE\09-Apr-2025\0\\#t hf au
 g-cc-pvdz iop(5/13=1,5/36=2,99/5=2) pseudo=read geom=check guess=(read
 ,tcheck) scf=(maxcycle=1)\\title\\0,1\O,0,-0.45359481,1.14809114,-0.38
 396568\C,0,-1.67743691,0.37745044,-0.23925672\C,0,-1.00735855,-0.84619
 255,0.37618005\C,0,0.37183867,-0.20313821,0.16522833\O,0,0.97885838,-0
 .38634148,-0.98889753\C,0,1.26186044,0.04430551,1.35464223\O,0,2.45875
 32,0.65255527,0.98547282\H,0,0.2156116,0.61373848,-1.22488819\H,0,-2.1
 6217875,0.22967877,-1.20425861\H,0,-2.3522789,0.90837133,0.42920798\H,

 Normal termination of Gaussian 16 at Wed Apr  9 03:40:57 2025.
