 Gaussian 16, Revision C.01,

 ----------------------------------------------------------------------
 #t hf aug-cc-pvdz symm=none int=(grid=ultrafine) guess=(read,tcheck) s
 table=(opt,rrhf)
 ----------------------------------------------------------------------
 -----
 title
 -----
 Symbolic Z-matrix:
 Charge =  0 Multiplicity = 1

 SCF Done:  E(RHF) =  -374.609584549     A.U. after   13 cycles
 Normal termination of Gaussian 16 at Wed Apr  9 19:33:56 2025.
 Gaussian 16:  ES64L-G16RevC.01  3-Jul-2019

 ----------------------------------------------------------------------
 #t hf aug-cc-pvdz iop(5/13=1,5/36=2,99/5=2) pseudo=read geom=check gue
 ss=(read,tcheck) scf=(maxcycle=1)
 ----------------------------------------------------------------------
 -----
 title
 -----
 Structure from the checkpoint file:  "Grambow2020_wb97xd3_009447_forward_mol2.chk"
 Charge =  0 Multiplicity = 1

                         Standard orientation:
 ---------------------------------------------------------------------
 Center     Atomic      Atomic             Coordinates (Angstroms)
 Number     Number       Type             X           Y           Z
 ---------------------------------------------------------------------
      1          8           0       -2.298237   -0.551632   -0.000391
      2          6           0       -1.020119   -0.157297    0.000102
      3          7           0        0.029041   -0.932091    0.000509
      4          6           0        1.089886   -0.063424    0.000058
      5          8           0        2.353765   -0.525393   -0.000463
      6          6           0        0.682546    1.230654    0.000347
      7          7           0       -0.714622    1.144774   -0.000060
      8          1           0       -2.298358   -1.513300   -0.000535
      9          1           0        2.299502   -1.484705    0.001437
     10          1           0        1.212605    2.164716   -0.001912
     11          1           0       -1.372789    1.901110    0.001657
 ---------------------------------------------------------------------

 SCF Done:  E(RHF) =  -376.228059854     A.U. after    2 cycles

 The electronic state is 1-A.
 Alpha  occ. eigenvalues --  -21.13285 -21.09807 -15.79449 -15.71490 -11.48630
 Alpha  occ. eigenvalues --  -11.46406 -11.38295  -1.80829  -1.76193  -1.52815
 Alpha  occ. eigenvalues --   -1.28067  -1.05161  -0.85159  -0.81551  -0.73909
 Alpha  occ. eigenvalues --   -0.66220  -0.64692  -0.57172  -0.55781  -0.51189
 Alpha  occ. eigenvalues --   -0.48953  -0.42721  -0.42459  -0.41074  -0.33927
 Alpha  occ. eigenvalues --   -0.23935
 Alpha virt. eigenvalues --    0.03498   0.05214   0.05862   0.06113   0.10384
 Alpha virt. eigenvalues --    0.11400   0.11467   0.12582   0.12795   0.13298
 Alpha virt. eigenvalues --    0.14218   0.14745   0.15622   0.16297   0.17944

 Mulliken charges:
               1
     1  O   -3.062154
     2  C    4.991075
     3  N   -3.172389
     4  C    5.241405
     5  O   -3.665646
     6  C   -1.157751
     7  N   -2.731046
     8  H    0.638458
     9  H    0.903611
    10  H    1.230910
    11  H    0.783526
 Sum of Mulliken charges =  -0.00000

 Dipole moment (field-independent basis, Debye):
    X=             -1.8351    Y=              1.1957    Z=             -0.0006  Tot=              2.1903

 Test job not archived.
 1\1\GINC-SE226\SP\RHF\Aug-CC-pVDZ\C3H4N2O2\OHZDE\09-Apr-2025\0\\#t hf
 aug-cc-pvdz iop(5/13=1,5/36=2,99/5=2) pseudo=read geom=check guess=(re
 ad,tcheck) scf=(maxcycle=1)\\title\\0,1\O,0,-2.30388738,0.62992283,-0.
 40651011\C,0,-1.02036037,0.25358462,-0.41017862\N,0,0.01641172,1.03718
 652,-0.30011036\C,0,1.09001559,0.18630801,-0.35803091\O,0,2.34616443,0
 .66134227,-0.2729578\C,0,0.7027138,-1.10575001,-0.50345833\N,0,-0.6950
 7556,-1.03765469,-0.53511349\H,0,-2.31874437,1.58635226,-0.30737342\H,
 0,2.27728645,1.61496969,-0.17768023\H,0,1.24675141,-2.02841785,-0.5818

 Normal termination of Gaussian 16 at Wed Apr  9 19:34:00 2025.
