 Gaussian 16, Revision C.01,

 ----------------------------------------------------------------------
 #t hf aug-cc-pvdz symm=none int=(grid=ultrafine) guess=(read,tcheck) s
 table=(opt,rrhf)
 ----------------------------------------------------------------------
 -----
 title
 -----
 Symbolic Z-matrix:
 Charge =  0 Multiplicity = 1

 SCF Done:  E(RHF) =  -279.715489750     A.U. after   15 cycles
 Normal termination of Gaussian 16 at Wed Apr  9 17:10:06 2025.
 Gaussian 16:  ES64L-G16RevC.01  3-Jul-2019

 ----------------------------------------------------------------------
 #t hf aug-cc-pvdz iop(5/13=1,5/36=2,99/5=2) pseudo=read geom=check gue
 ss=(read,tcheck) scf=(maxcycle=1)
 ----------------------------------------------------------------------
 -----
 title
 -----
 Structure from the checkpoint file:  "Grambow2020_b97d3_007062_forward_mol1.chk"
 Charge =  0 Multiplicity = 1

                         Standard orientation:
 ---------------------------------------------------------------------
 Center     Atomic      Atomic             Coordinates (Angstroms)
 Number     Number       Type             X           Y           Z
 ---------------------------------------------------------------------
      1          7           0        2.049982    0.004546    0.087606
      2          6           0        0.671427    0.048509   -0.001961
      3          6           0       -0.228571    1.157649   -0.032728
      4          6           0       -1.631869    0.605718   -0.105834
      5          7           0       -1.498191   -0.737838    0.004625
      6          7           0       -0.129786   -1.028449   -0.000080
      7          1           0        2.508735    0.861175   -0.208913
      8          1           0        2.502586   -0.816871   -0.307297
      9          1           0        0.053598    2.188146   -0.239280
     10          1           0       -1.058240    1.229539    0.926658
     11          1           0        0.173369   -2.001058    0.026908
 ---------------------------------------------------------------------

 SCF Done:  E(RHF) =  -281.006986185     A.U. after    2 cycles

 The electronic state is 1-A.
 Alpha  occ. eigenvalues --  -15.82583 -15.81547 -15.72491 -11.52541 -11.41480
 Alpha  occ. eigenvalues --  -11.35248  -1.59250  -1.38370  -1.19116  -1.11602
 Alpha  occ. eigenvalues --   -0.87143  -0.80227  -0.73529  -0.69468  -0.64700
 Alpha  occ. eigenvalues --   -0.56785  -0.56497  -0.49336  -0.43429  -0.38388
 Alpha  occ. eigenvalues --   -0.30180  -0.29206
 Alpha virt. eigenvalues --    0.02002   0.04133   0.04457   0.06586   0.07058
 Alpha virt. eigenvalues --    0.10417   0.11100   0.11359   0.12093   0.12669
 Alpha virt. eigenvalues --    0.13305   0.13638   0.14425   0.15226   0.16084

 Mulliken charges:
               1
     1  N   -3.258102
     2  C    3.972102
     3  C   -1.496051
     4  C   -0.593115
     5  N   -1.344055
     6  N   -2.469235
     7  H    0.526259
     8  H    0.721874
     9  H    1.450056
    10  H    1.576844
    11  H    0.913423
 Sum of Mulliken charges =   0.00000

 Dipole moment (field-independent basis, Debye):
    X=              7.3545    Y=             -1.1618    Z=             -0.3210  Tot=              7.4527

 Test job not archived.
 1\1\GINC-SE113\SP\RHF\Aug-CC-pVDZ\C3H5N3\OHZDE\09-Apr-2025\0\\#t hf au
 g-cc-pvdz iop(5/13=1,5/36=2,99/5=2) pseudo=read geom=check guess=(read
 ,tcheck) scf=(maxcycle=1)\\title\\0,1\N,0,-1.71142691,-0.15771208,0.30
 957764\C,0,-0.36992726,0.02617374,0.03221106\C,0,0.69597123,-0.9164203
 3,-0.09628697\C,0,1.96096067,-0.14082697,-0.37462828\N,0,1.61315542,1.
 16490327,-0.27812626\N,0,0.22659429,1.22122031,-0.10124559\H,0,-2.0504
 4457,-1.09201653,0.09902682\H,0,-2.34696101,0.55685431,-0.03829699\H,0
 ,0.57117212,-1.98812386,-0.23800449\H,0,1.64452808,-0.80340471,0.74121

 Normal termination of Gaussian 16 at Wed Apr  9 17:10:09 2025.
