 Gaussian 16, Revision C.01,

 ----------------------------------------------------------------------
 #t hf aug-cc-pvdz symm=none int=(grid=ultrafine) guess=(read,tcheck) s
 table=(opt,rrhf)
 ----------------------------------------------------------------------
 -----
 title
 -----
 Symbolic Z-matrix:
 Charge =  0 Multiplicity = 1

 SCF Done:  E(RHF) =  -374.481862883     A.U. after   14 cycles
 Normal termination of Gaussian 16 at Wed Apr  9 18:37:13 2025.
 Gaussian 16:  ES64L-G16RevC.01  3-Jul-2019

 ----------------------------------------------------------------------
 #t hf aug-cc-pvdz iop(5/13=1,5/36=2,99/5=2) pseudo=read geom=check gue
 ss=(read,tcheck) scf=(maxcycle=1)
 ----------------------------------------------------------------------
 -----
 title
 -----
 Structure from the checkpoint file:  "Grambow2020_wb97xd3_007332_reverse_mol2.chk"
 Charge =  0 Multiplicity = 1

                         Standard orientation:
 ---------------------------------------------------------------------
 Center     Atomic      Atomic             Coordinates (Angstroms)
 Number     Number       Type             X           Y           Z
 ---------------------------------------------------------------------
      1          7           0       -1.787775   -0.214891    0.698567
      2          6           0       -0.635583    0.041993   -0.181835
      3          6           0       -1.882426    0.050900   -0.856407
      4          8           0        0.378243   -0.977301   -0.229418
      5          6           0        1.314422   -0.003794    0.021044
      6          8           0        2.492968   -0.065458    0.044087
      7          7           0        0.360548    1.003532    0.217835
      8          1           0       -1.950504    0.488231    1.407300
      9          1           0       -1.980874   -1.162645    0.986823
     10          1           0       -2.278040    1.056136   -0.999150
     11          1           0        0.451836    1.905274   -0.223959
 ---------------------------------------------------------------------

 SCF Done:  E(RHF) =  -376.087026740     A.U. after    2 cycles

 The electronic state is 1-A.
 Alpha  occ. eigenvalues --  -21.11074 -21.07282 -15.84265 -15.79491 -11.56324
 Alpha  occ. eigenvalues --  -11.53411 -11.38238  -1.91090  -1.71128  -1.49034
 Alpha  occ. eigenvalues --   -1.37149  -1.04163  -0.86249  -0.83263  -0.77860
 Alpha  occ. eigenvalues --   -0.70266  -0.65466  -0.65434  -0.55265  -0.50949
 Alpha  occ. eigenvalues --   -0.48115  -0.46148  -0.42128  -0.34651  -0.32008
 Alpha  occ. eigenvalues --   -0.29936
 Alpha virt. eigenvalues --    0.02707   0.04261   0.05073   0.05811   0.09036
 Alpha virt. eigenvalues --    0.09758   0.10764   0.11136   0.12160   0.12573
 Alpha virt. eigenvalues --    0.13641   0.13999   0.14836   0.15273   0.16396

 Mulliken charges:
               1
     1  N   -2.501800
     2  C    5.998858
     3  C   -2.563287
     4  O   -2.964557
     5  C    5.379970
     6  O   -3.293216
     7  N   -2.916471
     8  H    0.561881
     9  H    0.645889
    10  H    0.970082
    11  H    0.682652
 Sum of Mulliken charges =   0.00000

 Dipole moment (field-independent basis, Debye):
    X=             -1.8160    Y=              1.7479    Z=              2.9310  Tot=              3.8657

 Test job not archived.
 1\1\GINC-SE108\SP\RHF\Aug-CC-pVDZ\C3H4N2O2\OHZDE\09-Apr-2025\0\\#t hf
 aug-cc-pvdz iop(5/13=1,5/36=2,99/5=2) pseudo=read geom=check guess=(re
 ad,tcheck) scf=(maxcycle=1)\\title\\0,1\N,0,-1.39529154,0.120654,-0.26
 631557\C,0,0.02191385,0.3333666,0.07269149\C,0,-0.85354994,1.28245915,
 0.65795289\O,0,0.92392078,0.53718225,-1.02908459\C,0,1.72743836,-0.444
 85401,-0.50292548\O,0,2.79614659,-0.81795598,-0.83752896\N,0,0.8207093
 1,-0.78332969,0.51028085\H,0,-1.79339887,-0.74278281,0.0788672\H,0,-1.
 72983077,0.41116034,-1.17312618\H,0,-1.11388797,1.03808243,1.68746268\

 Normal termination of Gaussian 16 at Wed Apr  9 18:37:18 2025.
