 Gaussian 16, Revision C.01,

 ----------------------------------------------------------------------
 #t hf aug-cc-pvdz symm=none int=(grid=ultrafine) guess=(read,tcheck) s
 table=(opt,rrhf)
 ----------------------------------------------------------------------
 -----
 title
 -----
 Symbolic Z-matrix:
 Charge =  0 Multiplicity = 1

 SCF Done:  E(RHF) =  -284.725891874     A.U. after   16 cycles
 Normal termination of Gaussian 16 at Wed Apr  9 17:54:51 2025.
 Gaussian 16:  ES64L-G16RevC.01  3-Jul-2019

 ----------------------------------------------------------------------
 #t hf aug-cc-pvdz iop(5/13=1,5/36=2,99/5=2) pseudo=read geom=check gue
 ss=(read,tcheck) scf=(maxcycle=1)
 ----------------------------------------------------------------------
 -----
 title
 -----
 Structure from the checkpoint file:  "Grambow2020_wb97xd3_006240_forward_mol1.chk"
 Charge =  0 Multiplicity = 1

                         Standard orientation:
 ---------------------------------------------------------------------
 Center     Atomic      Atomic             Coordinates (Angstroms)
 Number     Number       Type             X           Y           Z
 ---------------------------------------------------------------------
      1          8           0       -2.176945   -0.378040    0.397133
      2          6           0       -1.464854    0.453688   -0.103250
      3          7           0       -0.203359    0.206029   -0.573197
      4          6           0        0.569528   -0.991880   -0.206665
      5          6           0        1.855034   -0.297797    0.256970
      6          6           0        1.319913    1.131634    0.142737
      7          1           0       -1.771450    1.503704   -0.248827
      8          1           0        0.043139   -1.509401    0.594555
      9          1           0        0.679468   -1.674989   -1.049629
     10          1           0        2.146806   -0.590869    1.265678
     11          1           0        2.701214   -0.465901   -0.410726
     12          1           0        0.459720    1.048964   -0.940261
     13          1           0        0.902447    1.496740    1.085774
 ---------------------------------------------------------------------

 SCF Done:  E(RHF) =  -286.030688182     A.U. after    2 cycles

 The electronic state is 1-A.
 Alpha  occ. eigenvalues --  -21.04970 -15.76349 -11.49343 -11.47009 -11.42277
 Alpha  occ. eigenvalues --  -11.38428  -1.72172  -1.46201  -1.15006  -0.99995
 Alpha  occ. eigenvalues --   -0.89553  -0.77432  -0.74522  -0.65288  -0.62856
 Alpha  occ. eigenvalues --   -0.57495  -0.52871  -0.52131  -0.51423  -0.46994
 Alpha  occ. eigenvalues --   -0.33465  -0.32382  -0.29753
 Alpha virt. eigenvalues --    0.03721   0.05229   0.05550   0.05651   0.06013
 Alpha virt. eigenvalues --    0.06866   0.07280   0.08891   0.10550   0.11924
 Alpha virt. eigenvalues --    0.12553   0.13576   0.13891   0.14566   0.14932

 Mulliken charges:
               1
     1  O   -2.695853
     2  C    2.220309
     3  N   -2.381104
     4  C   -2.427909
     5  C   -2.762255
     6  C   -2.035823
     7  H    1.651353
     8  H    1.569501
     9  H    1.325822
    10  H    1.264223
    11  H    1.355855
    12  H    1.426267
    13  H    1.489614
 Sum of Mulliken charges =  -0.00000

 Dipole moment (field-independent basis, Debye):
    X=              0.7972    Y=             -0.9813    Z=              0.1888  Tot=              1.2784

 Test job not archived.
 1\1\GINC-SE135\SP\RHF\Aug-CC-pVDZ\C4H7N1O1\OHZDE\09-Apr-2025\0\\#t hf
 aug-cc-pvdz iop(5/13=1,5/36=2,99/5=2) pseudo=read geom=check guess=(re
 ad,tcheck) scf=(maxcycle=1)\\title\\0,1\O,0,2.27480873,1.31302924,-0.2
 5947484\C,0,1.86093778,0.22117836,-0.55239346\N,0,0.54588138,-0.061894
 15,-0.80547685\C,0,-0.55815541,0.82576527,-0.40566543\C,0,-1.41664583,
 -0.20308474,0.33844297\C,0,-0.4101036,-1.35259465,0.24801637\H,0,2.512
 3983,-0.66253828,-0.66362382\H,0,-0.15656884,1.60460566,0.24163694\H,0
 ,-1.02913542,1.29809917,-1.26844729\H,0,-1.65424786,0.10936225,1.35551

 Normal termination of Gaussian 16 at Wed Apr  9 17:54:55 2025.
