 Gaussian 16, Revision C.01,

 ----------------------------------------------------------------------
 #t hf aug-cc-pvdz symm=none int=(grid=ultrafine) guess=(read,tcheck) s
 table=(opt,rrhf)
 ----------------------------------------------------------------------
 -----
 title
 -----
 Symbolic Z-matrix:
 Charge =  0 Multiplicity = 1

 SCF Done:  E(RHF) =  -357.338814024     A.U. after   16 cycles
 Normal termination of Gaussian 16 at Wed Apr  9 03:58:23 2025.
 Gaussian 16:  ES64L-G16RevC.01  3-Jul-2019

 ----------------------------------------------------------------------
 #t hf aug-cc-pvdz iop(5/13=1,5/36=2,99/5=2) pseudo=read geom=check gue
 ss=(read,tcheck) scf=(maxcycle=1)
 ----------------------------------------------------------------------
 -----
 title
 -----
 Structure from the checkpoint file:  "Grambow2020_wb97xd3_008753_reverse_mol2.chk"
 Charge =  0 Multiplicity = 1

                         Standard orientation:
 ---------------------------------------------------------------------
 Center     Atomic      Atomic             Coordinates (Angstroms)
 Number     Number       Type             X           Y           Z
 ---------------------------------------------------------------------
      1          8           0        2.325464   -0.882385    0.388348
      2          6           0        1.838800   -0.056922   -0.325166
      3          6           0        0.507094    0.541993   -0.053408
      4          7           0       -0.232567    1.439939   -0.484612
      5          8           0       -1.847752   -0.996762   -0.671105
      6          6           0       -1.803821   -0.397350    0.367913
      7          6           0       -0.737768    0.592686    0.690465
      8          1           0        2.334379    0.330382   -1.231800
      9          1           0       -2.564086   -0.554389    1.156993
     10          1           0       -0.789852    1.095170    1.650324
 ---------------------------------------------------------------------

 SCF Done:  E(RHF) =  -358.860550919     A.U. after    2 cycles

 The electronic state is 1-A.
 Alpha  occ. eigenvalues --  -21.11621 -21.07856 -15.81454 -11.54191 -11.51524
 Alpha  occ. eigenvalues --  -11.49074 -11.45994  -1.76153  -1.72953  -1.50358
 Alpha  occ. eigenvalues --   -1.05406  -1.00043  -0.83402  -0.77923  -0.72230
 Alpha  occ. eigenvalues --   -0.65627  -0.60028  -0.55025  -0.52933  -0.51171
 Alpha  occ. eigenvalues --   -0.49253  -0.41827  -0.38684  -0.33802  -0.31616
 Alpha virt. eigenvalues --    0.03240   0.05072   0.05369   0.07775   0.08909
 Alpha virt. eigenvalues --    0.09379   0.09812   0.11157   0.11296   0.11962
 Alpha virt. eigenvalues --    0.12199   0.13208   0.14292   0.14435   0.15167

 Mulliken charges:
               1
     1  O   -2.665888
     2  C    0.247505
     3  C    3.538680
     4  N   -1.962029
     5  O   -2.731042
     6  C    1.059357
     7  C   -1.662811
     8  H    1.345941
     9  H    1.465502
    10  H    1.364785
 Sum of Mulliken charges =  -0.00000

 Dipole moment (field-independent basis, Debye):
    X=              0.8047    Y=              0.2369    Z=              0.9340  Tot=              1.2554

 Test job not archived.
 1\1\GINC-SE462\SP\RHF\Aug-CC-pVDZ\C4H3N1O2\OHZDE\09-Apr-2025\0\\#t hf
 aug-cc-pvdz iop(5/13=1,5/36=2,99/5=2) pseudo=read geom=check guess=(re
 ad,tcheck) scf=(maxcycle=1)\\title\\0,1\O,0,-1.60125964,0.99286393,-1.
 82826572\C,0,-1.62597558,0.00427273,-1.15788458\C,0,-0.74454917,-0.175
 89163,0.02390276\N,0,-0.56747518,-0.9705947,0.96008242\O,0,2.01933562,
 -0.85946181,-0.41001691\C,0,1.75107738,-0.02536972,0.41041765\C,0,0.35
 874871,0.24883026,0.86529607\H,0,-2.3021259,-0.84545303,-1.3537767\H,0
 ,2.53744497,0.598115,0.87754134\H,0,0.21662778,1.01299198,1.62186165\\

 Normal termination of Gaussian 16 at Wed Apr  9 03:58:26 2025.
