 Gaussian 16, Revision C.01,

 ----------------------------------------------------------------------
 #t hf aug-cc-pvdz symm=none int=(grid=ultrafine) guess=(read,tcheck) s
 table=(opt,rrhf)
 ----------------------------------------------------------------------
 -----
 title
 -----
 Symbolic Z-matrix:
 Charge =  0 Multiplicity = 1

 SCF Done:  E(RHF) =  -354.652216206     A.U. after   15 cycles
 Normal termination of Gaussian 16 at Wed Apr  9 03:39:45 2025.
 Gaussian 16:  ES64L-G16RevC.01  3-Jul-2019

 ----------------------------------------------------------------------
 #t hf aug-cc-pvdz iop(5/13=1,5/36=2,99/5=2) pseudo=read geom=check gue
 ss=(read,tcheck) scf=(maxcycle=1)
 ----------------------------------------------------------------------
 -----
 title
 -----
 Structure from the checkpoint file:  "Grambow2020_wb97xd3_007469_reverse_mol1.chk"
 Charge =  0 Multiplicity = 1

                         Standard orientation:
 ---------------------------------------------------------------------
 Center     Atomic      Atomic             Coordinates (Angstroms)
 Number     Number       Type             X           Y           Z
 ---------------------------------------------------------------------
      1          7           0        2.256810   -0.084403   -0.336251
      2          6           0        0.982048    0.002981    0.109516
      3          6           0        0.120266    1.065362   -0.269431
      4          7           0       -1.124937    1.066152    0.500747
      5          6           0       -1.234754   -0.125598   -0.088096
      6          8           0       -1.873869   -0.879612   -0.714227
      7          7           0        0.354680   -0.891812    0.844066
      8          1           0        2.722651   -0.972840   -0.324890
      9          1           0        2.587614    0.594110   -0.997280
     10          1           0        0.330203    1.888527   -0.931624
     11          1           0       -1.026265    1.055525    1.513671
     12          1           0        0.765520   -1.814450    0.882072
 ---------------------------------------------------------------------

 SCF Done:  E(RHF) =  -356.269066407     A.U. after    2 cycles

 The electronic state is 1-A.
 Alpha  occ. eigenvalues --  -21.08523 -15.79381 -15.79186 -15.70666 -11.58453
 Alpha  occ. eigenvalues --  -11.50336 -11.39719  -1.75270  -1.52982  -1.40033
 Alpha  occ. eigenvalues --   -1.25228  -1.01195  -0.82789  -0.80839  -0.74614
 Alpha  occ. eigenvalues --   -0.71525  -0.62946  -0.58698  -0.56793  -0.55142
 Alpha  occ. eigenvalues --   -0.51631  -0.45627  -0.40130  -0.38297  -0.31542
 Alpha  occ. eigenvalues --   -0.25934
 Alpha virt. eigenvalues --    0.03096   0.04843   0.05187   0.05992   0.07450
 Alpha virt. eigenvalues --    0.09577   0.10869   0.11454   0.12375   0.13091
 Alpha virt. eigenvalues --    0.13873   0.14062   0.14705   0.15569   0.16114

 Mulliken charges:
               1
     1  N   -3.268279
     2  C    4.052867
     3  C   -1.081552
     4  N   -2.748962
     5  C    5.361713
     6  O   -3.422418
     7  N   -2.951346
     8  H    0.697822
     9  H    0.639681
    10  H    1.317215
    11  H    0.703409
    12  H    0.699850
 Sum of Mulliken charges =  -0.00000

 Dipole moment (field-independent basis, Debye):
    X=              2.6350    Y=             -0.2680    Z=             -0.4972  Tot=              2.6949

 Test job not archived.
 1\1\GINC-SE207\SP\RHF\Aug-CC-pVDZ\C3H5N3O1\OHZDE\09-Apr-2025\0\\#t hf
 aug-cc-pvdz iop(5/13=1,5/36=2,99/5=2) pseudo=read geom=check guess=(re
 ad,tcheck) scf=(maxcycle=1)\\title\\0,1\N,0,1.88100039,-0.02238487,-0.
 17062109\C,0,0.56550533,-0.05939052,0.14475787\C,0,-0.3180932,1.004855
 12,-0.17392406\N,0,-1.63095927,0.83717759,0.45215308\C,0,-1.60889246,-
 0.26180523,-0.30336918\O,0,-2.13566772,-0.94744089,-1.09169404\N,0,-0.
 07533822,-1.07846173,0.67825749\H,0,2.39698212,-0.88054513,-0.23211248
 \H,0,2.23327585,0.75848929,-0.69302815\H,0,-0.09461141,1.92324899,-0.6

 Normal termination of Gaussian 16 at Wed Apr  9 03:39:49 2025.
