 Gaussian 16, Revision C.01,

 ----------------------------------------------------------------------
 #t hf aug-cc-pvdz symm=none int=(grid=ultrafine) guess=(read,tcheck) s
 table=(opt,rrhf)
 ----------------------------------------------------------------------
 -----
 title
 -----
 Symbolic Z-matrix:
 Charge =  0 Multiplicity = 1

 SCF Done:  E(RHF) =  -302.746392645     A.U. after   17 cycles
 Normal termination of Gaussian 16 at Wed Apr  9 19:23:09 2025.
 Gaussian 16:  ES64L-G16RevC.01  3-Jul-2019

 ----------------------------------------------------------------------
 #t hf aug-cc-pvdz iop(5/13=1,5/36=2,99/5=2) pseudo=read geom=check gue
 ss=(read,tcheck) scf=(maxcycle=1)
 ----------------------------------------------------------------------
 -----
 title
 -----
 Structure from the checkpoint file:  "Grambow2020_wb97xd3_008872_reverse_mol1.chk"
 Charge =  0 Multiplicity = 1

                         Standard orientation:
 ---------------------------------------------------------------------
 Center     Atomic      Atomic             Coordinates (Angstroms)
 Number     Number       Type             X           Y           Z
 ---------------------------------------------------------------------
      1          6           0        2.358596   -0.658299    0.279581
      2          7           0        1.142331    0.031509   -0.273991
      3          6           0        0.675209    1.239994   -0.093729
      4          6           0       -0.726260    1.246184    0.027968
      5          6           0       -1.122279   -0.085900    0.015223
      6          7           0       -2.380525   -0.571262    0.075977
      7          6           0        0.065120   -0.905364   -0.160712
      8          1           0        0.921711   -1.463583    0.626034
      9          1           0        3.092969   -0.805377   -0.515518
     10          1           0        2.787419   -0.026995    1.061465
     11          1           0        1.350410    2.073762    0.050591
     12          1           0       -1.352934    2.114448    0.160256
     13          1           0       -3.141118    0.046382    0.289641
     14          1           0       -2.520817   -1.544284    0.273350
     15          1           0        0.027405   -1.635776   -0.969715
 ---------------------------------------------------------------------

 SCF Done:  E(RHF) =  -304.213261563     A.U. after    2 cycles

 The electronic state is 1-A.
 Alpha  occ. eigenvalues --  -15.80078 -15.75328 -11.51710 -11.47026 -11.40625
 Alpha  occ. eigenvalues --  -11.37774 -11.29916  -1.53824  -1.38387  -1.14720
 Alpha  occ. eigenvalues --   -1.06160  -0.92654  -0.82580  -0.79874  -0.72263
 Alpha  occ. eigenvalues --   -0.68524  -0.64960  -0.57185  -0.55693  -0.52262
 Alpha  occ. eigenvalues --   -0.51362  -0.46833  -0.45290  -0.41631  -0.28950
 Alpha  occ. eigenvalues --   -0.23215
 Alpha virt. eigenvalues --    0.02815   0.04418   0.04733   0.06041   0.06413
 Alpha virt. eigenvalues --    0.07189   0.07661   0.08488   0.09660   0.10154
 Alpha virt. eigenvalues --    0.11824   0.12054   0.12816   0.13414   0.13785

 Mulliken charges:
               1
     1  C   -3.239173
     2  N   -2.604450
     3  C    0.065772
     4  C   -2.293397
     5  C    4.358811
     6  N   -3.872204
     7  C   -2.203155
     8  H    1.590358
     9  H    1.307782
    10  H    1.233559
    11  H    1.525188
    12  H    1.377553
    13  H    0.747800
    14  H    0.833180
    15  H    1.172375
 Sum of Mulliken charges =   0.00000

 Dipole moment (field-independent basis, Debye):
    X=             -5.3332    Y=              1.7308    Z=             -0.3564  Tot=              5.6184

 Test job not archived.
 1\1\GINC-SE454\SP\RHF\Aug-CC-pVDZ\C5H8N2\OHZDE\09-Apr-2025\0\\#t hf au
 g-cc-pvdz iop(5/13=1,5/36=2,99/5=2) pseudo=read geom=check guess=(read
 ,tcheck) scf=(maxcycle=1)\\title\\0,1\C,0,2.32333113,0.38756132,-0.179
 25063\N,0,1.01156377,0.01645433,0.45567025\C,0,0.47475781,-1.14746965,
 0.71692125\C,0,-0.90518422,-1.16005783,0.44385586\C,0,-1.19988652,0.07
 531889,-0.12044462\N,0,-2.40673341,0.53257189,-0.51654017\C,0,0.023197
 66,0.86003808,-0.14636321\H,0,0.99039564,1.02758589,-0.98349067\H,0,2.
 98727942,0.82060576,0.57225723\H,0,2.77651041,-0.51800752,-0.58955501\

 Normal termination of Gaussian 16 at Wed Apr  9 19:23:14 2025.
