 Gaussian 16, Revision C.01,

 ----------------------------------------------------------------------
 #t hf aug-cc-pvdz symm=none int=(grid=ultrafine) guess=(read,tcheck) s
 table=(opt,rrhf)
 ----------------------------------------------------------------------
 -----
 title
 -----
 Symbolic Z-matrix:
 Charge =  0 Multiplicity = 1

 SCF Done:  E(RHF) =  -191.836390318     A.U. after   14 cycles
 Normal termination of Gaussian 16 at Wed Apr  9 03:21:21 2025.
 Gaussian 16:  ES64L-G16RevC.01  3-Jul-2019

 ----------------------------------------------------------------------
 #t hf aug-cc-pvdz iop(5/13=1,5/36=2,99/5=2) pseudo=read geom=check gue
 ss=(read,tcheck) scf=(maxcycle=1)
 ----------------------------------------------------------------------
 -----
 title
 -----
 Structure from the checkpoint file:  "Grambow2020_wb97xd3_006096_reverse_mol2.chk"
 Charge =  0 Multiplicity = 1

                         Standard orientation:
 ---------------------------------------------------------------------
 Center     Atomic      Atomic             Coordinates (Angstroms)
 Number     Number       Type             X           Y           Z
 ---------------------------------------------------------------------
      1          6           0       -1.474536   -0.024193   -0.134519
      2          6           0       -0.094414   -0.197063    0.426138
      3          6           0        0.953939   -0.872780   -0.363604
      4          8           0        0.859476    0.848328    0.031370
      5          1           0       -1.970946    0.859919    0.271995
      6          1           0       -2.073421   -0.899076    0.126235
      7          1           0       -1.435970    0.034149   -1.224502
      8          1           0       -0.076028   -0.224341    1.516823
      9          1           0        1.753518   -1.148134    0.339663
     10          1           0        0.617104    1.155077   -0.849259
 ---------------------------------------------------------------------

 SCF Done:  E(RHF) =  -192.726394462     A.U. after    2 cycles

 The electronic state is 1-A.
 Alpha  occ. eigenvalues --  -21.12382 -11.46208 -11.39180 -11.37647  -1.79164
 Alpha  occ. eigenvalues --   -1.14694  -0.98326  -0.80541  -0.67709  -0.61828
 Alpha  occ. eigenvalues --   -0.58139  -0.53661  -0.48403  -0.42174  -0.38351
 Alpha  occ. eigenvalues --   -0.32510
 Alpha virt. eigenvalues --    0.03781   0.05478   0.05898   0.06021   0.06384
 Alpha virt. eigenvalues --    0.06665   0.10320   0.11164   0.11969   0.13557
 Alpha virt. eigenvalues --    0.14687   0.15609   0.16299   0.17125   0.17872

 Mulliken charges:
               1
     1  C   -3.663413
     2  C    1.351427
     3  C   -2.274546
     4  O   -2.533838
     5  H    1.162308
     6  H    1.238981
     7  H    1.251756
     8  H    1.384691
     9  H    1.123944
    10  H    0.958690
 Sum of Mulliken charges =  -0.00000

 Dipole moment (field-independent basis, Debye):
    X=             -1.1191    Y=              1.9715    Z=              1.6970  Tot=              2.8318

 Test job not archived.
 1\1\GINC-SE058\SP\RHF\Aug-CC-pVDZ\C3H6O1\OHZDE\09-Apr-2025\0\\#t hf au
 g-cc-pvdz iop(5/13=1,5/36=2,99/5=2) pseudo=read geom=check guess=(read
 ,tcheck) scf=(maxcycle=1)\\title\\0,1\C,0,-1.17160136,0.22361043,0.089
 36264\C,0,0.14856118,-0.38352946,-0.281459\C,0,1.3185654,0.47660735,-0
 .54713913\O,0,1.06757823,-0.58101788,0.8476988\H,0,-1.76673513,-0.4468
 9992,0.71351151\H,0,-1.73540944,0.42657272,-0.82332717\H,0,-1.01986649
 ,1.17697192,0.60027429\H,0,0.05117305,-1.35756189,-0.76359268\H,0,2.05
 433639,-0.1436022,-1.0797835\H,0,0.90153117,0.11598793,1.49187024\\Ver

 Normal termination of Gaussian 16 at Wed Apr  9 03:21:24 2025.
