 Gaussian 16, Revision C.01,

 ----------------------------------------------------------------------
 #t hf aug-cc-pvdz symm=none int=(grid=ultrafine) guess=(read,tcheck) s
 table=(opt,rrhf)
 ----------------------------------------------------------------------
 -----
 title
 -----
 Symbolic Z-matrix:
 Charge =  0 Multiplicity = 1

 SCF Done:  E(RHF) =  -355.936739850     A.U. after   13 cycles
 Normal termination of Gaussian 16 at Wed Apr  9 19:28:08 2025.
 Gaussian 16:  ES64L-G16RevC.01  3-Jul-2019

 ----------------------------------------------------------------------
 #t hf aug-cc-pvdz iop(5/13=1,5/36=2,99/5=2) pseudo=read geom=check gue
 ss=(read,tcheck) scf=(maxcycle=1)
 ----------------------------------------------------------------------
 -----
 title
 -----
 Structure from the checkpoint file:  "Grambow2020_wb97xd3_008997_reverse_mol2.chk"
 Charge =  0 Multiplicity = 1

                         Standard orientation:
 ---------------------------------------------------------------------
 Center     Atomic      Atomic             Coordinates (Angstroms)
 Number     Number       Type             X           Y           Z
 ---------------------------------------------------------------------
      1          6           0       -2.706540   -0.015004    0.299369
      2          7           0       -1.430019   -0.659234    0.097344
      3          6           0       -0.322973    0.096939   -0.239615
      4          8           0        2.460349    0.536243    0.618241
      5          7           0        0.818279   -0.722387   -0.387986
      6          6           0        2.105470   -0.411340   -0.021908
      7          7           0       -0.259898    1.334778   -0.480291
      8          1           0       -3.010209    0.499157   -0.614272
      9          1           0       -2.697675    0.710709    1.121113
     10          1           0       -3.455204   -0.774997    0.516321
     11          1           0       -1.231310   -1.437462    0.703321
     12          1           0        0.681980   -1.597115   -0.865624
     13          1           0        2.807020   -1.190952   -0.375086
     14          1           0       -1.131675    1.805052   -0.262239
 ---------------------------------------------------------------------

 SCF Done:  E(RHF) =  -357.544882713     A.U. after    2 cycles

 The electronic state is 1-A.
 Alpha  occ. eigenvalues --  -21.03751 -15.78089 -15.76627 -15.71456 -11.49182
 Alpha  occ. eigenvalues --  -11.48216 -11.41227  -1.70988  -1.51441  -1.35172
 Alpha  occ. eigenvalues --   -1.26370  -1.03459  -0.89878  -0.78537  -0.75864
 Alpha  occ. eigenvalues --   -0.69254  -0.65959  -0.62191  -0.56406  -0.55076
 Alpha  occ. eigenvalues --   -0.54120  -0.50588  -0.47454  -0.39935  -0.34500
 Alpha  occ. eigenvalues --   -0.32256  -0.28743
 Alpha virt. eigenvalues --    0.02783   0.04060   0.05025   0.05860   0.06218
 Alpha virt. eigenvalues --    0.06644   0.08001   0.09673   0.11578   0.11989
 Alpha virt. eigenvalues --    0.12792   0.13171   0.13867   0.14416   0.15510

 Mulliken charges:
               1
     1  C   -3.443008
     2  N   -2.528923
     3  C    4.811467
     4  O   -2.701329
     5  N   -2.605265
     6  C    1.866921
     7  N   -2.886898
     8  H    1.290312
     9  H    1.244405
    10  H    1.351431
    11  H    0.685568
    12  H    0.680569
    13  H    1.574632
    14  H    0.660118
 Sum of Mulliken charges =  -0.00000

 Dipole moment (field-independent basis, Debye):
    X=             -3.0714    Y=             -3.1905    Z=              0.3600  Tot=              4.4432

 Test job not archived.
 1\1\GINC-SE104\SP\RHF\Aug-CC-pVDZ\C3H7N3O1\OHZDE\09-Apr-2025\0\\#t hf
 aug-cc-pvdz iop(5/13=1,5/36=2,99/5=2) pseudo=read geom=check guess=(re
 ad,tcheck) scf=(maxcycle=1)\\title\\0,1\C,0,1.95294854,1.0231482,-0.10
 982968\N,0,0.78909654,0.36567036,0.43654551\C,0,-0.30841063,0.12683502
 ,-0.36926128\O,0,-2.09506064,-2.07738689,-1.15987884\N,0,-1.33128922,-
 0.52416982,0.35577516\C,0,-2.17475501,-1.50228295,-0.11271672\N,0,-0.4
 9378337,0.47465136,-1.56876491\H,0,1.67956353,2.01348302,-0.47836032\H
 ,0,2.41946901,0.46311809,-0.92880905\H,0,2.68802917,1.15563455,0.68216

 Normal termination of Gaussian 16 at Wed Apr  9 19:28:12 2025.
