 Gaussian 16, Revision C.01,

 ----------------------------------------------------------------------
 #t hf aug-cc-pvdz symm=none int=(grid=ultrafine) guess=(read,tcheck) s
 table=(opt,rrhf)
 ----------------------------------------------------------------------
 -----
 title
 -----
 Symbolic Z-matrix:
 Charge =  0 Multiplicity = 1

 SCF Done:  E(RHF) =  -308.818349277     A.U. after   15 cycles

 1\1\GINC-SE454\Stability\RHF\Aug-CC-pVDZ\C6H12O1\OHZDE\09-Apr-2025\0\\
 #t hf aug-cc-pvdz symm=none int=(grid=ultrafine) guess=(read,tcheck) s
 table=(opt,rrhf)\\title\\0,1\C,0,1.70878267,0.23186127,-1.40630031\C,0
 ,1.10750841,0.2773192,-0.02293863\O,0,0.82444404,1.62974729,0.38688863
 \C,0,-0.56770499,1.53686326,0.35596268\C,0,-0.32837127,-0.22525193,0.1
 1244343\C,0,-0.84745213,-0.22617293,1.46336405\C,0,-0.90385582,-1.1381
 8191,-0.77754701\H,0,2.6479333,0.78626558,-1.41122496\H,0,1.91506175,-
 0.79864231,-1.69976851\H,0,1.03897737,0.67895185,-2.1428886\H,0,1.7894

 Normal termination of Gaussian 16 at Wed Apr  9 18:04:29 2025.
 Gaussian 16:  ES64L-G16RevC.01  3-Jul-2019

 ----------------------------------------------------------------------
 #t hf aug-cc-pvdz iop(5/13=1,5/36=2,99/5=2) pseudo=read geom=check gue
 ss=(read,tcheck) scf=(maxcycle=1)
 ----------------------------------------------------------------------
 -----
 title
 -----
 Structure from the checkpoint file:  "Grambow2020_wb97xd3_006574_reverse_mol1.chk"
 Charge =  0 Multiplicity = 1

                         Standard orientation:
 ---------------------------------------------------------------------
 Center     Atomic      Atomic             Coordinates (Angstroms)
 Number     Number       Type             X           Y           Z
 ---------------------------------------------------------------------
      1          6           0        1.965416    0.825432   -0.056452
      2          6           0        0.811005   -0.002861   -0.564934
      3          8           0        0.861726   -1.350237   -0.055864
      4          6           0       -0.251882   -1.265786    0.781041
      5          6           0       -0.566285    0.323662    0.008748
      6          6           0       -1.656092   -0.447472   -0.549917
      7          6           0       -0.895064    1.576771    0.536316
      8          1           0        2.904230    0.378677   -0.385738
      9          1           0        1.909885    1.841325   -0.450774
     10          1           0        1.967889    0.872056    1.033920
     11          1           0        0.819278   -0.028044   -1.661103
     12          1           0       -0.036119   -0.972117    1.809475
     13          1           0       -0.847816   -2.177481    0.767430
     14          1           0       -2.219042    0.973632   -1.323458
     15          1           0       -2.567076   -0.543705    0.027514
     16          1           0       -1.481068   -1.196748   -1.311834
     17          1           0       -1.837031    1.659851   -0.920841
     18          1           0       -0.112070    2.248442    0.870160
     19          1           0       -1.837456    1.687522    1.063352
 ---------------------------------------------------------------------

 SCF Done:  E(RHF) =  -310.368207339     A.U. after    2 cycles

 The electronic state is 1-A.
 Alpha  occ. eigenvalues --  -21.05639 -11.49388 -11.47824 -11.45941 -11.41990
 Alpha  occ. eigenvalues --  -11.38320 -11.35171  -1.79933  -1.26542  -1.12618
 Alpha  occ. eigenvalues --   -0.98985  -0.95321  -0.90965  -0.76524  -0.68642
 Alpha  occ. eigenvalues --   -0.67929  -0.63261  -0.60732  -0.58530  -0.56914
 Alpha  occ. eigenvalues --   -0.53031  -0.52173  -0.49019  -0.47692  -0.40536
 Alpha  occ. eigenvalues --   -0.35913  -0.29679  -0.26622
 Alpha virt. eigenvalues --    0.03909   0.04654   0.04902   0.05026   0.05701
 Alpha virt. eigenvalues --    0.05904   0.06259   0.06939   0.07372   0.09025
 Alpha virt. eigenvalues --    0.09282   0.10360   0.10696   0.11378   0.12764

 Mulliken charges:
               1
     1  C   -3.616941
     2  C    0.688937
     3  O   -3.228289
     4  C   -1.138560
     5  C    1.830388
     6  C   -3.367348
     7  C   -4.453875
     8  H    1.039663
     9  H    1.294427
    10  H    1.316570
    11  H    1.657371
    12  H    1.423992
    13  H    1.263390
    14  H    0.222312
    15  H    1.255202
    16  H    1.252062
    17  H   -0.016257
    18  H    1.435869
    19  H    1.141086
 Sum of Mulliken charges =  -0.00000

 Dipole moment (field-independent basis, Debye):
    X=              0.4430    Y=             -2.2331    Z=              0.5504  Tot=              2.3422

 Test job not archived.
 1\1\GINC-SE454\SP\RHF\Aug-CC-pVDZ\C6H12O1\OHZDE\09-Apr-2025\0\\#t hf a
 ug-cc-pvdz iop(5/13=1,5/36=2,99/5=2) pseudo=read geom=check guess=(rea
 d,tcheck) scf=(maxcycle=1)\\title\\0,1\C,0,1.70878267,0.23186127,-1.40
 630031\C,0,1.10750841,0.2773192,-0.02293863\O,0,0.82444404,1.62974729,
 0.38688863\C,0,-0.56770499,1.53686326,0.35596268\C,0,-0.32837127,-0.22
 525193,0.11244343\C,0,-0.84745213,-0.22617293,1.46336405\C,0,-0.903855
 82,-1.13818191,-0.77754701\H,0,2.6479333,0.78626558,-1.41122496\H,0,1.
 91506175,-0.79864231,-1.69976851\H,0,1.03897737,0.67895185,-2.1428886\

 Normal termination of Gaussian 16 at Wed Apr  9 18:04:37 2025.
