 Gaussian 16, Revision C.01,

 ----------------------------------------------------------------------
 #t hf aug-cc-pvdz symm=none int=(grid=ultrafine) guess=(read,tcheck) s
 table=(opt,rrhf)
 ----------------------------------------------------------------------
 -----
 title
 -----
 Symbolic Z-matrix:
 Charge =  0 Multiplicity = 1

 SCF Done:  E(RHF) =  -360.692335762     A.U. after   18 cycles
 Normal termination of Gaussian 16 at Wed Apr  9 18:47:43 2025.
 Gaussian 16:  ES64L-G16RevC.01  3-Jul-2019

 ----------------------------------------------------------------------
 #t hf aug-cc-pvdz iop(5/13=1,5/36=2,99/5=2) pseudo=read geom=check gue
 ss=(read,tcheck) scf=(maxcycle=1)
 ----------------------------------------------------------------------
 -----
 title
 -----
 Structure from the checkpoint file:  "Grambow2020_wb97xd3_007668_reverse_mol1.chk"
 Charge =  0 Multiplicity = 1

                         Standard orientation:
 ---------------------------------------------------------------------
 Center     Atomic      Atomic             Coordinates (Angstroms)
 Number     Number       Type             X           Y           Z
 ---------------------------------------------------------------------
      1          6           0       -2.172725   -0.577941   -0.574153
      2          8           0       -1.719303    0.372482    0.355598
      3          6           0       -0.469182    0.096944    0.904819
      4          6           0        0.702317    0.338427   -0.097356
      5          7           0        1.798199   -0.426443    0.172285
      6          8           0        1.470741   -1.609026   -0.174063
      7          6           0        0.907084    1.794982   -0.411285
      8          1           0       -3.195458   -0.309325   -0.832032
      9          1           0       -1.561989   -0.572412   -1.485759
     10          1           0       -2.159535   -1.589544   -0.149743
     11          1           0       -0.415931   -0.923022    1.300727
     12          1           0       -0.353088    0.810583    1.726012
     13          1           0        0.450110   -0.969106   -0.672718
     14          1           0        1.170268    2.368697    0.483116
     15          1           0       -0.024346    2.207048   -0.801676
     16          1           0        1.686102    1.940064   -1.158350
 ---------------------------------------------------------------------

 SCF Done:  E(RHF) =  -362.363778557     A.U. after    2 cycles

 The electronic state is 1-A.
 Alpha  occ. eigenvalues --  -21.11142 -21.06020 -15.86503 -11.47271 -11.41554
 Alpha  occ. eigenvalues --  -11.40984 -11.37453  -1.87705  -1.77295  -1.25816
 Alpha  occ. eigenvalues --   -1.05267  -1.03388  -0.94276  -0.81875  -0.70134
 Alpha  occ. eigenvalues --   -0.65626  -0.62677  -0.62238  -0.59386  -0.57764
 Alpha  occ. eigenvalues --   -0.52736  -0.52321  -0.51185  -0.46238  -0.39488
 Alpha  occ. eigenvalues --   -0.37051  -0.31134  -0.27705
 Alpha virt. eigenvalues --    0.03854   0.04925   0.05266   0.05815   0.06166
 Alpha virt. eigenvalues --    0.06456   0.06929   0.08044   0.08335   0.09197
 Alpha virt. eigenvalues --    0.11729   0.12030   0.13115   0.13723   0.14618

 Mulliken charges:
               1
     1  C   -2.770108
     2  O   -2.936291
     3  C   -0.925365
     4  C    0.577527
     5  N   -0.158433
     6  O   -2.123048
     7  C   -3.771521
     8  H    1.254969
     9  H    1.454388
    10  H    1.380784
    11  H    1.438919
    12  H    1.379295
    13  H    1.571257
    14  H    1.139843
    15  H    1.294232
    16  H    1.193552
 Sum of Mulliken charges =  -0.00000

 Dipole moment (field-independent basis, Debye):
    X=             -0.8154    Y=             -0.4298    Z=             -0.2568  Tot=              0.9568

 Test job not archived.
 1\1\GINC-SE340\SP\RHF\Aug-CC-pVDZ\C4H9N1O2\OHZDE\09-Apr-2025\0\\#t hf
 aug-cc-pvdz iop(5/13=1,5/36=2,99/5=2) pseudo=read geom=check guess=(re
 ad,tcheck) scf=(maxcycle=1)\\title\\0,1\C,0,2.06637675,0.42563978,-0.2
 3240619\O,0,1.36942178,-0.32606584,0.72807443\C,0,0.11739381,0.1821523
 2,1.06646534\C,0,-0.94883305,-0.03167945,-0.05269237\N,0,-1.94356157,0
 .90018151,-0.02369578\O,0,-1.40552393,1.97324214,-0.45351501\C,0,-1.32
 818576,-1.47683268,-0.22490686\H,0,3.06141424,-0.0074406,-0.31595572\H
 ,0,1.57481354,0.38132548,-1.21243504\H,0,2.15263942,1.47698213,0.06905

 Normal termination of Gaussian 16 at Wed Apr  9 18:47:48 2025.
