 Gaussian 16, Revision C.01,

 ----------------------------------------------------------------------
 #t hf aug-cc-pvdz symm=none int=(grid=ultrafine) guess=(read,tcheck) s
 table=(opt,rrhf)
 ----------------------------------------------------------------------
 -----
 title
 -----
 Symbolic Z-matrix:
 Charge =  0 Multiplicity = 1

 SCF Done:  E(RHF) =  -324.915006850     A.U. after   14 cycles
 Normal termination of Gaussian 16 at Wed Apr  9 04:05:00 2025.
 Gaussian 16:  ES64L-G16RevC.01  3-Jul-2019

 ----------------------------------------------------------------------
 #t hf aug-cc-pvdz iop(5/13=1,5/36=2,99/5=2) pseudo=read geom=check gue
 ss=(read,tcheck) scf=(maxcycle=1)
 ----------------------------------------------------------------------
 -----
 title
 -----
 Structure from the checkpoint file:  "Grambow2020_wb97xd3_009230_reverse_mol2.chk"
 Charge =  0 Multiplicity = 1

                         Standard orientation:
 ---------------------------------------------------------------------
 Center     Atomic      Atomic             Coordinates (Angstroms)
 Number     Number       Type             X           Y           Z
 ---------------------------------------------------------------------
      1          6           0       -2.659547    0.460295   -0.017212
      2          8           0       -1.627552   -0.331157    0.509558
      3          6           0       -0.575753   -0.513189   -0.412063
      4          6           0        0.340217    0.632934   -0.697073
      5          7           0        1.419972    0.054642   -0.151643
      6          6           0        2.692012    0.291398    0.029146
      7          6           0        0.656737   -1.139823    0.261125
      8          1           0       -3.435609    0.538633    0.742625
      9          1           0       -3.090638    0.007832   -0.920910
     10          1           0       -2.302770    1.467770   -0.265954
     11          1           0       -0.962267   -1.067899   -1.279847
     12          1           0        0.324970    1.544775   -1.272286
     13          1           0        0.575090    1.907420    1.633178
     14          1           0        1.216958    1.994715    2.010172
     15          1           0        3.123515    1.195282   -0.370346
     16          1           0        3.276614   -0.443343    0.557674
     17          1           0        0.575039   -1.215210    1.344365
     18          1           0        1.057712   -2.052902   -0.177158
 ---------------------------------------------------------------------

 SCF Done:  E(RHF) =  -326.482816315     A.U. after    2 cycles

 The electronic state is 1-A.
 Alpha  occ. eigenvalues --  -21.03953 -15.83368 -11.50630 -11.42810 -11.39843
 Alpha  occ. eigenvalues --  -11.39170 -11.36901  -1.76209  -1.52898  -1.14867
 Alpha  occ. eigenvalues --   -1.00196  -0.98161  -0.88027  -0.75429  -0.70980
 Alpha  occ. eigenvalues --   -0.67272  -0.65955  -0.60924  -0.60131  -0.59758
 Alpha  occ. eigenvalues --   -0.54830  -0.52960  -0.48728  -0.47524  -0.45648
 Alpha  occ. eigenvalues --   -0.38395  -0.29527  -0.22964
 Alpha virt. eigenvalues --    0.04100   0.05133   0.05322   0.05510   0.05701
 Alpha virt. eigenvalues --    0.05899   0.06708   0.07355   0.07577   0.08966
 Alpha virt. eigenvalues --    0.09986   0.10559   0.12019   0.13151   0.13449

 Mulliken charges:
               1
     1  C   -2.993133
     2  O   -3.384638
     3  C    0.231327
     4  C    0.599888
     5  N   -2.972716
     6  C   -1.941261
     7  C   -2.585336
     8  H    1.248352
     9  H    1.338648
    10  H    1.412386
    11  H    1.532503
    12  H    1.446369
    13  H   -0.174792
    14  H   -0.087549
    15  H    1.567252
    16  H    1.554045
    17  H    1.648691
    18  H    1.559964
 Sum of Mulliken charges =  -0.00000

 Dipole moment (field-independent basis, Debye):
    X=             -0.0887    Y=             -0.8163    Z=             -0.2772  Tot=              0.8666

 Test job not archived.
 1\1\GINC-SE459\SP\RHF\Aug-CC-pVDZ\C5H11N1O1\OHZDE\09-Apr-2025\0\\#t hf
  aug-cc-pvdz iop(5/13=1,5/36=2,99/5=2) pseudo=read geom=check guess=(r
 ead,tcheck) scf=(maxcycle=1)\\title\\0,1\C,0,2.64556063,0.55843276,0.1
 6558378\O,0,1.46708702,0.94903522,-0.48827017\C,0,0.6753123,-0.1571854
 9,-0.85998462\C,0,-0.06611491,-0.90310572,0.20195571\N,0,-1.28239452,-
 0.55159825,-0.23951022\C,0,-2.54162555,-0.763089,0.03695713\C,0,-0.723
 84398,0.28480943,-1.32029438\H,0,3.20603022,1.46149936,0.40244936\H,0,
 3.26389793,-0.08683473,-0.4735737\H,0,2.42613009,0.02175547,1.09724644

 Normal termination of Gaussian 16 at Wed Apr  9 04:05:06 2025.
