 Gaussian 16, Revision C.01,

 ----------------------------------------------------------------------
 #t hf aug-cc-pvdz symm=none int=(grid=ultrafine) guess=(read,tcheck) s
 table=(opt,rrhf)
 ----------------------------------------------------------------------
 -----
 title
 -----
 Symbolic Z-matrix:
 Charge =  0 Multiplicity = 1

 SCF Done:  E(RHF) =  -343.766223076     A.U. after   15 cycles
 Normal termination of Gaussian 16 at Wed Apr  9 03:27:19 2025.
 Gaussian 16:  ES64L-G16RevC.01  3-Jul-2019

 ----------------------------------------------------------------------
 #t hf aug-cc-pvdz iop(5/13=1,5/36=2,99/5=2) pseudo=read geom=check gue
 ss=(read,tcheck) scf=(maxcycle=1)
 ----------------------------------------------------------------------
 -----
 title
 -----
 Structure from the checkpoint file:  "Grambow2020_wb97xd3_006675_reverse_mol2.chk"
 Charge =  0 Multiplicity = 1

                         Standard orientation:
 ---------------------------------------------------------------------
 Center     Atomic      Atomic             Coordinates (Angstroms)
 Number     Number       Type             X           Y           Z
 ---------------------------------------------------------------------
      1          6           0        2.744916   -0.089828    0.148237
      2          6           0        1.255260   -0.207929   -0.043489
      3          8           0        0.723101   -1.259365   -0.299410
      4          6           0        0.443792    1.064815    0.100002
      5          6           0       -0.988703    0.911405   -0.379901
      6          6           0       -1.790677   -0.106523    0.398120
      7          8           0       -2.826640   -0.568314    0.012603
      8          1           0        2.980388    0.508188    1.030759
      9          1           0        3.190942   -1.078193    0.230865
     10          1           0        3.174682    0.426298   -0.714396
     11          1           0       -1.384559   -0.384986    1.394386
     12          1           0        0.474251    1.346835    1.159950
     13          1           0        0.954001    1.874733   -0.428119
     14          1           0       -1.517164    1.865337   -0.283257
     15          1           0       -1.031759    0.631576   -1.433553
 ---------------------------------------------------------------------

 SCF Done:  E(RHF) =  -345.319795807     A.U. after    2 cycles

 The electronic state is 1-A.
 Alpha  occ. eigenvalues --  -21.06291 -21.05299 -11.50944 -11.48074 -11.43929
 Alpha  occ. eigenvalues --  -11.40206 -11.38994  -1.72798  -1.70185  -1.23417
 Alpha  occ. eigenvalues --   -1.11576  -0.98557  -0.82449  -0.75829  -0.66654
 Alpha  occ. eigenvalues --   -0.64853  -0.61832  -0.59589  -0.59105  -0.53824
 Alpha  occ. eigenvalues --   -0.51605  -0.48973  -0.47470  -0.42919  -0.41446
 Alpha  occ. eigenvalues --   -0.29767  -0.28468
 Alpha virt. eigenvalues --    0.02831   0.04545   0.04817   0.05319   0.05516
 Alpha virt. eigenvalues --    0.06421   0.07054   0.07394   0.09981   0.10910
 Alpha virt. eigenvalues --    0.12209   0.12674   0.13701   0.13984   0.14314

 Mulliken charges:
               1
     1  C   -4.895555
     2  C    5.013138
     3  O   -3.352845
     4  C   -3.361251
     5  C   -3.264002
     6  C    1.728452
     7  O   -2.786572
     8  H    1.313496
     9  H    1.278681
    10  H    1.269308
    11  H    1.425471
    12  H    1.514049
    13  H    1.489494
    14  H    1.269411
    15  H    1.358725
 Sum of Mulliken charges =   0.00000

 Dipole moment (field-independent basis, Debye):
    X=              2.2583    Y=              1.7682    Z=              0.3104  Tot=              2.8849

 Test job not archived.
 1\1\GINC-SE459\SP\RHF\Aug-CC-pVDZ\C5H8O2\OHZDE\09-Apr-2025\0\\#t hf au
 g-cc-pvdz iop(5/13=1,5/36=2,99/5=2) pseudo=read geom=check guess=(read
 ,tcheck) scf=(maxcycle=1)\\title\\0,1\C,0,-2.20665895,-0.49378905,0.65
 579816\C,0,-0.95374928,-0.22342659,-0.13597493\O,0,-0.96931492,-0.0870
 0033,-1.33403672\C,0,0.34240426,-0.12929032,0.64509411\C,0,1.57252272,
 -0.13701567,-0.24520457\C,0,1.64903424,1.03544624,-1.19606483\O,0,2.37
 359694,1.06866325,-2.14947805\H,0,-2.25143675,0.13651775,1.54609214\H,
 0,-3.08415558,-0.33307208,0.03386429\H,0,-2.19456643,-1.53238619,0.996

 Normal termination of Gaussian 16 at Wed Apr  9 03:27:24 2025.
