 Gaussian 16, Revision C.01,

 ----------------------------------------------------------------------
 #t hf aug-cc-pvdz symm=none int=(grid=ultrafine) guess=(read,tcheck) s
 table=(opt,rrhf)
 ----------------------------------------------------------------------
 -----
 title
 -----
 Symbolic Z-matrix:
 Charge =  0 Multiplicity = 1

 SCF Done:  E(RHF) =  -286.765730830     A.U. after   16 cycles
 Normal termination of Gaussian 16 at Wed Apr  9 19:00:58 2025.
 Gaussian 16:  ES64L-G16RevC.01  3-Jul-2019

 ----------------------------------------------------------------------
 #t hf aug-cc-pvdz iop(5/13=1,5/36=2,99/5=2) pseudo=read geom=check gue
 ss=(read,tcheck) scf=(maxcycle=1)
 ----------------------------------------------------------------------
 -----
 title
 -----
 Structure from the checkpoint file:  "Grambow2020_wb97xd3_007991_reverse_mol2.chk"
 Charge =  0 Multiplicity = 1

                         Standard orientation:
 ---------------------------------------------------------------------
 Center     Atomic      Atomic             Coordinates (Angstroms)
 Number     Number       Type             X           Y           Z
 ---------------------------------------------------------------------
      1          6           0        2.174734   -0.988583    0.252161
      2          6           0        1.431316    0.274893   -0.070125
      3          6           0        1.789505    1.476003    0.253891
      4          6           0        0.124074    0.256822   -0.851843
      5          6           0       -0.973038   -0.471318   -0.117260
      6          6           0       -1.773717    0.213356    0.913803
      7          7           0       -2.330728   -0.032007   -0.415169
      8          1           0        1.575061   -1.628374    0.902137
      9          1           0        3.116483   -0.776836    0.756117
     10          1           0        2.388222   -1.538357   -0.667010
     11          1           0        0.313329   -0.210757   -1.823008
     12          1           0       -0.216947    1.275273   -1.054406
     13          1           0       -0.816565   -1.537839    0.019603
     14          1           0       -1.563722    1.253498    1.136836
     15          1           0       -2.140912   -0.369098    1.751020
     16          1           0       -2.977104   -0.810497   -0.398866
 ---------------------------------------------------------------------

 SCF Done:  E(RHF) =  -288.145657352     A.U. after    2 cycles

 The electronic state is 1-A.
 Alpha  occ. eigenvalues --  -15.73863 -11.48582 -11.43692 -11.41686 -11.40994
 Alpha  occ. eigenvalues --  -11.39570 -11.37640  -1.46643  -1.25652  -1.06157
 Alpha  occ. eigenvalues --   -0.97339  -0.93028  -0.83861  -0.73555  -0.67008
 Alpha  occ. eigenvalues --   -0.62258  -0.60599  -0.58058  -0.56313  -0.51822
 Alpha  occ. eigenvalues --   -0.50020  -0.44928  -0.44578  -0.39810  -0.36116
 Alpha  occ. eigenvalues --   -0.34663
 Alpha virt. eigenvalues --    0.03352   0.04645   0.05110   0.05296   0.05628
 Alpha virt. eigenvalues --    0.06122   0.06992   0.07525   0.07968   0.09295
 Alpha virt. eigenvalues --    0.10333   0.11636   0.12109   0.12767   0.13348

 Mulliken charges:
               1
     1  C   -4.569557
     2  C    4.114224
     3  C   -3.183356
     4  C   -3.943333
     5  C    1.190469
     6  C   -2.766724
     7  N   -2.379643
     8  H    1.330383
     9  H    1.375046
    10  H    1.264399
    11  H    1.165378
    12  H    1.431970
    13  H    1.541942
    14  H    1.459562
    15  H    1.368281
    16  H    0.600961
 Sum of Mulliken charges =   0.00000

 Dipole moment (field-independent basis, Debye):
    X=             -0.9206    Y=             -3.7418    Z=              0.0913  Tot=              3.8544

 Test job not archived.
 1\1\GINC-SE232\SP\RHF\Aug-CC-pVDZ\C6H9N1\OHZDE\09-Apr-2025\0\\#t hf au
 g-cc-pvdz iop(5/13=1,5/36=2,99/5=2) pseudo=read geom=check guess=(read
 ,tcheck) scf=(maxcycle=1)\\title\\0,1\C,0,1.71384131,0.27852756,1.6483
 8743\C,0,1.45525591,-0.09489777,0.21779444\C,0,2.19046025,0.22211955,-
 0.7995176\C,0,0.24508483,-0.92738311,-0.18562435\C,0,-1.05679833,-0.22
 430837,0.10462086\C,0,-1.60860657,0.76214441,-0.8416219\N,0,-2.1739035
 4,-0.58339227,-0.76036602\H,0,0.91216607,0.91525419,2.02694494\H,0,2.6
 5514409,0.81565595,1.75394487\H,0,1.75621034,-0.62175688,2.26514902\H,

 Normal termination of Gaussian 16 at Wed Apr  9 19:01:04 2025.
