 Gaussian 16, Revision C.01,

 ----------------------------------------------------------------------
 #t hf aug-cc-pvdz symm=none int=(grid=ultrafine) guess=(read,tcheck) s
 table=(opt,rrhf)
 ----------------------------------------------------------------------
 -----
 title
 -----
 Symbolic Z-matrix:
 Charge =  0 Multiplicity = 1

 SCF Done:  E(RHF) =  -338.713211127     A.U. after   14 cycles
 Normal termination of Gaussian 16 at Wed Apr  9 19:17:59 2025.
 Gaussian 16:  ES64L-G16RevC.01  3-Jul-2019

 ----------------------------------------------------------------------
 #t hf aug-cc-pvdz iop(5/13=1,5/36=2,99/5=2) pseudo=read geom=check gue
 ss=(read,tcheck) scf=(maxcycle=1)
 ----------------------------------------------------------------------
 -----
 title
 -----
 Structure from the checkpoint file:  "Grambow2020_wb97xd3_008564_reverse_mol2.chk"
 Charge =  0 Multiplicity = 1

                         Standard orientation:
 ---------------------------------------------------------------------
 Center     Atomic      Atomic             Coordinates (Angstroms)
 Number     Number       Type             X           Y           Z
 ---------------------------------------------------------------------
      1          7           0       -0.401260   -1.692076    0.042454
      2          6           0       -1.558529   -1.212690   -0.100919
      3          8           0       -1.837252    0.091440   -0.044446
      4          6           0       -0.835108    0.953658    0.362908
      5          6           0       -0.744281    2.163591   -0.147356
      6          6           0        2.476605   -0.352681   -0.054908
      7          7           0        3.492982    0.174482   -0.051755
      8          1           0       -0.422621   -2.702683   -0.027606
      9          1           0       -2.469846   -1.777536   -0.295148
     10          1           0       -0.193919    0.561889    1.142833
     11          1           0        1.508500   -0.840915   -0.047691
     12          1           0       -1.409170    2.497888   -0.932810
     13          1           0        0.010900    2.841728    0.222750
 ---------------------------------------------------------------------

 SCF Done:  E(RHF) =  -340.235418139     A.U. after    2 cycles

 The electronic state is 1-A.
 Alpha  occ. eigenvalues --  -21.12587 -15.76217 -15.75690 -11.49749 -11.46525
 Alpha  occ. eigenvalues --  -11.41484 -11.39336  -1.85505  -1.34726  -1.29133
 Alpha  occ. eigenvalues --   -1.13792  -0.91248  -0.80729  -0.79650  -0.74835
 Alpha  occ. eigenvalues --   -0.67300  -0.60439  -0.56409  -0.54635  -0.52531
 Alpha  occ. eigenvalues --   -0.47590  -0.44769  -0.44650  -0.44053  -0.41287
 Alpha  occ. eigenvalues --   -0.31844
 Alpha virt. eigenvalues --    0.02873   0.04781   0.05204   0.06129   0.06357
 Alpha virt. eigenvalues --    0.07520   0.09001   0.09830   0.10603   0.11115
 Alpha virt. eigenvalues --    0.12626   0.13170   0.13905   0.14704   0.15048

 Mulliken charges:
               1
     1  N   -2.755473
     2  C    1.856263
     3  O   -3.688564
     4  C    0.775643
     5  C   -3.133687
     6  C    0.538523
     7  N   -2.685744
     8  H    0.790580
     9  H    1.722692
    10  H    1.541211
    11  H    2.268972
    12  H    1.418717
    13  H    1.350866
 Sum of Mulliken charges =  -0.00000

 Dipole moment (field-independent basis, Debye):
    X=             -4.8624    Y=             -1.3580    Z=             -0.1556  Tot=              5.0509

 Test job not archived.
 1\1\GINC-SE097\SP\RHF\Aug-CC-pVDZ\C4H6N2O1\OHZDE\09-Apr-2025\0\\#t hf
 aug-cc-pvdz iop(5/13=1,5/36=2,99/5=2) pseudo=read geom=check guess=(re
 ad,tcheck) scf=(maxcycle=1)\\title\\0,1\N,0,-1.24929478,0.66686791,-0.
 97749239\C,0,-1.82004129,0.1675246,0.02975318\O,0,-1.19344607,-0.55980
 173,0.9571183\C,0,0.11671207,-0.93245543,0.71573466\C,0,0.9805129,-1.0
 2216754,1.70485305\C,0,1.81518652,1.14926244,-1.65706445\N,0,2.9313374
 4,1.26447972,-1.88480038\H,0,-1.91541171,1.16953192,-1.55221601\H,0,-2
 .87495901,0.26313111,0.28525882\H,0,0.3321607,-1.17629159,-0.31722929\

 Normal termination of Gaussian 16 at Wed Apr  9 19:18:03 2025.
