 Gaussian 16, Revision C.01,

 ----------------------------------------------------------------------
 #t hf aug-cc-pvdz symm=none int=(grid=ultrafine) guess=(read,tcheck) s
 table=(opt,rrhf)
 ----------------------------------------------------------------------
 -----
 title
 -----
 Symbolic Z-matrix:
 Charge =  0 Multiplicity = 1

 SCF Done:  E(RHF) =  -301.537582531     A.U. after   20 cycles
 Normal termination of Gaussian 16 at Wed Apr  9 19:23:08 2025.
 Gaussian 16:  ES64L-G16RevC.01  3-Jul-2019

 ----------------------------------------------------------------------
 #t hf aug-cc-pvdz iop(5/13=1,5/36=2,99/5=2) pseudo=read geom=check gue
 ss=(read,tcheck) scf=(maxcycle=1)
 ----------------------------------------------------------------------
 -----
 title
 -----
 Structure from the checkpoint file:  "Grambow2020_wb97xd3_008860_forward_mol1.chk"
 Charge =  0 Multiplicity = 1

                         Standard orientation:
 ---------------------------------------------------------------------
 Center     Atomic      Atomic             Coordinates (Angstroms)
 Number     Number       Type             X           Y           Z
 ---------------------------------------------------------------------
      1          7           0       -2.469274   -0.989377   -0.024638
      2          6           0       -1.765085   -0.074491   -0.038106
      3          6           0       -0.931219    1.057748    0.026014
      4          6           0        0.478165    0.923599    0.065717
      5          6           0        1.082937   -0.259011    0.975407
      6          6           0        1.873362   -0.713431   -0.222804
      7          7           0        0.931844    0.045109   -1.026817
      8          1           0       -1.416119    2.022715   -0.064160
      9          1           0        1.043540    1.849624    0.198371
     10          1           0        1.608609    0.148606    1.835415
     11          1           0        0.296667   -0.946793    1.266680
     12          1           0        2.885545   -0.289496   -0.276253
     13          1           0        1.914814   -1.781264   -0.437236
 ---------------------------------------------------------------------

 SCF Done:  E(RHF) =  -302.933871996     A.U. after    2 cycles

 The electronic state is 1-A.
 Alpha  occ. eigenvalues --  -15.77436 -15.75221 -11.51085 -11.47632 -11.44646
 Alpha  occ. eigenvalues --  -11.42518 -11.40661  -1.48863  -1.30542  -1.14102
 Alpha  occ. eigenvalues --   -1.03230  -0.96034  -0.82745  -0.70860  -0.69318
 Alpha  occ. eigenvalues --   -0.64197  -0.60354  -0.57034  -0.54432  -0.50894
 Alpha  occ. eigenvalues --   -0.47920  -0.46469  -0.42554  -0.37151  -0.25812
 Alpha virt. eigenvalues --    0.00100   0.03643   0.04817   0.05027   0.05156
 Alpha virt. eigenvalues --    0.06147   0.07207   0.09125   0.10367   0.11464
 Alpha virt. eigenvalues --    0.11710   0.12874   0.13478   0.13575   0.14199

 Mulliken charges:
               1
     1  N   -2.391591
     2  C    1.847769
     3  C   -0.334393
     4  C   -1.411477
     5  C   -2.492574
     6  C   -2.078258
     7  N   -1.430094
     8  H    1.512333
     9  H    1.387926
    10  H    1.149011
    11  H    1.359589
    12  H    1.477671
    13  H    1.404087
 Sum of Mulliken charges =   0.00000

 Dipole moment (field-independent basis, Debye):
    X=              4.2261    Y=              2.1522    Z=              1.4672  Tot=              4.9643

 Test job not archived.
 1\1\GINC-SE220\SP\RHF\Aug-CC-pVDZ\C5H6N2\OHZDE\09-Apr-2025\0\\#t hf au
 g-cc-pvdz iop(5/13=1,5/36=2,99/5=2) pseudo=read geom=check guess=(read
 ,tcheck) scf=(maxcycle=1)\\title\\0,1\N,0,2.72910805,-0.39480113,1.416
 69182\C,0,2.15081562,-0.32325973,0.41992731\C,0,1.44968726,-0.32168119
 ,-0.80065652\C,0,0.07454101,0.01356971,-0.85080506\C,0,-0.86768392,-0.
 5519021,0.32576049\C,0,-1.35256077,0.85569379,0.5505847\N,0,-0.1588478
 1,1.29005748,-0.15273105\H,0,2.03668017,-0.48334167,-1.69716403\H,0,-0
 .40846468,-0.09148976,-1.82570853\H,0,-1.55903538,-1.29684384,-0.06049

 Normal termination of Gaussian 16 at Wed Apr  9 19:23:12 2025.
