 Gaussian 16, Revision C.01,

 ----------------------------------------------------------------------
 #t hf aug-cc-pvdz symm=none int=(grid=ultrafine) guess=(read,tcheck) s
 table=(opt,rrhf)
 ----------------------------------------------------------------------
 -----
 title
 -----
 Symbolic Z-matrix:
 Charge =  0 Multiplicity = 1

 SCF Done:  E(RHF) =  -309.067901943     A.U. after   13 cycles

 1\1\GINC-SE113\Stability\RHF\Aug-CC-pVDZ\C6H12O1\OHZDE\09-Apr-2025\0\\
 #t hf aug-cc-pvdz symm=none int=(grid=ultrafine) guess=(read,tcheck) s
 table=(opt,rrhf)\\title\\0,1\C,0,-1.69276069,-1.0734368,-0.5679996\C,0
 ,-0.62640579,-0.04025385,-0.21405988\C,0,-1.24065218,1.08225415,0.6212
 8432\C,0,0.54074377,-0.70142958,0.52762964\O,0,0.97620042,-1.90373575,
 -0.10300361\C,0,1.75915644,0.15966759,0.75524896\C,0,2.06948167,1.2813
 8858,0.12335477\H,0,-2.52390227,-0.59893254,-1.09376769\H,0,-1.2936411
 4,-1.86785006,-1.19630511\H,0,-2.09402342,-1.53749191,0.33776433\H,0,-

 Normal termination of Gaussian 16 at Wed Apr  9 18:51:01 2025.
 Gaussian 16:  ES64L-G16RevC.01  3-Jul-2019

 ----------------------------------------------------------------------
 #t hf aug-cc-pvdz iop(5/13=1,5/36=2,99/5=2) pseudo=read geom=check gue
 ss=(read,tcheck) scf=(maxcycle=1)
 ----------------------------------------------------------------------
 -----
 title
 -----
 Structure from the checkpoint file:  "Grambow2020_wb97xd3_007708_reverse_mol2.chk"
 Charge =  0 Multiplicity = 1

                         Standard orientation:
 ---------------------------------------------------------------------
 Center     Atomic      Atomic             Coordinates (Angstroms)
 Number     Number       Type             X           Y           Z
 ---------------------------------------------------------------------
      1          6           0        2.150930    0.386976   -0.296071
      2          6           0        0.797570   -0.318760   -0.281741
      3          6           0        0.930527   -1.694654    0.369690
      4          6           0       -0.248421    0.534275    0.444709
      5          8           0       -0.224165    1.897769    0.028587
      6          6           0       -1.677260    0.056683    0.354418
      7          6           0       -2.175292   -0.800261   -0.523911
      8          1           0        2.894381   -0.224321   -0.811803
      9          1           0        2.096704    1.355999   -0.789236
     10          1           0        2.508109    0.554158    0.724341
     11          1           0        0.471738   -0.447313   -1.321842
     12          1           0        1.274074   -1.592611    1.403323
     13          1           0        1.666907   -2.301834   -0.160246
     14          1           0       -0.010889   -2.243226    0.386176
     15          1           0        0.035620    0.572839    1.502828
     16          1           0       -2.351243    0.548687    1.050787
     17          1           0       -1.556317   -1.317626   -1.248083
     18          1           0       -0.669130    1.951233   -0.820928
     19          1           0       -3.234960   -1.023695   -0.546566
 ---------------------------------------------------------------------

 SCF Done:  E(RHF) =  -310.579696893     A.U. after    2 cycles

 The electronic state is 1-A.
 Alpha  occ. eigenvalues --  -21.06244 -11.46962 -11.42314 -11.40886 -11.38512
 Alpha  occ. eigenvalues --  -11.37968 -11.35243  -1.71495  -1.25409  -1.14378
 Alpha  occ. eigenvalues --   -0.99576  -0.96971  -0.84691  -0.77404  -0.67551
 Alpha  occ. eigenvalues --   -0.63091  -0.60441  -0.58092  -0.56090  -0.53461
 Alpha  occ. eigenvalues --   -0.53073  -0.51833  -0.46470  -0.45310  -0.43875
 Alpha  occ. eigenvalues --   -0.40086  -0.34754  -0.30364
 Alpha virt. eigenvalues --    0.03992   0.04895   0.05157   0.05508   0.05795
 Alpha virt. eigenvalues --    0.06035   0.06417   0.06867   0.07219   0.08394
 Alpha virt. eigenvalues --    0.08656   0.09293   0.11251   0.12860   0.13288

 Mulliken charges:
               1
     1  C   -4.356058
     2  C   -1.400964
     3  C   -4.043388
     4  C    0.780501
     5  O   -3.105934
     6  C   -0.316108
     7  C   -3.667824
     8  H    1.146751
     9  H    1.313188
    10  H    1.272232
    11  H    1.865218
    12  H    1.298013
    13  H    1.180275
    14  H    1.527172
    15  H    1.688291
    16  H    1.232809
    17  H    1.484365
    18  H    0.730164
    19  H    1.371295
 Sum of Mulliken charges =  -0.00000

 Dipole moment (field-independent basis, Debye):
    X=             -0.1741    Y=             -0.3935    Z=             -0.3034  Tot=              0.5265

 Test job not archived.
 1\1\GINC-SE113\SP\RHF\Aug-CC-pVDZ\C6H12O1\OHZDE\09-Apr-2025\0\\#t hf a
 ug-cc-pvdz iop(5/13=1,5/36=2,99/5=2) pseudo=read geom=check guess=(rea
 d,tcheck) scf=(maxcycle=1)\\title\\0,1\C,0,-1.69276069,-1.0734368,-0.5
 679996\C,0,-0.62640579,-0.04025385,-0.21405988\C,0,-1.24065218,1.08225
 415,0.62128432\C,0,0.54074377,-0.70142958,0.52762964\O,0,0.97620042,-1
 .90373575,-0.10300361\C,0,1.75915644,0.15966759,0.75524896\C,0,2.06948
 167,1.28138858,0.12335477\H,0,-2.52390227,-0.59893254,-1.09376769\H,0,
 -1.29364114,-1.86785006,-1.19630511\H,0,-2.09402342,-1.53749191,0.3377

 Normal termination of Gaussian 16 at Wed Apr  9 18:51:09 2025.
