 Gaussian 16, Revision C.01,

 ----------------------------------------------------------------------
 #t hf aug-cc-pvdz symm=none int=(grid=ultrafine) guess=(read,tcheck) s
 table=(opt,rrhf)
 ----------------------------------------------------------------------
 -----
 title
 -----
 Symbolic Z-matrix:
 Charge =  0 Multiplicity = 1

 SCF Done:  E(RHF) =  -307.622718766     A.U. after   17 cycles

 1\1\GINC-SE112\Stability\RHF\Aug-CC-pVDZ\C6H10O1\OHZDE\09-Apr-2025\0\\
 #t hf aug-cc-pvdz symm=none int=(grid=ultrafine) guess=(read,tcheck) s
 table=(opt,rrhf)\\title\\0,1\C,0,-2.13180521,-0.55082258,0.03022264\C,
 0,-0.75399529,-0.01854395,-0.19122285\O,0,-0.51955252,1.18703454,0.446
 39269\C,0,0.36985038,1.69715177,-0.5268667\C,0,1.6835096,-0.22912065,-
 0.3682185\C,0,1.45264686,-0.59680241,1.00735669\C,0,0.43623013,-0.9177
 8373,-0.16005824\H,0,-2.87271261,0.16040757,-0.33619537\H,0,-2.3167584
 6,-0.70272107,1.09910669\H,0,-2.26542337,-1.50314747,-0.48269747\H,0,-

 Normal termination of Gaussian 16 at Wed Apr  9 18:20:38 2025.
 Gaussian 16:  ES64L-G16RevC.01  3-Jul-2019

 ----------------------------------------------------------------------
 #t hf aug-cc-pvdz iop(5/13=1,5/36=2,99/5=2) pseudo=read geom=check gue
 ss=(read,tcheck) scf=(maxcycle=1)
 ----------------------------------------------------------------------
 -----
 title
 -----
 Structure from the checkpoint file:  "Grambow2020_wb97xd3_006907_reverse_mol1.chk"
 Charge =  0 Multiplicity = 1

                         Standard orientation:
 ---------------------------------------------------------------------
 Center     Atomic      Atomic             Coordinates (Angstroms)
 Number     Number       Type             X           Y           Z
 ---------------------------------------------------------------------
      1          6           0       -2.118210   -0.781186   -0.038396
      2          6           0       -0.788131   -0.123372   -0.208358
      3          8           0       -0.587292    0.944004    0.649144
      4          6           0        0.214343    1.696903   -0.239123
      5          6           0        1.643360   -0.128848   -0.532275
      6          6           0        1.512889   -0.778074    0.749200
      7          6           0        0.451604   -0.928054   -0.412768
      8          1           0       -2.918443   -0.063052   -0.219960
      9          1           0       -2.232820   -1.155231    0.984711
     10          1           0       -2.225981   -1.619003   -0.727098
     11          1           0       -0.168207    0.860056   -1.169045
     12          1           0       -0.387409    2.508650   -0.659065
     13          1           0        1.105736    2.115274    0.223920
     14          1           0        2.470968   -0.301983   -1.209897
     15          1           0        1.034494   -0.237665    1.565499
     16          1           0        2.210388   -1.549741    1.068070
     17          1           0        0.314474   -1.853549   -0.959965
 ---------------------------------------------------------------------

 SCF Done:  E(RHF) =  -309.132236749     A.U. after    2 cycles

 The electronic state is 1-A.
 Alpha  occ. eigenvalues --  -21.06048 -11.48916 -11.44579 -11.43126 -11.41329
 Alpha  occ. eigenvalues --  -11.38910 -11.36820  -1.80152  -1.30293  -1.11892
 Alpha  occ. eigenvalues --   -0.96392  -0.93260  -0.82372  -0.77232  -0.69407
 Alpha  occ. eigenvalues --   -0.67058  -0.63151  -0.57368  -0.56851  -0.54946
 Alpha  occ. eigenvalues --   -0.48509  -0.46739  -0.44481  -0.40770  -0.35169
 Alpha  occ. eigenvalues --   -0.32211  -0.23983
 Alpha virt. eigenvalues --    0.03695   0.05031   0.05088   0.05455   0.05643
 Alpha virt. eigenvalues --    0.06293   0.06423   0.06623   0.07696   0.08883
 Alpha virt. eigenvalues --    0.09821   0.12008   0.12190   0.12931   0.13388

 Mulliken charges:
               1
     1  C   -4.519005
     2  C    2.485836
     3  O   -3.183659
     4  C   -2.413188
     5  C   -1.362318
     6  C   -2.380681
     7  C   -1.734083
     8  H    1.280684
     9  H    1.171856
    10  H    1.185915
    11  H    1.850892
    12  H    0.954483
    13  H    1.328843
    14  H    1.201944
    15  H    1.333288
    16  H    1.376905
    17  H    1.422290
 Sum of Mulliken charges =   0.00000

 Dipole moment (field-independent basis, Debye):
    X=             -0.6194    Y=             -0.3836    Z=              0.2382  Tot=              0.7665

 Test job not archived.
 1\1\GINC-SE112\SP\RHF\Aug-CC-pVDZ\C6H10O1\OHZDE\09-Apr-2025\0\\#t hf a
 ug-cc-pvdz iop(5/13=1,5/36=2,99/5=2) pseudo=read geom=check guess=(rea
 d,tcheck) scf=(maxcycle=1)\\title\\0,1\C,0,-2.13180521,-0.55082258,0.0
 3022264\C,0,-0.75399529,-0.01854395,-0.19122285\O,0,-0.51955252,1.1870
 3454,0.44639269\C,0,0.36985038,1.69715177,-0.5268667\C,0,1.6835096,-0.
 22912065,-0.3682185\C,0,1.45264686,-0.59680241,1.00735669\C,0,0.436230
 13,-0.91778373,-0.16005824\H,0,-2.87271261,0.16040757,-0.33619537\H,0,
 -2.31675846,-0.70272107,1.09910669\H,0,-2.26542337,-1.50314747,-0.4826

 Normal termination of Gaussian 16 at Wed Apr  9 18:20:44 2025.
