 Gaussian 16, Revision C.01,

 ----------------------------------------------------------------------
 #t hf aug-cc-pvdz symm=none int=(grid=ultrafine) guess=(read,tcheck) s
 table=(opt,rrhf)
 ----------------------------------------------------------------------
 -----
 title
 -----
 Symbolic Z-matrix:
 Charge =  0 Multiplicity = 1

 SCF Done:  E(RHF) =  -269.966515780     A.U. after   14 cycles

 1\1\GINC-SE454\Stability\RHF\Aug-CC-pVDZ\C5H10O1\OHZDE\09-Apr-2025\0\\
 #t hf aug-cc-pvdz symm=none int=(grid=ultrafine) guess=(read,tcheck) s
 table=(opt,rrhf)\\title\\0,1\C,0,2.87786429,-0.78163611,0.07374572\O,0
 ,1.52861358,-0.75878903,0.55244381\C,0,0.5924808,-0.60895966,-0.333358
 56\C,0,-1.54990214,1.64503685,-0.19646899\C,0,-1.80521073,0.14934167,-
 0.32791687\C,0,-0.72979488,-0.68248915,0.36361467\H,0,3.42028976,0.021
 49997,0.57122269\H,0,2.87476454,-0.64494425,-1.00656289\H,0,3.31245984
 ,-1.74266922,0.34666518\H,0,-0.58883987,1.91362608,-0.64231146\H,0,-1.

 Normal termination of Gaussian 16 at Wed Apr  9 17:49:52 2025.
 Gaussian 16:  ES64L-G16RevC.01  3-Jul-2019

 ----------------------------------------------------------------------
 #t hf aug-cc-pvdz iop(5/13=1,5/36=2,99/5=2) pseudo=read geom=check gue
 ss=(read,tcheck) scf=(maxcycle=1)
 ----------------------------------------------------------------------
 -----
 title
 -----
 Structure from the checkpoint file:  "Grambow2020_wb97xd3_006202_reverse_mol2.chk"
 Charge =  0 Multiplicity = 1

                         Standard orientation:
 ---------------------------------------------------------------------
 Center     Atomic      Atomic             Coordinates (Angstroms)
 Number     Number       Type             X           Y           Z
 ---------------------------------------------------------------------
      1          6           0       -2.761254    0.438842    0.128133
      2          8           0       -1.545744   -0.132161   -0.368499
      3          6           0       -0.548748   -0.204665    0.458653
      4          6           0        2.256124    1.010249   -0.129328
      5          6           0        1.949361   -0.426188    0.273301
      6          6           0        0.587465   -0.889289   -0.234097
      7          1           0       -3.007888    1.293413   -0.500848
      8          1           0       -2.615479    0.741008    1.164090
      9          1           0       -3.542567   -0.315921    0.045513
     10          1           0        1.504817    1.693595    0.274569
     11          1           0        2.258542    1.122794   -1.216938
     12          1           0        3.231702    1.329285    0.241584
     13          1           0        1.963651   -0.513956    1.362820
     14          1           0        2.725598   -1.093712   -0.110487
     15          1           0        0.512969   -0.827359   -1.327922
     16          1           0        0.436922   -1.945556    0.035636
 ---------------------------------------------------------------------

 SCF Done:  E(RHF) =  -271.269494395     A.U. after    2 cycles

 The electronic state is 1-A.
 Alpha  occ. eigenvalues --  -21.10669 -11.42596 -11.41378 -11.40353 -11.37144
 Alpha  occ. eigenvalues --  -11.34220  -1.81486  -1.22114  -1.06062  -0.98391
 Alpha  occ. eigenvalues --   -0.85468  -0.74663  -0.64454  -0.63151  -0.61797
 Alpha  occ. eigenvalues --   -0.60476  -0.55972  -0.51947  -0.48542  -0.46483
 Alpha  occ. eigenvalues --   -0.44821  -0.43695  -0.39964  -0.30620
 Alpha virt. eigenvalues --    0.04026   0.05185   0.05490   0.05863   0.06107
 Alpha virt. eigenvalues --    0.06242   0.06449   0.06890   0.07461   0.08483
 Alpha virt. eigenvalues --    0.10455   0.12100   0.12557   0.14069   0.14949

 Mulliken charges:
               1
     1  C   -2.821674
     2  O   -2.772911
     3  C    0.991954
     4  C   -3.512849
     5  C   -2.890977
     6  C   -2.678582
     7  H    1.302433
     8  H    1.387371
     9  H    1.377166
    10  H    1.383868
    11  H    1.271855
    12  H    1.148582
    13  H    1.571331
    14  H    1.281870
    15  H    1.449420
    16  H    1.511143
 Sum of Mulliken charges =  -0.00000

 Dipole moment (field-independent basis, Debye):
    X=             -1.2292    Y=             -0.1603    Z=             -1.3975  Tot=              1.8681

 Test job not archived.
 1\1\GINC-SE454\SP\RHF\Aug-CC-pVDZ\C5H10O1\OHZDE\09-Apr-2025\0\\#t hf a
 ug-cc-pvdz iop(5/13=1,5/36=2,99/5=2) pseudo=read geom=check guess=(rea
 d,tcheck) scf=(maxcycle=1)\\title\\0,1\C,0,2.87786429,-0.78163611,0.07
 374572\O,0,1.52861358,-0.75878903,0.55244381\C,0,0.5924808,-0.60895966
 ,-0.33335856\C,0,-1.54990214,1.64503685,-0.19646899\C,0,-1.80521073,0.
 14934167,-0.32791687\C,0,-0.72979488,-0.68248915,0.36361467\H,0,3.4202
 8976,0.02149997,0.57122269\H,0,2.87476454,-0.64494425,-1.00656289\H,0,
 3.31245984,-1.74266922,0.34666518\H,0,-0.58883987,1.91362608,-0.642311

 Normal termination of Gaussian 16 at Wed Apr  9 17:49:57 2025.
