 Gaussian 16, Revision C.01,

 ----------------------------------------------------------------------
 #t hf aug-cc-pvdz symm=none int=(grid=ultrafine) guess=(read,tcheck) s
 table=(opt,rrhf)
 ----------------------------------------------------------------------
 -----
 title
 -----
 Symbolic Z-matrix:
 Charge =  0 Multiplicity = 1

 SCF Done:  E(RHF) =  -284.788894733     A.U. after   13 cycles
 Normal termination of Gaussian 16 at Wed Apr  9 03:06:49 2025.
 Gaussian 16:  ES64L-G16RevC.01  3-Jul-2019

 ----------------------------------------------------------------------
 #t hf aug-cc-pvdz iop(5/13=1,5/36=2,99/5=2) pseudo=read geom=check gue
 ss=(read,tcheck) scf=(maxcycle=1)
 ----------------------------------------------------------------------
 -----
 title
 -----
 Structure from the checkpoint file:  "Grambow2020_b97d3_006560_reverse_mol2.chk"
 Charge =  0 Multiplicity = 1

                         Standard orientation:
 ---------------------------------------------------------------------
 Center     Atomic      Atomic             Coordinates (Angstroms)
 Number     Number       Type             X           Y           Z
 ---------------------------------------------------------------------
      1          8           0       -1.086917   -0.872051    0.656629
      2          6           0       -1.342053    0.350148   -0.072673
      3          6           0       -0.124824    1.263740    0.146886
      4          7           0        0.727247    0.209505   -0.508758
      5          6           0        1.884504   -0.298707    0.223343
      6          6           0       -0.430766   -0.651227   -0.626147
      7          1           0        1.638731   -0.634872    1.246863
      8          1           0       -2.370672    0.604586   -0.320272
      9          1           0        0.106278    1.458235    1.204208
     10          1           0       -0.123625    2.198663   -0.429459
     11          1           0        2.650050    0.486953    0.281625
     12          1           0        2.308584   -1.146483   -0.333364
     13          1           0       -0.525904   -1.440930   -1.369783
 ---------------------------------------------------------------------

 SCF Done:  E(RHF) =  -286.112688882     A.U. after    2 cycles

 The electronic state is 1-A.
 Alpha  occ. eigenvalues --  -21.05637 -15.71757 -11.51834 -11.46625 -11.40062
 Alpha  occ. eigenvalues --  -11.38301  -1.79111  -1.40744  -1.09451  -0.97535
 Alpha  occ. eigenvalues --   -0.90129  -0.78629  -0.72596  -0.63649  -0.61994
 Alpha  occ. eigenvalues --   -0.57650  -0.54442  -0.49708  -0.46696  -0.45295
 Alpha  occ. eigenvalues --   -0.37416  -0.30970  -0.29980
 Alpha virt. eigenvalues --    0.03982   0.05159   0.05590   0.05684   0.06293
 Alpha virt. eigenvalues --    0.06863   0.07223   0.10168   0.11050   0.11804
 Alpha virt. eigenvalues --    0.12837   0.13823   0.14733   0.15248   0.15644

 Mulliken charges:
               1
     1  O   -2.659557
     2  C    0.293239
     3  C   -2.482340
     4  N   -2.106993
     5  C   -3.386428
     6  C    0.915197
     7  H    1.294445
     8  H    1.212557
     9  H    1.476826
    10  H    1.407092
    11  H    1.348455
    12  H    1.354936
    13  H    1.332573
 Sum of Mulliken charges =  -0.00000

 Dipole moment (field-independent basis, Debye):
    X=             -0.0440    Y=              0.1284    Z=              0.2247  Tot=              0.2625

 Test job not archived.
 1\1\GINC-SE073\SP\RHF\Aug-CC-pVDZ\C4H7N1O1\OHZDE\09-Apr-2025\0\\#t hf
 aug-cc-pvdz iop(5/13=1,5/36=2,99/5=2) pseudo=read geom=check guess=(re
 ad,tcheck) scf=(maxcycle=1)\\title\\0,1\O,0,-1.47910147,-1.00401724,-0
 .01731271\C,0,-1.51551738,0.38754955,-0.40841454\C,0,-0.38513833,1.096
 17662,0.35617216\N,0,0.59334126,0.18763509,-0.33984084\C,0,1.51005143,
 -0.60009441,0.48029254\C,0,-0.50594283,-0.50321378,-0.98010415\H,0,0.9
 991733,-1.1776117,1.27179831\H,0,-2.43911923,0.78949495,-0.82011973\H,
 0,-0.43687691,0.9760008,1.44798124\H,0,-0.21869277,2.14827852,0.088526

 Normal termination of Gaussian 16 at Wed Apr  9 03:06:53 2025.
