 Gaussian 16, Revision C.01,

 ----------------------------------------------------------------------
 #t hf aug-cc-pvdz symm=none int=(grid=ultrafine) guess=(read,tcheck) s
 table=(opt,rrhf)
 ----------------------------------------------------------------------
 -----
 title
 -----
 Symbolic Z-matrix:
 Charge =  0 Multiplicity = 1

 SCF Done:  E(RHF) =  -306.580227812     A.U. after   16 cycles
 Normal termination of Gaussian 16 at Wed Apr  9 03:59:43 2025.
 Gaussian 16:  ES64L-G16RevC.01  3-Jul-2019

 ----------------------------------------------------------------------
 #t hf aug-cc-pvdz iop(5/13=1,5/36=2,99/5=2) pseudo=read geom=check gue
 ss=(read,tcheck) scf=(maxcycle=1)
 ----------------------------------------------------------------------
 -----
 title
 -----
 Structure from the checkpoint file:  "Grambow2020_wb97xd3_008789_forward_mol1.chk"
 Charge =  0 Multiplicity = 1

                         Standard orientation:
 ---------------------------------------------------------------------
 Center     Atomic      Atomic             Coordinates (Angstroms)
 Number     Number       Type             X           Y           Z
 ---------------------------------------------------------------------
      1          8           0        2.328279   -0.294518    0.248229
      2          6           0        1.136021   -0.134239    0.038033
      3          6           0        0.459702    1.242721    0.142026
      4          6           0       -0.910315    1.056539   -0.463839
      5          6           0       -1.750008   -0.509821    0.868475
      6          6           0       -1.181828   -0.638389   -0.448771
      7          6           0        0.190474   -1.084166   -0.441019
      8          1           0        0.435061    1.596355    1.172726
      9          1           0        1.053632    1.952516   -0.435582
     10          1           0       -1.708416    1.650886   -0.030938
     11          1           0       -0.925255    1.217480   -1.541156
     12          1           0       -1.192140   -0.872933    1.722144
     13          1           0       -2.599857    0.133082    1.067142
     14          1           0       -1.864505   -0.881459   -1.266341
     15          1           0        0.510967   -2.035653   -0.843263
 ---------------------------------------------------------------------

 SCF Done:  E(RHF) =  -308.025857849     A.U. after    2 cycles

 The electronic state is 1-A.
 Alpha  occ. eigenvalues --  -20.96929 -11.50837 -11.48744 -11.46348 -11.44001
 Alpha  occ. eigenvalues --  -11.38164 -11.33981  -1.63772  -1.35320  -1.11502
 Alpha  occ. eigenvalues --   -1.02505  -0.94195  -0.84080  -0.72763  -0.69973
 Alpha  occ. eigenvalues --   -0.67663  -0.60608  -0.58614  -0.53441  -0.52379
 Alpha  occ. eigenvalues --   -0.49620  -0.46474  -0.42369  -0.39395  -0.22502
 Alpha  occ. eigenvalues --   -0.20986
 Alpha virt. eigenvalues --    0.00302   0.02644   0.04027   0.04617   0.05137
 Alpha virt. eigenvalues --    0.05365   0.06672   0.07266   0.07760   0.09989
 Alpha virt. eigenvalues --    0.11585   0.12086   0.12664   0.13212   0.14059

 Mulliken charges:
               1
     1  O   -3.605432
     2  C    4.634241
     3  C   -3.591373
     4  C   -2.258321
     5  C   -2.211999
     6  C   -2.497169
     7  C   -1.428066
     8  H    1.399579
     9  H    1.251011
    10  H    1.374809
    11  H    1.388015
    12  H    1.553555
    13  H    1.266058
    14  H    1.240285
    15  H    1.484808
 Sum of Mulliken charges =   0.00000

 Dipole moment (field-independent basis, Debye):
    X=             -6.1336    Y=              1.3939    Z=              0.2837  Tot=              6.2964

 Test job not archived.
 1\1\GINC-SE365\SP\RHF\Aug-CC-pVDZ\C6H8O1\OHZDE\09-Apr-2025\0\\#t hf au
 g-cc-pvdz iop(5/13=1,5/36=2,99/5=2) pseudo=read geom=check guess=(read
 ,tcheck) scf=(maxcycle=1)\\title\\0,1\O,0,0.72731466,-2.66901959,-0.25
 017644\C,0,0.45808743,-1.49514517,-0.04796895\C,0,-0.98958598,-0.97931
 927,0.00108341\C,0,-0.89062485,0.42334371,0.55010539\C,0,0.40157399,1.
 3837052,-0.98010899\C,0,0.74860199,0.87991897,0.3238342\C,0,1.34387082
 ,-0.43409016,0.29182394\H,0,-1.46285401,-1.03020858,-0.97944435\H,0,-1
 .55389708,-1.62740837,0.67318981\H,0,-1.61898479,1.1350998,0.17525684\

 Normal termination of Gaussian 16 at Wed Apr  9 03:59:47 2025.
