 Gaussian 16, Revision C.01,

 ----------------------------------------------------------------------
 #t hf aug-cc-pvdz symm=none int=(grid=ultrafine) guess=(read,tcheck) s
 table=(opt,rrhf)
 ----------------------------------------------------------------------
 -----
 title
 -----
 Symbolic Z-matrix:
 Charge =  0 Multiplicity = 1

 SCF Done:  E(RHF) =  -283.475798397     A.U. after   17 cycles
 Normal termination of Gaussian 16 at Wed Apr  9 16:06:42 2025.
 Gaussian 16:  ES64L-G16RevC.01  3-Jul-2019

 ----------------------------------------------------------------------
 #t hf aug-cc-pvdz iop(5/13=1,5/36=2,99/5=2) pseudo=read geom=check gue
 ss=(read,tcheck) scf=(maxcycle=1)
 ----------------------------------------------------------------------
 -----
 title
 -----
 Structure from the checkpoint file:  "Grambow2020_b97d3_006723_forward_mol1.chk"
 Charge =  0 Multiplicity = 1

                         Standard orientation:
 ---------------------------------------------------------------------
 Center     Atomic      Atomic             Coordinates (Angstroms)
 Number     Number       Type             X           Y           Z
 ---------------------------------------------------------------------
      1          6           0        1.846955   -0.264980   -0.400709
      2          6           0        0.822090    0.240763    0.427940
      3          8           0       -0.093967    1.252049   -0.106739
      4          6           0       -1.227350    0.444006   -0.040542
      5          7           0       -1.248506   -0.846552   -0.519217
      6          6           0       -0.373921   -0.885291    0.524904
      7          1           0        1.623906   -0.557707   -1.423384
      8          1           0        2.813893   -0.536052    0.018019
      9          1           0        1.101224    0.539616    1.441195
     10          1           0       -2.152262    0.988921    0.171688
     11          1           0       -0.302124   -1.732298    1.211355
 ---------------------------------------------------------------------

 SCF Done:  E(RHF) =  -284.762224477     A.U. after    2 cycles

 The electronic state is 1-A.
 Alpha  occ. eigenvalues --  -21.09219 -15.76614 -11.56530 -11.49558 -11.46038
 Alpha  occ. eigenvalues --  -11.38648  -1.82822  -1.43071  -1.14339  -0.93873
 Alpha  occ. eigenvalues --   -0.85873  -0.81302  -0.75033  -0.64006  -0.60742
 Alpha  occ. eigenvalues --   -0.55420  -0.54799  -0.47657  -0.44453  -0.41827
 Alpha  occ. eigenvalues --   -0.33016  -0.23187
 Alpha virt. eigenvalues --    0.02868   0.04599   0.05418   0.05608   0.06172
 Alpha virt. eigenvalues --    0.06840   0.09304   0.10109   0.10453   0.11334
 Alpha virt. eigenvalues --    0.13240   0.14143   0.14922   0.15354   0.15700

 Mulliken charges:
               1
     1  C   -2.403367
     2  C   -0.540488
     3  O   -2.690247
     4  C    1.502727
     5  N   -2.233472
     6  C   -0.242882
     7  H    1.271731
     8  H    1.369395
     9  H    1.476573
    10  H    1.409137
    11  H    1.080893
 Sum of Mulliken charges =  -0.00000

 Dipole moment (field-independent basis, Debye):
    X=             -0.7775    Y=              0.6305    Z=              1.7603  Tot=              2.0250

 Test job not archived.
 1\1\GINC-SE229\SP\RHF\Aug-CC-pVDZ\C4H5N1O1\OHZDE\09-Apr-2025\0\\#t hf
 aug-cc-pvdz iop(5/13=1,5/36=2,99/5=2) pseudo=read geom=check guess=(re
 ad,tcheck) scf=(maxcycle=1)\\title\\0,1\C,0,-1.54578675,0.51658993,-0.
 41590623\C,0,-0.37521676,-0.25299098,-0.58995937\O,0,0.83529385,0.3952
 6419,-1.10198589\C,0,1.57876229,0.21314939,0.06247034\N,0,1.09041377,0
 .52317204,1.31167796\C,0,0.30659451,-0.50689058,0.88601825\H,0,-1.4892
 5104,1.49089447,0.06246303\H,0,-2.52673231,0.0782677,-0.58738279\H,0,-
 0.48162681,-1.2165052,-1.09417213\H,0,2.64857883,0.06109972,-0.1101861

 Normal termination of Gaussian 16 at Wed Apr  9 16:06:46 2025.
