 Gaussian 16, Revision C.01,

 ----------------------------------------------------------------------
 #t hf aug-cc-pvdz symm=none int=(grid=ultrafine) guess=(read,tcheck) s
 table=(opt,rrhf)
 ----------------------------------------------------------------------
 -----
 title
 -----
 Symbolic Z-matrix:
 Charge =  0 Multiplicity = 1

 SCF Done:  E(RHF) =  -317.572765460     A.U. after   16 cycles
 Normal termination of Gaussian 16 at Wed Apr  9 19:25:55 2025.
 Gaussian 16:  ES64L-G16RevC.01  3-Jul-2019

 ----------------------------------------------------------------------
 #t hf aug-cc-pvdz iop(5/13=1,5/36=2,99/5=2) pseudo=read geom=check gue
 ss=(read,tcheck) scf=(maxcycle=1)
 ----------------------------------------------------------------------
 -----
 title
 -----
 Structure from the checkpoint file:  "Grambow2020_wb97xd3_008969_reverse_mol1.chk"
 Charge =  0 Multiplicity = 1

                         Standard orientation:
 ---------------------------------------------------------------------
 Center     Atomic      Atomic             Coordinates (Angstroms)
 Number     Number       Type             X           Y           Z
 ---------------------------------------------------------------------
      1          7           0        2.132017   -0.000945    0.237426
      2          6           0        0.740126   -0.001328    0.132611
      3          6           0        0.007094   -1.209725   -0.342700
      4          7           0       -1.263712   -1.129028   -0.110179
      5          6           0       -1.315884    0.001305    0.627900
      6          7           0       -1.260824    1.131532   -0.110731
      7          6           0        0.010174    1.208314   -0.343109
      8          1           0        2.605091   -0.841816   -0.045648
      9          1           0        2.604071    0.840217   -0.047182
     10          1           0        0.461027   -2.046929   -0.863341
     11          1           0       -0.038929    0.000394    1.253813
     12          1           0        0.467311    2.045825   -0.861463
 ---------------------------------------------------------------------

 SCF Done:  E(RHF) =  -319.055220773     A.U. after    2 cycles

 The electronic state is 1-A.
 Alpha  occ. eigenvalues --  -15.77424 -15.76181 -15.76151 -11.48898 -11.47046
 Alpha  occ. eigenvalues --  -11.46422 -11.41846  -1.59953  -1.36163  -1.33521
 Alpha  occ. eigenvalues --   -1.07458  -0.93506  -0.89759  -0.72438  -0.70648
 Alpha  occ. eigenvalues --   -0.68885  -0.66753  -0.61098  -0.57347  -0.49115
 Alpha  occ. eigenvalues --   -0.46564  -0.40612  -0.37317  -0.36972  -0.31857
 Alpha virt. eigenvalues --    0.03171   0.04617   0.04909   0.06706   0.07117
 Alpha virt. eigenvalues --    0.07965   0.10514   0.10704   0.11440   0.11747
 Alpha virt. eigenvalues --    0.12087   0.13537   0.13558   0.14330   0.14512

 Mulliken charges:
               1
     1  N   -3.505696
     2  C    0.569972
     3  C    1.054959
     4  N   -2.530820
     5  C    0.819031
     6  N   -2.531514
     7  C    1.059023
     8  H    0.587187
     9  H    0.586436
    10  H    1.352986
    11  H    1.184662
    12  H    1.353775
 Sum of Mulliken charges =  -0.00000

 Dipole moment (field-independent basis, Debye):
    X=              3.7745    Y=             -0.0064    Z=             -1.2726  Tot=              3.9833

 Test job not archived.
 1\1\GINC-SE104\SP\RHF\Aug-CC-pVDZ\C4H5N3\OHZDE\09-Apr-2025\0\\#t hf au
 g-cc-pvdz iop(5/13=1,5/36=2,99/5=2) pseudo=read geom=check guess=(read
 ,tcheck) scf=(maxcycle=1)\\title\\0,1\N,0,-1.62857325,0.01651527,0.639
 65445\C,0,-0.2884888,-0.00410568,0.24966272\C,0,0.3743026,1.22092159,-
 0.2827793\N,0,1.66209967,1.09682767,-0.32407265\C,0,1.82394292,-0.0862
 115,0.30787815\N,0,1.57865769,-1.15685812,-0.47925041\C,0,0.28509437,-
 1.18977693,-0.44859173\H,0,-2.11931735,0.88575859,0.51891183\H,0,-2.17
 8535,-0.79114052,0.40169552\H,0,-0.14647155,2.10382013,-0.63959423\H,0

 Normal termination of Gaussian 16 at Wed Apr  9 19:25:59 2025.
