 Gaussian 16, Revision C.01,

 ----------------------------------------------------------------------
 #t hf aug-cc-pvdz symm=none int=(grid=ultrafine) guess=(read,tcheck) s
 table=(opt,rrhf)
 ----------------------------------------------------------------------
 -----
 title
 -----
 Symbolic Z-matrix:
 Charge =  0 Multiplicity = 1

 SCF Done:  E(RHF) =  -373.216984554     A.U. after   16 cycles
 Normal termination of Gaussian 16 at Wed Apr  9 03:27:57 2025.
 Gaussian 16:  ES64L-G16RevC.01  3-Jul-2019

 ----------------------------------------------------------------------
 #t hf aug-cc-pvdz iop(5/13=1,5/36=2,99/5=2) pseudo=read geom=check gue
 ss=(read,tcheck) scf=(maxcycle=1)
 ----------------------------------------------------------------------
 -----
 title
 -----
 Structure from the checkpoint file:  "Grambow2020_wb97xd3_006703_reverse_mol1.chk"
 Charge =  0 Multiplicity = 1

                         Standard orientation:
 ---------------------------------------------------------------------
 Center     Atomic      Atomic             Coordinates (Angstroms)
 Number     Number       Type             X           Y           Z
 ---------------------------------------------------------------------
      1          8           0        2.425266   -0.401296    0.004004
      2          6           0        1.621795    0.605271   -0.003706
      3          6           0        0.173111    0.310292   -0.001311
      4          7           0       -0.791974    1.171476    0.000856
      5          6           0       -1.886323    0.357627    0.001808
      6          7           0       -1.612902   -0.913276   -0.000216
      7          8           0       -0.247032   -0.955918   -0.002151
      8          1           0        2.860803    0.696255   -0.003798
      9          1           0       -2.904040    0.714919    0.003742
 ---------------------------------------------------------------------

 SCF Done:  E(RHF) =  -374.801081655     A.U. after    2 cycles

 The electronic state is 1-A.
 Alpha  occ. eigenvalues --  -21.16847 -21.13665 -15.81258 -15.78413 -11.53859
 Alpha  occ. eigenvalues --  -11.48523 -11.45399  -1.97127  -1.79888  -1.43344
 Alpha  occ. eigenvalues --   -1.28367  -0.98310  -0.88061  -0.79884  -0.74701
 Alpha  occ. eigenvalues --   -0.67996  -0.66680  -0.53028  -0.51535  -0.50689
 Alpha  occ. eigenvalues --   -0.47894  -0.42752  -0.41584  -0.38934  -0.30112
 Alpha virt. eigenvalues --    0.03430   0.04866   0.06654   0.09040   0.09956
 Alpha virt. eigenvalues --    0.10184   0.10305   0.11967   0.12110   0.12959
 Alpha virt. eigenvalues --    0.13303   0.14081   0.16004   0.16845   0.18497

 Mulliken charges:
               1
     1  O   -1.972684
     2  C   -1.508151
     3  C    5.627908
     4  N   -3.069281
     5  C    1.668651
     6  N   -0.537439
     7  O   -2.991591
     8  H    1.187830
     9  H    1.594755
 Sum of Mulliken charges =  -0.00000

 Dipole moment (field-independent basis, Debye):
    X=              0.7335    Y=             -1.3564    Z=              0.0098  Tot=              1.5421

 Test job not archived.
 1\1\GINC-SE292\SP\RHF\Aug-CC-pVDZ\C3H2N2O2\OHZDE\09-Apr-2025\0\\#t hf
 aug-cc-pvdz iop(5/13=1,5/36=2,99/5=2) pseudo=read geom=check guess=(re
 ad,tcheck) scf=(maxcycle=1)\\title\\0,1\O,0,-2.48536338,-0.47568483,-0
 .16614525\C,0,-1.64672475,0.49012514,-0.01548211\C,0,-0.21109476,0.137
 75665,0.00700119\N,0,0.7840089,0.95358937,0.13820977\C,0,1.84684026,0.
 10030775,0.09077944\N,0,1.5272889,-1.15092878,-0.05839302\O,0,0.162007
 13,-1.13724875,-0.11533198\H,0,-2.88038303,0.63150025,-0.05446524\H,0,
 2.87604774,0.41347721,0.1686622\\Version=ES64L-G16RevC.01\State=1-A\HF

 Normal termination of Gaussian 16 at Wed Apr  9 03:28:00 2025.
