 Gaussian 16, Revision C.01,

 ----------------------------------------------------------------------
 #t hf aug-cc-pvdz symm=none int=(grid=ultrafine) guess=(read,tcheck) s
 table=(opt,rrhf)
 ----------------------------------------------------------------------
 -----
 title
 -----
 Symbolic Z-matrix:
 Charge =  0 Multiplicity = 1

 SCF Done:  E(RHF) =  -266.716005266     A.U. after   15 cycles
 Normal termination of Gaussian 16 at Wed Apr  9 16:01:38 2025.
 Gaussian 16:  ES64L-G16RevC.01  3-Jul-2019

 ----------------------------------------------------------------------
 #t hf aug-cc-pvdz iop(5/13=1,5/36=2,99/5=2) pseudo=read geom=check gue
 ss=(read,tcheck) scf=(maxcycle=1)
 ----------------------------------------------------------------------
 -----
 title
 -----
 Structure from the checkpoint file:  "Grambow2020_b97d3_006696_reverse_mol2.chk"
 Charge =  0 Multiplicity = 1

                         Standard orientation:
 ---------------------------------------------------------------------
 Center     Atomic      Atomic             Coordinates (Angstroms)
 Number     Number       Type             X           Y           Z
 ---------------------------------------------------------------------
      1          6           0        1.036754   -0.249011   -0.609223
      2          6           0        0.394605    1.079875   -0.304619
      3          8           0       -0.835641    0.814767    0.425326
      4          6           0       -1.152564   -0.509104    0.231478
      5          8           0        0.159028   -1.148852   -0.289938
      6          1           0        3.001362   -0.370181    2.036503
      7          1           0        2.800653   -0.488071    1.325953
      8          1           0        1.035985    1.722693    0.312983
      9          1           0        0.197813    1.596230   -1.263676
     10          1           0       -1.410945   -1.016237    1.167961
     11          1           0       -1.884739   -0.702316   -0.568639
 ---------------------------------------------------------------------

 SCF Done:  E(RHF) =  -267.900647249     A.U. after    2 cycles

 The electronic state is 1-A.
 Alpha  occ. eigenvalues --  -21.12293 -21.08166 -11.48019 -11.45264 -11.41212
 Alpha  occ. eigenvalues --   -1.87870  -1.70356  -1.10988  -0.92791  -0.78552
 Alpha  occ. eigenvalues --   -0.70405  -0.67977  -0.62350  -0.60782  -0.55050
 Alpha  occ. eigenvalues --   -0.47784  -0.44287  -0.39507  -0.34463  -0.33054
 Alpha virt. eigenvalues --    0.03299   0.04970   0.05933   0.06196   0.06759
 Alpha virt. eigenvalues --    0.08891   0.09550   0.10133   0.10581   0.12728
 Alpha virt. eigenvalues --    0.13386   0.14500   0.14723   0.16174   0.17239

 Mulliken charges:
               1
     1  C    0.386485
     2  C   -0.909808
     3  O   -2.674053
     4  C   -0.530933
     5  O   -2.154694
     6  H    0.170028
     7  H   -0.249892
     8  H    1.468987
     9  H    1.467764
    10  H    1.509039
    11  H    1.517077
 Sum of Mulliken charges =   0.00000

 Dipole moment (field-independent basis, Debye):
    X=             -2.2349    Y=              0.2874    Z=              0.7736  Tot=              2.3824

 Test job not archived.
 1\1\GINC-SE057\SP\RHF\Aug-CC-pVDZ\C3H6O2\OHZDE\09-Apr-2025\0\\#t hf au
 g-cc-pvdz iop(5/13=1,5/36=2,99/5=2) pseudo=read geom=check guess=(read
 ,tcheck) scf=(maxcycle=1)\\title\\0,1\C,0,0.36832197,0.37489,1.0027056
 1\C,0,0.8402885,-0.73781841,0.10259162\O,0,-0.26818265,-1.09621448,-0.
 76887294\C,0,-1.41488722,-0.58472671,-0.20842696\O,0,-0.91120382,0.467
 14199,0.81201631\H,0,1.42858331,2.88320822,-0.85697564\H,0,1.26480745,
 2.52095301,-0.22372087\H,0,1.69282137,-0.43807305,-0.52139174\H,0,1.15
 158704,-1.58826619,0.73896527\H,0,-2.0351904,-0.05541166,-0.94054333\H

 Normal termination of Gaussian 16 at Wed Apr  9 16:01:41 2025.
