 Gaussian 16, Revision C.01,

 ----------------------------------------------------------------------
 #t hf aug-cc-pvdz symm=none int=(grid=ultrafine) guess=(read,tcheck) s
 table=(opt,rrhf)
 ----------------------------------------------------------------------
 -----
 title
 -----
 Symbolic Z-matrix:
 Charge =  0 Multiplicity = 1

 SCF Done:  E(RHF) =  -321.769892966     A.U. after   15 cycles
 Normal termination of Gaussian 16 at Wed Apr  9 16:01:55 2025.
 Gaussian 16:  ES64L-G16RevC.01  3-Jul-2019

 ----------------------------------------------------------------------
 #t hf aug-cc-pvdz iop(5/13=1,5/36=2,99/5=2) pseudo=read geom=check gue
 ss=(read,tcheck) scf=(maxcycle=1)
 ----------------------------------------------------------------------
 -----
 title
 -----
 Structure from the checkpoint file:  "Grambow2020_b97d3_006704_reverse_mol1.chk"
 Charge =  0 Multiplicity = 1

                         Standard orientation:
 ---------------------------------------------------------------------
 Center     Atomic      Atomic             Coordinates (Angstroms)
 Number     Number       Type             X           Y           Z
 ---------------------------------------------------------------------
      1          6           0        1.506974   -1.243055   -0.162578
      2          7           0        0.286456   -0.635595    0.368777
      3          6           0        0.091773    0.833093    0.053836
      4          8           0        1.062574    1.558116   -0.120985
      5          8           0       -1.167608    1.050818    0.021319
      6          6           0       -1.754720   -0.947054   -0.165252
      7          1           0        1.696202   -2.209073    0.319853
      8          1           0        2.354393   -0.558253    0.002638
      9          1           0        1.395161   -1.393419   -1.244046
     10          1           0        0.235840   -0.755920    1.384620
     11          1           0       -2.457014   -0.403833   -0.790165
     12          1           0       -2.104586   -1.129873    0.847421
     13          1           0       -1.349079   -1.829833   -0.660467
 ---------------------------------------------------------------------

 SCF Done:  E(RHF) =  -323.211493318     A.U. after    2 cycles

 The electronic state is 1-A.
 Alpha  occ. eigenvalues --  -21.01352 -21.00839 -15.76855 -11.51833 -11.48282
 Alpha  occ. eigenvalues --  -11.40414  -1.74604  -1.59453  -1.37000  -1.06103
 Alpha  occ. eigenvalues --   -0.99063  -0.76678  -0.67248  -0.66352  -0.63414
 Alpha  occ. eigenvalues --   -0.59651  -0.58679  -0.54869  -0.50418  -0.47199
 Alpha  occ. eigenvalues --   -0.39543  -0.29158  -0.26882  -0.25419
 Alpha virt. eigenvalues --    0.01484   0.03667   0.04412   0.05385   0.05819
 Alpha virt. eigenvalues --    0.06080   0.07734   0.09453   0.11330   0.12318
 Alpha virt. eigenvalues --    0.12695   0.13044   0.14242   0.14596   0.15616

 Mulliken charges:
               1
     1  C   -3.493283
     2  N   -2.110090
     3  C    5.814346
     4  O   -2.776538
     5  O   -2.436936
     6  C   -3.771552
     7  H    1.306797
     8  H    1.363843
     9  H    1.406431
    10  H    0.700258
    11  H    1.330346
    12  H    1.332428
    13  H    1.333951
 Sum of Mulliken charges =  -0.00000

 Dipole moment (field-independent basis, Debye):
    X=             -1.6579    Y=             -4.8374    Z=              0.6379  Tot=              5.1532

 Test job not archived.
 1\1\GINC-SE219\SP\RHF\Aug-CC-pVDZ\C3H7N1O2\OHZDE\09-Apr-2025\0\\#t hf
 aug-cc-pvdz iop(5/13=1,5/36=2,99/5=2) pseudo=read geom=check guess=(re
 ad,tcheck) scf=(maxcycle=1)\\title\\0,1\C,0,-1.64066678,-0.07113507,-0
 .46225761\N,0,-0.31950979,0.31698873,0.03263104\C,0,0.2788859,-0.58792
 473,1.0896014\O,0,-0.45088655,-1.22049037,1.84190947\O,0,1.55025709,-0
 .51488654,0.97654357\C,0,1.57625948,0.30990236,-0.94440575\H,0,-2.1024
 1772,0.75654102,-1.01314238\H,0,-2.2743129,-0.36701682,0.38939723\H,0,
 -1.53747047,-0.93734529,-1.12837668\H,0,-0.3381226,1.2725718,0.4007221

 Normal termination of Gaussian 16 at Wed Apr  9 16:01:59 2025.
