 Gaussian 16, Revision C.01,

 ----------------------------------------------------------------------
 #t hf aug-cc-pvdz symm=none int=(grid=ultrafine) guess=(read,tcheck) s
 table=(opt,rrhf)
 ----------------------------------------------------------------------
 -----
 title
 -----
 Symbolic Z-matrix:
 Charge =  0 Multiplicity = 1

 SCF Done:  E(RHF) =  -306.672389063     A.U. after   15 cycles
 Normal termination of Gaussian 16 at Wed Apr  9 19:08:59 2025.
 Gaussian 16:  ES64L-G16RevC.01  3-Jul-2019

 ----------------------------------------------------------------------
 #t hf aug-cc-pvdz iop(5/13=1,5/36=2,99/5=2) pseudo=read geom=check gue
 ss=(read,tcheck) scf=(maxcycle=1)
 ----------------------------------------------------------------------
 -----
 title
 -----
 Structure from the checkpoint file:  "Grambow2020_wb97xd3_008167_reverse_mol2.chk"
 Charge =  0 Multiplicity = 1

                         Standard orientation:
 ---------------------------------------------------------------------
 Center     Atomic      Atomic             Coordinates (Angstroms)
 Number     Number       Type             X           Y           Z
 ---------------------------------------------------------------------
      1          8           0       -2.148647   -0.918990   -0.393182
      2          6           0       -1.228742   -0.240839   -0.038733
      3          6           0        1.840535   -1.101304   -0.284899
      4          6           0        1.191329    0.103027    0.368032
      5          6           0        0.669129    1.246116   -0.542537
      6          6           0       -0.738060    1.122719    0.030077
      7          6           0       -0.197658   -0.102232    0.972794
      8          1           0        1.196424   -1.518932   -1.062392
      9          1           0        2.793519   -0.829425   -0.744281
     10          1           0        2.032503   -1.888836    0.446919
     11          1           0        1.856798    0.521235    1.124761
     12          1           0        1.133389    2.202577   -0.308624
     13          1           0        0.741949    1.079266   -1.619116
     14          1           0       -1.392668    1.953859    0.265232
     15          1           0       -0.391934   -0.332749    2.014553
 ---------------------------------------------------------------------

 SCF Done:  E(RHF) =  -308.106570613     A.U. after    2 cycles

 The electronic state is 1-A.
 Alpha  occ. eigenvalues --  -21.05684 -11.53328 -11.49335 -11.43267 -11.42784
 Alpha  occ. eigenvalues --  -11.39697 -11.37040  -1.70574  -1.40242  -1.12503
 Alpha  occ. eigenvalues --   -1.02220  -0.93017  -0.79393  -0.75322  -0.68455
 Alpha  occ. eigenvalues --   -0.62177  -0.59212  -0.58192  -0.54447  -0.53343
 Alpha  occ. eigenvalues --   -0.48333  -0.47520  -0.44733  -0.41189  -0.34495
 Alpha  occ. eigenvalues --   -0.25802
 Alpha virt. eigenvalues --    0.03380   0.04727   0.04997   0.05175   0.05496
 Alpha virt. eigenvalues --    0.06043   0.06850   0.07347   0.10138   0.11030
 Alpha virt. eigenvalues --    0.11624   0.13094   0.13166   0.13854   0.14159

 Mulliken charges:
               1
     1  O   -3.242738
     2  C    4.276295
     3  C   -4.044934
     4  C   -1.065709
     5  C   -3.660700
     6  C   -1.267031
     7  C   -1.331086
     8  H    1.297934
     9  H    1.207947
    10  H    1.244275
    11  H    1.381805
    12  H    1.325148
    13  H    1.387580
    14  H    1.260174
    15  H    1.231041
 Sum of Mulliken charges =  -0.00000

 Dipole moment (field-independent basis, Debye):
    X=              1.8584    Y=              1.2229    Z=              0.7310  Tot=              2.3417

 Test job not archived.
 1\1\GINC-SE219\SP\RHF\Aug-CC-pVDZ\C6H8O1\OHZDE\09-Apr-2025\0\\#t hf au
 g-cc-pvdz iop(5/13=1,5/36=2,99/5=2) pseudo=read geom=check guess=(read
 ,tcheck) scf=(maxcycle=1)\\title\\0,1\O,0,1.80158431,2.12819283,-0.584
 34604\C,0,0.81506453,1.45414611,-0.51963763\C,0,0.77621475,-1.58844828
 ,0.46147184\C,0,-0.31651468,-0.71411201,-0.12134967\C,0,-0.96497545,0.
 36367599,0.78768859\C,0,-0.597217,1.47523911,-0.18826095\C,0,0.1122709
 7,0.34492847,-1.13709121\H,0,1.5584293,-0.98092253,0.92281901\H,0,0.37
 392739,-2.25900553,1.22412919\H,0,1.24348884,-2.2011222,-0.31241465\H,

 Normal termination of Gaussian 16 at Wed Apr  9 19:09:04 2025.
