 Gaussian 16, Revision C.01,

 ----------------------------------------------------------------------
 #t hf aug-cc-pvdz symm=none int=(grid=ultrafine) guess=(read,tcheck) s
 table=(opt,rrhf)
 ----------------------------------------------------------------------
 -----
 title
 -----
 Symbolic Z-matrix:
 Charge =  0 Multiplicity = 1

 SCF Done:  E(RHF) =  -358.571822050     A.U. after   15 cycles
 Normal termination of Gaussian 16 at Wed Apr  9 18:12:25 2025.
 Gaussian 16:  ES64L-G16RevC.01  3-Jul-2019

 ----------------------------------------------------------------------
 #t hf aug-cc-pvdz iop(5/13=1,5/36=2,99/5=2) pseudo=read geom=check gue
 ss=(read,tcheck) scf=(maxcycle=1)
 ----------------------------------------------------------------------
 -----
 title
 -----
 Structure from the checkpoint file:  "Grambow2020_wb97xd3_006757_reverse_mol2.chk"
 Charge =  0 Multiplicity = 1

                         Standard orientation:
 ---------------------------------------------------------------------
 Center     Atomic      Atomic             Coordinates (Angstroms)
 Number     Number       Type             X           Y           Z
 ---------------------------------------------------------------------
      1          8           0       -2.636211    0.378804    0.001916
      2          6           0       -1.758842   -0.431242   -0.001409
      3          6           0       -0.300538   -0.069517   -0.001258
      4          8           0        0.529957   -1.137448    0.003218
      5          7           0        0.182822    1.093385   -0.003732
      6          6           0        1.636852    0.930976    0.002440
      7          6           0        1.864443   -0.594838   -0.001700
      8          1           0       -1.953073   -1.519932   -0.005447
      9          1           0        2.050817    1.418852    0.886458
     10          1           0        2.062195    1.424862   -0.872638
     11          1           0        2.374710   -0.957051   -0.894389
     12          1           0        2.384149   -0.963539    0.882626
 ---------------------------------------------------------------------

 SCF Done:  E(RHF) =  -360.130475337     A.U. after    2 cycles

 The electronic state is 1-A.
 Alpha  occ. eigenvalues --  -21.09851 -21.08845 -15.74062 -11.51454 -11.48739
 Alpha  occ. eigenvalues --  -11.46449 -11.40552  -1.84575  -1.72821  -1.37436
 Alpha  occ. eigenvalues --   -1.14599  -0.95499  -0.90369  -0.75596  -0.70800
 Alpha  occ. eigenvalues --   -0.69970  -0.60320  -0.56497  -0.55431  -0.54306
 Alpha  occ. eigenvalues --   -0.51852  -0.44390  -0.44223  -0.39048  -0.31127
 Alpha  occ. eigenvalues --   -0.30712
 Alpha virt. eigenvalues --    0.03101   0.05057   0.05311   0.05793   0.06120
 Alpha virt. eigenvalues --    0.08534   0.09767   0.09958   0.11086   0.12869
 Alpha virt. eigenvalues --    0.12991   0.13211   0.14098   0.14607   0.14657

 Mulliken charges:
               1
     1  O   -2.741732
     2  C    0.871286
     3  C    4.992329
     4  O   -3.389954
     5  N   -2.951940
     6  C   -2.378312
     7  C   -1.649879
     8  H    1.662157
     9  H    1.394388
    10  H    1.393017
    11  H    1.397940
    12  H    1.400700
 Sum of Mulliken charges =  -0.00000

 Dipole moment (field-independent basis, Debye):
    X=              2.2204    Y=             -1.6619    Z=              0.0034  Tot=              2.7735

 Test job not archived.
 1\1\GINC-SE131\SP\RHF\Aug-CC-pVDZ\C4H5N1O2\OHZDE\09-Apr-2025\0\\#t hf
 aug-cc-pvdz iop(5/13=1,5/36=2,99/5=2) pseudo=read geom=check guess=(re
 ad,tcheck) scf=(maxcycle=1)\\title\\0,1\O,0,2.7401713,-0.27648795,1.62
 934998\C,0,2.19967833,0.26816683,0.71437359\C,0,0.76901446,0.01565422,
 0.33105717\O,0,0.34871279,0.74166483,-0.73029747\N,0,-0.02845051,-0.77
 940228,0.89490029\C,0,-1.2941995,-0.67093868,0.16913702\C,0,-1.0247261
 7,0.36294502,-0.94369302\H,0,2.71464135,1.00666663,0.07217535\H,0,-2.0
 7973933,-0.35672919,0.85839547\H,0,-1.57497178,-1.65021907,-0.221733\H

 Normal termination of Gaussian 16 at Wed Apr  9 18:12:30 2025.
