 Gaussian 16, Revision C.01,

 ----------------------------------------------------------------------
 #t hf aug-cc-pvdz symm=none int=(grid=ultrafine) guess=(read,tcheck) s
 table=(opt,rrhf)
 ----------------------------------------------------------------------
 -----
 title
 -----
 Symbolic Z-matrix:
 Charge =  0 Multiplicity = 1

 SCF Done:  E(RHF) =  -338.663810406     A.U. after   14 cycles
 Normal termination of Gaussian 16 at Wed Apr  9 03:52:34 2025.
 Gaussian 16:  ES64L-G16RevC.01  3-Jul-2019

 ----------------------------------------------------------------------
 #t hf aug-cc-pvdz iop(5/13=1,5/36=2,99/5=2) pseudo=read geom=check gue
 ss=(read,tcheck) scf=(maxcycle=1)
 ----------------------------------------------------------------------
 -----
 title
 -----
 Structure from the checkpoint file:  "Grambow2020_wb97xd3_008314_forward_mol1.chk"
 Charge =  0 Multiplicity = 1

                         Standard orientation:
 ---------------------------------------------------------------------
 Center     Atomic      Atomic             Coordinates (Angstroms)
 Number     Number       Type             X           Y           Z
 ---------------------------------------------------------------------
      1          6           0        2.439176   -0.347811   -0.000641
      2          8           0        1.453847    0.676938    0.014175
      3          6           0        0.187281    0.272662   -0.010874
      4          6           0       -0.915620    1.130189   -0.021446
      5          7           0       -2.029342    0.379920   -0.082176
      6          6           0       -1.528792   -0.945065   -0.017606
      7          7           0       -0.190760   -1.004534    0.003229
      8          1           0        2.340624   -0.993447    0.873340
      9          1           0        3.398018    0.164405    0.013544
     10          1           0        2.348146   -0.956888   -0.901383
     11          1           0       -0.946290    2.204987    0.050040
     12          1           0       -2.147830   -0.342911    0.958804
     13          1           0       -2.174998   -1.779201   -0.251712
 ---------------------------------------------------------------------

 SCF Done:  E(RHF) =  -340.202627987     A.U. after    2 cycles

 The electronic state is 1-A.
 Alpha  occ. eigenvalues --  -21.08573 -15.78680 -15.73185 -11.48611 -11.44848
 Alpha  occ. eigenvalues --  -11.41160 -11.39251  -1.81464  -1.56271  -1.27361
 Alpha  occ. eigenvalues --   -1.09428  -0.99467  -0.83006  -0.78581  -0.72104
 Alpha  occ. eigenvalues --   -0.68365  -0.62032  -0.59671  -0.57440  -0.55627
 Alpha  occ. eigenvalues --   -0.47378  -0.44720  -0.40901  -0.39748  -0.36464
 Alpha  occ. eigenvalues --   -0.28812
 Alpha virt. eigenvalues --    0.03625   0.05169   0.05510   0.06241   0.06463
 Alpha virt. eigenvalues --    0.06808   0.09462   0.10140   0.11489   0.12265
 Alpha virt. eigenvalues --    0.12925   0.13496   0.14780   0.15389   0.15546

 Mulliken charges:
               1
     1  C   -2.997589
     2  O   -3.864284
     3  C    6.517777
     4  C   -2.071142
     5  N   -2.798003
     6  C    0.848398
     7  N   -3.462288
     8  H    1.333168
     9  H    1.371350
    10  H    1.326157
    11  H    1.325623
    12  H    0.967513
    13  H    1.503318
 Sum of Mulliken charges =   0.00000

 Dipole moment (field-independent basis, Debye):
    X=              0.5297    Y=             -0.1121    Z=              0.3488  Tot=              0.6441

 Test job not archived.
 1\1\GINC-SE247\SP\RHF\Aug-CC-pVDZ\C4H6N2O1\OHZDE\09-Apr-2025\0\\#t hf
 aug-cc-pvdz iop(5/13=1,5/36=2,99/5=2) pseudo=read geom=check guess=(re
 ad,tcheck) scf=(maxcycle=1)\\title\\0,1\C,0,2.21976966,0.36325125,-0.4
 2529549\O,0,1.31026716,-0.71661939,-0.25830032\C,0,0.04911353,-0.38572
 822,0.00296159\C,0,-0.98072215,-1.30520259,0.21711436\N,0,-2.10547582,
 -0.61978533,0.48562829\C,0,-1.70370674,0.73118838,0.33149285\N,0,-0.39
 868181,0.86740628,0.06194489\H,0,1.92291986,0.9942711,-1.26439984\H,0,
 3.1874099,-0.09301621,-0.61878007\H,0,2.26257832,0.9741383,0.47780043\

 Normal termination of Gaussian 16 at Wed Apr  9 03:52:38 2025.
