 Gaussian 16, Revision C.01,

 ----------------------------------------------------------------------
 #t hf aug-cc-pvdz symm=none int=(grid=ultrafine) guess=(read,tcheck) s
 table=(opt,rrhf)
 ----------------------------------------------------------------------
 -----
 title
 -----
 Symbolic Z-matrix:
 Charge =  0 Multiplicity = 1

 SCF Done:  E(RHF) =  -323.773637989     A.U. after   16 cycles
 Normal termination of Gaussian 16 at Wed Apr  9 18:32:55 2025.
 Gaussian 16:  ES64L-G16RevC.01  3-Jul-2019

 ----------------------------------------------------------------------
 #t hf aug-cc-pvdz iop(5/13=1,5/36=2,99/5=2) pseudo=read geom=check gue
 ss=(read,tcheck) scf=(maxcycle=1)
 ----------------------------------------------------------------------
 -----
 title
 -----
 Structure from the checkpoint file:  "Grambow2020_wb97xd3_007250_reverse_mol1.chk"
 Charge =  0 Multiplicity = 1

                         Standard orientation:
 ---------------------------------------------------------------------
 Center     Atomic      Atomic             Coordinates (Angstroms)
 Number     Number       Type             X           Y           Z
 ---------------------------------------------------------------------
      1          6           0       -1.571159   -1.030070    0.792850
      2          6           0       -0.749509    0.008667    0.043578
      3          6           0       -1.595363    1.103767   -0.577215
      4          6           0        1.211048    1.029182    0.940318
      5          8           0        1.903170   -0.001903    0.373513
      6          6           0        1.346832   -0.605391   -0.714356
      7          7           0        0.107952   -0.627473   -0.903113
      8          1           0       -2.209162   -1.568187    0.089450
      9          1           0       -2.201078   -0.551408    1.543570
     10          1           0       -0.920984   -1.749958    1.290223
     11          1           0       -2.165727    1.625900    0.191738
     12          1           0       -0.979993    1.826868   -1.111616
     13          1           0       -2.296141    0.662739   -1.288814
     14          1           0        1.001095    1.738514    0.109103
     15          1           0       -0.122456    0.512592    0.939055
     16          1           0        2.062323   -1.126456   -1.340068
 ---------------------------------------------------------------------

 SCF Done:  E(RHF) =  -325.297198839     A.U. after    2 cycles

 The electronic state is 1-A.
 Alpha  occ. eigenvalues --  -21.10866 -15.74213 -11.48011 -11.47007 -11.43468
 Alpha  occ. eigenvalues --  -11.40775 -11.37610  -1.83832  -1.40957  -1.19092
 Alpha  occ. eigenvalues --   -1.02820  -0.98356  -0.84956  -0.80677  -0.70802
 Alpha  occ. eigenvalues --   -0.65880  -0.62203  -0.59837  -0.56165  -0.55479
 Alpha  occ. eigenvalues --   -0.52521  -0.49856  -0.47883  -0.44273  -0.39490
 Alpha  occ. eigenvalues --   -0.36008  -0.30768
 Alpha virt. eigenvalues --    0.03538   0.04898   0.05545   0.05835   0.05964
 Alpha virt. eigenvalues --    0.06473   0.07013   0.07895   0.08632   0.10203
 Alpha virt. eigenvalues --    0.10452   0.11502   0.11698   0.13054   0.14146

 Mulliken charges:
               1
     1  C   -3.921890
     2  C   -0.541926
     3  C   -3.469658
     4  C   -1.441751
     5  O   -2.948310
     6  C    1.952671
     7  N   -3.176168
     8  H    1.261550
     9  H    1.133550
    10  H    1.208194
    11  H    1.189226
    12  H    1.287399
    13  H    1.230955
    14  H    1.069648
    15  H    3.369572
    16  H    1.796938
 Sum of Mulliken charges =   0.00000

 Dipole moment (field-independent basis, Debye):
    X=             -0.9411    Y=             -0.7555    Z=             -1.5708  Tot=              1.9809

 Test job not archived.
 1\1\GINC-SE168\SP\RHF\Aug-CC-pVDZ\C5H9N1O1\OHZDE\09-Apr-2025\0\\#t hf
 aug-cc-pvdz iop(5/13=1,5/36=2,99/5=2) pseudo=read geom=check guess=(re
 ad,tcheck) scf=(maxcycle=1)\\title\\0,1\C,0,1.01870909,1.29485456,0.63
 714233\C,0,0.30760002,0.12389069,-0.02517052\C,0,1.25923722,-0.858734,
 -0.68009975\C,0,-1.4166077,-1.1367345,1.03657857\O,0,-2.28911853,-0.23
 575543,0.4976925\C,0,-1.90311345,0.40405082,-0.64196444\N,0,-0.6967005
 6,0.59755743,-0.92136166\H,0,1.52136394,1.8948356,-0.12361379\H,0,1.76
 196486,0.93755548,1.35086856\H,0,0.30638692,1.93031161,1.16358109\H,0,

 Normal termination of Gaussian 16 at Wed Apr  9 18:33:01 2025.
