 Gaussian 16, Revision C.01,

 ----------------------------------------------------------------------
 #t hf aug-cc-pvdz symm=none int=(grid=ultrafine) guess=(read,tcheck) s
 table=(opt,rrhf)
 ----------------------------------------------------------------------
 -----
 title
 -----
 Symbolic Z-matrix:
 Charge =  0 Multiplicity = 1

 SCF Done:  E(RHF) =  -338.585401989     A.U. after   16 cycles
 Normal termination of Gaussian 16 at Wed Apr  9 18:58:44 2025.
 Gaussian 16:  ES64L-G16RevC.01  3-Jul-2019

 ----------------------------------------------------------------------
 #t hf aug-cc-pvdz iop(5/13=1,5/36=2,99/5=2) pseudo=read geom=check gue
 ss=(read,tcheck) scf=(maxcycle=1)
 ----------------------------------------------------------------------
 -----
 title
 -----
 Structure from the checkpoint file:  "Grambow2020_wb97xd3_007964_forward_mol1.chk"
 Charge =  0 Multiplicity = 1

                         Standard orientation:
 ---------------------------------------------------------------------
 Center     Atomic      Atomic             Coordinates (Angstroms)
 Number     Number       Type             X           Y           Z
 ---------------------------------------------------------------------
      1          7           0       -1.470450   -1.490276   -0.048996
      2          6           0       -0.898229   -0.385561   -0.040469
      3          8           0       -1.380282    0.887811    0.137033
      4          6           0       -0.079392    1.511932    0.011520
      5          6           0        0.543141    0.109053   -0.189116
      6          6           0        1.625091   -0.480286    0.759536
      7          7           0        1.537226   -0.304269   -0.981439
      8          1           0       -2.474504   -1.410235    0.090936
      9          1           0       -0.030000    2.154181   -0.867331
     10          1           0        0.183858    2.059959    0.916336
     11          1           0        1.243272   -1.380105    1.230959
     12          1           0        2.016896    0.307425    1.395510
     13          1           0        2.491635   -0.802725    0.101543
 ---------------------------------------------------------------------

 SCF Done:  E(RHF) =  -340.103205999     A.U. after    2 cycles

 The electronic state is 1-A.
 Alpha  occ. eigenvalues --  -21.08858 -15.76414 -15.73518 -11.52862 -11.48721
 Alpha  occ. eigenvalues --  -11.45797 -11.43106  -1.83384  -1.43115  -1.31260
 Alpha  occ. eigenvalues --   -1.05031  -0.99340  -0.94516  -0.73615  -0.68396
 Alpha  occ. eigenvalues --   -0.67578  -0.65133  -0.60380  -0.57347  -0.52125
 Alpha  occ. eigenvalues --   -0.50046  -0.44203  -0.43313  -0.38000  -0.32130
 Alpha  occ. eigenvalues --   -0.31747
 Alpha virt. eigenvalues --    0.03505   0.05147   0.05261   0.05970   0.06473
 Alpha virt. eigenvalues --    0.06809   0.08884   0.09810   0.11594   0.12600
 Alpha virt. eigenvalues --    0.12876   0.13489   0.14048   0.14407   0.15022

 Mulliken charges:
               1
     1  N   -3.650953
     2  C    5.423159
     3  O   -3.143997
     4  C   -1.463212
     5  C    1.263249
     6  C   -3.566052
     7  N   -2.279313
     8  H    0.761260
     9  H    1.336458
    10  H    1.492959
    11  H    1.327900
    12  H    1.308565
    13  H    1.189976
 Sum of Mulliken charges =   0.00000

 Dipole moment (field-independent basis, Debye):
    X=              0.5734    Y=              2.2176    Z=              2.0753  Tot=              3.0909

 Test job not archived.
 1\1\GINC-SE174\SP\RHF\Aug-CC-pVDZ\C4H6N2O1\OHZDE\09-Apr-2025\0\\#t hf
 aug-cc-pvdz iop(5/13=1,5/36=2,99/5=2) pseudo=read geom=check guess=(re
 ad,tcheck) scf=(maxcycle=1)\\title\\0,1\N,0,1.70454747,-1.14776194,-1.
 24665108\C,0,1.1589151,-0.28893505,-0.5306856\O,0,1.5455674,0.98014128
 ,-0.17670251\C,0,0.36310794,1.23255813,0.62058596\C,0,-0.14707908,-0.1
 8401596,0.26156355\C,0,-1.48542869,-0.43660938,-0.48869908\N,0,-0.8086
 7822,-1.08875496,0.98995335\H,0,2.59996013,-0.83661337,-1.61480026\H,0
 ,0.61415068,1.36538628,1.67255445\H,0,-0.1959628,2.08626087,0.23723718

 Normal termination of Gaussian 16 at Wed Apr  9 18:58:48 2025.
