 Gaussian 16, Revision C.01,

 ----------------------------------------------------------------------
 #t hf aug-cc-pvdz symm=none int=(grid=ultrafine) guess=(read,tcheck) s
 table=(opt,rrhf)
 ----------------------------------------------------------------------
 -----
 title
 -----
 Symbolic Z-matrix:
 Charge =  0 Multiplicity = 1

 SCF Done:  E(RHF) =  -379.448143522     A.U. after   15 cycles
 Normal termination of Gaussian 16 at Wed Apr  9 19:16:55 2025.
 Gaussian 16:  ES64L-G16RevC.01  3-Jul-2019

 ----------------------------------------------------------------------
 #t hf aug-cc-pvdz iop(5/13=1,5/36=2,99/5=2) pseudo=read geom=check gue
 ss=(read,tcheck) scf=(maxcycle=1)
 ----------------------------------------------------------------------
 -----
 title
 -----
 Structure from the checkpoint file:  "Grambow2020_wb97xd3_008535_reverse_mol1.chk"
 Charge =  0 Multiplicity = 1

                         Standard orientation:
 ---------------------------------------------------------------------
 Center     Atomic      Atomic             Coordinates (Angstroms)
 Number     Number       Type             X           Y           Z
 ---------------------------------------------------------------------
      1          8           0       -0.775031    1.212309   -0.691168
      2          6           0       -0.004671    0.289024   -0.089191
      3          6           0        1.278730    0.617262    0.704350
      4          8           0        1.950426   -0.520761    0.147396
      5          6           0        0.929562   -0.698325   -0.841319
      6          6           0       -1.105865   -0.289532    0.709800
      7          8           0       -2.199639   -0.581876    0.125320
      8          1           0       -2.066909   -0.109618   -0.753172
      9          1           0        1.245610    0.585056    1.798233
     10          1           0        1.713572    1.563329    0.369724
     11          1           0        1.209542   -0.279069   -1.814018
     12          1           0        0.630919   -1.744961   -0.950736
     13          1           0       -1.125321   -0.402691    1.795730
 ---------------------------------------------------------------------

 SCF Done:  E(RHF) =  -381.096486090     A.U. after    2 cycles

 The electronic state is 1-A.
 Alpha  occ. eigenvalues --  -21.18905 -21.04531 -20.96589 -11.57960 -11.47184
 Alpha  occ. eigenvalues --  -11.45819 -11.39989  -1.87726  -1.77835  -1.61073
 Alpha  occ. eigenvalues --   -1.10828  -1.00795  -0.96546  -0.82825  -0.74020
 Alpha  occ. eigenvalues --   -0.68068  -0.64506  -0.58493  -0.57358  -0.56319
 Alpha  occ. eigenvalues --   -0.51346  -0.46580  -0.44225  -0.36359  -0.30077
 Alpha  occ. eigenvalues --   -0.25383  -0.24312
 Alpha virt. eigenvalues --    0.02985   0.04494   0.04923   0.06134   0.06362
 Alpha virt. eigenvalues --    0.06924   0.07100   0.10008   0.10488   0.11247
 Alpha virt. eigenvalues --    0.12353   0.13611   0.13756   0.14717   0.15074

 Mulliken charges:
               1
     1  O   -3.218104
     2  C    2.589596
     3  C   -1.036467
     4  O   -2.756372
     5  C   -1.170854
     6  C    1.078273
     7  O   -3.339872
     8  H    0.918724
     9  H    1.461810
    10  H    1.223250
    11  H    1.172210
    12  H    1.495404
    13  H    1.582403
 Sum of Mulliken charges =   0.00000

 Dipole moment (field-independent basis, Debye):
    X=             -2.0239    Y=             -2.1808    Z=              1.6364  Tot=              3.3955

 Test job not archived.
 1\1\GINC-SE083\SP\RHF\Aug-CC-pVDZ\C4H6O3\OHZDE\09-Apr-2025\0\\#t hf au
 g-cc-pvdz iop(5/13=1,5/36=2,99/5=2) pseudo=read geom=check guess=(read
 ,tcheck) scf=(maxcycle=1)\\title\\0,1\O,0,1.01127124,0.23567618,-1.344
 65989\C,0,0.15985572,0.00627578,-0.32939914\C,0,-1.12481279,-0.8416838
 9,-0.45251218\O,0,-1.85262716,0.08788132,0.36152905\C,0,-0.81281668,1.
 06705561,0.2554086\C,0,1.19119604,-0.54465881,0.57533824\O,0,2.2820432
 8,0.09663005,0.72441353\H,0,2.21188513,0.75174782,-0.03604174\H,0,-1.1
 3152599,-1.85336584,-0.03398256\H,0,-1.48274583,-0.86059866,-1.4857747

 Normal termination of Gaussian 16 at Wed Apr  9 19:16:59 2025.
