 Gaussian 16, Revision C.01,

 ----------------------------------------------------------------------
 #t hf aug-cc-pvdz symm=none int=(grid=ultrafine) guess=(read,tcheck) s
 table=(opt,rrhf)
 ----------------------------------------------------------------------
 -----
 title
 -----
 Symbolic Z-matrix:
 Charge =  0 Multiplicity = 1

 SCF Done:  E(RHF) =  -284.706158203     A.U. after   14 cycles
 Normal termination of Gaussian 16 at Wed Apr  9 03:06:49 2025.
 Gaussian 16:  ES64L-G16RevC.01  3-Jul-2019

 ----------------------------------------------------------------------
 #t hf aug-cc-pvdz iop(5/13=1,5/36=2,99/5=2) pseudo=read geom=check gue
 ss=(read,tcheck) scf=(maxcycle=1)
 ----------------------------------------------------------------------
 -----
 title
 -----
 Structure from the checkpoint file:  "Grambow2020_b97d3_006564_reverse_mol2.chk"
 Charge =  0 Multiplicity = 1

                         Standard orientation:
 ---------------------------------------------------------------------
 Center     Atomic      Atomic             Coordinates (Angstroms)
 Number     Number       Type             X           Y           Z
 ---------------------------------------------------------------------
      1          8           0        1.845909   -0.556062   -0.219731
      2          6           0        0.881832    0.241657    0.471220
      3          6           0        0.104902    1.353340   -0.259717
      4          7           0       -1.181222    0.556154   -0.076774
      5          6           0       -1.192095   -0.911935   -0.457935
      6          6           0       -0.478774   -0.456001    0.767914
      7          1           0        1.616386   -0.482847   -1.166038
      8          1           0        1.396776    0.539504    1.397644
      9          1           0        0.330070    1.444698   -1.335536
     10          1           0       -2.072019    0.975441    0.199774
     11          1           0       -0.637328   -1.143598   -1.365941
     12          1           0       -2.144872   -1.426225   -0.313684
     13          1           0       -0.882918   -0.713929    1.750151
 ---------------------------------------------------------------------

 SCF Done:  E(RHF) =  -286.022775675     A.U. after    2 cycles

 The electronic state is 1-A.
 Alpha  occ. eigenvalues --  -21.05826 -15.81790 -11.52179 -11.46239 -11.41943
 Alpha  occ. eigenvalues --  -11.32141  -1.70370  -1.54306  -1.07589  -1.03703
 Alpha  occ. eigenvalues --   -0.89740  -0.80758  -0.73559  -0.65337  -0.60986
 Alpha  occ. eigenvalues --   -0.57044  -0.55676  -0.50162  -0.47644  -0.43054
 Alpha  occ. eigenvalues --   -0.38067  -0.31778  -0.24030
 Alpha virt. eigenvalues --    0.02963   0.04404   0.04912   0.05194   0.06634
 Alpha virt. eigenvalues --    0.07204   0.07761   0.09565   0.10579   0.12476
 Alpha virt. eigenvalues --    0.13228   0.13684   0.13900   0.14605   0.15381

 Mulliken charges:
               1
     1  O   -2.891108
     2  C    0.752505
     3  C   -1.492644
     4  N   -1.645109
     5  C   -2.179262
     6  C   -0.736491
     7  H    0.598102
     8  H    1.483727
     9  H    1.316957
    10  H    0.681277
    11  H    1.451025
    12  H    1.385769
    13  H    1.275250
 Sum of Mulliken charges =  -0.00000

 Dipole moment (field-independent basis, Debye):
    X=             -3.5673    Y=             -3.3139    Z=              0.1170  Tot=              4.8704

 Test job not archived.
 1\1\GINC-SE461\SP\RHF\Aug-CC-pVDZ\C4H7N1O1\OHZDE\09-Apr-2025\0\\#t hf
 aug-cc-pvdz iop(5/13=1,5/36=2,99/5=2) pseudo=read geom=check guess=(re
 ad,tcheck) scf=(maxcycle=1)\\title\\0,1\O,0,-1.40842098,-1.19805345,0.
 93412652\C,0,-1.1869875,-0.15448755,-0.01726725\C,0,-0.62423253,1.2106
 4971,0.42254562\N,0,0.64964613,0.92359983,-0.36353565\C,0,1.34415646,-
 0.41071187,-0.1687186\C,0,0.06467857,-0.3298373,-0.92753507\H,0,-0.838
 79611,-0.98178752,1.69720825\H,0,-2.1172603,-0.12803431,-0.60551402\H,
 0,-0.3834005,1.28777897,1.49608358\H,0,1.12219533,1.61733715,-0.947680

 Normal termination of Gaussian 16 at Wed Apr  9 03:06:53 2025.
