 Gaussian 16, Revision C.01,

 ----------------------------------------------------------------------
 #t hf aug-cc-pvdz symm=none int=(grid=ultrafine) guess=(read,tcheck) s
 table=(opt,rrhf)
 ----------------------------------------------------------------------
 -----
 title
 -----
 Symbolic Z-matrix:
 Charge =  0 Multiplicity = 1

 SCF Done:  E(RHF) =  -283.521145017     A.U. after   16 cycles
 Normal termination of Gaussian 16 at Wed Apr  9 17:32:12 2025.
 Gaussian 16:  ES64L-G16RevC.01  3-Jul-2019

 ----------------------------------------------------------------------
 #t hf aug-cc-pvdz iop(5/13=1,5/36=2,99/5=2) pseudo=read geom=check gue
 ss=(read,tcheck) scf=(maxcycle=1)
 ----------------------------------------------------------------------
 -----
 title
 -----
 Structure from the checkpoint file:  "Grambow2020_b97d3_007170_forward_mol1.chk"
 Charge =  0 Multiplicity = 1

                         Standard orientation:
 ---------------------------------------------------------------------
 Center     Atomic      Atomic             Coordinates (Angstroms)
 Number     Number       Type             X           Y           Z
 ---------------------------------------------------------------------
      1          6           0        2.136089    0.375111   -0.022872
      2          7           0        1.091674   -0.632363    0.148792
      3          6           0       -0.190967   -0.491836   -0.156968
      4          8           0       -0.758287    1.134220   -0.088336
      5          6           0       -1.420541   -1.079023   -0.166698
      6          6           0       -1.768464    0.257689    0.141336
      7          1           0        2.911056    0.004780   -0.708309
      8          1           0        2.594333    0.618500    0.944961
      9          1           0        1.676175    1.273082   -0.439963
     10          1           0        1.363207   -1.568345    0.444974
     11          1           0       -2.656901    0.653112    0.654703
 ---------------------------------------------------------------------

 SCF Done:  E(RHF) =  -284.816232071     A.U. after    2 cycles

 The electronic state is 1-A.
 Alpha  occ. eigenvalues --  -21.07388 -15.81049 -11.54875 -11.48650 -11.42999
 Alpha  occ. eigenvalues --  -11.34251  -1.75858  -1.44331  -1.16730  -1.03314
 Alpha  occ. eigenvalues --   -0.88338  -0.77022  -0.67087  -0.64643  -0.59493
 Alpha  occ. eigenvalues --   -0.56513  -0.54483  -0.52043  -0.43884  -0.40132
 Alpha  occ. eigenvalues --   -0.30943  -0.26562
 Alpha virt. eigenvalues --    0.02841   0.05138   0.05212   0.05466   0.06704
 Alpha virt. eigenvalues --    0.08683   0.10352   0.10606   0.11550   0.12375
 Alpha virt. eigenvalues --    0.12908   0.13463   0.13947   0.15148   0.15493

 Mulliken charges:
               1
     1  C   -3.476151
     2  N   -2.982651
     3  C    3.518169
     4  O   -2.410176
     5  C   -2.096647
     6  C    1.375136
     7  H    1.310353
     8  H    1.315477
     9  H    1.410067
    10  H    0.643913
    11  H    1.392509
 Sum of Mulliken charges =  -0.00000

 Dipole moment (field-independent basis, Debye):
    X=              4.5705    Y=              2.9555    Z=              0.8996  Tot=              5.5167

 Test job not archived.
 1\1\GINC-SE029\SP\RHF\Aug-CC-pVDZ\C4H5N1O1\OHZDE\09-Apr-2025\0\\#t hf
 aug-cc-pvdz iop(5/13=1,5/36=2,99/5=2) pseudo=read geom=check guess=(re
 ad,tcheck) scf=(maxcycle=1)\\title\\0,1\C,0,-1.76884921,0.11900072,-0.
 03354223\N,0,-0.49830358,0.11686902,-0.75533479\C,0,0.67202691,-0.2879
 3128,-0.28113127\O,0,0.82986718,-0.1388692,1.42868939\C,0,1.99962213,-
 0.45263329,-0.54016546\C,0,2.04157096,-0.06987799,0.82162493\H,0,-2.49
 7672,-0.52335525,-0.54709754\H,0,-2.16846015,1.1397157,0.03262968\H,0,
 -1.58805171,-0.26330223,0.97293314\H,0,-0.50089114,0.35954406,-1.74458

 Normal termination of Gaussian 16 at Wed Apr  9 17:32:16 2025.
