 Gaussian 16, Revision C.01,

 ----------------------------------------------------------------------
 #t hf aug-cc-pvdz symm=none int=(grid=ultrafine) guess=(read,tcheck) s
 table=(opt,rrhf)
 ----------------------------------------------------------------------
 -----
 title
 -----
 Symbolic Z-matrix:
 Charge =  0 Multiplicity = 1

 SCF Done:  E(RHF) =  -245.837786004     A.U. after   14 cycles
 Normal termination of Gaussian 16 at Wed Apr  9 17:38:14 2025.
 Gaussian 16:  ES64L-G16RevC.01  3-Jul-2019

 ----------------------------------------------------------------------
 #t hf aug-cc-pvdz iop(5/13=1,5/36=2,99/5=2) pseudo=read geom=check gue
 ss=(read,tcheck) scf=(maxcycle=1)
 ----------------------------------------------------------------------
 -----
 title
 -----
 Structure from the checkpoint file:  "Grambow2020_b97d3_007206_reverse_mol2.chk"
 Charge =  0 Multiplicity = 1

                         Standard orientation:
 ---------------------------------------------------------------------
 Center     Atomic      Atomic             Coordinates (Angstroms)
 Number     Number       Type             X           Y           Z
 ---------------------------------------------------------------------
      1          8           0       -2.246473   -0.688567   -0.111906
      2          6           0       -2.084831    0.405843    0.187881
      3          6           0        1.300305    0.093340    0.424966
      4          6           0        1.746797   -1.045187   -0.142748
      5          7           0        0.883393    1.249999   -0.238700
      6          1           0        0.123501    1.751716    0.215323
      7          1           0        1.299020    0.200048    1.512046
      8          1           0        2.140050   -1.850620    0.472676
      9          1           0        1.763390   -1.182914   -1.225013
     10          1           0        0.688447    1.116335   -1.229478
 ---------------------------------------------------------------------

 SCF Done:  E(RHF) =  -246.936498854     A.U. after    2 cycles

 The electronic state is 1-A.
 Alpha  occ. eigenvalues --  -21.18140 -15.75662 -11.51418 -11.43007 -11.35763
 Alpha  occ. eigenvalues --   -1.79855  -1.35803  -1.06176  -0.81580  -0.72980
 Alpha  occ. eigenvalues --   -0.68956  -0.61093  -0.55229  -0.52574  -0.52478
 Alpha  occ. eigenvalues --   -0.51185  -0.50060  -0.46053  -0.28999
 Alpha virt. eigenvalues --    0.04339   0.05667   0.05844   0.06335   0.07030
 Alpha virt. eigenvalues --    0.08803   0.10014   0.11203   0.12252   0.13148
 Alpha virt. eigenvalues --    0.14195   0.14812   0.15648   0.16200   0.17065

 Mulliken charges:
               1
     1  O   -1.026711
     2  C    0.982765
     3  C   -0.116944
     4  C   -2.521327
     5  N   -2.823512
     6  H    0.711196
     7  H    1.497794
     8  H    1.329661
     9  H    1.395353
    10  H    0.571725
 Sum of Mulliken charges =  -0.00000

 Dipole moment (field-independent basis, Debye):
    X=             -1.3890    Y=             -0.9289    Z=             -0.4914  Tot=              1.7417

 Test job not archived.
 1\1\GINC-SE045\SP\RHF\Aug-CC-pVDZ\C3H5N1O1\OHZDE\09-Apr-2025\0\\#t hf
 aug-cc-pvdz iop(5/13=1,5/36=2,99/5=2) pseudo=read geom=check guess=(re
 ad,tcheck) scf=(maxcycle=1)\\title\\0,1\O,0,1.7637573,-1.63134965,1.56
 772074\C,0,2.263498,-0.65261922,1.2420219\C,0,-0.32989193,0.28805998,-
 0.75859423\C,0,-1.4399443,-0.44196821,-0.52894343\N,0,0.17210659,1.318
 73982,0.04004478\H,0,1.18725417,1.3832172,0.06476854\H,0,0.24164835,0.
 14236705,-1.67796766\H,0,-1.79381439,-1.15493347,-1.26960074\H,0,-2.03
 43406,-0.3194816,0.37782692\H,0,-0.21574519,1.3449481,0.98153019\\Vers

 Normal termination of Gaussian 16 at Wed Apr  9 17:38:18 2025.
