 Gaussian 16, Revision C.01,

 ----------------------------------------------------------------------
 #t hf aug-cc-pvdz symm=none int=(grid=ultrafine) guess=(read,tcheck) s
 table=(opt,rrhf)
 ----------------------------------------------------------------------
 -----
 title
 -----
 Symbolic Z-matrix:
 Charge =  0 Multiplicity = 1

 SCF Done:  E(RHF) =  -317.603776279     A.U. after   17 cycles
 Normal termination of Gaussian 16 at Wed Apr  9 19:04:39 2025.
 Gaussian 16:  ES64L-G16RevC.01  3-Jul-2019

 ----------------------------------------------------------------------
 #t hf aug-cc-pvdz iop(5/13=1,5/36=2,99/5=2) pseudo=read geom=check gue
 ss=(read,tcheck) scf=(maxcycle=1)
 ----------------------------------------------------------------------
 -----
 title
 -----
 Structure from the checkpoint file:  "Grambow2020_wb97xd3_008062_reverse_mol1.chk"
 Charge =  0 Multiplicity = 1

                         Standard orientation:
 ---------------------------------------------------------------------
 Center     Atomic      Atomic             Coordinates (Angstroms)
 Number     Number       Type             X           Y           Z
 ---------------------------------------------------------------------
      1          7           0        2.955103    0.282165   -0.408275
      2          6           0        1.910130    0.138483    0.047941
      3          6           0        0.588925   -0.024307    0.595422
      4          6           0       -1.435878    1.416099    0.061330
      5          7           0       -1.992746    0.295916   -0.213804
      6          6           0       -1.507749   -0.901555   -0.116197
      7          7           0       -0.156200   -1.067973    0.013987
      8          1           0        0.591280   -0.037838    1.685183
      9          1           0       -0.184099    1.060488    0.523102
     10          1           0       -1.551484    2.170457   -0.725992
     11          1           0       -2.140780   -1.773488   -0.208054
     12          1           0        0.309411   -1.762700   -0.548574
 ---------------------------------------------------------------------

 SCF Done:  E(RHF) =  -319.068187762     A.U. after    2 cycles

 The electronic state is 1-A.
 Alpha  occ. eigenvalues --  -15.80583 -15.78083 -15.76126 -11.48198 -11.47571
 Alpha  occ. eigenvalues --  -11.42620 -11.42188  -1.53763  -1.36428  -1.30060
 Alpha  occ. eigenvalues --   -1.10582  -0.96712  -0.82072  -0.78532  -0.70119
 Alpha  occ. eigenvalues --   -0.65332  -0.64769  -0.61483  -0.55389  -0.51258
 Alpha  occ. eigenvalues --   -0.48731  -0.44374  -0.42482  -0.36787  -0.28681
 Alpha virt. eigenvalues --    0.02831   0.04743   0.05327   0.05851   0.07429
 Alpha virt. eigenvalues --    0.08017   0.09392   0.09635   0.09946   0.11294
 Alpha virt. eigenvalues --    0.12439   0.12973   0.13631   0.14098   0.14574

 Mulliken charges:
               1
     1  N   -2.489166
     2  C    2.509168
     3  C   -2.525573
     4  C   -1.821063
     5  N   -2.551282
     6  C    1.155773
     7  N   -2.348017
     8  H    1.134604
     9  H    3.245074
    10  H    1.357036
    11  H    1.620185
    12  H    0.713260
 Sum of Mulliken charges =   0.00000

 Dipole moment (field-independent basis, Debye):
    X=             -2.3987    Y=             -2.5432    Z=              0.0742  Tot=              3.4967

 Test job not archived.
 1\1\GINC-SE231\SP\RHF\Aug-CC-pVDZ\C4H5N3\OHZDE\09-Apr-2025\0\\#t hf au
 g-cc-pvdz iop(5/13=1,5/36=2,99/5=2) pseudo=read geom=check guess=(read
 ,tcheck) scf=(maxcycle=1)\\title\\0,1\N,0,3.05434753,-0.76567988,0.691
 74954\C,0,2.08736371,-0.42129001,0.17494933\C,0,0.85948245,-0.00881617
 ,-0.4527381\C,0,-1.36048765,-1.24147707,-0.34260524\N,0,-1.81373917,-0
 .11398302,0.06227853\C,0,-1.18907909,1.01206692,0.20544397\N,0,0.17872
 909,1.02131935,0.22395492\H,0,0.98042465,0.16977979,-1.52102771\H,0,-0
 .03425888,-0.98359963,-0.62766484\H,0,-1.64438336,-2.08556337,0.297096

 Normal termination of Gaussian 16 at Wed Apr  9 19:04:43 2025.
