 Gaussian 16, Revision C.01,

 ----------------------------------------------------------------------
 #t hf aug-cc-pvdz symm=none int=(grid=ultrafine) guess=(read,tcheck) s
 table=(opt,rrhf)
 ----------------------------------------------------------------------
 -----
 title
 -----
 Symbolic Z-matrix:
 Charge =  0 Multiplicity = 1

 SCF Done:  E(RHF) =  -323.819187108     A.U. after   14 cycles
 Normal termination of Gaussian 16 at Wed Apr  9 18:17:22 2025.
 Gaussian 16:  ES64L-G16RevC.01  3-Jul-2019

 ----------------------------------------------------------------------
 #t hf aug-cc-pvdz iop(5/13=1,5/36=2,99/5=2) pseudo=read geom=check gue
 ss=(read,tcheck) scf=(maxcycle=1)
 ----------------------------------------------------------------------
 -----
 title
 -----
 Structure from the checkpoint file:  "Grambow2020_wb97xd3_006831_reverse_mol2.chk"
 Charge =  0 Multiplicity = 1

                         Standard orientation:
 ---------------------------------------------------------------------
 Center     Atomic      Atomic             Coordinates (Angstroms)
 Number     Number       Type             X           Y           Z
 ---------------------------------------------------------------------
      1          6           0        1.757218   -1.359126   -0.355475
      2          6           0        1.141026   -0.239190    0.464544
      3          6           0        1.466849    1.221389    0.012818
      4          6           0       -0.020868    1.383528   -0.219394
      5          6           0       -0.291298    0.135685    0.165351
      6          7           0       -1.424975   -0.635081    0.356908
      7          8           0       -2.544462   -0.114895   -0.315634
      8          1           0        2.837697   -1.401587   -0.202070
      9          1           0        1.571475   -1.204445   -1.421304
     10          1           0        1.350838   -2.335752   -0.078887
     11          1           0        1.327839   -0.398782    1.530641
     12          1           0        1.906857    1.846697    0.793948
     13          1           0        2.100164    1.273496   -0.877095
     14          1           0       -1.300373   -1.589406    0.042602
     15          1           0       -0.631333    2.206317   -0.561287
     16          1           0       -3.150216    0.114478    0.393113
 ---------------------------------------------------------------------

 SCF Done:  E(RHF) =  -325.345798655     A.U. after    2 cycles

 The electronic state is 1-A.
 Alpha  occ. eigenvalues --  -21.09880 -15.78208 -11.48560 -11.42225 -11.39197
 Alpha  occ. eigenvalues --  -11.37623 -11.34494  -1.78877  -1.36809  -1.20008
 Alpha  occ. eigenvalues --   -1.07092  -0.91232  -0.87294  -0.73356  -0.69526
 Alpha  occ. eigenvalues --   -0.64294  -0.61833  -0.59725  -0.56049  -0.54525
 Alpha  occ. eigenvalues --   -0.48196  -0.47415  -0.42831  -0.41191  -0.39551
 Alpha  occ. eigenvalues --   -0.34050  -0.28151
 Alpha virt. eigenvalues --    0.03913   0.05358   0.05717   0.05867   0.06064
 Alpha virt. eigenvalues --    0.06245   0.06660   0.06857   0.08333   0.11638
 Alpha virt. eigenvalues --    0.12537   0.12617   0.13117   0.13729   0.14735

 Mulliken charges:
               1
     1  C   -4.293916
     2  C   -1.993268
     3  C   -3.350566
     4  C   -1.369944
     5  C    4.182749
     6  N   -1.504883
     7  O   -2.302109
     8  H    1.240346
     9  H    1.322449
    10  H    1.149977
    11  H    1.383058
    12  H    1.258624
    13  H    1.357004
    14  H    0.751405
    15  H    1.420564
    16  H    0.748511
 Sum of Mulliken charges =   0.00000

 Dipole moment (field-independent basis, Debye):
    X=             -0.3015    Y=             -0.8111    Z=              0.2180  Tot=              0.8923

 Test job not archived.
 1\1\GINC-SE014\SP\RHF\Aug-CC-pVDZ\C5H9N1O1\OHZDE\09-Apr-2025\0\\#t hf
 aug-cc-pvdz iop(5/13=1,5/36=2,99/5=2) pseudo=read geom=check guess=(re
 ad,tcheck) scf=(maxcycle=1)\\title\\0,1\C,0,-1.64321293,-0.9703877,0.2
 0009228\C,0,-0.60391697,-0.24782337,-0.63904068\C,0,-0.74724547,1.3049
 3589,-0.74814621\C,0,0.60971643,1.38499741,-0.08049517\C,0,0.72439907,
 0.05958007,0.01109755\N,0,1.68624723,-0.84036956,0.43646505\O,0,2.6425
 0875,-0.243054,1.27607019\H,0,-2.6180644,-0.9527936,-0.29196957\H,0,-1
 .74812724,-0.49473625,1.17844109\H,0,-1.37839422,-2.01910847,0.3597796

 Normal termination of Gaussian 16 at Wed Apr  9 18:17:28 2025.
