 Gaussian 16, Revision C.01,

 ----------------------------------------------------------------------
 #t hf aug-cc-pvdz symm=none int=(grid=ultrafine) guess=(read,tcheck) s
 table=(opt,rrhf)
 ----------------------------------------------------------------------
 -----
 title
 -----
 Symbolic Z-matrix:
 Charge =  0 Multiplicity = 1

 SCF Done:  E(RHF) =  -322.422947638     A.U. after   17 cycles
 Normal termination of Gaussian 16 at Wed Apr  9 18:02:15 2025.
 Gaussian 16:  ES64L-G16RevC.01  3-Jul-2019

 ----------------------------------------------------------------------
 #t hf aug-cc-pvdz iop(5/13=1,5/36=2,99/5=2) pseudo=read geom=check gue
 ss=(read,tcheck) scf=(maxcycle=1)
 ----------------------------------------------------------------------
 -----
 title
 -----
 Structure from the checkpoint file:  "Grambow2020_wb97xd3_006554_reverse_mol1.chk"
 Charge =  0 Multiplicity = 1

                         Standard orientation:
 ---------------------------------------------------------------------
 Center     Atomic      Atomic             Coordinates (Angstroms)
 Number     Number       Type             X           Y           Z
 ---------------------------------------------------------------------
      1          8           0        2.505478   -0.338586   -0.048790
      2          6           0        1.287808    0.273970   -0.176562
      3          6           0       -0.759778    0.541372   -0.780020
      4          6           0       -0.840712   -0.894425   -0.330290
      5          6           0       -2.089069   -0.289135    0.142009
      6          7           0       -0.609242    0.978633    0.588414
      7          6           0        0.164491   -0.289062    0.656135
      8          1           0        3.198521    0.256634   -0.339638
      9          1           0        1.306700    1.369336   -0.158954
     10          1           0       -1.190993    1.112585   -1.594945
     11          1           0       -0.739955   -1.784310   -0.941942
     12          1           0       -2.905194   -0.206235   -0.573329
     13          1           0       -2.402179   -0.220596    1.175617
     14          1           0        0.377532   -0.725475    1.636978
 ---------------------------------------------------------------------

 SCF Done:  E(RHF) =  -323.937205870     A.U. after    2 cycles

 The electronic state is 1-A.
 Alpha  occ. eigenvalues --  -21.07784 -15.73472 -11.50395 -11.48595 -11.47101
 Alpha  occ. eigenvalues --  -11.42327 -11.38890  -1.72624  -1.55421  -1.12504
 Alpha  occ. eigenvalues --   -1.01054  -0.91349  -0.87966  -0.75435  -0.70340
 Alpha  occ. eigenvalues --   -0.64843  -0.63346  -0.63064  -0.50527  -0.48066
 Alpha  occ. eigenvalues --   -0.45491  -0.41615  -0.41255  -0.39129  -0.34428
 Alpha  occ. eigenvalues --   -0.19419
 Alpha virt. eigenvalues --    0.03612   0.04938   0.05153   0.05684   0.05823
 Alpha virt. eigenvalues --    0.06698   0.07807   0.09350   0.09735   0.11733
 Alpha virt. eigenvalues --    0.12236   0.13382   0.13809   0.14167   0.14555

 Mulliken charges:
               1
     1  O   -3.143607
     2  C    1.937192
     3  C   -0.116523
     4  C   -0.881225
     5  C   -2.551570
     6  N   -1.168575
     7  C   -2.147255
     8  H    0.829435
     9  H    1.120390
    10  H    1.179895
    11  H    1.285946
    12  H    1.236227
    13  H    1.053841
    14  H    1.365829
 Sum of Mulliken charges =   0.00000

 Dipole moment (field-independent basis, Debye):
    X=             -1.6463    Y=             -1.2362    Z=             -0.4789  Tot=              2.1138

 Test job not archived.
 1\1\GINC-SE045\SP\RHF\Aug-CC-pVDZ\C5H7N1O1\OHZDE\09-Apr-2025\0\\#t hf
 aug-cc-pvdz iop(5/13=1,5/36=2,99/5=2) pseudo=read geom=check guess=(re
 ad,tcheck) scf=(maxcycle=1)\\title\\0,1\O,0,2.62942149,0.49531032,0.46
 85611\C,0,1.47718846,0.23567108,-0.22369283\C,0,-0.39188373,-0.7141107
 5,-0.70614458\C,0,-0.59133868,-0.56073576,0.77945728\C,0,-1.900315,-0.
 25090477,0.19771776\N,0,-0.52576779,0.71259563,-0.88795666\C,0,0.19365
 199,0.70396931,0.41306624\H,0,3.37867449,0.46606692,-0.12889464\H,0,1.
 51135737,0.45678663,-1.29627594\H,0,-0.63123082,-1.48143951,-1.4343297

 Normal termination of Gaussian 16 at Wed Apr  9 18:02:23 2025.
