 Gaussian 16, Revision C.01,

 ----------------------------------------------------------------------
 #t hf aug-cc-pvdz symm=none int=(grid=ultrafine) guess=(read,tcheck) s
 table=(opt,rrhf)
 ----------------------------------------------------------------------
 -----
 title
 -----
 Symbolic Z-matrix:
 Charge =  0 Multiplicity = 1

 SCF Done:  E(RHF) =  -339.186930939     A.U. after   17 cycles
 Normal termination of Gaussian 16 at Wed Apr  9 16:28:43 2025.
 Gaussian 16:  ES64L-G16RevC.01  3-Jul-2019

 ----------------------------------------------------------------------
 #t hf aug-cc-pvdz iop(5/13=1,5/36=2,99/5=2) pseudo=read geom=check gue
 ss=(read,tcheck) scf=(maxcycle=1)
 ----------------------------------------------------------------------
 -----
 title
 -----
 Structure from the checkpoint file:  "Grambow2020_b97d3_006809_reverse_mol1.chk"
 Charge =  0 Multiplicity = 1

                         Standard orientation:
 ---------------------------------------------------------------------
 Center     Atomic      Atomic             Coordinates (Angstroms)
 Number     Number       Type             X           Y           Z
 ---------------------------------------------------------------------
      1          8           0       -1.541034    0.030390    0.235260
      2          6           0       -1.124338   -1.057373   -0.316066
      3          6           0        0.794695   -0.194741    0.082335
      4          8           0        1.838187   -0.769999    0.165359
      5          6           0       -0.206417    0.767461    0.494775
      6          8           0        0.399836    1.127068   -0.685077
      7          1           0       -2.007871   -1.673292   -0.602291
      8          1           0       -0.351683    1.481539    1.311685
 ---------------------------------------------------------------------

 SCF Done:  E(RHF) =  -340.626270939     A.U. after    2 cycles

 The electronic state is 1-A.
 Alpha  occ. eigenvalues --  -21.16341 -21.09962 -21.09714 -11.60575 -11.55477
 Alpha  occ. eigenvalues --  -11.47493  -1.90024  -1.76825  -1.69962  -1.02653
 Alpha  occ. eigenvalues --   -0.92989  -0.82228  -0.69990  -0.61753  -0.60529
 Alpha  occ. eigenvalues --   -0.54987  -0.54386  -0.46696  -0.45247  -0.37548
 Alpha  occ. eigenvalues --   -0.32356  -0.27509
 Alpha virt. eigenvalues --    0.03214   0.04712   0.06318   0.08524   0.09344
 Alpha virt. eigenvalues --    0.10097   0.10428   0.11885   0.12599   0.14369
 Alpha virt. eigenvalues --    0.14960   0.15182   0.15378   0.16402   0.19742

 Mulliken charges:
               1
     1  O   -2.248351
     2  C   -0.577369
     3  C    3.627694
     4  O   -3.089392
     5  C    1.647543
     6  O   -2.327414
     7  H    1.487054
     8  H    1.480234
 Sum of Mulliken charges =   0.00000

 Dipole moment (field-independent basis, Debye):
    X=             -2.5673    Y=              1.0758    Z=              0.7931  Tot=              2.8944

 Test job not archived.
 1\1\GINC-SE141\SP\RHF\Aug-CC-pVDZ\C3H2O3\OHZDE\09-Apr-2025\0\\#t hf au
 g-cc-pvdz iop(5/13=1,5/36=2,99/5=2) pseudo=read geom=check guess=(read
 ,tcheck) scf=(maxcycle=1)\\title\\0,1\O,0,-0.93630741,-0.703987,0.6104
 4268\C,0,-1.0032323,0.56693994,0.81315088\C,0,0.62189203,0.59294168,-0
 .58106624\O,0,0.9833803,1.51658712,-1.24657051\C,0,0.2785857,-0.793893
 89,-0.34233122\O,0,1.43963643,-0.43206904,0.2979456\H,0,-1.82651266,0.
 76988424,1.53629251\H,0,0.2024299,-1.71835506,-0.92364171\\Version=ES6
 4L-G16RevC.01\State=1-A\HF=-340.6262709\RMSD=4.239e-01\Dipole=-0.60454

 Normal termination of Gaussian 16 at Wed Apr  9 16:28:46 2025.
