 Gaussian 16, Revision C.01,

 ----------------------------------------------------------------------
 #t hf aug-cc-pvdz symm=none int=(grid=ultrafine) guess=(read,tcheck) s
 table=(opt,rrhf)
 ----------------------------------------------------------------------
 -----
 title
 -----
 Symbolic Z-matrix:
 Charge =  0 Multiplicity = 1

 SCF Done:  E(RHF) =  -338.661777191     A.U. after   16 cycles
 Normal termination of Gaussian 16 at Wed Apr  9 18:17:13 2025.
 Gaussian 16:  ES64L-G16RevC.01  3-Jul-2019

 ----------------------------------------------------------------------
 #t hf aug-cc-pvdz iop(5/13=1,5/36=2,99/5=2) pseudo=read geom=check gue
 ss=(read,tcheck) scf=(maxcycle=1)
 ----------------------------------------------------------------------
 -----
 title
 -----
 Structure from the checkpoint file:  "Grambow2020_wb97xd3_006839_forward_mol1.chk"
 Charge =  0 Multiplicity = 1

                         Standard orientation:
 ---------------------------------------------------------------------
 Center     Atomic      Atomic             Coordinates (Angstroms)
 Number     Number       Type             X           Y           Z
 ---------------------------------------------------------------------
      1          7           0       -2.465603   -0.436790    0.027085
      2          6           0       -1.118856   -0.105451   -0.015782
      3          6           0       -0.599870    1.193857   -0.061766
      4          7           0        0.750494    1.192518   -0.014965
      5          6           0        1.102125   -0.178661    0.116645
      6          8           0        2.372063   -0.583069   -0.137874
      7          6           0       -0.043361   -0.983585    0.094325
      8          1           0       -3.080109    0.264960   -0.350200
      9          1           0       -2.687461   -1.353174   -0.323442
     10          1           0       -1.145007    2.124933   -0.005887
     11          1           0        1.077679    0.644082    1.119746
     12          1           0        2.884829    0.197120   -0.369185
     13          1           0       -0.060905   -2.060430    0.146594
 ---------------------------------------------------------------------

 SCF Done:  E(RHF) =  -340.210186179     A.U. after    2 cycles

 The electronic state is 1-A.
 Alpha  occ. eigenvalues --  -21.10789 -15.76679 -15.76148 -11.50407 -11.46335
 Alpha  occ. eigenvalues --  -11.40194 -11.36511  -1.77374  -1.49222  -1.34019
 Alpha  occ. eigenvalues --   -1.10062  -1.01973  -0.80666  -0.79080  -0.70726
 Alpha  occ. eigenvalues --   -0.67026  -0.65755  -0.60233  -0.54050  -0.51039
 Alpha  occ. eigenvalues --   -0.48700  -0.44839  -0.41240  -0.41022  -0.30605
 Alpha  occ. eigenvalues --   -0.26975
 Alpha virt. eigenvalues --    0.03449   0.05343   0.05434   0.05672   0.06836
 Alpha virt. eigenvalues --    0.07563   0.10571   0.11721   0.12061   0.12637
 Alpha virt. eigenvalues --    0.13134   0.13901   0.14214   0.14894   0.15417

 Mulliken charges:
               1
     1  N   -3.674899
     2  C    4.218005
     3  C   -0.860176
     4  N   -3.103812
     5  C    3.398852
     6  O   -3.453501
     7  C   -2.629773
     8  H    0.704218
     9  H    0.636071
    10  H    1.365670
    11  H    1.220893
    12  H    0.754493
    13  H    1.423958
 Sum of Mulliken charges =  -0.00000

 Dipole moment (field-independent basis, Debye):
    X=             -0.8992    Y=             -0.6334    Z=             -0.6362  Tot=              1.2706

 Test job not archived.
 1\1\GINC-SE219\SP\RHF\Aug-CC-pVDZ\C4H6N2O1\OHZDE\09-Apr-2025\0\\#t hf
 aug-cc-pvdz iop(5/13=1,5/36=2,99/5=2) pseudo=read geom=check guess=(re
 ad,tcheck) scf=(maxcycle=1)\\title\\0,1\N,0,-2.12658988,0.55371498,-0.
 58445297\C,0,-0.85697374,0.15374037,-0.19272991\C,0,-0.45450559,-1.166
 04856,0.04356836\N,0,0.8631457,-1.24041864,0.33329494\C,0,1.32859199,0
 .09864531,0.22669681\O,0,2.52211138,0.44948567,0.76844479\C,0,0.269862
 3,0.96387041,-0.07498995\H,0,-2.86093053,-0.08843271,-0.33786363\H,0,-
 2.36468888,1.50120363,-0.34481865\H,0,-1.03135052,-2.06808264,-0.10059

 Normal termination of Gaussian 16 at Wed Apr  9 18:17:17 2025.
