 Gaussian 16, Revision C.01,

 ----------------------------------------------------------------------
 #t hf aug-cc-pvdz symm=none int=(grid=ultrafine) guess=(read,tcheck) s
 table=(opt,rrhf)
 ----------------------------------------------------------------------
 -----
 title
 -----
 Symbolic Z-matrix:
 Charge =  0 Multiplicity = 1

 SCF Done:  E(RHF) =  -342.398751668     A.U. after   16 cycles
 Normal termination of Gaussian 16 at Wed Apr  9 19:26:05 2025.
 Gaussian 16:  ES64L-G16RevC.01  3-Jul-2019

 ----------------------------------------------------------------------
 #t hf aug-cc-pvdz iop(5/13=1,5/36=2,99/5=2) pseudo=read geom=check gue
 ss=(read,tcheck) scf=(maxcycle=1)
 ----------------------------------------------------------------------
 -----
 title
 -----
 Structure from the checkpoint file:  "Grambow2020_wb97xd3_008955_forward_mol1.chk"
 Charge =  0 Multiplicity = 1

                         Standard orientation:
 ---------------------------------------------------------------------
 Center     Atomic      Atomic             Coordinates (Angstroms)
 Number     Number       Type             X           Y           Z
 ---------------------------------------------------------------------
      1          8           0       -2.595066   -0.028351    0.066007
      2          6           0       -1.406452   -0.001835   -0.004532
      3          6           0       -0.365995    1.116884    0.040784
      4          6           0        0.703129    0.020883    0.089498
      5          6           0        1.910477   -0.018492    0.926230
      6          8           0        1.809140    0.048313   -0.821653
      7          6           0       -0.333858   -1.087473   -0.122944
      8          1           0       -0.416877    1.787617    0.897886
      9          1           0       -0.343054    1.701126   -0.881804
     10          1           0        2.479385    0.637252   -0.172941
     11          1           0        2.200832   -1.056014    1.124746
     12          1           0       -0.297941   -1.529531   -1.120704
     13          1           0       -0.378744   -1.879952    0.623771
 ---------------------------------------------------------------------

 SCF Done:  E(RHF) =  -343.934635781     A.U. after    2 cycles

 The electronic state is 1-A.
 Alpha  occ. eigenvalues --  -21.11618 -21.07237 -11.54853 -11.49068 -11.43533
 Alpha  occ. eigenvalues --  -11.43222 -11.40957  -1.81135  -1.71880  -1.30414
 Alpha  occ. eigenvalues --   -1.02112  -1.00477  -0.83575  -0.76708  -0.69367
 Alpha  occ. eigenvalues --   -0.65520  -0.61635  -0.58898  -0.57713  -0.50604
 Alpha  occ. eigenvalues --   -0.46915  -0.45036  -0.40939  -0.37827  -0.33345
 Alpha  occ. eigenvalues --   -0.28525
 Alpha virt. eigenvalues --    0.03306   0.04798   0.05785   0.06086   0.06583
 Alpha virt. eigenvalues --    0.06752   0.07527   0.09372   0.09890   0.12101
 Alpha virt. eigenvalues --    0.12822   0.13153   0.13665   0.14058   0.14740

 Mulliken charges:
               1
     1  O   -3.139038
     2  C    4.183172
     3  C   -4.220023
     4  C    5.783818
     5  C   -3.192181
     6  O   -3.031502
     7  C   -3.889668
     8  H    1.328432
     9  H    1.244619
    10  H    1.265644
    11  H    1.140443
    12  H    1.238888
    13  H    1.287396
 Sum of Mulliken charges =  -0.00000

 Dipole moment (field-independent basis, Debye):
    X=              0.3976    Y=             -0.8063    Z=             -1.7591  Tot=              1.9755

 Test job not archived.
 1\1\GINC-SE028\SP\RHF\Aug-CC-pVDZ\C5H6O2\OHZDE\09-Apr-2025\0\\#t hf au
 g-cc-pvdz iop(5/13=1,5/36=2,99/5=2) pseudo=read geom=check guess=(read
 ,tcheck) scf=(maxcycle=1)\\title\\0,1\O,0,-2.76463344,-0.56097873,0.09
 506258\C,0,-1.60866037,-0.29388279,-0.00918683\C,0,-0.79939391,0.99343
 857,0.14581501\C,0,0.45988913,0.13031102,0.01998641\C,0,1.69752948,0.2
 2868242,0.80607144\O,0,1.48769938,0.48241861,-0.91480432\C,0,-0.357299
 88,-1.12630283,-0.29946867\H,0,-0.92903375,1.53404389,1.08285049\H,0,-
 0.93977707,1.67668355,-0.69472179\H,0,2.06875746,1.10955702,-0.2176874

 Normal termination of Gaussian 16 at Wed Apr  9 19:26:09 2025.
