 Gaussian 16, Revision C.01,

 ----------------------------------------------------------------------
 #t hf aug-cc-pvdz symm=none int=(grid=ultrafine) guess=(read,tcheck) s
 table=(opt,rrhf)
 ----------------------------------------------------------------------
 -----
 title
 -----
 Symbolic Z-matrix:
 Charge =  0 Multiplicity = 1

 SCF Done:  E(RHF) =  -360.835996144     A.U. after   13 cycles
 Normal termination of Gaussian 16 at Wed Apr  9 03:58:13 2025.
 Gaussian 16:  ES64L-G16RevC.01  3-Jul-2019

 ----------------------------------------------------------------------
 #t hf aug-cc-pvdz iop(5/13=1,5/36=2,99/5=2) pseudo=read geom=check gue
 ss=(read,tcheck) scf=(maxcycle=1)
 ----------------------------------------------------------------------
 -----
 title
 -----
 Structure from the checkpoint file:  "Grambow2020_wb97xd3_008682_reverse_mol2.chk"
 Charge =  0 Multiplicity = 1

                         Standard orientation:
 ---------------------------------------------------------------------
 Center     Atomic      Atomic             Coordinates (Angstroms)
 Number     Number       Type             X           Y           Z
 ---------------------------------------------------------------------
      1          6           0       -2.576181   -1.217588   -0.049578
      2          7           0       -2.182397    0.021578    0.200429
      3          6           0       -2.637467    1.205138   -0.176898
      4          6           0        0.975205   -0.068835   -0.326438
      5          8           0        0.652308    0.058664    0.826671
      6          8           0        2.218433   -0.083327   -0.770101
      7          6           0        3.240824    0.067612    0.221659
      8          1           0       -2.026372   -2.021308    0.408990
      9          1           0        0.267162   -0.190736   -1.156142
     10          1           0       -3.460319   -1.386596   -0.643698
     11          1           0       -1.331368    0.070793    0.761395
     12          1           0       -2.121910    2.079056    0.181621
     13          1           0       -3.525744    1.265791   -0.785666
     14          1           0        3.195245   -0.752095    0.938066
     15          1           0        3.118842    1.013180    0.748986
     16          1           0        4.181038    0.050208   -0.321579
 ---------------------------------------------------------------------

 SCF Done:  E(RHF) =  -362.466498833     A.U. after    2 cycles

 The electronic state is 1-A.
 Alpha  occ. eigenvalues --  -21.11866 -21.07503 -15.83845 -11.52261 -11.43017
 Alpha  occ. eigenvalues --  -11.36508 -11.36122  -1.87149  -1.68873  -1.44588
 Alpha  occ. eigenvalues --   -1.05118  -1.00938  -0.85010  -0.84399  -0.72077
 Alpha  occ. eigenvalues --   -0.69393  -0.65105  -0.61876  -0.58941  -0.57888
 Alpha  occ. eigenvalues --   -0.54419  -0.52789  -0.51810  -0.51384  -0.44208
 Alpha  occ. eigenvalues --   -0.34427  -0.33595  -0.21749
 Alpha virt. eigenvalues --    0.03199   0.05000   0.05534   0.05871   0.06047
 Alpha virt. eigenvalues --    0.06435   0.06806   0.07860   0.08335   0.10096
 Alpha virt. eigenvalues --    0.11102   0.11953   0.12600   0.14439   0.15088

 Mulliken charges:
               1
     1  C   -1.994959
     2  N   -2.702271
     3  C   -1.999867
     4  C    2.773279
     5  O   -2.549443
     6  O   -3.213296
     7  C   -3.070626
     8  H    1.406668
     9  H    2.081671
    10  H    1.452004
    11  H    1.070094
    12  H    1.408983
    13  H    1.457609
    14  H    1.296218
    15  H    1.301859
    16  H    1.282078
 Sum of Mulliken charges =  -0.00000

 Dipole moment (field-independent basis, Debye):
    X=              3.0330    Y=              0.0534    Z=              0.0843  Tot=              3.0347

 Test job not archived.
 1\1\GINC-SE097\SP\RHF\Aug-CC-pVDZ\C4H9N1O2\OHZDE\09-Apr-2025\0\\#t hf
 aug-cc-pvdz iop(5/13=1,5/36=2,99/5=2) pseudo=read geom=check guess=(re
 ad,tcheck) scf=(maxcycle=1)\\title\\0,1\C,0,-2.65775261,0.47451939,0.1
 8522674\N,0,-1.88836685,-0.40364819,0.80970202\C,0,-1.84309269,-0.8334
 1786,2.060113\C,0,1.07415989,0.41152909,-0.09314309\O,0,0.66927505,-0.
 62840279,-0.54567815\O,0,2.27890123,0.91108767,-0.29735758\C,0,3.14980
 477,0.13155402,-1.12531112\H,0,-2.49184945,0.62861022,-0.86704321\H,0,
 0.48357135,1.07687641,0.54959417\H,0,-3.45890578,0.95804836,0.72150588

 Normal termination of Gaussian 16 at Wed Apr  9 03:58:18 2025.
