 Gaussian 16, Revision C.01,

 ----------------------------------------------------------------------
 #t hf aug-cc-pvdz symm=none int=(grid=ultrafine) guess=(read,tcheck) s
 table=(opt,rrhf)
 ----------------------------------------------------------------------
 -----
 title
 -----
 Symbolic Z-matrix:
 Charge =  0 Multiplicity = 1

 SCF Done:  E(RHF) =  -305.670130814     A.U. after   15 cycles
 Normal termination of Gaussian 16 at Wed Apr  9 17:51:34 2025.
 Gaussian 16:  ES64L-G16RevC.01  3-Jul-2019

 ----------------------------------------------------------------------
 #t hf aug-cc-pvdz iop(5/13=1,5/36=2,99/5=2) pseudo=read geom=check gue
 ss=(read,tcheck) scf=(maxcycle=1)
 ----------------------------------------------------------------------
 -----
 title
 -----
 Structure from the checkpoint file:  "Grambow2020_wb97xd3_006211_forward_mol1.chk"
 Charge =  0 Multiplicity = 1

                         Standard orientation:
 ---------------------------------------------------------------------
 Center     Atomic      Atomic             Coordinates (Angstroms)
 Number     Number       Type             X           Y           Z
 ---------------------------------------------------------------------
      1          6           0        2.047973    0.029576   -0.406938
      2          8           0        0.987793   -0.764857    0.138034
      3          6           0        0.189264   -0.088574    0.883280
      4          6           0       -0.459930    1.304008   -0.369043
      5          6           0       -1.177605    0.161442    0.373469
      6          8           0       -1.736543   -0.832486   -0.418133
      7          1           0        2.589544    0.545900    0.396384
      8          1           0        0.792661    1.089646   -0.623846
      9          1           0        2.703768   -0.630681   -0.973484
     10          1           0        0.604976    0.561341    1.652738
     11          1           0       -0.769365    1.299339   -1.414004
     12          1           0       -0.600426    2.273700    0.096412
     13          1           0       -1.903345    0.469099    1.121468
     14          1           0       -1.026025   -1.268310   -0.899483
 ---------------------------------------------------------------------

 SCF Done:  E(RHF) =  -307.079294926     A.U. after    2 cycles

 The electronic state is 1-A.
 Alpha  occ. eigenvalues --  -21.11257 -21.09139 -11.52241 -11.47242 -11.37878
 Alpha  occ. eigenvalues --  -11.35244  -1.84860  -1.73644  -1.20595  -0.99152
 Alpha  occ. eigenvalues --   -0.89474  -0.84688  -0.73236  -0.65614  -0.62775
 Alpha  occ. eigenvalues --   -0.59653  -0.57490  -0.53891  -0.50895  -0.44123
 Alpha  occ. eigenvalues --   -0.42413  -0.38016  -0.33080  -0.25475
 Alpha virt. eigenvalues --    0.03760   0.04883   0.04959   0.05764   0.06171
 Alpha virt. eigenvalues --    0.06820   0.07194   0.07823   0.08771   0.11607
 Alpha virt. eigenvalues --    0.12386   0.12776   0.14193   0.14225   0.15191

 Mulliken charges:
               1
     1  C   -2.580922
     2  O   -3.158826
     3  C    0.845573
     4  C   -3.416787
     5  C    1.242971
     6  O   -3.293892
     7  H    1.142424
     8  H    2.105462
     9  H    1.254420
    10  H    1.525131
    11  H    1.001646
    12  H    1.048387
    13  H    1.602077
    14  H    0.682336
 Sum of Mulliken charges =  -0.00000

 Dipole moment (field-independent basis, Debye):
    X=             -1.1086    Y=              0.2769    Z=              1.1096  Tot=              1.5927

 Test job not archived.
 1\1\GINC-SE045\SP\RHF\Aug-CC-pVDZ\C4H8O2\OHZDE\09-Apr-2025\0\\#t hf au
 g-cc-pvdz iop(5/13=1,5/36=2,99/5=2) pseudo=read geom=check guess=(read
 ,tcheck) scf=(maxcycle=1)\\title\\0,1\C,0,1.58443052,-0.50768331,-0.99
 788321\O,0,0.3422297,0.13813396,-1.30112418\C,0,-0.65020779,-0.3593822
 6,-0.65463657\C,0,-0.08693654,-0.09628237,1.22753133\C,0,-1.26129095,0
 .47025716,0.40791881\O,0,-1.26247097,1.8428158,0.20050803\H,0,1.501481
 3,-1.59014371,-1.16102596\H,0,0.9637462,-0.40784945,0.53554101\H,0,2.3
 5471201,-0.06444401,-1.62811117\H,0,-0.78354856,-1.44068554,-0.6380762

 Normal termination of Gaussian 16 at Wed Apr  9 17:51:40 2025.
