 Gaussian 16, Revision C.01,

 ----------------------------------------------------------------------
 #t hf aug-cc-pvdz symm=none int=(grid=ultrafine) guess=(read,tcheck) s
 table=(opt,rrhf)
 ----------------------------------------------------------------------
 -----
 title
 -----
 Symbolic Z-matrix:
 Charge =  0 Multiplicity = 1

 SCF Done:  E(RHF) =  -270.999162192     A.U. after   16 cycles

 1\1\GINC-SE226\Stability\RHF\Aug-CC-pVDZ\C5H12O1\OHZDE\09-Apr-2025\0\\
 #t hf aug-cc-pvdz symm=none int=(grid=ultrafine) guess=(read,tcheck) s
 table=(opt,rrhf)\\title\\0,1\C,0,-2.6068401,-0.20300631,0.2072237\C,0,
 -1.38940937,0.29859843,-0.61266552\C,0,-0.15105402,0.67573569,0.164235
 4\O,0,0.32265537,-0.61800531,1.00715669\C,0,1.58205912,-0.52668705,-0.
 27987012\C,0,2.65393168,0.47928136,0.01989091\H,0,-3.44901079,-0.47496
 463,-0.44687559\H,0,-2.36918745,-1.09889149,0.80498369\H,0,-2.94754919
 ,0.57270195,0.90706122\H,0,-1.15439639,-0.45308543,-1.39144042\H,0,-1.

 Normal termination of Gaussian 16 at Wed Apr  9 16:24:12 2025.
 Gaussian 16:  ES64L-G16RevC.01  3-Jul-2019

 ----------------------------------------------------------------------
 #t hf aug-cc-pvdz iop(5/13=1,5/36=2,99/5=2) pseudo=read geom=check gue
 ss=(read,tcheck) scf=(maxcycle=1)
 ----------------------------------------------------------------------
 -----
 title
 -----
 Structure from the checkpoint file:  "Grambow2020_b97d3_006799_reverse_mol1.chk"
 Charge =  0 Multiplicity = 1

                         Standard orientation:
 ---------------------------------------------------------------------
 Center     Atomic      Atomic             Coordinates (Angstroms)
 Number     Number       Type             X           Y           Z
 ---------------------------------------------------------------------
      1          6           0       -2.663832    0.172167   -0.016283
      2          6           0       -1.437055   -0.726094    0.290490
      3          6           0       -0.185848   -0.472359   -0.515383
      4          8           0        0.257034    1.062858   -0.279482
      5          6           0        1.512914    0.162772    0.649756
      6          6           0        2.612313   -0.373311   -0.218966
      7          1           0       -3.515689   -0.072162    0.636175
      8          1           0       -2.447435    1.243050    0.134674
      9          1           0       -2.980898    0.049633   -1.061287
     10          1           0       -1.225348   -0.675666    1.376486
     11          1           0       -1.718676   -1.774679    0.096279
     12          1           0       -0.424058   -0.483024   -1.593665
     13          1           0       -0.406712    1.510513    0.298741
     14          1           0        1.817036    1.111045    1.131424
     15          1           0        1.118209   -0.524624    1.397161
     16          1           0        3.579037   -0.265985    0.310420
     17          1           0        2.429731   -1.417527   -0.487301
     18          1           0        2.687578    0.217511   -1.140934
 ---------------------------------------------------------------------

 SCF Done:  E(RHF) =  -272.359584255     A.U. after    2 cycles

 The electronic state is 1-A.
 Alpha  occ. eigenvalues --  -21.07797 -11.50164 -11.39347 -11.38520 -11.35908
 Alpha  occ. eigenvalues --  -11.32139  -1.70088  -1.15839  -1.14381  -0.93444
 Alpha  occ. eigenvalues --   -0.88984  -0.78783  -0.65981  -0.63384  -0.59967
 Alpha  occ. eigenvalues --   -0.55826  -0.54356  -0.52694  -0.51259  -0.49390
 Alpha  occ. eigenvalues --   -0.47992  -0.45060  -0.38836  -0.37156  -0.22552
 Alpha virt. eigenvalues --    0.03950   0.04916   0.05023   0.05322   0.06100
 Alpha virt. eigenvalues --    0.06209   0.06481   0.06723   0.07773   0.08173
 Alpha virt. eigenvalues --    0.09040   0.09744   0.11493   0.13095   0.13858

 Mulliken charges:
               1
     1  C   -3.519907
     2  C   -3.420874
     3  C   -0.574832
     4  O   -2.224098
     5  C   -2.206195
     6  C   -3.716475
     7  H    1.163532
     8  H    1.287999
     9  H    1.267421
    10  H    1.502098
    11  H    1.450722
    12  H    1.388447
    13  H    1.069712
    14  H    1.126153
    15  H    1.529123
    16  H    1.155421
    17  H    1.342213
    18  H    1.379541
 Sum of Mulliken charges =  -0.00000

 Dipole moment (field-independent basis, Debye):
    X=              1.0316    Y=              1.5730    Z=              1.0186  Tot=              2.1391

 Test job not archived.
 1\1\GINC-SE226\SP\RHF\Aug-CC-pVDZ\C5H12O1\OHZDE\09-Apr-2025\0\\#t hf a
 ug-cc-pvdz iop(5/13=1,5/36=2,99/5=2) pseudo=read geom=check guess=(rea
 d,tcheck) scf=(maxcycle=1)\\title\\0,1\C,0,-2.6068401,-0.20300631,0.20
 72237\C,0,-1.38940937,0.29859843,-0.61266552\C,0,-0.15105402,0.6757356
 9,0.1642354\O,0,0.32265537,-0.61800531,1.00715669\C,0,1.58205912,-0.52
 668705,-0.27987012\C,0,2.65393168,0.47928136,0.01989091\H,0,-3.4490107
 9,-0.47496463,-0.44687559\H,0,-2.36918745,-1.09889149,0.80498369\H,0,-
 2.94754919,0.57270195,0.90706122\H,0,-1.15439639,-0.45308543,-1.391440

 Normal termination of Gaussian 16 at Wed Apr  9 16:24:18 2025.
