 Gaussian 16, Revision C.01,

 ----------------------------------------------------------------------
 #t hf aug-cc-pvdz symm=none int=(grid=ultrafine) guess=(read,tcheck) s
 table=(opt,rrhf)
 ----------------------------------------------------------------------
 -----
 title
 -----
 Symbolic Z-matrix:
 Charge =  0 Multiplicity = 1

 SCF Done:  E(RHF) =  -338.579370393     A.U. after   16 cycles
 Normal termination of Gaussian 16 at Wed Apr  9 19:17:58 2025.
 Gaussian 16:  ES64L-G16RevC.01  3-Jul-2019

 ----------------------------------------------------------------------
 #t hf aug-cc-pvdz iop(5/13=1,5/36=2,99/5=2) pseudo=read geom=check gue
 ss=(read,tcheck) scf=(maxcycle=1)
 ----------------------------------------------------------------------
 -----
 title
 -----
 Structure from the checkpoint file:  "Grambow2020_wb97xd3_008563_reverse_mol1.chk"
 Charge =  0 Multiplicity = 1

                         Standard orientation:
 ---------------------------------------------------------------------
 Center     Atomic      Atomic             Coordinates (Angstroms)
 Number     Number       Type             X           Y           Z
 ---------------------------------------------------------------------
      1          7           0       -2.079515    0.204506    0.696188
      2          6           0       -1.434978   -0.002538   -0.340605
      3          8           0        0.135738    1.193762   -0.676960
      4          6           0        1.020053    1.104519    0.258158
      5          6           0        1.830322   -0.491308    0.278550
      6          6           0        0.676353   -1.194134   -0.044951
      7          7           0       -0.431595   -1.315174   -0.391434
      8          1           0       -1.705149   -0.152781    1.564151
      9          1           0       -1.751717    0.182874   -1.355221
     10          1           0        0.655463    1.175854    1.301786
     11          1           0        1.926452    1.709906    0.120417
     12          1           0        2.569407   -0.506008   -0.518179
     13          1           0        2.246904   -0.684492    1.262536
 ---------------------------------------------------------------------

 SCF Done:  E(RHF) =  -340.152465391     A.U. after    2 cycles

 The electronic state is 1-A.
 Alpha  occ. eigenvalues --  -20.98246 -15.80358 -15.72845 -11.52797 -11.51161
 Alpha  occ. eigenvalues --  -11.46061 -11.43080  -1.66604  -1.43550  -1.31851
 Alpha  occ. eigenvalues --   -1.15936  -0.91501  -0.89543  -0.74037  -0.69857
 Alpha  occ. eigenvalues --   -0.67399  -0.62957  -0.61209  -0.59134  -0.52794
 Alpha  occ. eigenvalues --   -0.49052  -0.44866  -0.42202  -0.38576  -0.27714
 Alpha  occ. eigenvalues --   -0.25026
 Alpha virt. eigenvalues --    0.02945   0.04919   0.05108   0.05678   0.06334
 Alpha virt. eigenvalues --    0.06825   0.06999   0.09016   0.10472   0.11237
 Alpha virt. eigenvalues --    0.11730   0.12974   0.13394   0.13920   0.14036

 Mulliken charges:
               1
     1  N   -3.139682
     2  C    1.589755
     3  O   -2.410241
     4  C   -0.324837
     5  C   -3.023094
     6  C    2.509700
     7  N   -2.638860
     8  H    0.638257
     9  H    1.617644
    10  H    1.421807
    11  H    1.101240
    12  H    1.306676
    13  H    1.351634
 Sum of Mulliken charges =  -0.00000

 Dipole moment (field-independent basis, Debye):
    X=              3.0647    Y=             -1.0706    Z=              0.2075  Tot=              3.2530

 Test job not archived.
 1\1\GINC-SE028\SP\RHF\Aug-CC-pVDZ\C4H6N2O1\OHZDE\09-Apr-2025\0\\#t hf
 aug-cc-pvdz iop(5/13=1,5/36=2,99/5=2) pseudo=read geom=check guess=(re
 ad,tcheck) scf=(maxcycle=1)\\title\\0,1\N,0,-1.62351177,0.96516245,-1.
 43389629\C,0,-1.45898629,0.89907041,-0.20841712\O,0,-0.90794007,-0.879
 16245,0.53026557\C,0,0.2207734,-1.27457242,0.0464481\C,0,1.589453,-0.2
 6046028,0.59590944\C,0,0.86490163,0.92378727,0.54255918\N,0,-0.0967993
 3,1.57677745,0.43775164\H,0,-0.80239109,1.05144163,-2.01654534\H,0,-2.
 21857925,0.94455723,0.55649777\H,0,0.34066847,-1.22293079,-1.05361215\

 Normal termination of Gaussian 16 at Wed Apr  9 19:18:02 2025.
