 Gaussian 16, Revision C.01,

 ----------------------------------------------------------------------
 #t hf aug-cc-pvdz symm=none int=(grid=ultrafine) guess=(read,tcheck) s
 table=(opt,rrhf)
 ----------------------------------------------------------------------
 -----
 title
 -----
 Symbolic Z-matrix:
 Charge =  0 Multiplicity = 1

 SCF Done:  E(RHF) =  -304.522800020     A.U. after   15 cycles
 Normal termination of Gaussian 16 at Wed Apr  9 03:14:23 2025.
 Gaussian 16:  ES64L-G16RevC.01  3-Jul-2019

 ----------------------------------------------------------------------
 #t hf aug-cc-pvdz iop(5/13=1,5/36=2,99/5=2) pseudo=read geom=check gue
 ss=(read,tcheck) scf=(maxcycle=1)
 ----------------------------------------------------------------------
 -----
 title
 -----
 Structure from the checkpoint file:  "Grambow2020_b97d3_006921_reverse_mol2.chk"
 Charge =  0 Multiplicity = 1

                         Standard orientation:
 ---------------------------------------------------------------------
 Center     Atomic      Atomic             Coordinates (Angstroms)
 Number     Number       Type             X           Y           Z
 ---------------------------------------------------------------------
      1          8           0        2.744484   -0.391285    0.264495
      2          6           0       -0.019883   -0.372711   -0.542086
      3          6           0        0.035733    1.164519   -0.522816
      4          6           0       -0.442364    0.432588    0.682433
      5          8           0       -1.827204   -0.123898    0.593052
      6          6           0       -1.366234   -0.771989   -0.500942
      7          1           0        3.206027   -0.213198   -0.574339
      8          1           0        1.034080    1.586824   -0.389297
      9          1           0       -0.643469    1.744990   -1.151746
     10          1           0       -0.005025    0.433891    1.676548
     11          1           0       -2.046379   -1.401186   -1.078000
     12          1           0        1.873012   -0.744299   -0.043074
 ---------------------------------------------------------------------

 SCF Done:  E(RHF) =  -305.890861352     A.U. after    2 cycles

 The electronic state is 1-A.
 Alpha  occ. eigenvalues --  -21.12442 -21.05837 -11.52723 -11.47835 -11.43740
 Alpha  occ. eigenvalues --  -11.37519  -1.84881  -1.62304  -1.27707  -1.00619
 Alpha  occ. eigenvalues --   -0.89397  -0.78707  -0.67007  -0.64073  -0.60821
 Alpha  occ. eigenvalues --   -0.58373  -0.52061  -0.48447  -0.44777  -0.42491
 Alpha  occ. eigenvalues --   -0.33678  -0.32332  -0.29766
 Alpha virt. eigenvalues --    0.03374   0.04894   0.05945   0.06126   0.06868
 Alpha virt. eigenvalues --    0.07583   0.08991   0.09366   0.10691   0.11760
 Alpha virt. eigenvalues --    0.12466   0.12785   0.14343   0.14810   0.15576

 Mulliken charges:
               1
     1  O   -2.235176
     2  C   -1.907645
     3  C   -2.855174
     4  C    0.991862
     5  O   -2.877020
     6  C    1.150037
     7  H    0.664437
     8  H    1.437626
     9  H    1.171986
    10  H    1.355584
    11  H    1.443046
    12  H    1.660436
 Sum of Mulliken charges =   0.00000

 Dipole moment (field-independent basis, Debye):
    X=             -3.2694    Y=              1.0878    Z=             -0.1875  Tot=              3.4507

 Test job not archived.
 1\1\GINC-SE083\SP\RHF\Aug-CC-pVDZ\C4H6O2\OHZDE\09-Apr-2025\0\\#t hf au
 g-cc-pvdz iop(5/13=1,5/36=2,99/5=2) pseudo=read geom=check guess=(read
 ,tcheck) scf=(maxcycle=1)\\title\\0,1\O,0,0.27325811,-1.66880503,-2.00
 988903\C,0,0.53744726,-0.07767932,0.37572794\C,0,-0.9886106,-0.1693287
 4,0.54686202\C,0,-0.39855216,1.00158227,-0.1586337\O,0,0.25052023,2.02
 405719,0.71811996\C,0,1.01095191,0.99318213,1.15214631\H,0,0.18212555,
 -2.5688423,-1.64932384\H,0,-1.48680123,-0.86278566,-0.13415795\H,0,-1.
 43467268,-0.07895036,1.54017698\H,0,-0.56215026,1.30788495,-1.18768509

 Normal termination of Gaussian 16 at Wed Apr  9 03:14:29 2025.
