 Gaussian 16, Revision C.01,

 ----------------------------------------------------------------------
 #t hf aug-cc-pvdz symm=none int=(grid=ultrafine) guess=(read,tcheck) s
 table=(opt,rrhf)
 ----------------------------------------------------------------------
 -----
 title
 -----
 Symbolic Z-matrix:
 Charge =  0 Multiplicity = 1

 SCF Done:  E(RHF) =  -322.576129702     A.U. after   16 cycles
 Normal termination of Gaussian 16 at Wed Apr  9 18:18:18 2025.
 Gaussian 16:  ES64L-G16RevC.01  3-Jul-2019

 ----------------------------------------------------------------------
 #t hf aug-cc-pvdz iop(5/13=1,5/36=2,99/5=2) pseudo=read geom=check gue
 ss=(read,tcheck) scf=(maxcycle=1)
 ----------------------------------------------------------------------
 -----
 title
 -----
 Structure from the checkpoint file:  "Grambow2020_wb97xd3_006857_forward_mol1.chk"
 Charge =  0 Multiplicity = 1

                         Standard orientation:
 ---------------------------------------------------------------------
 Center     Atomic      Atomic             Coordinates (Angstroms)
 Number     Number       Type             X           Y           Z
 ---------------------------------------------------------------------
      1          6           0       -1.943507   -0.540968    0.648579
      2          6           0       -1.109936   -0.349951   -0.456926
      3          6           0        0.150245   -0.993777   -0.561497
      4          6           0        1.021017   -0.053590   -0.053920
      5          7           0        2.330781   -0.210644    0.331597
      6          6           0        0.212880    1.094713    0.259515
      7          8           0       -0.911879    1.007405   -0.562892
      8          1           0       -0.797796    0.315768    1.264168
      9          1           0       -2.049704   -1.534762    1.070899
     10          1           0       -2.786205    0.127133    0.786723
     11          1           0        0.311904   -2.057866   -0.643887
     12          1           0        2.777651   -1.064197    0.046609
     13          1           0        2.924793    0.596111    0.251240
     14          1           0        0.614731    2.094517    0.391699
 ---------------------------------------------------------------------

 SCF Done:  E(RHF) =  -324.103137819     A.U. after    2 cycles

 The electronic state is 1-A.
 Alpha  occ. eigenvalues --  -21.06322 -15.77341 -11.50315 -11.45162 -11.42402
 Alpha  occ. eigenvalues --  -11.40379 -11.37366  -1.83210  -1.38251  -1.17840
 Alpha  occ. eigenvalues --   -1.08855  -0.96725  -0.79240  -0.78016  -0.70208
 Alpha  occ. eigenvalues --   -0.67889  -0.64690  -0.60117  -0.52864  -0.50428
 Alpha  occ. eigenvalues --   -0.49035  -0.46924  -0.40377  -0.35131  -0.31235
 Alpha  occ. eigenvalues --   -0.26951
 Alpha virt. eigenvalues --    0.03319   0.04710   0.05094   0.05807   0.06699
 Alpha virt. eigenvalues --    0.07591   0.07862   0.09052   0.10344   0.10946
 Alpha virt. eigenvalues --    0.11896   0.12807   0.13206   0.13430   0.14989

 Mulliken charges:
               1
     1  C   -3.097587
     2  C    0.683520
     3  C   -0.938627
     4  C    3.370295
     5  N   -3.493059
     6  C   -0.890822
     7  O   -3.156394
     8  H    1.021564
     9  H    1.232924
    10  H    1.278922
    11  H    1.377113
    12  H    0.690117
    13  H    0.626469
    14  H    1.295567
 Sum of Mulliken charges =  -0.00000

 Dipole moment (field-independent basis, Debye):
    X=              2.0863    Y=             -0.2408    Z=              0.1913  Tot=              2.1088

 Test job not archived.
 1\1\GINC-SE028\SP\RHF\Aug-CC-pVDZ\C5H7N1O1\OHZDE\09-Apr-2025\0\\#t hf
 aug-cc-pvdz iop(5/13=1,5/36=2,99/5=2) pseudo=read geom=check guess=(re
 ad,tcheck) scf=(maxcycle=1)\\title\\0,1\C,0,2.08103249,-0.02346056,-0.
 10349652\C,0,1.04352426,-0.1219958,0.82781133\C,0,-0.0720669,-0.972686
 09,0.61500733\C,0,-0.99911185,-0.12939381,0.04118065\N,0,-2.16662527,-
 0.44698406,-0.61060024\C,0,-0.37755317,1.16778803,0.01099948\O,0,0.579
 3273,1.15765373,1.0275314\H,0,0.92316997,0.70745537,-0.84559869\H,0,2.
 44465213,-0.92062515,-0.59353346\H,0,2.7947037,0.78669092,-0.00393837\

 Normal termination of Gaussian 16 at Wed Apr  9 18:18:22 2025.
