 Gaussian 16, Revision C.01,

 ----------------------------------------------------------------------
 #t hf aug-cc-pvdz symm=none int=(grid=ultrafine) guess=(read,tcheck) s
 table=(opt,rrhf)
 ----------------------------------------------------------------------
 -----
 title
 -----
 Symbolic Z-matrix:
 Charge =  0 Multiplicity = 1

 SCF Done:  E(RHF) =  -320.356700404     A.U. after   16 cycles
 Normal termination of Gaussian 16 at Wed Apr  9 18:46:18 2025.
 Gaussian 16:  ES64L-G16RevC.01  3-Jul-2019

 ----------------------------------------------------------------------
 #t hf aug-cc-pvdz iop(5/13=1,5/36=2,99/5=2) pseudo=read geom=check gue
 ss=(read,tcheck) scf=(maxcycle=1)
 ----------------------------------------------------------------------
 -----
 title
 -----
 Structure from the checkpoint file:  "Grambow2020_wb97xd3_007649_reverse_mol2.chk"
 Charge =  0 Multiplicity = 1

                         Standard orientation:
 ---------------------------------------------------------------------
 Center     Atomic      Atomic             Coordinates (Angstroms)
 Number     Number       Type             X           Y           Z
 ---------------------------------------------------------------------
      1          7           0        2.735636   -0.372013   -0.000157
      2          6           0        1.597155   -0.221655   -0.000526
      3          6           0        0.186189    0.032286    0.000059
      4          6           0       -0.267288    1.463367    0.001039
      5          8           0       -1.416567    1.794450   -0.000880
      6          6           0       -1.575238   -1.884310    0.000255
      7          6           0       -0.684233   -0.953343   -0.000351
      8          1           0        0.558951    2.198258    0.003285
      9          1           0       -1.956237   -2.283596    0.933194
     10          1           0       -1.959146   -2.284237   -0.931197
 ---------------------------------------------------------------------

 SCF Done:  E(RHF) =  -321.765988432     A.U. after    2 cycles

 The electronic state is 1-A.
 Alpha  occ. eigenvalues --  -21.08708 -15.77605 -11.52220 -11.49972 -11.48624
 Alpha  occ. eigenvalues --  -11.46442 -11.44458  -1.73889  -1.34906  -1.24625
 Alpha  occ. eigenvalues --   -1.11370  -0.90976  -0.81678  -0.72559  -0.66122
 Alpha  occ. eigenvalues --   -0.64841  -0.56224  -0.54994  -0.53199  -0.47302
 Alpha  occ. eigenvalues --   -0.46075  -0.41952  -0.36134  -0.32379
 Alpha virt. eigenvalues --    0.02118   0.05060   0.05552   0.06481   0.07446
 Alpha virt. eigenvalues --    0.08544   0.09550   0.10451   0.10607   0.10884
 Alpha virt. eigenvalues --    0.11766   0.12743   0.13700   0.14239   0.15853

 Mulliken charges:
               1
     1  N   -2.439566
     2  C    1.622953
     3  C    0.457725
     4  C    0.209399
     5  O   -2.789856
     6  C   -4.047881
     7  C    3.004785
     8  H    1.483957
     9  H    1.248564
    10  H    1.249920
 Sum of Mulliken charges =   0.00000

 Dipole moment (field-independent basis, Debye):
    X=             -3.4541    Y=             -1.2651    Z=              0.0019  Tot=              3.6785

 Test job not archived.
 1\1\GINC-SE116\SP\RHF\Aug-CC-pVDZ\C5H3N1O1\OHZDE\09-Apr-2025\0\\#t hf
 aug-cc-pvdz iop(5/13=1,5/36=2,99/5=2) pseudo=read geom=check guess=(re
 ad,tcheck) scf=(maxcycle=1)\\title\\0,1\N,0,2.88340132,-0.84188205,-0.
 0240164\C,0,1.81487563,-0.42299202,0.01511486\C,0,0.50627706,0.1584061
 9,0.08481849\C,0,0.40006907,1.59378869,0.51146707\O,0,-0.63669323,2.18
 301623,0.60310509\C,0,-1.64775293,-1.18254872,-0.49652559\C,0,-0.56709
 06,-0.53974433,-0.21446106\H,0,1.37204193,2.07023607,0.73731501\H,0,-2
 .18277919,-1.72780438,0.27250486\H,0,-2.04052604,-1.18940368,-1.506778

 Normal termination of Gaussian 16 at Wed Apr  9 18:46:22 2025.
