 Gaussian 16, Revision C.01,

 ----------------------------------------------------------------------
 #t hf aug-cc-pvdz symm=none int=(grid=ultrafine) guess=(read,tcheck) s
 table=(opt,rrhf)
 ----------------------------------------------------------------------
 -----
 title
 -----
 Symbolic Z-matrix:
 Charge =  0 Multiplicity = 1

 SCF Done:  E(RHF) =  -306.697631826     A.U. after   15 cycles
 Normal termination of Gaussian 16 at Wed Apr  9 04:04:48 2025.
 Gaussian 16:  ES64L-G16RevC.01  3-Jul-2019

 ----------------------------------------------------------------------
 #t hf aug-cc-pvdz iop(5/13=1,5/36=2,99/5=2) pseudo=read geom=check gue
 ss=(read,tcheck) scf=(maxcycle=1)
 ----------------------------------------------------------------------
 -----
 title
 -----
 Structure from the checkpoint file:  "Grambow2020_wb97xd3_009208_reverse_mol2.chk"
 Charge =  0 Multiplicity = 1

                         Standard orientation:
 ---------------------------------------------------------------------
 Center     Atomic      Atomic             Coordinates (Angstroms)
 Number     Number       Type             X           Y           Z
 ---------------------------------------------------------------------
      1          6           0       -1.868569   -1.468895   -0.046849
      2          6           0       -0.769119   -0.441377   -0.003611
      3          6           0       -1.020785    0.837688   -0.022388
      4          6           0       -1.270623    2.114067   -0.041095
      5          6           0        1.692895    0.066632    0.330408
      6          6           0        0.644482   -0.974183    0.037103
      7          8           0        2.705659    0.197104   -0.298482
      8          1           0       -2.848958   -1.000136   -0.108682
      9          1           0       -1.741519   -2.126263   -0.911093
     10          1           0       -1.838913   -2.097263    0.847532
     11          1           0       -1.417243    2.672509    0.876823
     12          1           0       -1.338777    2.658659   -0.976240
     13          1           0        1.480279    0.716816    1.203343
     14          1           0        0.711611   -1.727358    0.833858
     15          1           0        0.898566   -1.477389   -0.899095
 ---------------------------------------------------------------------

 SCF Done:  E(RHF) =  -308.133799862     A.U. after    2 cycles

 The electronic state is 1-A.
 Alpha  occ. eigenvalues --  -21.06259 -11.49219 -11.44758 -11.42809 -11.41595
 Alpha  occ. eigenvalues --  -11.40620 -11.38336  -1.71107  -1.28668  -1.10957
 Alpha  occ. eigenvalues --   -1.06266  -0.92443  -0.83105  -0.70627  -0.65022
 Alpha  occ. eigenvalues --   -0.62476  -0.60630  -0.59004  -0.56759  -0.55229
 Alpha  occ. eigenvalues --   -0.52010  -0.48621  -0.42715  -0.36448  -0.34585
 Alpha  occ. eigenvalues --   -0.28880
 Alpha virt. eigenvalues --    0.03097   0.04926   0.05000   0.05809   0.06108
 Alpha virt. eigenvalues --    0.06456   0.06534   0.07626   0.09162   0.11018
 Alpha virt. eigenvalues --    0.11400   0.12007   0.12654   0.13742   0.14148

 Mulliken charges:
               1
     1  C   -4.907604
     2  C    2.955553
     3  C    2.435258
     4  C   -4.766330
     5  C    1.463827
     6  C   -4.305046
     7  O   -2.805321
     8  H    1.267233
     9  H    1.161942
    10  H    1.067301
    11  H    1.271495
    12  H    1.297800
    13  H    1.457418
    14  H    1.261143
    15  H    1.145330
 Sum of Mulliken charges =   0.00000

 Dipole moment (field-independent basis, Debye):
    X=             -1.4813    Y=             -0.5831    Z=              0.4399  Tot=              1.6516

 Test job not archived.
 1\1\GINC-SE334\SP\RHF\Aug-CC-pVDZ\C6H8O1\OHZDE\09-Apr-2025\0\\#t hf au
 g-cc-pvdz iop(5/13=1,5/36=2,99/5=2) pseudo=read geom=check guess=(read
 ,tcheck) scf=(maxcycle=1)\\title\\0,1\C,0,1.53691275,-1.03081067,-0.84
 178446\C,0,0.38906582,-0.24279603,-0.26912756\C,0,0.55516179,0.9473400
 8,0.23652254\C,0,0.71963546,2.13479958,0.74130241\C,0,-2.11524625,-0.0
 1162595,0.05665131\C,0,-0.96294036,-0.91768732,-0.28937724\O,0,-2.9768
 3018,-0.28957145,0.84318503\H,0,2.47529227,-0.48593329,-0.75649585\H,0
 ,1.64020963,-1.98632765,-0.32071954\H,0,1.35809873,-1.25307175,-1.8973

 Normal termination of Gaussian 16 at Wed Apr  9 04:04:52 2025.
