 Gaussian 16, Revision C.01,

 ----------------------------------------------------------------------
 #t hf aug-cc-pvdz symm=none int=(grid=ultrafine) guess=(read,tcheck) s
 table=(opt,rrhf)
 ----------------------------------------------------------------------
 -----
 title
 -----
 Symbolic Z-matrix:
 Charge =  0 Multiplicity = 1

 SCF Done:  E(RHF) =  -271.783375863     A.U. after   15 cycles
 Normal termination of Gaussian 16 at Wed Apr  9 03:39:48 2025.
 Gaussian 16:  ES64L-G16RevC.01  3-Jul-2019

 ----------------------------------------------------------------------
 #t hf aug-cc-pvdz iop(5/13=1,5/36=2,99/5=2) pseudo=read geom=check gue
 ss=(read,tcheck) scf=(maxcycle=1)
 ----------------------------------------------------------------------
 -----
 title
 -----
 Structure from the checkpoint file:  "Grambow2020_wb97xd3_007434_reverse_mol1.chk"
 Charge =  0 Multiplicity = 1

                         Standard orientation:
 ---------------------------------------------------------------------
 Center     Atomic      Atomic             Coordinates (Angstroms)
 Number     Number       Type             X           Y           Z
 ---------------------------------------------------------------------
      1          6           0        2.306576   -0.619505   -0.310151
      2          6           0        0.977415    1.407513    0.266870
      3          6           0       -0.381132    1.110302    0.392450
      4          6           0       -1.198308    0.745642   -0.854814
      5          6           0       -1.449821   -0.675641   -0.382546
      6          6           0       -0.222158   -1.407914    0.065884
      7          6           0       -0.810581   -0.548017    0.978743
      8          1           0        2.908717   -0.082076    0.412739
      9          1           0        2.511850   -0.270449   -1.319097
     10          1           0        2.542384   -1.683584   -0.239355
     11          1           0        1.538258    1.780478    1.115785
     12          1           0        1.424994    1.537857   -0.704521
     13          1           0       -0.913058    1.670578    1.157196
     14          1           0       -0.655114    0.853120   -1.797265
     15          1           0       -2.118228    1.329944   -0.918868
     16          1           0       -2.368941   -1.213078   -0.594245
     17          1           0       -0.091256   -2.475766    0.139451
     18          1           0        1.013605   -0.861174   -0.195578
     19          1           0       -1.125161   -0.660126    2.005137
 ---------------------------------------------------------------------

 SCF Done:  E(RHF) =  -273.209729476     A.U. after    2 cycles

 The electronic state is 1-A.
 Alpha  occ. eigenvalues --  -11.50172 -11.43349 -11.41595 -11.40412 -11.38309
 Alpha  occ. eigenvalues --  -11.37283 -11.35353  -1.38912  -1.12877  -1.03556
 Alpha  occ. eigenvalues --   -0.97939  -0.85744  -0.80374  -0.75666  -0.70395
 Alpha  occ. eigenvalues --   -0.62157  -0.61213  -0.58758  -0.54517  -0.53417
 Alpha  occ. eigenvalues --   -0.52085  -0.50557  -0.43320  -0.39960  -0.38098
 Alpha  occ. eigenvalues --   -0.35038  -0.22254
 Alpha virt. eigenvalues --    0.03638   0.04623   0.05001   0.05233   0.05567
 Alpha virt. eigenvalues --    0.05951   0.06130   0.06487   0.06741   0.08585
 Alpha virt. eigenvalues --    0.08826   0.09306   0.10469   0.11600   0.12915

 Mulliken charges:
               1
     1  C   -5.749703
     2  C   -3.858442
     3  C   -0.525426
     4  C   -3.878825
     5  C   -0.895480
     6  C   -2.531226
     7  C   -1.065096
     8  H    0.995602
     9  H    0.730496
    10  H    0.670153
    11  H    1.278473
    12  H    1.546558
    13  H    1.312620
    14  H    1.262835
    15  H    1.317878
    16  H    1.291069
    17  H    0.993264
    18  H    6.021586
    19  H    1.083662
 Sum of Mulliken charges =   0.00000

 Dipole moment (field-independent basis, Debye):
    X=             -0.5839    Y=              0.0877    Z=              0.5963  Tot=              0.8392

 Test job not archived.
 1\1\GINC-SE332\SP\RHF\Aug-CC-pVDZ\C7H12\OHZDE\09-Apr-2025\0\\#t hf aug
 -cc-pvdz iop(5/13=1,5/36=2,99/5=2) pseudo=read geom=check guess=(read,
 tcheck) scf=(maxcycle=1)\\title\\0,1\C,0,1.02934698,0.43018377,-1.9158
 3261\C,0,1.42407258,-0.76351034,0.23537796\C,0,0.28086406,-0.76537843,
 1.03714192\C,0,-0.20034162,0.54361913,1.6785372\C,0,-1.48660841,0.5691
 3736,0.87156291\C,0,-1.30011909,0.36980047,-0.60151399\C,0,-1.31922967
 ,-0.76700971,0.18986007\H,0,1.62277301,-0.43762178,-2.17800039\H,0,1.6
 6810495,1.26501449,-1.63835355\H,0,0.42009763,0.71039063,-2.77791276\H

 Normal termination of Gaussian 16 at Wed Apr  9 03:39:55 2025.
