 Gaussian 16, Revision C.01,

 ----------------------------------------------------------------------
 #t hf aug-cc-pvdz symm=none int=(grid=ultrafine) guess=(read,tcheck) s
 table=(opt,rrhf)
 ----------------------------------------------------------------------
 -----
 title
 -----
 Symbolic Z-matrix:
 Charge =  0 Multiplicity = 1

 SCF Done:  E(RHF) =  -338.591880859     A.U. after   17 cycles
 Normal termination of Gaussian 16 at Wed Apr  9 19:16:56 2025.
 Gaussian 16:  ES64L-G16RevC.01  3-Jul-2019

 ----------------------------------------------------------------------
 #t hf aug-cc-pvdz iop(5/13=1,5/36=2,99/5=2) pseudo=read geom=check gue
 ss=(read,tcheck) scf=(maxcycle=1)
 ----------------------------------------------------------------------
 -----
 title
 -----
 Structure from the checkpoint file:  "Grambow2020_wb97xd3_008548_forward_mol1.chk"
 Charge =  0 Multiplicity = 1

                         Standard orientation:
 ---------------------------------------------------------------------
 Center     Atomic      Atomic             Coordinates (Angstroms)
 Number     Number       Type             X           Y           Z
 ---------------------------------------------------------------------
      1          6           0       -2.548638   -0.386572   -0.085436
      2          6           0       -1.085566   -0.111777   -0.002163
      3          7           0       -0.652344    1.121996   -0.047889
      4          8           0        0.676569    1.134628    0.010719
      5          6           0        1.093620   -0.230747    0.209199
      6          7           0        2.416638   -0.507693   -0.144616
      7          6           0       -0.036809   -1.107804    0.092549
      8          1           0       -3.108162    0.538924   -0.214899
      9          1           0       -2.756215   -1.052437   -0.923895
     10          1           0       -2.891316   -0.889003    0.820058
     11          1           0        3.052835    0.241097    0.081257
     12          1           0        2.507403   -0.782461   -1.109717
     13          1           0        0.897198   -0.411865    1.324082
 ---------------------------------------------------------------------

 SCF Done:  E(RHF) =  -340.123194998     A.U. after    2 cycles

 The electronic state is 1-A.
 Alpha  occ. eigenvalues --  -21.11539 -15.81634 -15.77038 -11.48690 -11.44376
 Alpha  occ. eigenvalues --  -11.40795 -11.38182  -1.91432  -1.37119  -1.30330
 Alpha  occ. eigenvalues --   -1.13276  -1.05696  -0.83447  -0.76774  -0.71458
 Alpha  occ. eigenvalues --   -0.66366  -0.63782  -0.58588  -0.57370  -0.51372
 Alpha  occ. eigenvalues --   -0.50115  -0.46416  -0.44075  -0.36768  -0.34467
 Alpha  occ. eigenvalues --   -0.32749
 Alpha virt. eigenvalues --    0.02926   0.05037   0.05493   0.05890   0.06559
 Alpha virt. eigenvalues --    0.06800   0.07605   0.10423   0.10746   0.11484
 Alpha virt. eigenvalues --    0.12254   0.13324   0.13581   0.14810   0.15494

 Mulliken charges:
               1
     1  C   -4.581776
     2  C    4.639191
     3  N   -0.943854
     4  O   -2.889442
     5  C    3.723765
     6  N   -3.210451
     7  C   -2.975038
     8  H    1.306635
     9  H    1.248584
    10  H    1.209831
    11  H    0.648418
    12  H    0.447213
    13  H    1.376923
 Sum of Mulliken charges =  -0.00000

 Dipole moment (field-independent basis, Debye):
    X=              1.2918    Y=              1.9236    Z=             -0.5151  Tot=              2.3737

 Test job not archived.
 1\1\GINC-SE116\SP\RHF\Aug-CC-pVDZ\C4H6N2O1\OHZDE\09-Apr-2025\0\\#t hf
 aug-cc-pvdz iop(5/13=1,5/36=2,99/5=2) pseudo=read geom=check guess=(re
 ad,tcheck) scf=(maxcycle=1)\\title\\0,1\C,0,-2.3687065,-0.01124782,-0.
 0075484\C,0,-0.88545646,0.01291335,-0.15725475\N,0,-0.34919074,-0.1367
 1498,-1.34131415\O,0,0.97706407,-0.11393227,-1.24064666\C,0,1.28108116
 ,0.17566245,0.13822308\N,0,2.5630623,-0.19074843,0.55598732\C,0,0.0760
 4282,0.15481673,0.9180655\H,0,-2.85026905,-0.19526214,-0.96703081\H,0,
 -2.66012649,-0.79157943,0.69646644\H,0,-2.72374823,0.93808633,0.395557

 Normal termination of Gaussian 16 at Wed Apr  9 19:17:00 2025.
