 Gaussian 16, Revision C.01,

 ----------------------------------------------------------------------
 #t hf aug-cc-pvdz symm=none int=(grid=ultrafine) guess=(read,tcheck) s
 table=(opt,rrhf)
 ----------------------------------------------------------------------
 -----
 title
 -----
 Symbolic Z-matrix:
 Charge =  0 Multiplicity = 1

 SCF Done:  E(RHF) =  -338.601607781     A.U. after   16 cycles
 Normal termination of Gaussian 16 at Wed Apr  9 19:22:02 2025.
 Gaussian 16:  ES64L-G16RevC.01  3-Jul-2019

 ----------------------------------------------------------------------
 #t hf aug-cc-pvdz iop(5/13=1,5/36=2,99/5=2) pseudo=read geom=check gue
 ss=(read,tcheck) scf=(maxcycle=1)
 ----------------------------------------------------------------------
 -----
 title
 -----
 Structure from the checkpoint file:  "Grambow2020_wb97xd3_008823_reverse_mol1.chk"
 Charge =  0 Multiplicity = 1

                         Standard orientation:
 ---------------------------------------------------------------------
 Center     Atomic      Atomic             Coordinates (Angstroms)
 Number     Number       Type             X           Y           Z
 ---------------------------------------------------------------------
      1          6           0        2.457721   -0.455166    0.075255
      2          6           0        1.008936   -0.133043    0.022637
      3          6           0       -0.125757   -0.972258   -0.123313
      4          6           0       -1.237112   -0.000544   -0.133917
      5          8           0       -2.376061   -0.528178    0.149760
      6          7           0       -0.814295    1.248799   -0.064232
      7          7           0        0.548798    1.100769    0.002510
      8          1           0        3.070622    0.446566    0.073052
      9          1           0        2.739733   -1.064997   -0.784485
     10          1           0        2.684476   -1.029238    0.974534
     11          1           0       -0.102374   -1.857675   -0.747292
     12          1           0       -1.252617   -1.285992    0.583421
     13          1           0        1.104401    1.935852    0.090778
 ---------------------------------------------------------------------

 SCF Done:  E(RHF) =  -340.158628773     A.U. after    2 cycles

 The electronic state is 1-A.
 Alpha  occ. eigenvalues --  -21.00418 -15.84568 -15.72734 -11.51737 -11.47407
 Alpha  occ. eigenvalues --  -11.44066 -11.39571  -1.71723  -1.58891  -1.24062
 Alpha  occ. eigenvalues --   -1.15682  -1.07704  -0.88082  -0.77850  -0.71603
 Alpha  occ. eigenvalues --   -0.67196  -0.62822  -0.60938  -0.58287  -0.55930
 Alpha  occ. eigenvalues --   -0.48645  -0.46593  -0.43714  -0.36205  -0.28009
 Alpha  occ. eigenvalues --   -0.24394
 Alpha virt. eigenvalues --    0.01867   0.04402   0.04777   0.05056   0.06569
 Alpha virt. eigenvalues --    0.07252   0.08808   0.09869   0.10382   0.11425
 Alpha virt. eigenvalues --    0.12193   0.12633   0.13259   0.14514   0.15034

 Mulliken charges:
               1
     1  C   -4.404410
     2  C    3.898504
     3  C   -3.829466
     4  C    5.309003
     5  O   -3.071468
     6  N   -2.283618
     7  N   -2.517959
     8  H    1.288223
     9  H    1.137455
    10  H    1.173810
    11  H    1.151755
    12  H    1.267443
    13  H    0.880727
 Sum of Mulliken charges =   0.00000

 Dipole moment (field-independent basis, Debye):
    X=              5.8294    Y=             -0.0771    Z=             -0.1994  Tot=              5.8333

 Test job not archived.
 1\1\GINC-SE056\SP\RHF\Aug-CC-pVDZ\C4H6N2O1\OHZDE\09-Apr-2025\0\\#t hf
 aug-cc-pvdz iop(5/13=1,5/36=2,99/5=2) pseudo=read geom=check guess=(re
 ad,tcheck) scf=(maxcycle=1)\\title\\0,1\C,0,-1.88192603,0.08852791,-0.
 11259926\C,0,-0.41137201,0.05441883,0.09189076\C,0,0.63697755,-0.37244
 446,-0.76359925\C,0,1.83267316,-0.17115707,0.07856894\O,0,2.92481446,-
 0.10014017,-0.59837879\N,0,1.52887958,0.25965665,1.28960001\N,0,0.1600
 505,0.35085167,1.24081613\H,0,-2.40882694,0.36434846,0.80122306\H,0,-2
 .24053774,-0.89045183,-0.434428\H,0,-2.13804657,0.80583042,-0.89334063

 Normal termination of Gaussian 16 at Wed Apr  9 19:22:06 2025.
