 Gaussian 16, Revision C.01,

 ----------------------------------------------------------------------
 #t hf aug-cc-pvdz symm=none int=(grid=ultrafine) guess=(read,tcheck) s
 table=(opt,rrhf)
 ----------------------------------------------------------------------
 -----
 title
 -----
 Symbolic Z-matrix:
 Charge =  0 Multiplicity = 1

 SCF Done:  E(RHF) =  -322.472423165     A.U. after   16 cycles
 Normal termination of Gaussian 16 at Wed Apr  9 18:39:35 2025.
 Gaussian 16:  ES64L-G16RevC.01  3-Jul-2019

 ----------------------------------------------------------------------
 #t hf aug-cc-pvdz iop(5/13=1,5/36=2,99/5=2) pseudo=read geom=check gue
 ss=(read,tcheck) scf=(maxcycle=1)
 ----------------------------------------------------------------------
 -----
 title
 -----
 Structure from the checkpoint file:  "Grambow2020_wb97xd3_007379_reverse_mol1.chk"
 Charge =  0 Multiplicity = 1

                         Standard orientation:
 ---------------------------------------------------------------------
 Center     Atomic      Atomic             Coordinates (Angstroms)
 Number     Number       Type             X           Y           Z
 ---------------------------------------------------------------------
      1          6           0        1.496191   -0.726062    0.584321
      2          6           0        0.287355   -1.002651   -0.257662
      3          6           0       -1.794138   -0.831778   -0.393049
      4          8           0       -0.853449   -0.051696    0.638108
      5          6           0       -0.562255    1.229134    0.278098
      6          7           0        0.524220    1.438872   -0.320822
      7          6           0        1.155573    0.171116   -0.581051
      8          1           0        1.384468   -0.325942    1.582176
      9          1           0        2.320615   -1.416605    0.454821
     10          1           0        0.242077   -1.888140   -0.864314
     11          1           0       -2.635899   -1.143329    0.228879
     12          1           0       -2.113598   -0.056597   -1.098343
     13          1           0       -1.310897    1.978268    0.520707
     14          1           0        1.774931    0.155251   -1.466980
 ---------------------------------------------------------------------

 SCF Done:  E(RHF) =  -323.974179608     A.U. after    2 cycles

 The electronic state is 1-A.
 Alpha  occ. eigenvalues --  -21.10054 -15.74639 -11.52154 -11.46922 -11.46237
 Alpha  occ. eigenvalues --  -11.40458 -11.35407  -1.84568  -1.40831  -1.25951
 Alpha  occ. eigenvalues --   -0.96636  -0.90143  -0.87094  -0.82180  -0.72544
 Alpha  occ. eigenvalues --   -0.65214  -0.61826  -0.59793  -0.55801  -0.51991
 Alpha  occ. eigenvalues --   -0.49865  -0.47466  -0.41619  -0.37414  -0.33894
 Alpha  occ. eigenvalues --   -0.24980
 Alpha virt. eigenvalues --    0.03769   0.04944   0.05161   0.05676   0.05895
 Alpha virt. eigenvalues --    0.06419   0.07205   0.09402   0.09946   0.11567
 Alpha virt. eigenvalues --    0.11903   0.13040   0.13511   0.13856   0.14325

 Mulliken charges:
               1
     1  C   -2.705694
     2  C    0.384229
     3  C   -2.946251
     4  O   -2.715746
     5  C    1.781128
     6  N   -3.140005
     7  C    0.085079
     8  H    1.258346
     9  H    1.237220
    10  H    1.314129
    11  H    1.169447
    12  H    1.297477
    13  H    1.622561
    14  H    1.358080
 Sum of Mulliken charges =   0.00000

 Dipole moment (field-independent basis, Debye):
    X=              1.3249    Y=             -0.0309    Z=              1.3018  Tot=              1.8577

 Test job not archived.
 1\1\GINC-SE029\SP\RHF\Aug-CC-pVDZ\C5H7N1O1\OHZDE\09-Apr-2025\0\\#t hf
 aug-cc-pvdz iop(5/13=1,5/36=2,99/5=2) pseudo=read geom=check guess=(re
 ad,tcheck) scf=(maxcycle=1)\\title\\0,1\C,0,-1.47659598,-0.76548415,0.
 4173202\C,0,-0.76832746,0.31950131,-0.33625898\C,0,0.72647227,1.781972
 18,-0.25323545\O,0,0.53744147,0.57354529,0.77665727\C,0,1.36191143,-0.
 4881994,0.55785578\N,0,0.91056996,-1.4554602,-0.10834298\C,0,-0.402644
 65,-1.10868305,-0.58661419\H,0,-1.26343913,-0.92939886,1.46421579\H,0,
 -2.50454305,-0.94023065,0.12392101\H,0,-1.30401206,0.92436663,-1.04431

 Normal termination of Gaussian 16 at Wed Apr  9 18:39:39 2025.
