 Gaussian 16, Revision C.01,

 ----------------------------------------------------------------------
 #t hf aug-cc-pvdz symm=none int=(grid=ultrafine) guess=(read,tcheck) s
 table=(opt,rrhf)
 ----------------------------------------------------------------------
 -----
 title
 -----
 Symbolic Z-matrix:
 Charge =  0 Multiplicity = 1

 SCF Done:  E(RHF) =  -269.951968113     A.U. after   13 cycles

 1\1\GINC-SE135\Stability\RHF\Aug-CC-pVDZ\C5H10O1\OHZDE\09-Apr-2025\0\\
 #t hf aug-cc-pvdz symm=none int=(grid=ultrafine) guess=(read,tcheck) s
 table=(opt,rrhf)\\title\\0,1\C,0,2.3914596,0.14047084,0.68233743\O,0,1
 .37559425,-0.83077213,0.51954788\C,0,0.15110965,-0.31996011,0.38856826
 \C,0,-0.39950214,0.90025271,0.36776234\C,0,-1.79374414,0.33221776,0.18
 21332\C,0,-1.12641309,-1.07935114,0.20364618\H,0,2.21674708,0.73212931
 ,1.58605777\H,0,2.42570917,0.8080882,-0.18397042\H,0,3.33261208,-0.396
 95713,0.76942971\H,0,-0.72744195,-0.06448584,-3.11775185\H,0,-0.023283

 Normal termination of Gaussian 16 at Wed Apr  9 17:50:33 2025.
 Gaussian 16:  ES64L-G16RevC.01  3-Jul-2019

 ----------------------------------------------------------------------
 #t hf aug-cc-pvdz iop(5/13=1,5/36=2,99/5=2) pseudo=read geom=check gue
 ss=(read,tcheck) scf=(maxcycle=1)
 ----------------------------------------------------------------------
 -----
 title
 -----
 Structure from the checkpoint file:  "Grambow2020_wb97xd3_006203_reverse_mol2.chk"
 Charge =  0 Multiplicity = 1

                         Standard orientation:
 ---------------------------------------------------------------------
 Center     Atomic      Atomic             Coordinates (Angstroms)
 Number     Number       Type             X           Y           Z
 ---------------------------------------------------------------------
      1          6           0       -2.306381    0.294465    0.018022
      2          8           0       -1.291348   -0.690979   -0.002122
      3          6           0       -0.057531   -0.198308   -0.113554
      4          6           0        0.503432    1.013146   -0.214665
      5          6           0        1.899688    0.425067   -0.289926
      6          6           0        1.221428   -0.975860   -0.164671
      7          1           0       -2.298992    0.873372   -0.910475
      8          1           0       -2.165969    0.971958    0.865763
      9          1           0       -3.254081   -0.228844    0.118991
     10          1           0        1.476116    0.081411    3.157697
     11          1           0        0.131302    2.027493   -0.241984
     12          1           0        1.074219    0.357593    2.592504
     13          1           0        2.567331    0.672198    0.538590
     14          1           0        2.431656    0.580011   -1.230886
     15          1           0        1.339322   -1.630831   -1.029319
     16          1           0        1.466066   -1.527591    0.744863
 ---------------------------------------------------------------------

 SCF Done:  E(RHF) =  -271.264852723     A.U. after    2 cycles

 The electronic state is 1-A.
 Alpha  occ. eigenvalues --  -21.07882 -11.48872 -11.42971 -11.41244 -11.38475
 Alpha  occ. eigenvalues --  -11.34882  -1.79499  -1.31106  -1.01549  -0.94814
 Alpha  occ. eigenvalues --   -0.89246  -0.72137  -0.67730  -0.64888  -0.61807
 Alpha  occ. eigenvalues --   -0.61070  -0.59996  -0.52920  -0.50087  -0.44169
 Alpha  occ. eigenvalues --   -0.43103  -0.42443  -0.39241  -0.26948
 Alpha virt. eigenvalues --    0.03997   0.05278   0.05511   0.05834   0.05984
 Alpha virt. eigenvalues --    0.06313   0.06729   0.07058   0.07748   0.09748
 Alpha virt. eigenvalues --    0.11572   0.12469   0.13262   0.13908   0.14113

 Mulliken charges:
               1
     1  C   -3.294887
     2  O   -3.908310
     3  C    5.647774
     4  C   -2.369093
     5  C   -2.995769
     6  C   -3.444811
     7  H    1.385084
     8  H    1.382917
     9  H    1.357621
    10  H    0.240866
    11  H    1.333803
    12  H   -0.290725
    13  H    1.239685
    14  H    1.233631
    15  H    1.225502
    16  H    1.256713
 Sum of Mulliken charges =  -0.00000

 Dipole moment (field-independent basis, Debye):
    X=             -0.8631    Y=             -0.0428    Z=             -0.0123  Tot=              0.8643

 Test job not archived.
 1\1\GINC-SE135\SP\RHF\Aug-CC-pVDZ\C5H10O1\OHZDE\09-Apr-2025\0\\#t hf a
 ug-cc-pvdz iop(5/13=1,5/36=2,99/5=2) pseudo=read geom=check guess=(rea
 d,tcheck) scf=(maxcycle=1)\\title\\0,1\C,0,2.3914596,0.14047084,0.6823
 3743\O,0,1.37559425,-0.83077213,0.51954788\C,0,0.15110965,-0.31996011,
 0.38856826\C,0,-0.39950214,0.90025271,0.36776234\C,0,-1.79374414,0.332
 21776,0.1821332\C,0,-1.12641309,-1.07935114,0.20364618\H,0,2.21674708,
 0.73212931,1.58605777\H,0,2.42570917,0.8080882,-0.18397042\H,0,3.33261
 208,-0.39695713,0.76942971\H,0,-0.72744195,-0.06448584,-3.11775185\H,0

 Normal termination of Gaussian 16 at Wed Apr  9 17:50:38 2025.
