 Gaussian 16, Revision C.01,

 ----------------------------------------------------------------------
 #t hf aug-cc-pvdz symm=none int=(grid=ultrafine) guess=(read,tcheck) s
 table=(opt,rrhf)
 ----------------------------------------------------------------------
 -----
 title
 -----
 Symbolic Z-matrix:
 Charge =  0 Multiplicity = 1

 SCF Done:  E(RHF) =  -343.606095773     A.U. after   15 cycles
 Normal termination of Gaussian 16 at Wed Apr  9 18:31:29 2025.
 Gaussian 16:  ES64L-G16RevC.01  3-Jul-2019

 ----------------------------------------------------------------------
 #t hf aug-cc-pvdz iop(5/13=1,5/36=2,99/5=2) pseudo=read geom=check gue
 ss=(read,tcheck) scf=(maxcycle=1)
 ----------------------------------------------------------------------
 -----
 title
 -----
 Structure from the checkpoint file:  "Grambow2020_wb97xd3_007228_reverse_mol2.chk"
 Charge =  0 Multiplicity = 1

                         Standard orientation:
 ---------------------------------------------------------------------
 Center     Atomic      Atomic             Coordinates (Angstroms)
 Number     Number       Type             X           Y           Z
 ---------------------------------------------------------------------
      1          8           0       -0.034050    1.579455   -0.556494
      2          6           0       -1.087326    1.173807    0.297703
      3          6           0       -1.029272   -0.305023    0.465589
      4          6           0        2.509383   -0.805812   -0.490542
      5          6           0        2.824170   -0.073482    0.564977
      6          6           0       -2.268672   -1.144772    0.476821
      7          8           0       -1.604151   -1.105553   -0.614889
      8          1           0       -0.087242    2.526739   -0.691615
      9          1           0       -2.063852    1.461965   -0.107930
     10          1           0       -0.984950    1.624640    1.293591
     11          1           0       -0.108312   -0.729249    0.849337
     12          1           0        2.986861   -1.759544   -0.685973
     13          1           0        1.759063   -0.471254   -1.198221
     14          1           0        2.339933    0.880003    0.744760
     15          1           0        3.574408   -0.392825    1.279827
 ---------------------------------------------------------------------

 SCF Done:  E(RHF) =  -345.147273581     A.U. after    2 cycles

 The electronic state is 1-A.
 Alpha  occ. eigenvalues --  -21.14606 -21.08860 -11.49058 -11.45501 -11.42077
 Alpha  occ. eigenvalues --  -11.40322 -11.36710  -1.87299  -1.72832  -1.13296
 Alpha  occ. eigenvalues --   -1.09934  -0.89658  -0.81723  -0.80538  -0.69014
 Alpha  occ. eigenvalues --   -0.65438  -0.63840  -0.60238  -0.55905  -0.55417
 Alpha  occ. eigenvalues --   -0.48982  -0.46197  -0.44361  -0.41420  -0.35891
 Alpha  occ. eigenvalues --   -0.34261  -0.33514
 Alpha virt. eigenvalues --    0.03695   0.04947   0.05197   0.05452   0.05997
 Alpha virt. eigenvalues --    0.06708   0.07321   0.07686   0.09471   0.10264
 Alpha virt. eigenvalues --    0.10536   0.11233   0.12093   0.13654   0.14220

 Mulliken charges:
               1
     1  O   -2.509529
     2  C   -1.029878
     3  C    1.491079
     4  C   -2.884275
     5  C   -2.867556
     6  C   -1.220587
     7  O   -2.065868
     8  H    0.867678
     9  H    1.401966
    10  H    1.365340
    11  H    1.822042
    12  H    1.290855
    13  H    1.566924
    14  H    1.470739
    15  H    1.301070
 Sum of Mulliken charges =   0.00000

 Dipole moment (field-independent basis, Debye):
    X=              1.5166    Y=              1.6601    Z=             -1.0631  Tot=              2.4872

 Test job not archived.
 1\1\GINC-SE115\SP\RHF\Aug-CC-pVDZ\C5H8O2\OHZDE\09-Apr-2025\0\\#t hf au
 g-cc-pvdz iop(5/13=1,5/36=2,99/5=2) pseudo=read geom=check guess=(read
 ,tcheck) scf=(maxcycle=1)\\title\\0,1\O,0,1.52694503,0.14242207,-0.685
 26709\C,0,1.27612605,-1.24628082,-0.57486659\C,0,0.20775717,-1.4638573
 2,0.43989574\C,0,-1.27528717,1.92494009,0.37916874\C,0,-1.59381195,1.6
 8561763,-0.8820945\C,0,0.27511926,-2.59002149,1.42408698\O,0,0.6253576
 6,-1.43314152,1.84112104\H,0,2.23560047,0.28386339,-1.31473957\H,0,2.1
 7999617,-1.7933419,-0.28345774\H,0,0.91843226,-1.66057952,-1.52667322\

 Normal termination of Gaussian 16 at Wed Apr  9 18:31:34 2025.
