 Gaussian 16, Revision C.01,

 ----------------------------------------------------------------------
 #t hf aug-cc-pvdz symm=none int=(grid=ultrafine) guess=(read,tcheck) s
 table=(opt,rrhf)
 ----------------------------------------------------------------------
 -----
 title
 -----
 Symbolic Z-matrix:
 Charge =  0 Multiplicity = 1

 SCF Done:  E(RHF) =  -316.226298146     A.U. after   20 cycles
 Normal termination of Gaussian 16 at Wed Apr  9 18:33:28 2025.
 Gaussian 16:  ES64L-G16RevC.01  3-Jul-2019

 ----------------------------------------------------------------------
 #t hf aug-cc-pvdz iop(5/13=1,5/36=2,99/5=2) pseudo=read geom=check gue
 ss=(read,tcheck) scf=(maxcycle=1)
 ----------------------------------------------------------------------
 -----
 title
 -----
 Structure from the checkpoint file:  "Grambow2020_wb97xd3_007268_forward_mol1.chk"
 Charge =  0 Multiplicity = 1

                         Standard orientation:
 ---------------------------------------------------------------------
 Center     Atomic      Atomic             Coordinates (Angstroms)
 Number     Number       Type             X           Y           Z
 ---------------------------------------------------------------------
      1          7           0        1.978799   -0.699299   -0.186250
      2          6           0        2.038284    0.530469   -0.067239
      3          6           0        0.316164    0.701780    0.100724
      4          7           0       -0.582174    1.476326    0.011903
      5          6           0       -2.100888    0.110063   -0.079652
      6          6           0       -1.700591   -1.051741   -0.080073
      7          7           0        0.432806   -0.708142    0.153005
      8          1           0       -2.835895    0.884351   -0.099011
      9          1           0       -1.702762   -2.117192   -0.130788
     10          1           0        0.414834   -0.992780    1.136636
 ---------------------------------------------------------------------

 SCF Done:  E(RHF) =  -317.680126428     A.U. after    2 cycles

 The electronic state is 1-A.
 Alpha  occ. eigenvalues --  -15.86847 -15.80451 -15.79457 -11.47862 -11.46065
 Alpha  occ. eigenvalues --  -11.44663 -11.43583  -1.59651  -1.34646  -1.20113
 Alpha  occ. eigenvalues --   -1.12200  -0.87820  -0.82017  -0.73369  -0.68590
 Alpha  occ. eigenvalues --   -0.66289  -0.60004  -0.55736  -0.48321  -0.46714
 Alpha  occ. eigenvalues --   -0.44598  -0.40773  -0.38831  -0.31334
 Alpha virt. eigenvalues --    0.02751   0.04541   0.05185   0.05720   0.08985
 Alpha virt. eigenvalues --    0.09446   0.09919   0.10751   0.11132   0.11900
 Alpha virt. eigenvalues --    0.12332   0.12522   0.13350   0.13775   0.14710

 Mulliken charges:
               1
     1  N   -1.248223
     2  C    0.619513
     3  C    3.110882
     4  N   -2.192019
     5  C   -0.808720
     6  C   -0.917839
     7  N   -0.747452
     8  H    0.757090
     9  H    0.630806
    10  H    0.795962
 Sum of Mulliken charges =   0.00000

 Dipole moment (field-independent basis, Debye):
    X=             -2.8983    Y=             -2.7322    Z=              1.0596  Tot=              4.1216

 Test job not archived.
 1\1\GINC-SE224\SP\RHF\Aug-CC-pVDZ\C4H3N3\OHZDE\09-Apr-2025\0\\#t hf au
 g-cc-pvdz iop(5/13=1,5/36=2,99/5=2) pseudo=read geom=check guess=(read
 ,tcheck) scf=(maxcycle=1)\\title\\0,1\N,0,2.28179322,0.72564895,0.3760
 3213\C,0,2.46738179,-0.48465456,0.20066353\C,0,0.77742608,-0.81473205,
 -0.04090508\N,0,-0.04176056,-1.67697067,-0.02360056\C,0,-1.69119356,-0
 .47232961,0.0752063\C,0,-1.40882962,0.7214931,0.14650239\N,0,0.7547444
 5,0.60065255,-0.0211638\H,0,-2.34566832,-1.31476624,0.02942495\H,0,-1.
 51878545,1.77760115,0.24802618\H,0,0.74122898,0.93234037,-0.99001505\\

 Normal termination of Gaussian 16 at Wed Apr  9 18:33:32 2025.
