 Gaussian 16, Revision C.01,

 ----------------------------------------------------------------------
 #t hf aug-cc-pvdz symm=none int=(grid=ultrafine) guess=(read,tcheck) s
 table=(opt,rrhf)
 ----------------------------------------------------------------------
 -----
 title
 -----
 Symbolic Z-matrix:
 Charge =  0 Multiplicity = 1

 SCF Done:  E(RHF) =  -302.908416578     A.U. after   14 cycles
 Normal termination of Gaussian 16 at Wed Apr  9 18:28:28 2025.
 Gaussian 16:  ES64L-G16RevC.01  3-Jul-2019

 ----------------------------------------------------------------------
 #t hf aug-cc-pvdz iop(5/13=1,5/36=2,99/5=2) pseudo=read geom=check gue
 ss=(read,tcheck) scf=(maxcycle=1)
 ----------------------------------------------------------------------
 -----
 title
 -----
 Structure from the checkpoint file:  "Grambow2020_wb97xd3_007166_reverse_mol2.chk"
 Charge =  0 Multiplicity = 1

                         Standard orientation:
 ---------------------------------------------------------------------
 Center     Atomic      Atomic             Coordinates (Angstroms)
 Number     Number       Type             X           Y           Z
 ---------------------------------------------------------------------
      1          6           0       -1.994651   -1.069459    0.140696
      2          6           0       -0.699781   -0.282055    0.273597
      3          6           0        0.480973   -1.098147   -0.274924
      4          7           0       -0.799628    0.940218   -0.501334
      5          6           0       -0.569295    2.030858    0.080805
      6          6           0        1.761148   -0.438266   -0.035607
      7          7           0        2.753078    0.096666    0.177939
      8          1           0       -2.196583   -1.293336   -0.908166
      9          1           0       -2.830705   -0.486715    0.527846
     10          1           0       -1.940845   -2.005426    0.699752
     11          1           0       -0.505927   -0.067101    1.335186
     12          1           0        0.353491   -1.239873   -1.350316
     13          1           0        0.508211   -2.083033    0.195684
     14          1           0       -0.625372    2.957244   -0.486793
     15          1           0       -0.306784    2.102469    1.143166
 ---------------------------------------------------------------------

 SCF Done:  E(RHF) =  -304.349794548     A.U. after    2 cycles

 The electronic state is 1-A.
 Alpha  occ. eigenvalues --  -15.75299 -15.74429 -11.48201 -11.44707 -11.42747
 Alpha  occ. eigenvalues --  -11.42322 -11.38363  -1.43084  -1.30946  -1.18885
 Alpha  occ. eigenvalues --   -1.06449  -0.92803  -0.82281  -0.71849  -0.67869
 Alpha  occ. eigenvalues --   -0.65038  -0.61592  -0.59329  -0.55053  -0.53160
 Alpha  occ. eigenvalues --   -0.50125  -0.48493  -0.43508  -0.43037  -0.40113
 Alpha  occ. eigenvalues --   -0.38061
 Alpha virt. eigenvalues --    0.03591   0.04993   0.05327   0.05563   0.05881
 Alpha virt. eigenvalues --    0.06277   0.06542   0.07332   0.09616   0.11082
 Alpha virt. eigenvalues --    0.11998   0.12440   0.13018   0.13313   0.14096

 Mulliken charges:
               1
     1  C   -3.828588
     2  C   -0.417011
     3  C   -2.905703
     4  N   -2.610691
     5  C   -1.657915
     6  C    2.244901
     7  N   -2.409364
     8  H    1.224764
     9  H    1.191554
    10  H    1.172621
    11  H    1.993817
    12  H    1.571865
    13  H    1.480496
    14  H    1.400859
    15  H    1.548396
 Sum of Mulliken charges =  -0.00000

 Dipole moment (field-independent basis, Debye):
    X=             -3.1064    Y=             -0.7769    Z=              0.6419  Tot=              3.2658

 Test job not archived.
 1\1\GINC-SE045\SP\RHF\Aug-CC-pVDZ\C5H8N2\OHZDE\09-Apr-2025\0\\#t hf au
 g-cc-pvdz iop(5/13=1,5/36=2,99/5=2) pseudo=read geom=check guess=(read
 ,tcheck) scf=(maxcycle=1)\\title\\0,1\C,0,-1.52931104,-0.67239397,0.73
 491582\C,0,-0.18771475,-0.33673071,0.10103433\C,0,-0.38198024,0.615621
 96,-1.08907036\N,0,0.65124843,0.33077116,1.07828533\C,0,1.79464192,-0.
 1436468,1.29967496\C,0,0.86411946,0.84869667,-1.81327702\N,0,1.8547494
 8,1.00276132,-2.37058734\H,0,-2.01255698,0.23433286,1.10278728\H,0,-1.
 3878553,-1.34563994,1.58060553\H,0,-2.18947979,-1.15978192,0.01512174\

 Normal termination of Gaussian 16 at Wed Apr  9 18:28:33 2025.
