 Gaussian 16, Revision C.01,

 ----------------------------------------------------------------------
 #t hf aug-cc-pvdz symm=none int=(grid=ultrafine) guess=(read,tcheck) s
 table=(opt,rrhf)
 ----------------------------------------------------------------------
 -----
 title
 -----
 Symbolic Z-matrix:
 Charge =  0 Multiplicity = 1

 SCF Done:  E(RHF) =  -306.867773947     A.U. after   14 cycles

 1\1\GINC-SE036\Stability\RHF\Aug-CC-pVDZ\C4H10O2\OHZDE\09-Apr-2025\0\\
 #t hf aug-cc-pvdz symm=none int=(grid=ultrafine) guess=(read,tcheck) s
 table=(opt,rrhf)\\title\\0,1\C,0,2.39963535,-0.69247628,-0.28341017\O,
 0,1.75833847,0.58775575,-0.22682277\C,0,0.39216829,0.5673053,-0.607750
 92\C,0,-0.42182409,0.06530539,0.58559682\C,0,-2.28001482,0.40321072,-0
 .08183128\O,0,-0.38734742,-1.23738689,0.88897514\H,0,1.9796845,-1.3939
 1401,0.44844387\H,0,2.30505394,-1.13244555,-1.29195467\H,0,3.45865723,
 -0.50665009,-0.06820396\H,0,0.21332265,-0.0932943,-1.47453899\H,0,0.12

 Normal termination of Gaussian 16 at Wed Apr  9 03:07:31 2025.
 Gaussian 16:  ES64L-G16RevC.01  3-Jul-2019

 ----------------------------------------------------------------------
 #t hf aug-cc-pvdz iop(5/13=1,5/36=2,99/5=2) pseudo=read geom=check gue
 ss=(read,tcheck) scf=(maxcycle=1)
 ----------------------------------------------------------------------
 -----
 title
 -----
 Structure from the checkpoint file:  "Grambow2020_b97d3_006566_forward_mol1.chk"
 Charge =  0 Multiplicity = 1

                         Standard orientation:
 ---------------------------------------------------------------------
 Center     Atomic      Atomic             Coordinates (Angstroms)
 Number     Number       Type             X           Y           Z
 ---------------------------------------------------------------------
      1          6           0        2.271972    0.333394    0.261706
      2          8           0        1.510711   -0.701560   -0.372967
      3          6           0        0.206666   -0.869185    0.159305
      4          6           0       -0.690668    0.212203   -0.444067
      5          6           0       -2.481314   -0.404015    0.208906
      6          8           0       -0.569409    1.470700   -0.006213
      7          1           0        1.837091    1.326046    0.089941
      8          1           0        2.338156    0.158056    1.350080
      9          1           0        3.276209    0.277110   -0.175000
     10          1           0        0.193713   -0.780977    1.260100
     11          1           0       -0.128657   -1.872458   -0.138373
     12          1           0       -0.874346    0.053620   -1.526603
     13          1           0       -3.336803    0.292181    0.174872
     14          1           0       -2.382446   -0.863714    1.197310
     15          1           0       -2.626856   -1.153452   -0.574406
     16          1           0       -1.666408    0.776079    0.260423
 ---------------------------------------------------------------------

 SCF Done:  E(RHF) =  -308.320553042     A.U. after    2 cycles

 The electronic state is 1-A.
 Alpha  occ. eigenvalues --  -21.05142 -21.00328 -11.51878 -11.42928 -11.39477
 Alpha  occ. eigenvalues --  -11.39381  -1.75704  -1.67732  -1.12054  -1.03980
 Alpha  occ. eigenvalues --   -0.94001  -0.83407  -0.69984  -0.67070  -0.62559
 Alpha  occ. eigenvalues --   -0.59906  -0.57465  -0.56798  -0.55275  -0.50190
 Alpha  occ. eigenvalues --   -0.45721  -0.39405  -0.32891  -0.27812  -0.26039
 Alpha virt. eigenvalues --    0.03444   0.04979   0.05214   0.05408   0.05668
 Alpha virt. eigenvalues --    0.06358   0.06748   0.07829   0.08790   0.09037
 Alpha virt. eigenvalues --    0.11331   0.12438   0.13943   0.14345   0.14617

 Mulliken charges:
               1
     1  C   -2.942203
     2  O   -2.977147
     3  C   -0.989262
     4  C    0.457857
     5  C   -4.600926
     6  O   -2.806990
     7  H    1.404355
     8  H    1.294141
     9  H    1.247795
    10  H    1.681217
    11  H    1.404284
    12  H    1.574152
    13  H    0.888766
    14  H    1.165986
    15  H    1.371697
    16  H    1.826278
 Sum of Mulliken charges =   0.00000

 Dipole moment (field-independent basis, Debye):
    X=              0.0279    Y=             -1.0254    Z=             -0.0750  Tot=              1.0286

 Test job not archived.
 1\1\GINC-SE036\SP\RHF\Aug-CC-pVDZ\C4H10O2\OHZDE\09-Apr-2025\0\\#t hf a
 ug-cc-pvdz iop(5/13=1,5/36=2,99/5=2) pseudo=read geom=check guess=(rea
 d,tcheck) scf=(maxcycle=1)\\title\\0,1\C,0,2.39963535,-0.69247628,-0.2
 8341017\O,0,1.75833847,0.58775575,-0.22682277\C,0,0.39216829,0.5673053
 ,-0.60775092\C,0,-0.42182409,0.06530539,0.58559682\C,0,-2.28001482,0.4
 0321072,-0.08183128\O,0,-0.38734742,-1.23738689,0.88897514\H,0,1.97968
 45,-1.39391401,0.44844387\H,0,2.30505394,-1.13244555,-1.29195467\H,0,3
 .45865723,-0.50665009,-0.06820396\H,0,0.21332265,-0.0932943,-1.4745389

 Normal termination of Gaussian 16 at Wed Apr  9 03:07:38 2025.
