 Gaussian 16, Revision C.01,

 ----------------------------------------------------------------------
 #t hf aug-cc-pvdz symm=none int=(grid=ultrafine) guess=(read,tcheck) s
 table=(opt,rrhf)
 ----------------------------------------------------------------------
 -----
 title
 -----
 Symbolic Z-matrix:
 Charge =  0 Multiplicity = 1

 SCF Done:  E(RHF) =  -301.603764971     A.U. after   17 cycles
 Normal termination of Gaussian 16 at Wed Apr  9 03:47:03 2025.
 Gaussian 16:  ES64L-G16RevC.01  3-Jul-2019

 ----------------------------------------------------------------------
 #t hf aug-cc-pvdz iop(5/13=1,5/36=2,99/5=2) pseudo=read geom=check gue
 ss=(read,tcheck) scf=(maxcycle=1)
 ----------------------------------------------------------------------
 -----
 title
 -----
 Structure from the checkpoint file:  "Grambow2020_wb97xd3_007934_forward_mol1.chk"
 Charge =  0 Multiplicity = 1

                         Standard orientation:
 ---------------------------------------------------------------------
 Center     Atomic      Atomic             Coordinates (Angstroms)
 Number     Number       Type             X           Y           Z
 ---------------------------------------------------------------------
      1          6           0        1.077161    0.843600    0.437913
      2          6           0        1.746583   -0.477643   -0.033396
      3          6           0        0.439630   -0.919476   -0.504434
      4          7           0       -0.582140   -1.295989    0.059478
      5          6           0       -1.614611   -0.471220    0.266083
      6          6           0       -1.300610    0.844044   -0.103944
      7          7           0       -0.074247    1.211615   -0.406385
      8          1           0        1.789889    1.666181    0.389248
      9          1           0        0.760659    0.700577    1.475359
     10          1           0        2.459221   -0.313126   -0.836531
     11          1           0        2.183617   -1.071366    0.772258
     12          1           0       -2.579477   -0.855161    0.558120
     13          1           0       -2.108115    1.547677   -0.303439
 ---------------------------------------------------------------------

 SCF Done:  E(RHF) =  -303.035390099     A.U. after    2 cycles

 The electronic state is 1-A.
 Alpha  occ. eigenvalues --  -15.79722 -15.71103 -11.48286 -11.46117 -11.44389
 Alpha  occ. eigenvalues --  -11.40990 -11.39181  -1.52248  -1.32522  -1.20905
 Alpha  occ. eigenvalues --   -1.00635  -0.95973  -0.79267  -0.74434  -0.70183
 Alpha  occ. eigenvalues --   -0.67309  -0.60676  -0.56374  -0.55719  -0.52129
 Alpha  occ. eigenvalues --   -0.51547  -0.44692  -0.38593  -0.32008  -0.29515
 Alpha virt. eigenvalues --    0.03751   0.05165   0.05721   0.05815   0.06393
 Alpha virt. eigenvalues --    0.06505   0.08660   0.10056   0.10149   0.10810
 Alpha virt. eigenvalues --    0.12074   0.12639   0.12990   0.14021   0.14519

 Mulliken charges:
               1
     1  C   -2.011818
     2  C   -2.997009
     3  C    1.865415
     4  N   -3.112849
     5  C    0.004036
     6  C    0.423445
     7  N   -2.477424
     8  H    1.170413
     9  H    1.568712
    10  H    1.513039
    11  H    1.246008
    12  H    1.326685
    13  H    1.481346
 Sum of Mulliken charges =  -0.00000

 Dipole moment (field-independent basis, Debye):
    X=              0.8929    Y=             -0.5645    Z=              1.4032  Tot=              1.7564

 Test job not archived.
 1\1\GINC-SE049\SP\RHF\Aug-CC-pVDZ\C5H6N2\OHZDE\09-Apr-2025\0\\#t hf au
 g-cc-pvdz iop(5/13=1,5/36=2,99/5=2) pseudo=read geom=check guess=(read
 ,tcheck) scf=(maxcycle=1)\\title\\0,1\C,0,-1.11167635,-0.4609018,0.077
 67724\C,0,-1.30302237,1.07804698,-0.02702905\C,0,0.11618991,1.18818564
 ,-0.3415513\N,0,1.14279828,1.06680311,0.31808013\C,0,1.85393668,-0.065
 94032,0.30801814\C,0,1.19745104,-1.07567811,-0.40954155\N,0,-0.0464346
 4,-0.94763053,-0.81807279\H,0,-2.03016302,-0.97546222,-0.20267886\H,0,
 -0.87114306,-0.69271987,1.1194678\H,0,-1.94899459,1.35611186,-0.854885

 Normal termination of Gaussian 16 at Wed Apr  9 03:47:07 2025.
