 Gaussian 16, Revision C.01,

 ----------------------------------------------------------------------
 #t hf aug-cc-pvdz symm=none int=(grid=ultrafine) guess=(read,tcheck) s
 table=(opt,rrhf)
 ----------------------------------------------------------------------
 -----
 title
 -----
 Symbolic Z-matrix:
 Charge =  0 Multiplicity = 1

 SCF Done:  E(RHF) =  -344.845862228     A.U. after   13 cycles

 1\1\GINC-SE131\Stability\RHF\Aug-CC-pVDZ\C5H10O2\OHZDE\09-Apr-2025\0\\
 #t hf aug-cc-pvdz symm=none int=(grid=ultrafine) guess=(read,tcheck) s
 table=(opt,rrhf)\\title\\0,1\O,0,2.1978524,-0.33041028,0.78993923\C,0,
 1.53943035,-1.32923195,0.68239073\C,0,0.15558842,-1.37558321,0.0975771
 8\C,0,-0.36050361,-0.02572859,-0.34689415\C,0,-1.85138409,0.05995683,-
 0.70540665\O,0,-2.10554829,0.98311083,0.35956358\C,0,-0.72734199,0.968
 26869,0.76389567\H,0,2.29591949,2.03863097,-0.36005957\H,0,1.94162504,
 -2.30346386,1.02948441\H,0,2.28126928,2.68746537,-0.72882421\H,0,-0.50

 Normal termination of Gaussian 16 at Wed Apr  9 18:42:44 2025.
 Gaussian 16:  ES64L-G16RevC.01  3-Jul-2019

 ----------------------------------------------------------------------
 #t hf aug-cc-pvdz iop(5/13=1,5/36=2,99/5=2) pseudo=read geom=check gue
 ss=(read,tcheck) scf=(maxcycle=1)
 ----------------------------------------------------------------------
 -----
 title
 -----
 Structure from the checkpoint file:  "Grambow2020_wb97xd3_007550_reverse_mol2.chk"
 Charge =  0 Multiplicity = 1

                         Standard orientation:
 ---------------------------------------------------------------------
 Center     Atomic      Atomic             Coordinates (Angstroms)
 Number     Number       Type             X           Y           Z
 ---------------------------------------------------------------------
      1          8           0       -2.304522    0.609816   -0.107166
      2          6           0       -2.036964   -0.556190   -0.214749
      3          6           0       -0.681842   -1.145642    0.059777
      4          6           0        0.349330   -0.124217    0.483321
      5          6           0        1.810852   -0.594179    0.524386
      6          8           0        2.189830    0.332743   -0.499413
      7          6           0        0.849141    0.837553   -0.603712
      8          1           0       -1.353128    2.685393    1.208623
      9          1           0       -2.813010   -1.279692   -0.539802
     10          1           0       -1.045179    3.232294    1.612672
     11          1           0       -0.366784   -1.676186   -0.848050
     12          1           0       -0.813379   -1.926618    0.819002
     13          1           0        0.023472    0.385805    1.388900
     14          1           0        1.979979   -1.632574    0.218157
     15          1           0        2.343880   -0.408293    1.460964
     16          1           0        0.788515    1.900052   -0.359846
     17          1           0        0.430068    0.675394   -1.602125
 ---------------------------------------------------------------------

 SCF Done:  E(RHF) =  -346.433241312     A.U. after    2 cycles

 The electronic state is 1-A.
 Alpha  occ. eigenvalues --  -21.07305 -21.03311 -11.49927 -11.45761 -11.44946
 Alpha  occ. eigenvalues --  -11.41995 -11.37576  -1.77039  -1.72219  -1.21956
 Alpha  occ. eigenvalues --   -1.03738  -0.99584  -0.83844  -0.78449  -0.70706
 Alpha  occ. eigenvalues --   -0.66772  -0.63893  -0.60411  -0.59256  -0.56810
 Alpha  occ. eigenvalues --   -0.53551  -0.50364  -0.48171  -0.44195  -0.41922
 Alpha  occ. eigenvalues --   -0.35512  -0.30484  -0.28962
 Alpha virt. eigenvalues --    0.03493   0.04699   0.04773   0.05171   0.05960
 Alpha virt. eigenvalues --    0.06551   0.06793   0.07229   0.09069   0.10159
 Alpha virt. eigenvalues --    0.10414   0.12003   0.12461   0.13293   0.13667

 Mulliken charges:
               1
     1  O   -2.939176
     2  C    1.355441
     3  C   -3.667900
     4  C   -1.441896
     5  C   -1.266586
     6  O   -2.641201
     7  C   -0.899196
     8  H   -0.339537
     9  H    1.474346
    10  H    0.262923
    11  H    1.583979
    12  H    1.405185
    13  H    1.299153
    14  H    1.418217
    15  H    1.375657
    16  H    1.508086
    17  H    1.512506
 Sum of Mulliken charges =  -0.00000

 Dipole moment (field-independent basis, Debye):
    X=             -0.3345    Y=             -1.2466    Z=              0.4235  Tot=              1.3584

 Test job not archived.
 1\1\GINC-SE131\SP\RHF\Aug-CC-pVDZ\C5H10O2\OHZDE\09-Apr-2025\0\\#t hf a
 ug-cc-pvdz iop(5/13=1,5/36=2,99/5=2) pseudo=read geom=check guess=(rea
 d,tcheck) scf=(maxcycle=1)\\title\\0,1\O,0,2.1978524,-0.33041028,0.789
 93923\C,0,1.53943035,-1.32923195,0.68239073\C,0,0.15558842,-1.37558321
 ,0.09757718\C,0,-0.36050361,-0.02572859,-0.34689415\C,0,-1.85138409,0.
 05995683,-0.70540665\O,0,-2.10554829,0.98311083,0.35956358\C,0,-0.7273
 4199,0.96826869,0.76389567\H,0,2.29591949,2.03863097,-0.36005957\H,0,1
 .94162504,-2.30346386,1.02948441\H,0,2.28126928,2.68746537,-0.72882421

 Normal termination of Gaussian 16 at Wed Apr  9 18:42:49 2025.
