 Gaussian 16, Revision C.01,

 ----------------------------------------------------------------------
 #t hf aug-cc-pvdz symm=none int=(grid=ultrafine) guess=(read,tcheck) s
 table=(opt,rrhf)
 ----------------------------------------------------------------------
 -----
 title
 -----
 Symbolic Z-matrix:
 Charge =  0 Multiplicity = 1

 SCF Done:  E(RHF) =  -283.527914001     A.U. after   16 cycles
 Normal termination of Gaussian 16 at Wed Apr  9 17:32:21 2025.
 Gaussian 16:  ES64L-G16RevC.01  3-Jul-2019

 ----------------------------------------------------------------------
 #t hf aug-cc-pvdz iop(5/13=1,5/36=2,99/5=2) pseudo=read geom=check gue
 ss=(read,tcheck) scf=(maxcycle=1)
 ----------------------------------------------------------------------
 -----
 title
 -----
 Structure from the checkpoint file:  "Grambow2020_b97d3_007172_forward_mol1.chk"
 Charge =  0 Multiplicity = 1

                         Standard orientation:
 ---------------------------------------------------------------------
 Center     Atomic      Atomic             Coordinates (Angstroms)
 Number     Number       Type             X           Y           Z
 ---------------------------------------------------------------------
      1          6           0        2.300067   -0.167657   -0.007966
      2          7           0        0.936088   -0.684570    0.002777
      3          6           0       -0.150795    0.094224    0.010338
      4          8           0       -0.124446    1.391143    0.000027
      5          6           0       -1.508326   -0.317642    0.014790
      6          6           0       -2.770507   -0.549625   -0.017906
      7          1           0        2.886066   -0.682835   -0.779587
      8          1           0        2.781350   -0.308841    0.969899
      9          1           0        2.257556    0.900992   -0.236536
     10          1           0        0.786801   -1.687251    0.030684
     11          1           0       -1.491459    1.084984    0.000358
 ---------------------------------------------------------------------

 SCF Done:  E(RHF) =  -284.821197320     A.U. after    2 cycles

 The electronic state is 1-A.
 Alpha  occ. eigenvalues --  -21.07367 -15.81971 -11.56677 -11.43432 -11.42752
 Alpha  occ. eigenvalues --  -11.38316  -1.76420  -1.43924  -1.14573  -1.04803
 Alpha  occ. eigenvalues --   -0.87915  -0.80960  -0.65778  -0.65585  -0.59100
 Alpha  occ. eigenvalues --   -0.55519  -0.53290  -0.51359  -0.42208  -0.37682
 Alpha  occ. eigenvalues --   -0.33909  -0.31988
 Alpha virt. eigenvalues --    0.02138   0.04425   0.04966   0.05996   0.07188
 Alpha virt. eigenvalues --    0.09166   0.09822   0.10412   0.11132   0.11563
 Alpha virt. eigenvalues --    0.12437   0.12826   0.14421   0.15124   0.15984

 Mulliken charges:
               1
     1  C   -3.427141
     2  N   -3.041618
     3  C    6.007774
     4  O   -2.917118
     5  C    0.140437
     6  C   -2.657871
     7  H    1.319090
     8  H    1.339228
     9  H    1.421861
    10  H    0.655552
    11  H    1.159805
 Sum of Mulliken charges =  -0.00000

 Dipole moment (field-independent basis, Debye):
    X=              6.7651    Y=             -0.1963    Z=              0.0212  Tot=              6.7680

 Test job not archived.
 1\1\GINC-SE362\SP\RHF\Aug-CC-pVDZ\C4H5N1O1\OHZDE\09-Apr-2025\0\\#t hf
 aug-cc-pvdz iop(5/13=1,5/36=2,99/5=2) pseudo=read geom=check guess=(re
 ad,tcheck) scf=(maxcycle=1)\\title\\0,1\C,0,-1.77422913,0.12507016,-0.
 21326035\N,0,-0.37113385,0.40619413,-0.49618659\C,0,0.64442893,-0.1376
 3137,0.18261955\O,0,0.50668837,-0.97985119,1.15960053\C,0,2.0321527,0.
 0712986,-0.02502085\C,0,3.3099695,0.14017962,-0.12713434\H,0,-2.301936
 2,-0.10640791,-1.147148\H,0,-2.2563395,0.98389092,0.27436826\H,0,-1.82
 041361,-0.739781,0.45454213\H,0,-0.13652259,1.06687836,-1.22891229\H,0

 Normal termination of Gaussian 16 at Wed Apr  9 17:32:24 2025.
