 Gaussian 16, Revision C.01,

 ----------------------------------------------------------------------
 #t hf aug-cc-pvdz symm=none int=(grid=ultrafine) guess=(read,tcheck) s
 table=(opt,rrhf)
 ----------------------------------------------------------------------
 -----
 title
 -----
 Symbolic Z-matrix:
 Charge =  0 Multiplicity = 1

 SCF Done:  E(RHF) =  -286.768935804     A.U. after   12 cycles
 Normal termination of Gaussian 16 at Wed Apr  9 19:32:16 2025.
 Gaussian 16:  ES64L-G16RevC.01  3-Jul-2019

 ----------------------------------------------------------------------
 #t hf aug-cc-pvdz iop(5/13=1,5/36=2,99/5=2) pseudo=read geom=check gue
 ss=(read,tcheck) scf=(maxcycle=1)
 ----------------------------------------------------------------------
 -----
 title
 -----
 Structure from the checkpoint file:  "Grambow2020_wb97xd3_009357_reverse_mol2.chk"
 Charge =  0 Multiplicity = 1

                         Standard orientation:
 ---------------------------------------------------------------------
 Center     Atomic      Atomic             Coordinates (Angstroms)
 Number     Number       Type             X           Y           Z
 ---------------------------------------------------------------------
      1          6           0        2.242792    0.288324   -0.000157
      2          7           0        1.088117   -0.590292    0.000513
      3          6           0       -0.021211   -0.195774    0.905252
      4          6           0       -0.576320    0.953501   -0.000842
      5          6           0       -1.986641    0.354622   -0.000253
      6          6           0       -0.020924   -0.197120   -0.905197
      7          6           0       -1.076187   -0.877088    0.000530
      8          1           0        1.991821    1.359355   -0.001172
      9          1           0        2.853634    0.078466   -0.880332
     10          1           0        2.851422    0.080980    0.882181
     11          1           0        0.049252   -0.223588    1.993024
     12          1           0       -0.291035    2.003298   -0.001006
     13          1           0       -2.586626    0.518523   -0.897452
     14          1           0       -2.586301    0.519794    0.896963
     15          1           0        0.051440   -0.226355   -1.992727
     16          1           0       -1.319477   -1.937219    0.000926
 ---------------------------------------------------------------------

 SCF Done:  E(RHF) =  -288.183422450     A.U. after    2 cycles

 The electronic state is 1-A.
 Alpha  occ. eigenvalues --  -15.69866 -11.53272 -11.45824 -11.44667 -11.44272
 Alpha  occ. eigenvalues --  -11.37285 -11.36178  -1.57466  -1.25135  -1.03119
 Alpha  occ. eigenvalues --   -0.92896  -0.91884  -0.86393  -0.72333  -0.71224
 Alpha  occ. eigenvalues --   -0.63303  -0.62693  -0.59484  -0.56450  -0.50455
 Alpha  occ. eigenvalues --   -0.43079  -0.42115  -0.40618  -0.39826  -0.39490
 Alpha  occ. eigenvalues --   -0.30171
 Alpha virt. eigenvalues --    0.04060   0.04810   0.05574   0.05620   0.05841
 Alpha virt. eigenvalues --    0.06256   0.06294   0.07467   0.08057   0.11379
 Alpha virt. eigenvalues --    0.12051   0.12368   0.12927   0.13322   0.13456

 Mulliken charges:
               1
     1  C   -3.362036
     2  N   -2.427704
     3  C   -0.325427
     4  C   -1.107786
     5  C   -2.940245
     6  C   -0.327954
     7  C   -1.539850
     8  H    1.387375
     9  H    1.358225
    10  H    1.357895
    11  H    1.364206
    12  H    1.383004
    13  H    1.237490
    14  H    1.237345
    15  H    1.363886
    16  H    1.341575
 Sum of Mulliken charges =  -0.00000

 Dipole moment (field-independent basis, Debye):
    X=             -0.4059    Y=              0.7727    Z=             -0.0007  Tot=              0.8728

 Test job not archived.
 1\1\GINC-SE232\SP\RHF\Aug-CC-pVDZ\C6H9N1\OHZDE\09-Apr-2025\0\\#t hf au
 g-cc-pvdz iop(5/13=1,5/36=2,99/5=2) pseudo=read geom=check guess=(read
 ,tcheck) scf=(maxcycle=1)\\title\\0,1\C,0,2.18759142,-0.06662154,0.245
 32248\N,0,1.01928913,-0.61767965,-0.41547011\C,0,-0.16770734,-0.835137
 84,0.4497216\C,0,-0.60076864,0.66728962,0.52149987\C,0,-2.01694628,0.3
 4502121,0.03339515\C,0,0.01815767,0.37296312,-0.88582088\C,0,-1.139561
 12,-0.64419805,-0.73970117\H,0,1.96242027,0.74742242,0.95010932\H,0,2.
 88052988,0.31368975,-0.50772209\H,0,2.69769197,-0.86136827,0.79315226\

 Normal termination of Gaussian 16 at Wed Apr  9 19:32:22 2025.
