 Gaussian 16, Revision C.01,

 ----------------------------------------------------------------------
 #t hf aug-cc-pvdz symm=none int=(grid=ultrafine) guess=(read,tcheck) s
 table=(opt,rrhf)
 ----------------------------------------------------------------------
 -----
 title
 -----
 Symbolic Z-matrix:
 Charge =  0 Multiplicity = 1

 SCF Done:  E(RHF) =  -321.484993032     A.U. after   15 cycles
 Normal termination of Gaussian 16 at Wed Apr  9 03:40:12 2025.
 Gaussian 16:  ES64L-G16RevC.01  3-Jul-2019

 ----------------------------------------------------------------------
 #t hf aug-cc-pvdz iop(5/13=1,5/36=2,99/5=2) pseudo=read geom=check gue
 ss=(read,tcheck) scf=(maxcycle=1)
 ----------------------------------------------------------------------
 -----
 title
 -----
 Structure from the checkpoint file:  "Grambow2020_wb97xd3_007496_forward_mol2.chk"
 Charge =  0 Multiplicity = 1

                         Standard orientation:
 ---------------------------------------------------------------------
 Center     Atomic      Atomic             Coordinates (Angstroms)
 Number     Number       Type             X           Y           Z
 ---------------------------------------------------------------------
      1          8           0        0.167472    1.574162    0.154321
      2          6           0        0.396845    0.403106   -0.034563
      3          6           0        1.752287   -0.126983   -0.005676
      4          6           0        2.856962   -0.588979    0.015171
      5          6           0       -0.682558   -0.590117   -0.298955
      6          6           0       -1.800338   -0.608240    0.687873
      7          7           0       -1.995845   -0.072351   -0.638969
      8          1           0        3.846253   -0.983992    0.036879
      9          1           0       -0.381347   -1.509007   -0.787083
     10          1           0       -1.728680    0.081654    1.521561
     11          1           0       -2.292224   -1.551279    0.892245
     12          1           0       -1.952053    0.943062   -0.608482
 ---------------------------------------------------------------------

 SCF Done:  E(RHF) =  -322.930420835     A.U. after    2 cycles

 The electronic state is 1-A.
 Alpha  occ. eigenvalues --  -21.07528 -15.75148 -11.55374 -11.47370 -11.45519
 Alpha  occ. eigenvalues --  -11.42873 -11.41719  -1.74047  -1.47008  -1.15936
 Alpha  occ. eigenvalues --   -1.02095  -0.93900  -0.86271  -0.76735  -0.71477
 Alpha  occ. eigenvalues --   -0.65982  -0.59316  -0.53938  -0.52698  -0.48208
 Alpha  occ. eigenvalues --   -0.45612  -0.40112  -0.39016  -0.35091  -0.32134
 Alpha virt. eigenvalues --    0.03018   0.04768   0.05850   0.06308   0.07130
 Alpha virt. eigenvalues --    0.08614   0.09107   0.10035   0.10532   0.11884
 Alpha virt. eigenvalues --    0.12405   0.12837   0.13407   0.14022   0.14641

 Mulliken charges:
               1
     1  O   -3.452292
     2  C    4.272783
     3  C    3.022589
     4  C   -3.831977
     5  C   -1.308641
     6  C   -1.989618
     7  N   -2.164215
     8  H    0.753006
     9  H    1.482650
    10  H    1.199526
    11  H    1.317139
    12  H    0.699050
 Sum of Mulliken charges =   0.00000

 Dipole moment (field-independent basis, Debye):
    X=              0.8505    Y=             -0.8830    Z=              0.7252  Tot=              1.4244

 Test job not archived.
 1\1\GINC-SE334\SP\RHF\Aug-CC-pVDZ\C5H5N1O1\OHZDE\09-Apr-2025\0\\#t hf
 aug-cc-pvdz iop(5/13=1,5/36=2,99/5=2) pseudo=read geom=check guess=(re
 ad,tcheck) scf=(maxcycle=1)\\title\\0,1\O,0,0.24945617,0.0628296,1.838
 62\C,0,0.53751645,0.12564504,0.66698201\C,0,1.89316788,-0.1193519,0.19
 662403\C,0,2.99929014,-0.31877691,-0.21678458\C,0,-0.46688784,0.445135
 88,-0.3868701\C,0,-1.70317858,-0.38856129,-0.37571821\N,0,-1.73964535,
 0.99127679,0.04928682\H,0,3.98890163,-0.49886408,-0.56812436\H,0,-0.07
 621545,0.8148896,-1.32708963\H,0,-1.76257696,-1.16614452,0.3779134\H,0

 Normal termination of Gaussian 16 at Wed Apr  9 03:40:16 2025.
