 Gaussian 16, Revision C.01,

 ----------------------------------------------------------------------
 #t hf aug-cc-pvdz symm=none int=(grid=ultrafine) guess=(read,tcheck) s
 table=(opt,rrhf)
 ----------------------------------------------------------------------
 -----
 title
 -----
 Symbolic Z-matrix:
 Charge =  0 Multiplicity = 1

 SCF Done:  E(RHF) =  -341.238796542     A.U. after   19 cycles
 Normal termination of Gaussian 16 at Wed Apr  9 19:29:56 2025.
 Gaussian 16:  ES64L-G16RevC.01  3-Jul-2019

 ----------------------------------------------------------------------
 #t hf aug-cc-pvdz iop(5/13=1,5/36=2,99/5=2) pseudo=read geom=check gue
 ss=(read,tcheck) scf=(maxcycle=1)
 ----------------------------------------------------------------------
 -----
 title
 -----
 Structure from the checkpoint file:  "Grambow2020_wb97xd3_009090_reverse_mol1.chk"
 Charge =  0 Multiplicity = 1

                         Standard orientation:
 ---------------------------------------------------------------------
 Center     Atomic      Atomic             Coordinates (Angstroms)
 Number     Number       Type             X           Y           Z
 ---------------------------------------------------------------------
      1          8           0       -0.688223    1.769573   -0.290050
      2          6           0       -0.662635    0.632664    0.057244
      3          6           0       -1.595985   -0.369945    0.512826
      4          6           0       -0.654377   -1.087469   -0.498241
      5          6           0        0.661984   -1.411112   -0.062690
      6          6           0        1.166276   -0.164270    0.139776
      7          8           0        2.017137    0.646913    0.127503
      8          1           0       -1.526144   -0.795454    1.509391
      9          1           0       -2.620228   -0.192727    0.188797
     10          1           0       -1.108636   -1.564602   -1.365028
     11          1           0        1.132120   -2.378310    0.073739
 ---------------------------------------------------------------------

 SCF Done:  E(RHF) =  -342.764648804     A.U. after    2 cycles

 The electronic state is 1-A.
 Alpha  occ. eigenvalues --  -21.08692 -21.07731 -11.53189 -11.51705 -11.50066
 Alpha  occ. eigenvalues --  -11.45188 -11.43055  -1.74491  -1.71538  -1.35373
 Alpha  occ. eigenvalues --   -1.11358  -0.89575  -0.83100  -0.72374  -0.69836
 Alpha  occ. eigenvalues --   -0.61818  -0.60303  -0.57822  -0.53903  -0.53277
 Alpha  occ. eigenvalues --   -0.49813  -0.43247  -0.37830  -0.29778  -0.23551
 Alpha virt. eigenvalues --    0.02840   0.04152   0.04503   0.04944   0.05957
 Alpha virt. eigenvalues --    0.08379   0.09397   0.10476   0.11727   0.12461
 Alpha virt. eigenvalues --    0.13291   0.13644   0.14203   0.14510   0.14920

 Mulliken charges:
               1
     1  O   -3.507630
     2  C    3.864895
     3  C   -2.858533
     4  C   -1.209642
     5  C   -0.978516
     6  C    2.825266
     7  O   -3.008417
     8  H    1.331127
     9  H    1.184664
    10  H    1.108473
    11  H    1.248314
 Sum of Mulliken charges =  -0.00000

 Dipole moment (field-independent basis, Debye):
    X=             -1.1915    Y=             -2.0778    Z=              0.1542  Tot=              2.4001

 Test job not archived.
 1\1\GINC-SE118\SP\RHF\Aug-CC-pVDZ\C5H4O2\OHZDE\09-Apr-2025\0\\#t hf au
 g-cc-pvdz iop(5/13=1,5/36=2,99/5=2) pseudo=read geom=check guess=(read
 ,tcheck) scf=(maxcycle=1)\\title\\0,1\O,0,-0.42790854,1.90983606,-1.15
 664898\C,0,-0.40743286,0.95924313,-0.44265767\C,0,-1.33427272,-0.03312
 332,0.04734029\C,0,-0.03905244,-0.80722095,-0.33593622\C,0,1.07758106,
 -0.70568458,0.54160383\C,0,1.35573611,0.62110541,0.43125915\O,0,2.0745
 5018,1.54999284,0.3801993\H,0,-1.56356289,-0.11831725,1.10528417\H,0,-
 2.2006559,-0.17721352,-0.5961593\H,0,-0.12276881,-1.60426557,-1.072846

 Normal termination of Gaussian 16 at Wed Apr  9 19:30:00 2025.
