 Gaussian 16, Revision C.01,

 ----------------------------------------------------------------------
 #t hf aug-cc-pvdz symm=none int=(grid=ultrafine) guess=(read,tcheck) s
 table=(opt,rrhf)
 ----------------------------------------------------------------------
 -----
 title
 -----
 Symbolic Z-matrix:
 Charge =  0 Multiplicity = 1

 SCF Done:  E(RHF) =  -338.683063160     A.U. after   14 cycles
 Normal termination of Gaussian 16 at Wed Apr  9 19:13:51 2025.
 Gaussian 16:  ES64L-G16RevC.01  3-Jul-2019

 ----------------------------------------------------------------------
 #t hf aug-cc-pvdz iop(5/13=1,5/36=2,99/5=2) pseudo=read geom=check gue
 ss=(read,tcheck) scf=(maxcycle=1)
 ----------------------------------------------------------------------
 -----
 title
 -----
 Structure from the checkpoint file:  "Grambow2020_wb97xd3_008464_reverse_mol2.chk"
 Charge =  0 Multiplicity = 1

                         Standard orientation:
 ---------------------------------------------------------------------
 Center     Atomic      Atomic             Coordinates (Angstroms)
 Number     Number       Type             X           Y           Z
 ---------------------------------------------------------------------
      1          7           0       -1.797023   -1.068001   -0.076890
      2          6           0       -0.520961   -0.502990   -0.000337
      3          6           0       -0.076452    0.751489    0.004088
      4          8           0       -0.868534    1.856335    0.046013
      5          6           0        1.419837    0.714186    0.002340
      6          6           0        1.806019   -0.756662   -0.001009
      7          7           0        0.633279   -1.349211   -0.004532
      8          1           0       -2.469767   -0.399354   -0.422681
      9          1           0       -2.122870   -1.431658    0.808975
     10          1           0       -0.348692    2.629145   -0.178532
     11          1           0        1.878723    1.188958   -0.872414
     12          1           0        1.859764    1.198208    0.880886
     13          1           0        0.526668   -2.351628   -0.044877
 ---------------------------------------------------------------------

 SCF Done:  E(RHF) =  -340.215683882     A.U. after    2 cycles

 The electronic state is 1-A.
 Alpha  occ. eigenvalues --  -21.10984 -15.78462 -15.76505 -11.48291 -11.42145
 Alpha  occ. eigenvalues --  -11.39302 -11.36192  -1.76035  -1.49837  -1.32114
 Alpha  occ. eigenvalues --   -1.12677  -1.00993  -0.82832  -0.77683  -0.70001
 Alpha  occ. eigenvalues --   -0.66832  -0.62091  -0.58508  -0.56793  -0.51163
 Alpha  occ. eigenvalues --   -0.49032  -0.46186  -0.43945  -0.40037  -0.31226
 Alpha  occ. eigenvalues --   -0.25350
 Alpha virt. eigenvalues --    0.03261   0.04989   0.05735   0.06152   0.06289
 Alpha virt. eigenvalues --    0.07237   0.08932   0.10430   0.11204   0.12683
 Alpha virt. eigenvalues --    0.13600   0.13800   0.13891   0.14715   0.15373

 Mulliken charges:
               1
     1  N   -3.338414
     2  C    2.349410
     3  C    5.542387
     4  O   -4.036981
     5  C   -3.216456
     6  C   -0.503543
     7  N   -2.431375
     8  H    0.529971
     9  H    0.513081
    10  H    0.979167
    11  H    1.427504
    12  H    1.431304
    13  H    0.753946
 Sum of Mulliken charges =  -0.00000

 Dipole moment (field-independent basis, Debye):
    X=             -3.1969    Y=              1.3041    Z=              0.4866  Tot=              3.4867

 Test job not archived.
 1\1\GINC-SE454\SP\RHF\Aug-CC-pVDZ\C4H6N2O1\OHZDE\09-Apr-2025\0\\#t hf
 aug-cc-pvdz iop(5/13=1,5/36=2,99/5=2) pseudo=read geom=check guess=(re
 ad,tcheck) scf=(maxcycle=1)\\title\\0,1\N,0,1.94437384,0.79705195,-0.2
 1092796\C,0,0.60263732,0.43006396,-0.07493158\C,0,-0.00884027,-0.73211
 742,0.14129841\O,0,0.62481063,-1.90581757,0.40728453\C,0,-1.48600286,-
 0.49748646,0.08460689\C,0,-1.66792739,0.98592156,-0.19636679\N,0,-0.42
 533432,1.4068149,-0.26886733\H,0,2.52219731,-0.00686935,-0.4086031\H,0
 ,2.31014608,1.2701816,0.60487729\H,0,0.00611407,-2.6307126,0.30913366\

 Normal termination of Gaussian 16 at Wed Apr  9 19:13:55 2025.
