 Gaussian 16, Revision C.01,

 ----------------------------------------------------------------------
 #t hf aug-cc-pvdz symm=none int=(grid=ultrafine) guess=(read,tcheck) s
 table=(opt,rrhf)
 ----------------------------------------------------------------------
 -----
 title
 -----
 Symbolic Z-matrix:
 Charge =  0 Multiplicity = 1

 SCF Done:  E(RHF) =  -358.556605784     A.U. after   15 cycles
 Normal termination of Gaussian 16 at Wed Apr  9 18:11:56 2025.
 Gaussian 16:  ES64L-G16RevC.01  3-Jul-2019

 ----------------------------------------------------------------------
 #t hf aug-cc-pvdz iop(5/13=1,5/36=2,99/5=2) pseudo=read geom=check gue
 ss=(read,tcheck) scf=(maxcycle=1)
 ----------------------------------------------------------------------
 -----
 title
 -----
 Structure from the checkpoint file:  "Grambow2020_wb97xd3_006751_reverse_mol2.chk"
 Charge =  0 Multiplicity = 1

                         Standard orientation:
 ---------------------------------------------------------------------
 Center     Atomic      Atomic             Coordinates (Angstroms)
 Number     Number       Type             X           Y           Z
 ---------------------------------------------------------------------
      1          8           0       -2.491155   -0.854214    0.209220
      2          6           0       -1.910124    0.179262    0.079269
      3          6           0       -0.409358    0.273476   -0.100496
      4          8           0       -0.018078    1.558230   -0.156591
      5          7           0        0.307969   -0.757838   -0.198687
      6          6           0        1.688582   -0.645828   -0.376488
      7          6           0        2.549892   -0.148562    0.507599
      8          1           0       -2.423129    1.159279    0.081375
      9          1           0        0.946320    1.585727   -0.240424
     10          1           0        2.042444   -1.076490   -1.309381
     11          1           0        3.612091   -0.170188    0.305875
     12          1           0        2.226403    0.224319    1.473033
 ---------------------------------------------------------------------

 SCF Done:  E(RHF) =  -360.116664964     A.U. after    2 cycles

 The electronic state is 1-A.
 Alpha  occ. eigenvalues --  -21.13675 -21.08998 -15.75267 -11.52265 -11.47775
 Alpha  occ. eigenvalues --  -11.44906 -11.39136  -1.81320  -1.72844  -1.40246
 Alpha  occ. eigenvalues --   -1.13548  -1.00149  -0.86560  -0.75612  -0.69791
 Alpha  occ. eigenvalues --   -0.66066  -0.64497  -0.58648  -0.55581  -0.53811
 Alpha  occ. eigenvalues --   -0.50648  -0.45633  -0.43555  -0.35877  -0.32309
 Alpha  occ. eigenvalues --   -0.31553
 Alpha virt. eigenvalues --    0.03235   0.05150   0.05493   0.05910   0.06163
 Alpha virt. eigenvalues --    0.08367   0.10070   0.10203   0.10997   0.11787
 Alpha virt. eigenvalues --    0.12444   0.13215   0.13358   0.14628   0.15352

 Mulliken charges:
               1
     1  O   -2.745257
     2  C    0.867505
     3  C    4.723351
     4  O   -3.519124
     5  N   -3.687153
     6  C    0.077099
     7  C   -2.791556
     8  H    1.671591
     9  H    1.213393
    10  H    1.498451
    11  H    1.293304
    12  H    1.398396
 Sum of Mulliken charges =  -0.00000

 Dipole moment (field-independent basis, Debye):
    X=              1.0843    Y=              1.8839    Z=             -0.2187  Tot=              2.1847

 Test job not archived.
 1\1\GINC-SE173\SP\RHF\Aug-CC-pVDZ\C4H5N1O2\OHZDE\09-Apr-2025\0\\#t hf
 aug-cc-pvdz iop(5/13=1,5/36=2,99/5=2) pseudo=read geom=check guess=(re
 ad,tcheck) scf=(maxcycle=1)\\title\\0,1\O,0,3.05999195,0.78028282,-0.2
 6944659\C,0,2.42978732,-0.10894329,0.21498725\C,0,0.93010916,-0.248560
 99,0.05699493\O,0,0.47507046,-1.3005537,0.75920061\N,0,0.26840728,0.54
 010037,-0.66962266\C,0,-1.11224487,0.38392785,-0.80983352\C,0,-2.01546
 664,0.53821292,0.15511453\H,0,2.89202933,-0.90798639,0.82447316\H,0,-0
 .48758409,-1.34486154,0.66339145\H,0,-1.42477726,0.18213649,-1.8309028

 Normal termination of Gaussian 16 at Wed Apr  9 18:12:00 2025.
