 Gaussian 16, Revision C.01,

 ----------------------------------------------------------------------
 #t hf aug-cc-pvdz symm=none int=(grid=ultrafine) guess=(read,tcheck) s
 table=(opt,rrhf)
 ----------------------------------------------------------------------
 -----
 title
 -----
 Symbolic Z-matrix:
 Charge =  0 Multiplicity = 1

 SCF Done:  E(RHF) =  -268.626045327     A.U. after   16 cycles
 Normal termination of Gaussian 16 at Wed Apr  9 17:16:22 2025.
 Gaussian 16:  ES64L-G16RevC.01  3-Jul-2019

 ----------------------------------------------------------------------
 #t hf aug-cc-pvdz iop(5/13=1,5/36=2,99/5=2) pseudo=read geom=check gue
 ss=(read,tcheck) scf=(maxcycle=1)
 ----------------------------------------------------------------------
 -----
 title
 -----
 Structure from the checkpoint file:  "Grambow2020_b97d3_007086_forward_mol1.chk"
 Charge =  0 Multiplicity = 1

                         Standard orientation:
 ---------------------------------------------------------------------
 Center     Atomic      Atomic             Coordinates (Angstroms)
 Number     Number       Type             X           Y           Z
 ---------------------------------------------------------------------
      1          6           0        2.327589   -0.312854    0.018228
      2          6           0        1.091911    0.490006   -0.404278
      3          6           0       -0.124249    0.167788    0.485367
      4          8           0       -1.250936    1.078218    0.056718
      5          6           0       -0.698311   -1.180158    0.192820
      6          6           0       -1.838212   -0.620059   -0.291496
      7          1           0        2.620032   -0.074690    1.050983
      8          1           0        3.179474   -0.081308   -0.635435
      9          1           0        2.124382   -1.390036   -0.036259
     10          1           0        0.828204    0.278994   -1.450385
     11          1           0        1.280579    1.569599   -0.326567
     12          1           0        0.135799    0.347186    1.540566
     13          1           0       -2.206152    0.153561    0.547435
     14          1           0       -2.507200   -0.697389   -1.147931
 ---------------------------------------------------------------------

 SCF Done:  E(RHF) =  -269.912101550     A.U. after    2 cycles

 The electronic state is 1-A.
 Alpha  occ. eigenvalues --  -21.05198 -11.47704 -11.46925 -11.41453 -11.40165
 Alpha  occ. eigenvalues --  -11.36578  -1.69746  -1.20927  -1.13429  -0.98109
 Alpha  occ. eigenvalues --   -0.86746  -0.75527  -0.66838  -0.63712  -0.58332
 Alpha  occ. eigenvalues --   -0.56934  -0.52923  -0.48904  -0.47672  -0.45123
 Alpha  occ. eigenvalues --   -0.38449  -0.30729  -0.28497
 Alpha virt. eigenvalues --    0.03612   0.04712   0.05517   0.05847   0.06050
 Alpha virt. eigenvalues --    0.06469   0.07319   0.07606   0.08689   0.09837
 Alpha virt. eigenvalues --    0.11378   0.11679   0.13812   0.13982   0.14354

 Mulliken charges:
               1
     1  C   -3.560004
     2  C   -3.383180
     3  C    0.868827
     4  O   -2.093777
     5  C   -1.452926
     6  C   -1.314831
     7  H    1.246114
     8  H    1.134875
     9  H    1.360950
    10  H    1.428108
    11  H    1.425436
    12  H    1.608661
    13  H    1.448940
    14  H    1.282807
 Sum of Mulliken charges =   0.00000

 Dipole moment (field-independent basis, Debye):
    X=             -0.4321    Y=              2.9952    Z=             -0.5582  Tot=              3.0772

 Test job not archived.
 1\1\GINC-SE162\SP\RHF\Aug-CC-pVDZ\C5H8O1\OHZDE\09-Apr-2025\0\\#t hf au
 g-cc-pvdz iop(5/13=1,5/36=2,99/5=2) pseudo=read geom=check guess=(read
 ,tcheck) scf=(maxcycle=1)\\title\\0,1\C,0,-1.69662485,1.05026035,-0.12
 002151\C,0,-0.93466284,-0.27985786,-0.10604363\C,0,0.50644947,-0.10162
 4,0.4094814\O,0,1.13309158,-1.47427852,0.48148662\C,0,1.38491218,0.578
 50069,-0.58942981\C,0,2.12108625,-0.55238352,-0.75312547\H,0,-1.773436
 5,1.47286655,0.89207127\H,0,-2.715798,0.90639846,-0.50366985\H,0,-1.18
 152082,1.78277202,-0.75458905\H,0,-0.89616313,-0.7182967,-1.11336567\H

 Normal termination of Gaussian 16 at Wed Apr  9 17:16:26 2025.
