 Gaussian 16, Revision C.01,

 ----------------------------------------------------------------------
 #t hf aug-cc-pvdz symm=none int=(grid=ultrafine) guess=(read,tcheck) s
 table=(opt,rrhf)
 ----------------------------------------------------------------------
 -----
 title
 -----
 Symbolic Z-matrix:
 Charge =  0 Multiplicity = 1

 SCF Done:  E(RHF) =  -318.730662091     A.U. after   15 cycles
 Normal termination of Gaussian 16 at Wed Apr  9 18:57:47 2025.
 Gaussian 16:  ES64L-G16RevC.01  3-Jul-2019

 ----------------------------------------------------------------------
 #t hf aug-cc-pvdz iop(5/13=1,5/36=2,99/5=2) pseudo=read geom=check gue
 ss=(read,tcheck) scf=(maxcycle=1)
 ----------------------------------------------------------------------
 -----
 title
 -----
 Structure from the checkpoint file:  "Grambow2020_wb97xd3_007953_forward_mol1.chk"
 Charge =  0 Multiplicity = 1

                         Standard orientation:
 ---------------------------------------------------------------------
 Center     Atomic      Atomic             Coordinates (Angstroms)
 Number     Number       Type             X           Y           Z
 ---------------------------------------------------------------------
      1          6           0       -1.829200   -0.684027   -0.465611
      2          6           0       -1.326338    0.655970    0.029836
      3          6           0        0.501125    1.288283    0.141010
      4          6           0        0.142378    0.248997    1.031904
      5          7           0        0.790420   -0.893280    0.625320
      6          7           0        1.381376   -0.657268   -0.553312
      7          7           0        1.211172    0.554993   -0.877255
      8          1           0       -2.778104   -0.528561   -0.982645
      9          1           0       -1.138654   -1.123087   -1.187516
     10          1           0       -1.993067   -1.400273    0.340990
     11          1           0       -1.306597    1.368555   -0.788634
     12          1           0       -1.921906    1.103793    0.818785
     13          1           0       -0.200702    0.331275    2.051515
     14          1           0        0.730465   -1.838159    0.961396
 ---------------------------------------------------------------------

 SCF Done:  E(RHF) =  -320.241840436     A.U. after    2 cycles

 The electronic state is 1-A.
 Alpha  occ. eigenvalues --  -15.82536 -15.81020 -15.75207 -11.47403 -11.44621
 Alpha  occ. eigenvalues --  -11.39687 -11.38043  -1.69358  -1.31394  -1.25529
 Alpha  occ. eigenvalues --   -1.11272  -0.92327  -0.86856  -0.82524  -0.73067
 Alpha  occ. eigenvalues --   -0.68429  -0.64460  -0.58314  -0.56324  -0.53600
 Alpha  occ. eigenvalues --   -0.52462  -0.48877  -0.41268  -0.38193  -0.36194
 Alpha  occ. eigenvalues --   -0.31972
 Alpha virt. eigenvalues --    0.02938   0.04573   0.04704   0.05294   0.05645
 Alpha virt. eigenvalues --    0.06735   0.07409   0.09463   0.11488   0.12159
 Alpha virt. eigenvalues --    0.12921   0.13131   0.13896   0.14225   0.14622

 Mulliken charges:
               1
     1  C   -3.507299
     2  C   -2.388691
     3  C    0.266370
     4  C   -0.038103
     5  N   -1.666346
     6  N   -0.497389
     7  N   -0.981722
     8  H    1.069116
     9  H    1.360809
    10  H    1.270954
    11  H    1.437952
    12  H    1.325156
    13  H    1.449470
    14  H    0.899723
 Sum of Mulliken charges =  -0.00000

 Dipole moment (field-independent basis, Debye):
    X=             -3.2707    Y=             -3.5943    Z=              2.8625  Tot=              5.6401

 Test job not archived.
 1\1\GINC-SE118\SP\RHF\Aug-CC-pVDZ\C4H7N3\OHZDE\09-Apr-2025\0\\#t hf au
 g-cc-pvdz iop(5/13=1,5/36=2,99/5=2) pseudo=read geom=check guess=(read
 ,tcheck) scf=(maxcycle=1)\\title\\0,1\C,0,-1.23483756,0.84892004,-0.11
 674129\C,0,-0.85864992,-0.61044041,-0.26734069\C,0,0.66646661,-1.54238
 022,0.47918955\C,0,0.94620484,-0.59068199,-0.53003032\N,0,1.58012406,0
 .47504543,0.0636327\N,0,1.54863166,0.30960353,1.39244478\N,0,1.0092237
 7,-0.80237851,1.66816343\H,0,-2.32300815,0.92324764,-0.06906563\H,0,-0
 .84383403,1.26398657,0.81364091\H,0,-0.88648219,1.46472275,-0.94734489

 Normal termination of Gaussian 16 at Wed Apr  9 18:57:52 2025.
