 Gaussian 16, Revision C.01,

 ----------------------------------------------------------------------
 #t hf aug-cc-pvdz symm=none int=(grid=ultrafine) guess=(read,tcheck) s
 table=(opt,rrhf)
 ----------------------------------------------------------------------
 -----
 title
 -----
 Symbolic Z-matrix:
 Charge =  0 Multiplicity = 1

 SCF Done:  E(RHF) =  -273.214749761     A.U. after   13 cycles
 Normal termination of Gaussian 16 at Wed Apr  9 18:55:09 2025.
 Gaussian 16:  ES64L-G16RevC.01  3-Jul-2019

 ----------------------------------------------------------------------
 #t hf aug-cc-pvdz iop(5/13=1,5/36=2,99/5=2) pseudo=read geom=check gue
 ss=(read,tcheck) scf=(maxcycle=1)
 ----------------------------------------------------------------------
 -----
 title
 -----
 Structure from the checkpoint file:  "Grambow2020_wb97xd3_007781_reverse_mol2.chk"
 Charge =  0 Multiplicity = 1

                         Standard orientation:
 ---------------------------------------------------------------------
 Center     Atomic      Atomic             Coordinates (Angstroms)
 Number     Number       Type             X           Y           Z
 ---------------------------------------------------------------------
      1          6           0        1.727963    1.355026   -0.383507
      2          6           0        1.588581   -0.087889    0.003404
      3          6           0        1.235640   -0.339182    1.439915
      4          6           0        1.758773   -1.075360   -0.867684
      5          6           0       -1.891116    0.166726   -0.503007
      6          6           0       -2.287479    1.242708    0.159992
      7          6           0       -2.082043   -1.243272   -0.046324
      8          1           0        1.970300    1.470243   -1.439940
      9          1           0        0.798502    1.893386   -0.177871
     10          1           0        2.512629    1.837695    0.206164
     11          1           0        1.984299    0.099678    2.105456
     12          1           0        0.277902    0.131543    1.681706
     13          1           0        1.162728   -1.404524    1.659396
     14          1           0       -1.117933   -1.752639    0.026474
     15          1           0        2.008554   -0.880045   -1.904387
     16          1           0        1.656530   -2.113819   -0.572566
     17          1           0       -1.376348    0.293422   -1.452430
     18          1           0       -2.799519    1.163858    1.113875
     19          1           0       -2.119320    2.241177   -0.225597
     20          1           0       -2.685693   -1.805776   -0.763283
     21          1           0       -2.574537   -1.286737    0.926270
 ---------------------------------------------------------------------

 SCF Done:  E(RHF) =  -274.635097808     A.U. after    2 cycles

 The electronic state is 1-A.
 Alpha  occ. eigenvalues --  -11.41451 -11.41200 -11.38214 -11.37719 -11.37322
 Alpha  occ. eigenvalues --  -11.35721 -11.34883  -1.24373  -1.19530  -1.00846
 Alpha  occ. eigenvalues --   -0.98863  -0.98145  -0.78237  -0.74314  -0.63712
 Alpha  occ. eigenvalues --   -0.61672  -0.59901  -0.58863  -0.56358  -0.56106
 Alpha  occ. eigenvalues --   -0.52952  -0.51426  -0.49794  -0.47660  -0.46570
 Alpha  occ. eigenvalues --   -0.44108  -0.34409  -0.33060
 Alpha virt. eigenvalues --    0.03652   0.04874   0.05241   0.05612   0.05652
 Alpha virt. eigenvalues --    0.05935   0.06112   0.06355   0.07565   0.07925
 Alpha virt. eigenvalues --    0.08278   0.08785   0.09215   0.10056   0.11514

 Mulliken charges:
               1
     1  C   -5.044500
     2  C    3.538168
     3  C   -4.991807
     4  C   -4.815936
     5  C   -0.739870
     6  C   -3.337630
     7  C   -4.613615
     8  H    1.384868
     9  H    1.426209
    10  H    1.164400
    11  H    1.129830
    12  H    1.440527
    13  H    1.463647
    14  H    1.561036
    15  H    1.592120
    16  H    1.747190
    17  H    1.669636
    18  H    1.434637
    19  H    1.481001
    20  H    1.190735
    21  H    1.319354
 Sum of Mulliken charges =  -0.00000

 Dipole moment (field-independent basis, Debye):
    X=             -0.0028    Y=              0.0551    Z=              0.1626  Tot=              0.1717

 Test job not archived.
 1\1\GINC-SE362\SP\RHF\Aug-CC-pVDZ\C7H14\OHZDE\09-Apr-2025\0\\#t hf aug
 -cc-pvdz iop(5/13=1,5/36=2,99/5=2) pseudo=read geom=check guess=(read,
 tcheck) scf=(maxcycle=1)\\title\\0,1\C,0,-1.11051927,1.89077243,0.4758
 2749\C,0,-1.51015541,0.46290351,0.24644894\C,0,-1.4839687,0.00755714,-
 1.18297488\C,0,-1.85649994,-0.345212,1.241363\C,0,1.89670353,-0.443083
 04,0.2919726\C,0,2.51490009,0.38584016,-0.53575246\C,0,1.54513068,-1.8
 624017,-0.01630708\H,0,-1.13638427,2.15451609,1.53309925\H,0,-0.099769
 03,2.06633252,0.09691375\H,0,-1.77601601,2.56869257,-0.06631562\H,0,-2

 Normal termination of Gaussian 16 at Wed Apr  9 18:55:16 2025.
