 Gaussian 16, Revision C.01,

 ----------------------------------------------------------------------
 #t hf aug-cc-pvdz symm=none int=(grid=ultrafine) guess=(read,tcheck) s
 table=(opt,rrhf)
 ----------------------------------------------------------------------
 -----
 title
 -----
 Symbolic Z-matrix:
 Charge =  0 Multiplicity = 1

 SCF Done:  E(RHF) =  -301.940391432     A.U. after   15 cycles
 Normal termination of Gaussian 16 at Wed Apr  9 17:06:18 2025.
 Gaussian 16:  ES64L-G16RevC.01  3-Jul-2019

 ----------------------------------------------------------------------
 #t hf aug-cc-pvdz iop(5/13=1,5/36=2,99/5=2) pseudo=read geom=check gue
 ss=(read,tcheck) scf=(maxcycle=1)
 ----------------------------------------------------------------------
 -----
 title
 -----
 Structure from the checkpoint file:  "Grambow2020_b97d3_007040_forward_mol1.chk"
 Charge =  0 Multiplicity = 1

                         Standard orientation:
 ---------------------------------------------------------------------
 Center     Atomic      Atomic             Coordinates (Angstroms)
 Number     Number       Type             X           Y           Z
 ---------------------------------------------------------------------
      1          6           0        1.406334    1.464311   -0.010829
      2          7           0        0.180457    0.710327   -0.002720
      3          6           0       -1.962398    0.742548    0.017262
      4          6           0        0.097853   -0.597722   -0.014754
      5          8           0       -1.078818   -1.106850   -0.020182
      6          7           0        1.199910   -1.440055   -0.067110
      7          1           0        2.112188    1.151778    0.787489
      8          1           0        1.944315    1.411307   -0.975544
      9          1           0        1.174489    2.522128    0.181573
     10          1           0       -2.752982    0.145833   -0.431975
     11          1           0       -2.037975    0.843367    1.097527
     12          1           0       -1.797944    1.685379   -0.498924
     13          1           0        1.008285   -2.389401    0.235532
     14          1           0        2.066868   -1.062322    0.304521
 ---------------------------------------------------------------------

 SCF Done:  E(RHF) =  -303.346473449     A.U. after    2 cycles

 The electronic state is 1-A.
 Alpha  occ. eigenvalues --  -21.00198 -15.75849 -15.67613 -11.48440 -11.45794
 Alpha  occ. eigenvalues --  -11.38121  -1.69733  -1.36006  -1.26954  -1.02632
 Alpha  occ. eigenvalues --   -0.97528  -0.75352  -0.69017  -0.63293  -0.61707
 Alpha  occ. eigenvalues --   -0.60370  -0.58444  -0.56098  -0.51432  -0.44785
 Alpha  occ. eigenvalues --   -0.37802  -0.34710  -0.28682  -0.26502
 Alpha virt. eigenvalues --    0.03094   0.04758   0.05353   0.05947   0.06297
 Alpha virt. eigenvalues --    0.06630   0.07427   0.08481   0.09803   0.12175
 Alpha virt. eigenvalues --    0.13075   0.13701   0.14141   0.14650   0.15682

 Mulliken charges:
               1
     1  C   -3.105262
     2  N   -2.433644
     3  C   -3.843458
     4  C    5.418730
     5  O   -2.610274
     6  N   -2.652046
     7  H    1.348563
     8  H    1.369700
     9  H    1.378404
    10  H    1.349648
    11  H    1.296859
    12  H    1.306439
    13  H    0.581672
    14  H    0.594669
 Sum of Mulliken charges =   0.00000

 Dipole moment (field-independent basis, Debye):
    X=             -0.1446    Y=              0.2787    Z=              0.8517  Tot=              0.9077

 Test job not archived.
 1\1\GINC-SE103\SP\RHF\Aug-CC-pVDZ\C3H8N2O1\OHZDE\09-Apr-2025\0\\#t hf
 aug-cc-pvdz iop(5/13=1,5/36=2,99/5=2) pseudo=read geom=check guess=(re
 ad,tcheck) scf=(maxcycle=1)\\title\\0,1\C,0,-0.882254,-0.96525516,1.20
 457821\N,0,-0.39213744,-0.09456165,0.1687152\C,0,-0.85555965,1.3057882
 7,-1.38612418\C,0,0.87061729,0.08271392,-0.13457054\O,0,1.13215656,0.9
 0965207,-1.07879868\N,0,1.91882557,-0.53439465,0.53418397\H,0,-0.48643
 218,-1.99968551,1.12396775\H,0,-0.66006962,-0.59825845,2.2238208\H,0,-
 1.97524836,-1.04701823,1.11278731\H,0,-0.40217416,2.21533691,-1.773511

 Normal termination of Gaussian 16 at Wed Apr  9 17:06:23 2025.
