 Gaussian 16, Revision C.01,

 ----------------------------------------------------------------------
 #t hf aug-cc-pvdz symm=none int=(grid=ultrafine) guess=(read,tcheck) s
 table=(opt,rrhf)
 ----------------------------------------------------------------------
 -----
 title
 -----
 Symbolic Z-matrix:
 Charge =  0 Multiplicity = 1

 SCF Done:  E(RHF) =  -191.945087887     A.U. after   13 cycles
 Normal termination of Gaussian 16 at Wed Apr  9 16:23:36 2025.
 Gaussian 16:  ES64L-G16RevC.01  3-Jul-2019

 ----------------------------------------------------------------------
 #t hf aug-cc-pvdz iop(5/13=1,5/36=2,99/5=2) pseudo=read geom=check gue
 ss=(read,tcheck) scf=(maxcycle=1)
 ----------------------------------------------------------------------
 -----
 title
 -----
 Structure from the checkpoint file:  "Grambow2020_b97d3_006804_reverse_mol2.chk"
 Charge =  0 Multiplicity = 1

                         Standard orientation:
 ---------------------------------------------------------------------
 Center     Atomic      Atomic             Coordinates (Angstroms)
 Number     Number       Type             X           Y           Z
 ---------------------------------------------------------------------
      1          6           0        2.423767    0.008937    0.002922
      2          6           0       -1.100322   -0.104736   -0.001354
      3          8           0       -1.087000   -1.283513   -0.001583
      4          6           0       -1.116574    1.216224   -0.000663
      5          1           0        1.916723   -0.933192   -0.235978
      6          1           0        2.287625    0.717727   -0.823375
      7          1           0        3.494410   -0.177848    0.148085
      8          1           0       -2.063530    1.746325    0.053462
      9          1           0        2.000341    0.427946    0.924051
     10          1           0       -0.180791    1.764595   -0.059020
 ---------------------------------------------------------------------

 SCF Done:  E(RHF) =  -192.830014215     A.U. after    2 cycles

 The electronic state is 1-A.
 Alpha  occ. eigenvalues --  -21.13774 -11.54785 -11.40270 -11.36231  -1.76280
 Alpha  occ. eigenvalues --   -1.12305  -1.03075  -0.73074  -0.63631  -0.58377
 Alpha  occ. eigenvalues --   -0.55398  -0.54078  -0.54011  -0.53920  -0.46809
 Alpha  occ. eigenvalues --   -0.29516
 Alpha virt. eigenvalues --    0.02780   0.04669   0.06131   0.06792   0.07786
 Alpha virt. eigenvalues --    0.08084   0.09648   0.12184   0.12937   0.13210
 Alpha virt. eigenvalues --    0.13737   0.13892   0.15719   0.16360   0.16889

 Mulliken charges:
               1
     1  C   -5.075357
     2  C    1.625536
     3  O   -2.304229
     4  C   -2.059009
     5  H    1.275981
     6  H    1.268135
     7  H    1.216469
     8  H    1.363207
     9  H    1.287149
    10  H    1.402118
 Sum of Mulliken charges =  -0.00000

 Dipole moment (field-independent basis, Debye):
    X=              0.0826    Y=             -0.3659    Z=              0.0005  Tot=              0.3751

 Test job not archived.
 1\1\GINC-SE220\SP\RHF\Aug-CC-pVDZ\C3H6O1\OHZDE\09-Apr-2025\0\\#t hf au
 g-cc-pvdz iop(5/13=1,5/36=2,99/5=2) pseudo=read geom=check guess=(read
 ,tcheck) scf=(maxcycle=1)\\title\\0,1\C,0,-1.25682341,-0.30511299,1.29
 619675\C,0,0.86350198,0.98371071,-1.20885756\O,0,0.27585847,2.00563474
 ,-1.21522946\C,0,1.5231098,-0.16087383,-1.20234923\H,0,-1.55285492,0.6
 0146552,0.75559179\H,0,-1.33119918,-1.17122615,0.62686782\H,0,-1.92150
 623,-0.45259109,2.15566484\H,0,2.40227454,-0.28305278,-1.8290896\H,0,-
 0.22410375,-0.19810225,1.65028009\H,0,1.1782307,-0.97558988,-0.5721884

 Normal termination of Gaussian 16 at Wed Apr  9 16:23:38 2025.
