 Gaussian 16, Revision C.01,

 ----------------------------------------------------------------------
 #t hf aug-cc-pvdz symm=none int=(grid=ultrafine) guess=(read,tcheck) s
 table=(opt,rrhf)
 ----------------------------------------------------------------------
 -----
 title
 -----
 Symbolic Z-matrix:
 Charge =  0 Multiplicity = 1

 SCF Done:  E(RHF) =  -305.607182906     A.U. after   16 cycles
 Normal termination of Gaussian 16 at Wed Apr  9 03:15:36 2025.
 Gaussian 16:  ES64L-G16RevC.01  3-Jul-2019

 ----------------------------------------------------------------------
 #t hf aug-cc-pvdz iop(5/13=1,5/36=2,99/5=2) pseudo=read geom=check gue
 ss=(read,tcheck) scf=(maxcycle=1)
 ----------------------------------------------------------------------
 -----
 title
 -----
 Structure from the checkpoint file:  "Grambow2020_b97d3_006968_reverse_mol1.chk"
 Charge =  0 Multiplicity = 1

                         Standard orientation:
 ---------------------------------------------------------------------
 Center     Atomic      Atomic             Coordinates (Angstroms)
 Number     Number       Type             X           Y           Z
 ---------------------------------------------------------------------
      1          8           0       -2.278732   -0.092126    0.106510
      2          6           0       -0.430058    1.028029    0.097642
      3          6           0        1.150269    1.141732    0.116689
      4          6           0        1.494958   -0.280703   -0.220898
      5          6           0        0.651977   -1.251291    0.479282
      6          8           0       -0.138918   -0.612824   -0.554972
      7          1           0       -2.419022   -0.286772   -0.843205
      8          1           0       -0.902932    1.609089   -0.684393
      9          1           0       -0.883893    1.136266    1.073311
     10          1           0        1.516782    1.840374   -0.646741
     11          1           0        1.541564    1.463806    1.093871
     12          1           0        2.188274   -0.590106   -0.999412
     13          1           0        0.292347   -1.047335    1.491321
     14          1           0        0.805200   -2.312325    0.266658
 ---------------------------------------------------------------------

 SCF Done:  E(RHF) =  -307.030875770     A.U. after    2 cycles

 The electronic state is 1-A.
 Alpha  occ. eigenvalues --  -21.11425 -20.88493 -11.56091 -11.50938 -11.47653
 Alpha  occ. eigenvalues --  -11.43444  -1.80181  -1.41591  -1.20171  -1.08297
 Alpha  occ. eigenvalues --   -0.93655  -0.86121  -0.75300  -0.67214  -0.65152
 Alpha  occ. eigenvalues --   -0.58943  -0.57342  -0.52294  -0.47071  -0.42894
 Alpha  occ. eigenvalues --   -0.38882  -0.35299  -0.18016  -0.16826
 Alpha virt. eigenvalues --    0.02411   0.03822   0.04226   0.04369   0.05475
 Alpha virt. eigenvalues --    0.06004   0.07133   0.08616   0.09672   0.10644
 Alpha virt. eigenvalues --    0.11899   0.12394   0.13456   0.13839   0.14396

 Mulliken charges:
               1
     1  O   -1.621223
     2  C   -2.111802
     3  C   -3.174227
     4  C   -0.449134
     5  C   -1.857883
     6  O   -1.595153
     7  H    0.802328
     8  H    1.390786
     9  H    1.503393
    10  H    1.387756
    11  H    1.203673
    12  H    1.373031
    13  H    1.709808
    14  H    1.438647
 Sum of Mulliken charges =  -0.00000

 Dipole moment (field-independent basis, Debye):
    X=              5.5369    Y=              0.0439    Z=             -0.5040  Tot=              5.5599

 Test job not archived.
 1\1\GINC-SE159\SP\RHF\Aug-CC-pVDZ\C4H8O2\OHZDE\09-Apr-2025\0\\#t hf au
 g-cc-pvdz iop(5/13=1,5/36=2,99/5=2) pseudo=read geom=check guess=(read
 ,tcheck) scf=(maxcycle=1)\\title\\0,1\O,0,1.44982543,1.96471055,0.3589
 2232\C,0,1.0475245,-0.15370274,0.20759712\C,0,0.08692469,-1.39485259,-
 0.0103929\C,0,-1.09970715,-0.67825939,-0.58874951\C,0,-1.39399712,0.58
 033138,0.09845591\O,0,-0.19659817,0.75822679,-0.69993228\H,0,1.5985263
 3,2.22447189,-0.57378285\H,0,1.94182925,-0.17780047,-0.4026968\H,0,1.2
 2145559,0.08179621,1.248702\H,0,0.51066222,-2.11706607,-0.72039998\H,0

 Normal termination of Gaussian 16 at Wed Apr  9 03:15:41 2025.
