 Gaussian 16, Revision C.01,

 ----------------------------------------------------------------------
 #t hf aug-cc-pvdz symm=none int=(grid=ultrafine) guess=(read,tcheck) s
 table=(opt,rrhf)
 ----------------------------------------------------------------------
 -----
 title
 -----
 Symbolic Z-matrix:
 Charge =  0 Multiplicity = 1

 SCF Done:  E(RHF) =  -354.786196148     A.U. after   14 cycles
 Normal termination of Gaussian 16 at Wed Apr  9 18:54:30 2025.
 Gaussian 16:  ES64L-G16RevC.01  3-Jul-2019

 ----------------------------------------------------------------------
 #t hf aug-cc-pvdz iop(5/13=1,5/36=2,99/5=2) pseudo=read geom=check gue
 ss=(read,tcheck) scf=(maxcycle=1)
 ----------------------------------------------------------------------
 -----
 title
 -----
 Structure from the checkpoint file:  "Grambow2020_wb97xd3_007773_forward_mol2.chk"
 Charge =  0 Multiplicity = 1

                         Standard orientation:
 ---------------------------------------------------------------------
 Center     Atomic      Atomic             Coordinates (Angstroms)
 Number     Number       Type             X           Y           Z
 ---------------------------------------------------------------------
      1          6           0        2.443059   -0.397609    0.001424
      2          6           0        1.014131   -0.001264   -0.000984
      3          7           0        0.585168    1.213849   -0.000298
      4          7           0       -0.779831    1.101259   -0.001246
      5          6           0       -1.229856   -0.189548   -0.000125
      6          8           0       -2.359713   -0.620953    0.001600
      7          7           0       -0.029792   -0.893032   -0.001955
      8          1           0        2.685191   -0.981260    0.891730
      9          1           0        3.056395    0.500554   -0.008418
     10          1           0        2.683335   -0.999635   -0.876928
     11          1           0       -1.359238    1.918703    0.005299
     12          1           0        0.019203   -1.894746   -0.001886
 ---------------------------------------------------------------------

 SCF Done:  E(RHF) =  -356.359396726     A.U. after    2 cycles

 The electronic state is 1-A.
 Alpha  occ. eigenvalues --  -21.02161 -15.79814 -15.79113 -15.76129 -11.51397
 Alpha  occ. eigenvalues --  -11.48084 -11.40677  -1.73489  -1.61472  -1.36026
 Alpha  occ. eigenvalues --   -1.22553  -1.07952  -0.89921  -0.84002  -0.71185
 Alpha  occ. eigenvalues --   -0.68045  -0.64392  -0.59252  -0.58640  -0.55436
 Alpha  occ. eigenvalues --   -0.50643  -0.45294  -0.44944  -0.42807  -0.29514
 Alpha  occ. eigenvalues --   -0.26121
 Alpha virt. eigenvalues --    0.02753   0.05076   0.05574   0.05884   0.06437
 Alpha virt. eigenvalues --    0.08732   0.10346   0.11249   0.12022   0.12752
 Alpha virt. eigenvalues --    0.13730   0.14458   0.14933   0.15251   0.16375

 Mulliken charges:
               1
     1  C   -4.232285
     2  C    3.934044
     3  N   -2.232486
     4  N   -2.010539
     5  C    5.609039
     6  O   -3.248221
     7  N   -3.016166
     8  H    1.167463
     9  H    1.233073
    10  H    1.165491
    11  H    0.814371
    12  H    0.816217
 Sum of Mulliken charges =   0.00000

 Dipole moment (field-independent basis, Debye):
    X=              2.7473    Y=             -0.8987    Z=              0.0080  Tot=              2.8906

 Test job not archived.
 1\1\GINC-SE174\SP\RHF\Aug-CC-pVDZ\C3H5N3O1\OHZDE\09-Apr-2025\0\\#t hf
 aug-cc-pvdz iop(5/13=1,5/36=2,99/5=2) pseudo=read geom=check guess=(re
 ad,tcheck) scf=(maxcycle=1)\\title\\0,1\C,0,1.89879622,-0.15367653,0.0
 2752139\C,0,0.41709056,-0.19218439,0.07218043\N,0,-0.28313141,-1.19069
 569,0.48832273\N,0,-1.58412237,-0.78594966,0.34866987\C,0,-1.72096658,
 0.47516274,-0.16081777\O,0,-2.71908197,1.11360316,-0.40340458\N,0,-0.3
 9016205,0.84247424,-0.33136586\H,0,2.25548032,-0.01634493,-0.99514108\
 H,0,2.28606214,-1.09442946,0.41220797\H,0,2.28723415,0.66440353,0.6370

 Normal termination of Gaussian 16 at Wed Apr  9 18:54:34 2025.
