 Gaussian 16, Revision C.01,

 ----------------------------------------------------------------------
 #t hf aug-cc-pvdz symm=none int=(grid=ultrafine) guess=(read,tcheck) s
 table=(opt,rrhf)
 ----------------------------------------------------------------------
 -----
 title
 -----
 Symbolic Z-matrix:
 Charge =  0 Multiplicity = 1

 SCF Done:  E(RHF) =  -324.950716446     A.U. after   14 cycles
 Normal termination of Gaussian 16 at Wed Apr  9 19:08:13 2025.
 Gaussian 16:  ES64L-G16RevC.01  3-Jul-2019

 ----------------------------------------------------------------------
 #t hf aug-cc-pvdz iop(5/13=1,5/36=2,99/5=2) pseudo=read geom=check gue
 ss=(read,tcheck) scf=(maxcycle=1)
 ----------------------------------------------------------------------
 -----
 title
 -----
 Structure from the checkpoint file:  "Grambow2020_wb97xd3_008119_forward_mol1.chk"
 Charge =  0 Multiplicity = 1

                         Standard orientation:
 ---------------------------------------------------------------------
 Center     Atomic      Atomic             Coordinates (Angstroms)
 Number     Number       Type             X           Y           Z
 ---------------------------------------------------------------------
      1          6           0       -2.801133    0.042645   -0.335685
      2          7           0       -1.367302    0.084769   -0.581304
      3          6           0       -0.504411   -0.051596    0.373516
      4          8           0       -0.337482   -0.213659    1.536458
      5          6           0        1.146951    0.074452   -0.588661
      6          6           0        1.804065    1.289853    0.038632
      7          6           0        1.818672   -1.248305   -0.270087
      8          1           0       -3.226800   -0.867630   -0.762521
      9          1           0       -3.276467    0.898644   -0.815643
     10          1           0       -3.026032    0.067628    0.731749
     11          1           0       -0.082040    0.127261   -1.052087
     12          1           0        1.191299    0.208781   -1.693179
     13          1           0        1.783335    1.203503    1.126360
     14          1           0        1.294220    2.213532   -0.240747
     15          1           0        2.847919    1.371400   -0.273821
     16          1           0        2.861885   -1.241241   -0.595047
     17          1           0        1.801194   -1.423608    0.806914
     18          1           0        1.317594   -2.084673   -0.760804
 ---------------------------------------------------------------------

 SCF Done:  E(RHF) =  -326.534552621     A.U. after    2 cycles

 The electronic state is 1-A.
 Alpha  occ. eigenvalues --  -21.06216 -15.72265 -11.54845 -11.43163 -11.39291
 Alpha  occ. eigenvalues --  -11.39151 -11.36685  -1.73330  -1.39908  -1.22640
 Alpha  occ. eigenvalues --   -1.04009  -1.01622  -0.87346  -0.72216  -0.67592
 Alpha  occ. eigenvalues --   -0.64825  -0.61550  -0.58493  -0.57434  -0.56672
 Alpha  occ. eigenvalues --   -0.54966  -0.50877  -0.50647  -0.48013  -0.46466
 Alpha  occ. eigenvalues --   -0.37407  -0.31182  -0.29850
 Alpha virt. eigenvalues --    0.03510   0.04890   0.05404   0.05487   0.05641
 Alpha virt. eigenvalues --    0.05719   0.06936   0.07231   0.07723   0.08302
 Alpha virt. eigenvalues --    0.09481   0.10864   0.12239   0.13466   0.13753

 Mulliken charges:
               1
     1  C   -3.593926
     2  N   -3.688387
     3  C    6.092696
     4  O   -3.152479
     5  C   -3.510724
     6  C   -3.896735
     7  C   -3.906837
     8  H    1.367260
     9  H    1.354634
    10  H    1.287768
    11  H    2.912612
    12  H    1.207072
    13  H    1.320552
    14  H    1.256454
    15  H    1.179129
    16  H    1.175982
    17  H    1.345415
    18  H    1.249514
 Sum of Mulliken charges =   0.00000

 Dipole moment (field-independent basis, Debye):
    X=              0.4935    Y=              0.0444    Z=             -0.4362  Tot=              0.6601

 Test job not archived.
 1\1\GINC-SE048\SP\RHF\Aug-CC-pVDZ\C5H11N1O1\OHZDE\09-Apr-2025\0\\#t hf
  aug-cc-pvdz iop(5/13=1,5/36=2,99/5=2) pseudo=read geom=check guess=(r
 ead,tcheck) scf=(maxcycle=1)\\title\\0,1\C,0,2.95425812,0.39051267,-0.
 18043103\N,0,1.5266469,0.23199786,-0.41447181\C,0,0.69289749,0.0229709
 3,0.55301285\O,0,0.5550563,-0.12576651,1.72153402\C,0,-0.96955011,-0.0
 6833799,-0.39387535\C,0,-1.45307495,-1.47196289,-0.07997129\C,0,-1.779
 03648,1.04271557,0.2485236\H,0,3.25216454,1.42301584,-0.3732253\H,0,3.
 50739096,-0.25660512,-0.86184169\H,0,3.22338124,0.13382596,0.84538671\

 Normal termination of Gaussian 16 at Wed Apr  9 19:08:19 2025.
