 Gaussian 16, Revision C.01,

 ----------------------------------------------------------------------
 #t hf aug-cc-pvdz symm=none int=(grid=ultrafine) guess=(read,tcheck) s
 table=(opt,rrhf)
 ----------------------------------------------------------------------
 -----
 title
 -----
 Symbolic Z-matrix:
 Charge =  0 Multiplicity = 1

 SCF Done:  E(RHF) =  -308.914130841     A.U. after   16 cycles

 1\1\GINC-SE114\Stability\RHF\Aug-CC-pVDZ\C6H12O1\OHZDE\09-Apr-2025\0\\
 #t hf aug-cc-pvdz symm=none int=(grid=ultrafine) guess=(read,tcheck) s
 table=(opt,rrhf)\\title\\0,1\C,0,-0.87842745,-1.59094114,-0.4925389\C,
 0,-0.64098505,-0.08686474,-0.51726627\C,0,-1.30670416,0.63026185,0.628
 21224\C,0,-0.80733069,1.94676645,0.71445837\O,0,0.90771449,1.13078957,
 0.90224258\C,0,0.87609401,0.39673888,-0.31409808\C,0,1.90812733,-0.711
 41914,-0.26511571\H,0,-1.93891377,-1.8034573,-0.64398236\H,0,-0.325514
 14,-2.10540459,-1.28012554\H,0,-0.5879279,-2.02877218,0.4648257\H,0,-0

 Normal termination of Gaussian 16 at Wed Apr  9 18:11:42 2025.
 Gaussian 16:  ES64L-G16RevC.01  3-Jul-2019

 ----------------------------------------------------------------------
 #t hf aug-cc-pvdz iop(5/13=1,5/36=2,99/5=2) pseudo=read geom=check gue
 ss=(read,tcheck) scf=(maxcycle=1)
 ----------------------------------------------------------------------
 -----
 title
 -----
 Structure from the checkpoint file:  "Grambow2020_wb97xd3_006738_forward_mol1.chk"
 Charge =  0 Multiplicity = 1

                         Standard orientation:
 ---------------------------------------------------------------------
 Center     Atomic      Atomic             Coordinates (Angstroms)
 Number     Number       Type             X           Y           Z
 ---------------------------------------------------------------------
      1          6           0        1.242421    1.673740   -0.155565
      2          6           0        0.146747    0.817746    0.465732
      3          6           0       -1.167212    0.928483   -0.262844
      4          6           0       -2.034442   -0.096364    0.170282
      5          8           0       -0.667445   -1.298606   -0.402775
      6          6           0        0.369834   -0.770995    0.412698
      7          6           0        1.714327   -1.218739   -0.123369
      8          1           0        0.988794    2.731613   -0.059089
      9          1           0        2.206389    1.522140    0.332759
     10          1           0        1.365823    1.460029   -1.219394
     11          1           0        0.055777    1.090573    1.522941
     12          1           0       -0.852963   -0.204133   -1.006751
     13          1           0       -1.495204    1.787896   -0.830297
     14          1           0       -2.946145   -0.302297   -0.382532
     15          1           0       -2.017056   -0.514044    1.175045
     16          1           0        0.242536   -1.171291    1.424009
     17          1           0        1.876475   -0.851335   -1.138047
     18          1           0        2.527448   -0.855840    0.508733
     19          1           0        1.757636   -2.307690   -0.146778
 ---------------------------------------------------------------------

 SCF Done:  E(RHF) =  -310.458749100     A.U. after    2 cycles

 The electronic state is 1-A.
 Alpha  occ. eigenvalues --  -21.00950 -11.49855 -11.48090 -11.41109 -11.38106
 Alpha  occ. eigenvalues --  -11.37096 -11.34451  -1.70857  -1.23563  -1.13424
 Alpha  occ. eigenvalues --   -1.04211  -0.93315  -0.85724  -0.76249  -0.69331
 Alpha  occ. eigenvalues --   -0.66130  -0.62716  -0.57816  -0.57100  -0.52902
 Alpha  occ. eigenvalues --   -0.52368  -0.49883  -0.47474  -0.45249  -0.41489
 Alpha  occ. eigenvalues --   -0.36563  -0.33030  -0.23024
 Alpha virt. eigenvalues --    0.04123   0.04835   0.05051   0.05203   0.05511
 Alpha virt. eigenvalues --    0.06043   0.06078   0.06899   0.07350   0.08699
 Alpha virt. eigenvalues --    0.09370   0.09424   0.11348   0.12392   0.13216

 Mulliken charges:
               1
     1  C   -3.949198
     2  C   -2.142879
     3  C   -1.011977
     4  C   -3.451016
     5  O   -2.556429
     6  C    0.754908
     7  C   -3.818969
     8  H    1.094155
     9  H    1.273044
    10  H    1.455900
    11  H    1.598982
    12  H    1.708483
    13  H    1.348662
    14  H    1.197392
    15  H    1.248571
    16  H    1.619397
    17  H    1.321024
    18  H    1.252030
    19  H    1.057919
 Sum of Mulliken charges =  -0.00000

 Dipole moment (field-independent basis, Debye):
    X=             -0.8159    Y=             -0.5363    Z=              0.4594  Tot=              1.0791

 Test job not archived.
 1\1\GINC-SE114\SP\RHF\Aug-CC-pVDZ\C6H12O1\OHZDE\09-Apr-2025\0\\#t hf a
 ug-cc-pvdz iop(5/13=1,5/36=2,99/5=2) pseudo=read geom=check guess=(rea
 d,tcheck) scf=(maxcycle=1)\\title\\0,1\C,0,-0.87842745,-1.59094114,-0.
 4925389\C,0,-0.64098505,-0.08686474,-0.51726627\C,0,-1.30670416,0.6302
 6185,0.62821224\C,0,-0.80733069,1.94676645,0.71445837\O,0,0.90771449,1
 .13078957,0.90224258\C,0,0.87609401,0.39673888,-0.31409808\C,0,1.90812
 733,-0.71141914,-0.26511571\H,0,-1.93891377,-1.8034573,-0.64398236\H,0
 ,-0.32551414,-2.10540459,-1.28012554\H,0,-0.5879279,-2.02877218,0.4648

 Normal termination of Gaussian 16 at Wed Apr  9 18:11:50 2025.
