 Gaussian 16, Revision C.01,

 ----------------------------------------------------------------------
 #t hf aug-cc-pvdz symm=none int=(grid=ultrafine) guess=(read,tcheck) s
 table=(opt,rrhf)
 ----------------------------------------------------------------------
 -----
 title
 -----
 Symbolic Z-matrix:
 Charge =  0 Multiplicity = 1

 SCF Done:  E(RHF) =  -318.769660804     A.U. after   13 cycles
 Normal termination of Gaussian 16 at Wed Apr  9 18:21:16 2025.
 Gaussian 16:  ES64L-G16RevC.01  3-Jul-2019

 ----------------------------------------------------------------------
 #t hf aug-cc-pvdz iop(5/13=1,5/36=2,99/5=2) pseudo=read geom=check gue
 ss=(read,tcheck) scf=(maxcycle=1)
 ----------------------------------------------------------------------
 -----
 title
 -----
 Structure from the checkpoint file:  "Grambow2020_wb97xd3_006927_reverse_mol2.chk"
 Charge =  0 Multiplicity = 1

                         Standard orientation:
 ---------------------------------------------------------------------
 Center     Atomic      Atomic             Coordinates (Angstroms)
 Number     Number       Type             X           Y           Z
 ---------------------------------------------------------------------
      1          7           0        1.504968   -1.353563   -0.053163
      2          6           0        0.722268   -0.201933    0.021947
      3          6           0       -0.112710    0.419218    1.123952
      4          6           0       -0.791768   -0.052338   -0.067311
      5          7           0       -1.889011   -0.886110   -0.309469
      6          6           0       -0.289452    1.393848   -0.010067
      7          7           0        1.052074    1.118704   -0.575242
      8          1           0        2.100284   -1.511598    0.743497
      9          1           0        0.977205   -2.178687   -0.289189
     10          1           0       -0.231950    0.375609    2.192187
     11          1           0       -2.248927   -0.807169   -1.248152
     12          1           0       -2.634865   -0.778354    0.360428
     13          1           0       -0.816098    2.336687   -0.012076
     14          1           0        1.008109    1.057533   -1.592704
 ---------------------------------------------------------------------

 SCF Done:  E(RHF) =  -320.273202740     A.U. after    2 cycles

 The electronic state is 1-A.
 Alpha  occ. eigenvalues --  -15.75946 -15.74219 -15.70561 -11.50025 -11.46865
 Alpha  occ. eigenvalues --  -11.42762 -11.39830  -1.56782  -1.31848  -1.29642
 Alpha  occ. eigenvalues --   -1.14110  -0.91120  -0.82576  -0.76718  -0.69639
 Alpha  occ. eigenvalues --   -0.66619  -0.65659  -0.61214  -0.58517  -0.51665
 Alpha  occ. eigenvalues --   -0.46319  -0.44104  -0.38177  -0.34108  -0.31178
 Alpha  occ. eigenvalues --   -0.29284
 Alpha virt. eigenvalues --    0.03420   0.05175   0.05203   0.05812   0.06015
 Alpha virt. eigenvalues --    0.06873   0.07087   0.10478   0.11063   0.12272
 Alpha virt. eigenvalues --    0.12784   0.13468   0.14540   0.15123   0.15566

 Mulliken charges:
               1
     1  N   -3.655489
     2  C    4.309120
     3  C   -1.503521
     4  C    2.693050
     5  N   -3.532391
     6  C   -0.264705
     7  N   -2.576649
     8  H    0.493609
     9  H    0.396887
    10  H    0.969296
    11  H    0.537557
    12  H    0.413356
    13  H    1.145536
    14  H    0.574343
 Sum of Mulliken charges =   0.00000

 Dipole moment (field-independent basis, Debye):
    X=             -2.4105    Y=             -0.9131    Z=              0.5491  Tot=              2.6355

 Test job not archived.
 1\1\GINC-SE112\SP\RHF\Aug-CC-pVDZ\C4H7N3\OHZDE\09-Apr-2025\0\\#t hf au
 g-cc-pvdz iop(5/13=1,5/36=2,99/5=2) pseudo=read geom=check guess=(read
 ,tcheck) scf=(maxcycle=1)\\title\\0,1\N,0,-1.83181328,-0.88875232,0.35
 512236\C,0,-0.84717377,0.01757922,-0.03674394\C,0,0.12346488,0.0617626
 4,-1.200075\C,0,0.66468431,-0.05838422,0.13978985\N,0,1.57996982,-0.91
 744275,0.75787521\C,0,0.44129568,1.33369543,-0.45959576\N,0,-0.9454428
 ,1.49903547,0.03481216\H,0,-2.42019194,-1.22121175,-0.39141922\H,0,-1.
 47403578,-1.64972607,0.9100875\H,0,0.26682163,-0.37784879,-2.17138245\

 Normal termination of Gaussian 16 at Wed Apr  9 18:21:21 2025.
