 Gaussian 16, Revision C.01,

 ----------------------------------------------------------------------
 #t hf aug-cc-pvdz symm=none int=(grid=ultrafine) guess=(read,tcheck) s
 table=(opt,rrhf)
 ----------------------------------------------------------------------
 -----
 title
 -----
 Symbolic Z-matrix:
 Charge =  0 Multiplicity = 1

 SCF Done:  E(RHF) =  -344.684000243     A.U. after   16 cycles

 1\1\GINC-SE115\Stability\RHF\Aug-CC-pVDZ\C5H10O2\OHZDE\09-Apr-2025\0\\
 #t hf aug-cc-pvdz symm=none int=(grid=ultrafine) guess=(read,tcheck) s
 table=(opt,rrhf)\\title\\0,1\O,0,0.45208969,-2.19080042,1.08257181\C,0
 ,1.28043699,-0.42050197,0.30288177\C,0,0.67636773,-0.18902473,-1.03512
 918\C,0,-0.68237028,0.44444261,-0.81273582\C,0,-1.10299922,-0.0360602,
 0.58411495\O,0,-0.86437523,1.27630529,1.14449426\C,0,-0.66809422,1.827
 75572,-0.1604825\H,0,0.70099921,-2.35459714,2.00014435\H,0,2.22507171,
 -0.94975598,0.33578991\H,0,1.12201431,0.31679448,1.08054076\H,0,0.5475

 Normal termination of Gaussian 16 at Wed Apr  9 18:42:04 2025.
 Gaussian 16:  ES64L-G16RevC.01  3-Jul-2019

 ----------------------------------------------------------------------
 #t hf aug-cc-pvdz iop(5/13=1,5/36=2,99/5=2) pseudo=read geom=check gue
 ss=(read,tcheck) scf=(maxcycle=1)
 ----------------------------------------------------------------------
 -----
 title
 -----
 Structure from the checkpoint file:  "Grambow2020_wb97xd3_007548_forward_mol1.chk"
 Charge =  0 Multiplicity = 1

                         Standard orientation:
 ---------------------------------------------------------------------
 Center     Atomic      Atomic             Coordinates (Angstroms)
 Number     Number       Type             X           Y           Z
 ---------------------------------------------------------------------
      1          8           0       -2.370276   -0.622902    0.224788
      2          6           0       -1.031005    0.627042   -0.810599
      3          6           0       -0.285892    1.425671    0.197247
      4          6           0        0.822335    0.545708    0.739839
      5          6           0        0.301146   -0.886147    0.547079
      6          8           0        1.225449   -1.112039   -0.542832
      7          6           0        1.888888    0.125910   -0.272795
      8          1           0       -2.812508   -1.261965   -0.346837
      9          1           0       -1.917677    1.075650   -1.241982
     10          1           0       -0.477715   -0.045374   -1.454947
     11          1           0       -0.970053    1.685617    1.008581
     12          1           0        0.024477    2.383164   -0.252445
     13          1           0        1.189630    0.869130    1.712978
     14          1           0       -1.376394   -0.941110    0.367188
     15          1           0        0.452837   -1.618758    1.348663
     16          1           0        2.876845   -0.041751    0.169632
     17          1           0        1.996336    0.745821   -1.171099
 ---------------------------------------------------------------------

 SCF Done:  E(RHF) =  -346.302122012     A.U. after    2 cycles

 The electronic state is 1-A.
 Alpha  occ. eigenvalues --  -21.06741 -21.00608 -11.53048 -11.45490 -11.42450
 Alpha  occ. eigenvalues --  -11.38922 -11.33312  -1.74193  -1.65339  -1.24785
 Alpha  occ. eigenvalues --   -1.04754  -0.94239  -0.90318  -0.74413  -0.71668
 Alpha  occ. eigenvalues --   -0.66545  -0.63935  -0.60015  -0.59087  -0.54588
 Alpha  occ. eigenvalues --   -0.48587  -0.47439  -0.45863  -0.42100  -0.37150
 Alpha  occ. eigenvalues --   -0.33152  -0.31423  -0.18756
 Alpha virt. eigenvalues --    0.03337   0.04584   0.04704   0.05194   0.05686
 Alpha virt. eigenvalues --    0.06075   0.06443   0.06893   0.07844   0.08980
 Alpha virt. eigenvalues --    0.10447   0.11549   0.12614   0.13677   0.14108

 Mulliken charges:
               1
     1  O   -2.121167
     2  C   -2.631237
     3  C   -3.429831
     4  C   -2.514899
     5  C   -0.035066
     6  O   -2.656118
     7  C   -1.147235
     8  H    0.625663
     9  H    1.328885
    10  H    1.633717
    11  H    1.407564
    12  H    1.405751
    13  H    1.272537
    14  H    2.535319
    15  H    1.369512
    16  H    1.408185
    17  H    1.548421
 Sum of Mulliken charges =   0.00000

 Dipole moment (field-independent basis, Debye):
    X=             -2.0859    Y=              2.2255    Z=             -1.1908  Tot=              3.2744

 Test job not archived.
 1\1\GINC-SE115\SP\RHF\Aug-CC-pVDZ\C5H10O2\OHZDE\09-Apr-2025\0\\#t hf a
 ug-cc-pvdz iop(5/13=1,5/36=2,99/5=2) pseudo=read geom=check guess=(rea
 d,tcheck) scf=(maxcycle=1)\\title\\0,1\O,0,0.45208969,-2.19080042,1.08
 257181\C,0,1.28043699,-0.42050197,0.30288177\C,0,0.67636773,-0.1890247
 3,-1.03512918\C,0,-0.68237028,0.44444261,-0.81273582\C,0,-1.10299922,-
 0.0360602,0.58411495\O,0,-0.86437523,1.27630529,1.14449426\C,0,-0.6680
 9422,1.82775572,-0.1604825\H,0,0.70099921,-2.35459714,2.00014435\H,0,2
 .22507171,-0.94975598,0.33578991\H,0,1.12201431,0.31679448,1.08054076\

 Normal termination of Gaussian 16 at Wed Apr  9 18:42:10 2025.
