 Gaussian 16, Revision C.01,

 ----------------------------------------------------------------------
 #t hf aug-cc-pvdz symm=none int=(grid=ultrafine) guess=(read,tcheck) s
 table=(opt,rrhf)
 ----------------------------------------------------------------------
 -----
 title
 -----
 Symbolic Z-matrix:
 Charge =  0 Multiplicity = 1

 SCF Done:  E(RHF) =  -322.676600986     A.U. after   14 cycles
 Normal termination of Gaussian 16 at Wed Apr  9 18:53:47 2025.
 Gaussian 16:  ES64L-G16RevC.01  3-Jul-2019

 ----------------------------------------------------------------------
 #t hf aug-cc-pvdz iop(5/13=1,5/36=2,99/5=2) pseudo=read geom=check gue
 ss=(read,tcheck) scf=(maxcycle=1)
 ----------------------------------------------------------------------
 -----
 title
 -----
 Structure from the checkpoint file:  "Grambow2020_wb97xd3_007757_reverse_mol2.chk"
 Charge =  0 Multiplicity = 1

                         Standard orientation:
 ---------------------------------------------------------------------
 Center     Atomic      Atomic             Coordinates (Angstroms)
 Number     Number       Type             X           Y           Z
 ---------------------------------------------------------------------
      1          6           0        3.540074    0.126947   -0.026272
      2          6           0        2.068268    0.075690    0.000609
      3          6           0        0.914785    0.643842    0.010597
      4          6           0       -2.640219   -0.002093   -0.008998
      5          7           0       -2.516997    1.201422    0.001589
      6          8           0       -2.638093   -1.160505   -0.026058
      7          6           0        0.895417   -0.859074    0.043979
      8          1           0        3.950918   -0.363149    0.859424
      9          1           0        3.921499   -0.410492   -0.897464
     10          1           0        3.902260    1.154662   -0.059993
     11          1           0        0.299562    1.525950    0.003985
     12          1           0       -3.283320    1.847947    0.049358
     13          1           0        0.649544   -1.376119    0.972359
     14          1           0        0.613311   -1.416585   -0.849820
 ---------------------------------------------------------------------

 SCF Done:  E(RHF) =  -324.150376214     A.U. after    2 cycles

 The electronic state is 1-A.
 Alpha  occ. eigenvalues --  -21.13117 -15.78325 -11.57922 -11.43398 -11.41216
 Alpha  occ. eigenvalues --  -11.40145 -11.36732  -1.77958  -1.36299  -1.29401
 Alpha  occ. eigenvalues --   -1.06220  -0.83711  -0.79817  -0.74188  -0.62942
 Alpha  occ. eigenvalues --   -0.60993  -0.60074  -0.59799  -0.58376  -0.57855
 Alpha  occ. eigenvalues --   -0.54922  -0.42826  -0.39660  -0.36858  -0.35092
 Alpha  occ. eigenvalues --   -0.31559
 Alpha virt. eigenvalues --    0.03165   0.04375   0.06213   0.06658   0.06756
 Alpha virt. eigenvalues --    0.07094   0.07803   0.09504   0.10906   0.11507
 Alpha virt. eigenvalues --    0.11839   0.12635   0.12821   0.13769   0.14955

 Mulliken charges:
               1
     1  C   -4.959278
     2  C    3.908110
     3  C   -2.118435
     4  C    3.731075
     5  N   -2.446348
     6  O   -2.149493
     7  C   -3.286298
     8  H    1.104130
     9  H    1.106505
    10  H    1.107037
    11  H    0.865396
    12  H    0.860987
    13  H    1.134742
    14  H    1.141870
 Sum of Mulliken charges =  -0.00000

 Dipole moment (field-independent basis, Debye):
    X=             -0.7008    Y=              0.2166    Z=              0.0399  Tot=              0.7346

 Test job not archived.
 1\1\GINC-SE105\SP\RHF\Aug-CC-pVDZ\C5H7N1O1\OHZDE\09-Apr-2025\0\\#t hf
 aug-cc-pvdz iop(5/13=1,5/36=2,99/5=2) pseudo=read geom=check guess=(re
 ad,tcheck) scf=(maxcycle=1)\\title\\0,1\C,0,-2.76095088,-0.33187332,-0
 .62943583\C,0,-1.34039717,-0.14694307,-0.28681094\C,0,-0.11688119,-0.5
 4228681,-0.27545585\C,0,3.23287858,0.40875014,0.68907018\N,0,3.3263487
 9,-0.68679975,0.18431384\O,0,3.02628569,1.45385585,1.14435903\C,0,-0.3
 7111932,0.79190277,0.36917134\H,0,-3.37237593,-0.31747214,0.27576959\H
 ,0,-3.10671157,0.48706484,-1.26432953\H,0,-2.92542824,-1.27521408,-1.1

 Normal termination of Gaussian 16 at Wed Apr  9 18:53:51 2025.
