 Gaussian 16, Revision C.01,

 ----------------------------------------------------------------------
 #t hf aug-cc-pvdz symm=none int=(grid=ultrafine) guess=(read,tcheck) s
 table=(opt,rrhf)
 ----------------------------------------------------------------------
 -----
 title
 -----
 Symbolic Z-matrix:
 Charge =  0 Multiplicity = 1

 SCF Done:  E(RHF) =  -268.732946298     A.U. after   17 cycles
 Normal termination of Gaussian 16 at Wed Apr  9 17:55:34 2025.
 Gaussian 16:  ES64L-G16RevC.01  3-Jul-2019

 ----------------------------------------------------------------------
 #t hf aug-cc-pvdz iop(5/13=1,5/36=2,99/5=2) pseudo=read geom=check gue
 ss=(read,tcheck) scf=(maxcycle=1)
 ----------------------------------------------------------------------
 -----
 title
 -----
 Structure from the checkpoint file:  "Grambow2020_wb97xd3_006252_forward_mol1.chk"
 Charge =  0 Multiplicity = 1

                         Standard orientation:
 ---------------------------------------------------------------------
 Center     Atomic      Atomic             Coordinates (Angstroms)
 Number     Number       Type             X           Y           Z
 ---------------------------------------------------------------------
      1          6           0        1.804697   -0.954916    0.213580
      2          6           0        1.534926    0.421990   -0.246586
      3          6           0        0.267774    0.957773   -0.459719
      4          6           0       -0.574392    0.650497    0.772583
      5          6           0       -1.618088   -0.181216    0.435419
      6          8           0       -1.710144   -0.663730   -0.727322
      7          1           0        0.897813   -1.556014    0.245206
      8          1           0        2.550391   -1.408842   -0.448115
      9          1           0        2.255086   -0.947631    1.211222
     10          1           0        2.419001    1.036869   -0.425643
     11          1           0       -0.411404    0.205480   -1.096895
     12          1           0        0.230304    1.963230   -0.873981
     13          1           0       -0.334911    1.030121    1.753136
     14          1           0       -2.414623   -0.378147    1.161991
 ---------------------------------------------------------------------

 SCF Done:  E(RHF) =  -270.012877644     A.U. after    2 cycles

 The electronic state is 1-A.
 Alpha  occ. eigenvalues --  -20.98254 -11.53001 -11.43078 -11.42076 -11.40935
 Alpha  occ. eigenvalues --  -11.34975  -1.65369  -1.28599  -1.10114  -0.98419
 Alpha  occ. eigenvalues --   -0.84995  -0.73153  -0.69141  -0.67501  -0.60396
 Alpha  occ. eigenvalues --   -0.57160  -0.54156  -0.51628  -0.46767  -0.43084
 Alpha  occ. eigenvalues --   -0.41993  -0.25901  -0.22112
 Alpha virt. eigenvalues --    0.02622   0.04201   0.04390   0.04983   0.05200
 Alpha virt. eigenvalues --    0.05749   0.06598   0.07976   0.08517   0.11489
 Alpha virt. eigenvalues --    0.11877   0.12668   0.13718   0.14177   0.14349

 Mulliken charges:
               1
     1  C   -4.061907
     2  C   -0.098833
     3  C   -4.148934
     4  C   -1.238824
     5  C    1.423356
     6  O   -2.873942
     7  H    1.554031
     8  H    1.209518
     9  H    1.286548
    10  H    1.398099
    11  H    1.673019
    12  H    1.045277
    13  H    1.324832
    14  H    1.507760
 Sum of Mulliken charges =  -0.00000

 Dipole moment (field-independent basis, Debye):
    X=              4.0668    Y=              0.0908    Z=              0.0538  Tot=              4.0681

 Test job not archived.
 1\1\GINC-SE030\SP\RHF\Aug-CC-pVDZ\C5H8O1\OHZDE\09-Apr-2025\0\\#t hf au
 g-cc-pvdz iop(5/13=1,5/36=2,99/5=2) pseudo=read geom=check guess=(read
 ,tcheck) scf=(maxcycle=1)\\title\\0,1\C,0,-1.3899639,-0.89574032,-0.49
 293772\C,0,-1.0396441,0.53799549,-0.44738472\C,0,0.11627109,1.05866015
 ,0.12788229\C,0,1.29663406,0.25500581,-0.40420229\C,0,1.90950632,-0.42
 162466,0.62598412\O,0,1.41795537,-0.41133401,1.78853838\H,0,-0.7001771
 8,-1.49970682,0.09372797\H,0,-2.41790707,-1.0198019,-0.13532027\H,0,-1
 .38596435,-1.26189051,-1.52449594\H,0,-1.76572527,1.21162196,-0.906471

 Normal termination of Gaussian 16 at Wed Apr  9 17:55:38 2025.
