 Gaussian 16, Revision C.01,

 ----------------------------------------------------------------------
 #t hf aug-cc-pvdz symm=none int=(grid=ultrafine) guess=(read,tcheck) s
 table=(opt,rrhf)
 ----------------------------------------------------------------------
 -----
 title
 -----
 Symbolic Z-matrix:
 Charge =  0 Multiplicity = 1

 SCF Done:  E(RHF) =  -322.559377055     A.U. after   16 cycles
 Normal termination of Gaussian 16 at Wed Apr  9 18:10:08 2025.
 Gaussian 16:  ES64L-G16RevC.01  3-Jul-2019

 ----------------------------------------------------------------------
 #t hf aug-cc-pvdz iop(5/13=1,5/36=2,99/5=2) pseudo=read geom=check gue
 ss=(read,tcheck) scf=(maxcycle=1)
 ----------------------------------------------------------------------
 -----
 title
 -----
 Structure from the checkpoint file:  "Grambow2020_wb97xd3_006626_forward_mol1.chk"
 Charge =  0 Multiplicity = 1

                         Standard orientation:
 ---------------------------------------------------------------------
 Center     Atomic      Atomic             Coordinates (Angstroms)
 Number     Number       Type             X           Y           Z
 ---------------------------------------------------------------------
      1          8           0       -1.834133   -0.887036   -0.135251
      2          6           0       -1.589572    0.236303    0.211460
      3          6           0       -0.359460    1.026576   -0.074305
      4          6           0        0.886459    0.868185    0.760725
      5          6           0        1.105380   -0.653861    0.892747
      6          6           0        1.047993   -0.852815   -0.618677
      7          7           0        0.683366    0.566809   -0.980386
      8          1           0       -2.316318    0.806426    0.825378
      9          1           0       -0.614648    2.064764   -0.276187
     10          1           0        1.538884    1.181220   -0.363291
     11          1           0        0.327430   -1.168070    1.459659
     12          1           0        2.068814   -0.890829    1.338126
     13          1           0        0.317742   -1.553593   -1.013638
     14          1           0        2.022799   -1.057624   -1.057041
 ---------------------------------------------------------------------

 SCF Done:  E(RHF) =  -324.043875196     A.U. after    2 cycles

 The electronic state is 1-A.
 Alpha  occ. eigenvalues --  -21.07858 -15.77249 -11.51208 -11.47682 -11.45542
 Alpha  occ. eigenvalues --  -11.41402 -11.38045  -1.73279  -1.54139  -1.13250
 Alpha  occ. eigenvalues --   -1.05906  -0.96866  -0.80446  -0.78455  -0.73884
 Alpha  occ. eigenvalues --   -0.64489  -0.59759  -0.57203  -0.55693  -0.54861
 Alpha  occ. eigenvalues --   -0.51563  -0.47073  -0.43345  -0.35633  -0.31699
 Alpha  occ. eigenvalues --   -0.29747
 Alpha virt. eigenvalues --    0.03699   0.05160   0.05611   0.06073   0.06362
 Alpha virt. eigenvalues --    0.06891   0.07241   0.08687   0.10374   0.11431
 Alpha virt. eigenvalues --    0.12176   0.12316   0.12718   0.13918   0.14956

 Mulliken charges:
               1
     1  O   -2.857352
     2  C    1.188850
     3  C   -0.156611
     4  C   -0.749295
     5  C   -2.800070
     6  C   -2.604400
     7  N   -1.842154
     8  H    1.506082
     9  H    1.425279
    10  H    1.201158
    11  H    1.458849
    12  H    1.276277
    13  H    1.700764
    14  H    1.252623
 Sum of Mulliken charges =   0.00000

 Dipole moment (field-independent basis, Debye):
    X=             -0.1923    Y=             -1.1651    Z=             -0.7823  Tot=              1.4165

 Test job not archived.
 1\1\GINC-SE362\SP\RHF\Aug-CC-pVDZ\C5H7N1O1\OHZDE\09-Apr-2025\0\\#t hf
 aug-cc-pvdz iop(5/13=1,5/36=2,99/5=2) pseudo=read geom=check guess=(re
 ad,tcheck) scf=(maxcycle=1)\\title\\0,1\O,0,0.9043408,1.15612991,1.693
 26737\C,0,1.26440828,1.20913047,0.54895401\C,0,0.46867751,0.88655716,-
 0.66847246\C,0,0.30968687,-0.53448086,-1.14810828\C,0,-0.05570094,-1.3
 5614039,0.10622409\C,0,-1.2151203,-0.42616687,0.44998941\N,0,-0.958095
 64,0.59930511,-0.62772356\H,0,2.29990021,1.5177229,0.29870989\H,0,0.69
 734731,1.58873616,-1.46745037\H,0,-0.87607515,-0.12311417,-1.60833581\

 Normal termination of Gaussian 16 at Wed Apr  9 18:10:12 2025.
