 Gaussian 16, Revision C.01,

 ----------------------------------------------------------------------
 #t hf aug-cc-pvdz symm=none int=(grid=ultrafine) guess=(read,tcheck) s
 table=(opt,rrhf)
 ----------------------------------------------------------------------
 -----
 title
 -----
 Symbolic Z-matrix:
 Charge =  0 Multiplicity = 1

 SCF Done:  E(RHF) =  -267.492720283     A.U. after   17 cycles
 Normal termination of Gaussian 16 at Wed Apr  9 03:20:55 2025.
 Gaussian 16:  ES64L-G16RevC.01  3-Jul-2019

 ----------------------------------------------------------------------
 #t hf aug-cc-pvdz iop(5/13=1,5/36=2,99/5=2) pseudo=read geom=check gue
 ss=(read,tcheck) scf=(maxcycle=1)
 ----------------------------------------------------------------------
 -----
 title
 -----
 Structure from the checkpoint file:  "Grambow2020_wb97xd3_006081_reverse_mol1.chk"
 Charge =  0 Multiplicity = 1

                         Standard orientation:
 ---------------------------------------------------------------------
 Center     Atomic      Atomic             Coordinates (Angstroms)
 Number     Number       Type             X           Y           Z
 ---------------------------------------------------------------------
      1          8           0       -1.325511   -0.780976   -0.662030
      2          6           0       -0.809785   -0.530541    0.479220
      3          6           0       -0.500616    0.956466    0.707350
      4          6           0        0.419742    1.181666   -0.483660
      5          6           0        1.302084    0.141794   -0.318001
      6          6           0        1.482839   -1.005793    0.139128
      7          1           0       -0.993066   -1.274092    1.249895
      8          1           0       -0.042887    1.094147    1.691368
      9          1           0       -1.445095    1.514651    0.680186
     10          1           0       -0.909246   -0.033235   -1.225795
     11          1           0        0.552776    2.092688   -1.040822
     12          1           0        2.076015   -1.607906    0.797180
 ---------------------------------------------------------------------

 SCF Done:  E(RHF) =  -268.757036813     A.U. after    2 cycles

 The electronic state is 1-A.
 Alpha  occ. eigenvalues --  -21.14435 -11.54512 -11.43141 -11.41279 -11.36909
 Alpha  occ. eigenvalues --  -11.35942  -1.82957  -1.26749  -1.05338  -0.96283
 Alpha  occ. eigenvalues --   -0.86016  -0.72377  -0.68943  -0.64725  -0.61594
 Alpha  occ. eigenvalues --   -0.55757  -0.53325  -0.50849  -0.44487  -0.38919
 Alpha  occ. eigenvalues --   -0.34648  -0.23709
 Alpha virt. eigenvalues --    0.03511   0.04443   0.05397   0.05608   0.06052
 Alpha virt. eigenvalues --    0.07312   0.07805   0.09161   0.10609   0.11694
 Alpha virt. eigenvalues --    0.12597   0.13990   0.14377   0.14799   0.14967

 Mulliken charges:
               1
     1  O   -3.154649
     2  C    1.405374
     3  C   -3.568265
     4  C   -1.660278
     5  C    2.132450
     6  C   -2.771342
     7  H    1.646381
     8  H    1.367838
     9  H    1.197142
    10  H    1.327509
    11  H    1.115772
    12  H    0.962068
 Sum of Mulliken charges =   0.00000

 Dipole moment (field-independent basis, Debye):
    X=             -3.0280    Y=             -0.3097    Z=              1.6324  Tot=              3.4539

 Test job not archived.
 1\1\GINC-SE072\SP\RHF\Aug-CC-pVDZ\C5H6O1\OHZDE\09-Apr-2025\0\\#t hf au
 g-cc-pvdz iop(5/13=1,5/36=2,99/5=2) pseudo=read geom=check guess=(read
 ,tcheck) scf=(maxcycle=1)\\title\\0,1\O,0,-1.398335,-1.04935046,-0.290
 8948\C,0,-0.74593158,-0.57930307,0.70135905\C,0,-0.44277993,0.92213928
 ,0.58916168\C,0,0.31181189,0.90261431,-0.73238639\C,0,1.23076263,-0.08
 716172,-0.48103896\C,0,1.49391035,-1.12180809,0.16615202\H,0,-0.812325
 1,-1.15423336,1.62084075\H,0,0.13440441,1.25068414,1.45846006\H,0,-1.3
 9496317,1.46758579,0.57557416\H,0,-1.07446114,-0.43015122,-1.04050871\

 Normal termination of Gaussian 16 at Wed Apr  9 03:20:59 2025.
