 Gaussian 16, Revision C.01,

 ----------------------------------------------------------------------
 #t hf aug-cc-pvdz symm=none int=(grid=ultrafine) guess=(read,tcheck) s
 table=(opt,rrhf)
 ----------------------------------------------------------------------
 -----
 title
 -----
 Symbolic Z-matrix:
 Charge =  0 Multiplicity = 1

 SCF Done:  E(RHF) =  -359.748780308     A.U. after   14 cycles
 Normal termination of Gaussian 16 at Wed Apr  9 04:05:14 2025.
 Gaussian 16:  ES64L-G16RevC.01  3-Jul-2019

 ----------------------------------------------------------------------
 #t hf aug-cc-pvdz iop(5/13=1,5/36=2,99/5=2) pseudo=read geom=check gue
 ss=(read,tcheck) scf=(maxcycle=1)
 ----------------------------------------------------------------------
 -----
 title
 -----
 Structure from the checkpoint file:  "Grambow2020_wb97xd3_009240_reverse_mol2.chk"
 Charge =  0 Multiplicity = 1

                         Standard orientation:
 ---------------------------------------------------------------------
 Center     Atomic      Atomic             Coordinates (Angstroms)
 Number     Number       Type             X           Y           Z
 ---------------------------------------------------------------------
      1          6           0       -1.809769   -1.600957   -0.601768
      2          6           0       -0.386611   -1.111065   -0.583317
      3          6           0       -0.519349    2.241970    0.288416
      4          8           0       -1.641927    2.218307    0.252714
      5          6           0        0.366817   -1.128475    0.485104
      6          8           0        1.014420   -1.147082    1.448516
      7          7           0        2.478788    0.620497   -0.819810
      8          1           0       -2.115702   -1.971704    0.376604
      9          1           0       -2.494966   -0.797266   -0.881118
     10          1           0       -1.936911   -2.413623   -1.319926
     11          1           0        0.098261   -0.704915   -1.461581
     12          1           0        2.076600    1.382455   -0.288375
     13          1           0        2.978453    1.021595   -1.602039
     14          1           0        3.156279    0.161337   -0.225350
 ---------------------------------------------------------------------

 SCF Done:  E(RHF) =  -361.349944413     A.U. after    2 cycles

 The electronic state is 1-A.
 Alpha  occ. eigenvalues --  -21.17805 -21.11565 -15.74611 -11.52703 -11.51044
 Alpha  occ. eigenvalues --  -11.40975 -11.37252  -1.80701  -1.75499  -1.25284
 Alpha  occ. eigenvalues --   -1.18550  -0.96575  -0.72327  -0.70042  -0.61972
 Alpha  occ. eigenvalues --   -0.61605  -0.60853  -0.58533  -0.55687  -0.53168
 Alpha  occ. eigenvalues --   -0.52957  -0.52430  -0.51823  -0.50885  -0.44863
 Alpha  occ. eigenvalues --   -0.39191  -0.26596
 Alpha virt. eigenvalues --    0.03768   0.04821   0.06095   0.06579   0.06742
 Alpha virt. eigenvalues --    0.07072   0.07719   0.10196   0.10485   0.10840
 Alpha virt. eigenvalues --    0.12063   0.12906   0.13190   0.13473   0.14029

 Mulliken charges:
               1
     1  C   -4.158006
     2  C   -0.264909
     3  C    0.951695
     4  O   -0.988944
     5  C    1.346353
     6  O   -2.381816
     7  N   -2.146073
     8  H    1.393718
     9  H    1.248070
    10  H    1.208137
    11  H    1.654242
    12  H    0.764923
    13  H    0.689568
    14  H    0.683042
 Sum of Mulliken charges =   0.00000

 Dipole moment (field-independent basis, Debye):
    X=             -0.6650    Y=              0.8341    Z=              0.1083  Tot=              1.0722

 Test job not archived.
 1\1\GINC-SE125\SP\RHF\Aug-CC-pVDZ\C4H7N1O2\OHZDE\09-Apr-2025\0\\#t hf
 aug-cc-pvdz iop(5/13=1,5/36=2,99/5=2) pseudo=read geom=check guess=(re
 ad,tcheck) scf=(maxcycle=1)\\title\\0,1\C,0,-1.35369785,-1.63310694,0.
 99163942\C,0,-0.19946095,-0.93407375,0.32470262\C,0,-1.26262886,2.3005
 9058,-0.32875257\O,0,-2.29756339,2.04375755,0.02474746\C,0,0.71160124,
 -0.26326701,0.9800373\O,0,1.50476668,0.33296759,1.58277425\N,0,1.82350
 056,0.96244132,-1.56622298\H,0,-1.32058501,-1.51157622,2.07441085\H,0,
 -2.30741408,-1.23133003,0.64170682\H,0,-1.34270196,-2.70363709,0.77672

 Normal termination of Gaussian 16 at Wed Apr  9 04:05:18 2025.
