 Gaussian 16, Revision C.01,

 ----------------------------------------------------------------------
 #t hf aug-cc-pvdz symm=none int=(grid=ultrafine) guess=(read,tcheck) s
 table=(opt,rrhf)
 ----------------------------------------------------------------------
 -----
 title
 -----
 Symbolic Z-matrix:
 Charge =  0 Multiplicity = 1

 SCF Done:  E(RHF) =  -358.550110301     A.U. after   14 cycles
 Normal termination of Gaussian 16 at Wed Apr  9 03:34:08 2025.
 Gaussian 16:  ES64L-G16RevC.01  3-Jul-2019

 ----------------------------------------------------------------------
 #t hf aug-cc-pvdz iop(5/13=1,5/36=2,99/5=2) pseudo=read geom=check gue
 ss=(read,tcheck) scf=(maxcycle=1)
 ----------------------------------------------------------------------
 -----
 title
 -----
 Structure from the checkpoint file:  "Grambow2020_wb97xd3_007072_reverse_mol2.chk"
 Charge =  0 Multiplicity = 1

                         Standard orientation:
 ---------------------------------------------------------------------
 Center     Atomic      Atomic             Coordinates (Angstroms)
 Number     Number       Type             X           Y           Z
 ---------------------------------------------------------------------
      1          8           0       -2.165504   -0.353602   -0.013915
      2          6           0       -0.891406    0.038411   -0.054483
      3          7           0       -0.491151    1.215837    0.179505
      4          6           0        0.957374    1.262041   -0.028702
      5          6           0        1.391284   -0.154981   -0.352780
      6          8           0        1.097961   -1.074640    0.687670
      7          6           0        0.171433   -0.957710   -0.387075
      8          1           0       -2.697376    0.420421    0.207838
      9          1           0        1.454637    1.641212    0.866912
     10          1           0        1.187391    1.942398   -0.852750
     11          1           0        2.272666   -0.374726   -0.944455
     12          1           0       -0.011029   -1.840795   -0.985880
 ---------------------------------------------------------------------

 SCF Done:  E(RHF) =  -360.120947152     A.U. after    2 cycles

 The electronic state is 1-A.
 Alpha  occ. eigenvalues --  -21.12512 -21.07700 -15.71906 -11.55734 -11.49275
 Alpha  occ. eigenvalues --  -11.44990 -11.40426  -1.83164  -1.77652  -1.39385
 Alpha  occ. eigenvalues --   -1.06160  -1.03293  -0.86995  -0.79792  -0.74715
 Alpha  occ. eigenvalues --   -0.63098  -0.61609  -0.59135  -0.55551  -0.51664
 Alpha  occ. eigenvalues --   -0.46219  -0.44325  -0.42549  -0.37631  -0.32532
 Alpha  occ. eigenvalues --   -0.29935
 Alpha virt. eigenvalues --    0.03772   0.04934   0.05498   0.05924   0.06600
 Alpha virt. eigenvalues --    0.10067   0.10504   0.10872   0.12006   0.13188
 Alpha virt. eigenvalues --    0.13394   0.14054   0.14371   0.14790   0.16072

 Mulliken charges:
               1
     1  O   -3.505486
     2  C    5.551156
     3  N   -2.814444
     4  C   -2.214597
     5  C    0.935768
     6  O   -2.701356
     7  C   -1.823559
     8  H    0.839915
     9  H    1.361044
    10  H    1.452550
    11  H    1.436798
    12  H    1.482211
 Sum of Mulliken charges =  -0.00000

 Dipole moment (field-independent basis, Debye):
    X=              0.3547    Y=             -0.9467    Z=             -0.7783  Tot=              1.2759

 Test job not archived.
 1\1\GINC-SE090\SP\RHF\Aug-CC-pVDZ\C4H5N1O2\OHZDE\09-Apr-2025\0\\#t hf
 aug-cc-pvdz iop(5/13=1,5/36=2,99/5=2) pseudo=read geom=check guess=(re
 ad,tcheck) scf=(maxcycle=1)\\title\\0,1\O,0,1.28083887,2.00905908,0.38
 262922\C,0,0.67532509,0.84646014,0.13694324\N,0,1.25902898,-0.19797747
 ,-0.27503589\C,0,0.25096723,-1.23861962,-0.48618245\C,0,-1.07321332,-0
 .65386363,-0.0324619\O,0,-1.07106539,-0.27624265,1.33565578\C,0,-0.796
 88139,0.72527546,0.36149592\H,0,2.21630805,1.89536536,0.17491258\H,0,0
 .51112573,-2.13543846,0.08056159\H,0,0.21985768,-1.50892882,-1.5448672

 Normal termination of Gaussian 16 at Wed Apr  9 03:34:12 2025.
