 Gaussian 16, Revision C.01,

 ----------------------------------------------------------------------
 #t hf aug-cc-pvdz symm=none int=(grid=ultrafine) guess=(read,tcheck) s
 table=(opt,rrhf)
 ----------------------------------------------------------------------
 -----
 title
 -----
 Symbolic Z-matrix:
 Charge =  0 Multiplicity = 1

 SCF Done:  E(RHF) =  -346.099264209     A.U. after   12 cycles

 1\1\GINC-SE056\Stability\RHF\Aug-CC-pVDZ\C5H12O2\OHZDE\09-Apr-2025\0\\
 #t hf aug-cc-pvdz symm=none int=(grid=ultrafine) guess=(read,tcheck) s
 table=(opt,rrhf)\\title\\0,1\C,0,2.31418468,0.21389116,1.36091123\C,0,
 0.85265774,0.54243446,1.09389149\C,0,0.33259387,-0.08566034,-0.1957706
 8\O,0,0.46757898,-1.49422726,-0.185889\C,0,-1.12100418,0.29880642,-0.4
 8016233\C,0,-1.58043827,-0.13932518,-1.85828449\O,0,-1.89152737,-0.323
 23689,0.54558286\H,0,2.46248206,-0.86453383,1.42437429\H,0,2.95552301,
 0.5888649,0.55896129\H,0,2.65550237,0.66065346,2.29621276\H,0,0.226746

 Normal termination of Gaussian 16 at Wed Apr  9 19:06:14 2025.
 Gaussian 16:  ES64L-G16RevC.01  3-Jul-2019

 ----------------------------------------------------------------------
 #t hf aug-cc-pvdz iop(5/13=1,5/36=2,99/5=2) pseudo=read geom=check gue
 ss=(read,tcheck) scf=(maxcycle=1)
 ----------------------------------------------------------------------
 -----
 title
 -----
 Structure from the checkpoint file:  "Grambow2020_wb97xd3_008070_forward_mol2.chk"
 Charge =  0 Multiplicity = 1

                         Standard orientation:
 ---------------------------------------------------------------------
 Center     Atomic      Atomic             Coordinates (Angstroms)
 Number     Number       Type             X           Y           Z
 ---------------------------------------------------------------------
      1          6           0        2.771766   -0.049283   -0.189903
      2          6           0        1.415666    0.628017   -0.322415
      3          6           0        0.253316   -0.356976   -0.239171
      4          8           0        0.262494   -1.078940    0.977819
      5          6           0       -1.100675    0.330014   -0.429939
      6          6           0       -2.242517   -0.660205   -0.563810
      7          8           0       -1.271569    1.167649    0.711096
      8          1           0        2.846092   -0.583165    0.757972
      9          1           0        2.929726   -0.775698   -0.991409
     10          1           0        3.583559    0.678565   -0.235877
     11          1           0        1.288172    1.383689    0.458278
     12          1           0        1.351939    1.156711   -1.279364
     13          1           0        0.366015   -1.108095   -1.028459
     14          1           0       -0.049355   -0.469720    1.655196
     15          1           0       -1.045403    0.952626   -1.333398
     16          1           0       -2.267198   -1.331094    0.295651
     17          1           0       -3.202599   -0.141683   -0.636210
     18          1           0       -2.125167   -1.260525   -1.467878
     19          1           0       -2.188525    1.439307    0.765605
 ---------------------------------------------------------------------

 SCF Done:  E(RHF) =  -347.725265073     A.U. after    2 cycles

 The electronic state is 1-A.
 Alpha  occ. eigenvalues --  -21.07256 -21.05181 -11.46533 -11.43634 -11.39337
 Alpha  occ. eigenvalues --  -11.37450 -11.34499  -1.74701  -1.68381  -1.19615
 Alpha  occ. eigenvalues --   -1.11749  -0.98635  -0.87103  -0.81032  -0.68991
 Alpha  occ. eigenvalues --   -0.63261  -0.61559  -0.59661  -0.56152  -0.54791
 Alpha  occ. eigenvalues --   -0.52791  -0.51457  -0.48377  -0.46454  -0.44089
 Alpha  occ. eigenvalues --   -0.40295  -0.38049  -0.32699  -0.30206
 Alpha virt. eigenvalues --    0.03870   0.04888   0.05071   0.05269   0.05473
 Alpha virt. eigenvalues --    0.06125   0.06663   0.07040   0.08058   0.08481
 Alpha virt. eigenvalues --    0.09144   0.09404   0.11593   0.13378   0.14202

 Mulliken charges:
               1
     1  C   -4.282525
     2  C   -2.971360
     3  C    1.713855
     4  O   -3.166608
     5  C    0.802205
     6  C   -4.119295
     7  O   -3.148735
     8  H    1.386294
     9  H    1.244659
    10  H    1.073899
    11  H    1.497424
    12  H    1.345750
    13  H    1.961934
    14  H    0.630067
    15  H    1.624448
    16  H    1.299344
    17  H    1.077084
    18  H    1.215142
    19  H    0.816419
 Sum of Mulliken charges =  -0.00000

 Dipole moment (field-independent basis, Debye):
    X=             -0.8659    Y=              0.5156    Z=             -0.4221  Tot=              1.0926

 Test job not archived.
 1\1\GINC-SE056\SP\RHF\Aug-CC-pVDZ\C5H12O2\OHZDE\09-Apr-2025\0\\#t hf a
 ug-cc-pvdz iop(5/13=1,5/36=2,99/5=2) pseudo=read geom=check guess=(rea
 d,tcheck) scf=(maxcycle=1)\\title\\0,1\C,0,2.31418468,0.21389116,1.360
 91123\C,0,0.85265774,0.54243446,1.09389149\C,0,0.33259387,-0.08566034,
 -0.19577068\O,0,0.46757898,-1.49422726,-0.185889\C,0,-1.12100418,0.298
 80642,-0.48016233\C,0,-1.58043827,-0.13932518,-1.85828449\O,0,-1.89152
 737,-0.32323689,0.54558286\H,0,2.46248206,-0.86453383,1.42437429\H,0,2
 .95552301,0.5888649,0.55896129\H,0,2.65550237,0.66065346,2.29621276\H,

 Normal termination of Gaussian 16 at Wed Apr  9 19:06:21 2025.
