 Gaussian 16, Revision C.01,

 ----------------------------------------------------------------------
 #t hf aug-cc-pvdz symm=none int=(grid=ultrafine) guess=(read,tcheck) s
 table=(opt,rrhf)
 ----------------------------------------------------------------------
 -----
 title
 -----
 Symbolic Z-matrix:
 Charge =  0 Multiplicity = 1

 SCF Done:  E(RHF) =  -247.598289293     A.U. after   16 cycles
 Normal termination of Gaussian 16 at Wed Apr  9 17:46:47 2025.
 Gaussian 16:  ES64L-G16RevC.01  3-Jul-2019

 ----------------------------------------------------------------------
 #t hf aug-cc-pvdz iop(5/13=1,5/36=2,99/5=2) pseudo=read geom=check gue
 ss=(read,tcheck) scf=(maxcycle=1)
 ----------------------------------------------------------------------
 -----
 title
 -----
 Structure from the checkpoint file:  "Grambow2020_wb97xd3_006163_forward_mol1.chk"
 Charge =  0 Multiplicity = 1

                         Standard orientation:
 ---------------------------------------------------------------------
 Center     Atomic      Atomic             Coordinates (Angstroms)
 Number     Number       Type             X           Y           Z
 ---------------------------------------------------------------------
      1          6           0        0.454311    1.547584    0.125898
      2          6           0        0.536911    0.217190   -0.594197
      3          6           0        1.569443   -0.626359    0.061598
      4          6           0        0.114010   -1.087832    0.116526
      5          6           0       -1.136175   -0.548389    0.466740
      6          7           0       -1.967039    0.076065   -0.121073
      7          1           0       -0.484981    2.071379   -0.041994
      8          1           0        1.264867    2.169387   -0.262433
      9          1           0        0.607634    1.449539    1.210341
     10          1           0       -1.009867    0.308548   -1.066235
     11          1           0        2.068985   -0.234885    0.943159
     12          1           0        2.155180   -1.352029   -0.490942
     13          1           0       -0.063539   -1.957553   -0.503773
 ---------------------------------------------------------------------

 SCF Done:  E(RHF) =  -248.837405744     A.U. after    2 cycles

 The electronic state is 1-A.
 Alpha  occ. eigenvalues --  -15.76221 -11.48976 -11.47093 -11.44888 -11.41158
 Alpha  occ. eigenvalues --  -11.37748  -1.45031  -1.27366  -1.06448  -0.96487
 Alpha  occ. eigenvalues --   -0.81186  -0.73214  -0.66404  -0.62692  -0.60369
 Alpha  occ. eigenvalues --   -0.55531  -0.53560  -0.51416  -0.47270  -0.41938
 Alpha  occ. eigenvalues --   -0.35099  -0.31499
 Alpha virt. eigenvalues --    0.03823   0.04865   0.05420   0.05824   0.06241
 Alpha virt. eigenvalues --    0.07071   0.07275   0.07676   0.09159   0.10025
 Alpha virt. eigenvalues --    0.11103   0.13116   0.13462   0.14625   0.15114

 Mulliken charges:
               1
     1  C   -3.586008
     2  C   -0.271885
     3  C   -3.388420
     4  C    0.447042
     5  C    0.619669
     6  N   -2.048042
     7  H    1.234750
     8  H    1.231806
     9  H    1.315475
    10  H    0.783370
    11  H    1.205892
    12  H    1.277705
    13  H    1.178645
 Sum of Mulliken charges =  -0.00000

 Dipole moment (field-independent basis, Debye):
    X=              2.5575    Y=             -0.7593    Z=              0.3603  Tot=              2.6921

 Test job not archived.
 1\1\GINC-SE112\SP\RHF\Aug-CC-pVDZ\C5H7N1\OHZDE\09-Apr-2025\0\\#t hf au
 g-cc-pvdz iop(5/13=1,5/36=2,99/5=2) pseudo=read geom=check guess=(read
 ,tcheck) scf=(maxcycle=1)\\title\\0,1\C,0,1.20799577,0.64933757,0.2524
 3375\C,0,0.29802566,-0.46964259,-0.2114046\C,0,-0.3812017,-1.06372864,
 0.9690512\C,0,-1.23552237,-0.34307348,-0.07260708\C,0,-1.24137879,0.89
 603879,-0.73681971\N,0,-0.72226261,1.31065476,-1.72899539\H,0,1.459437
 12,1.35591995,-0.53644942\H,0,2.13348023,0.1826196,0.59897976\H,0,0.78
 721927,1.21044397,1.09933694\H,0,0.09328804,0.21787483,-1.6636759\H,0,

 Normal termination of Gaussian 16 at Wed Apr  9 17:46:51 2025.
