 Gaussian 16, Revision C.01,

 ----------------------------------------------------------------------
 #t hf aug-cc-pvdz symm=none int=(grid=ultrafine) guess=(read,tcheck) s
 table=(opt,rrhf)
 ----------------------------------------------------------------------
 -----
 title
 -----
 Symbolic Z-matrix:
 Charge =  0 Multiplicity = 1

 SCF Done:  E(RHF) =  -322.650225367     A.U. after   13 cycles
 Normal termination of Gaussian 16 at Wed Apr  9 18:37:29 2025.
 Gaussian 16:  ES64L-G16RevC.01  3-Jul-2019

 ----------------------------------------------------------------------
 #t hf aug-cc-pvdz iop(5/13=1,5/36=2,99/5=2) pseudo=read geom=check gue
 ss=(read,tcheck) scf=(maxcycle=1)
 ----------------------------------------------------------------------
 -----
 title
 -----
 Structure from the checkpoint file:  "Grambow2020_wb97xd3_007344_reverse_mol2.chk"
 Charge =  0 Multiplicity = 1

                         Standard orientation:
 ---------------------------------------------------------------------
 Center     Atomic      Atomic             Coordinates (Angstroms)
 Number     Number       Type             X           Y           Z
 ---------------------------------------------------------------------
      1          8           0        0.420478   -1.288146   -0.289022
      2          6           0       -0.556114   -0.351702   -0.370610
      3          6           0       -1.958180   -0.245752   -0.034256
      4          7           0       -0.958716    0.482458    0.792431
      5          6           0        1.543904   -0.569100    0.266388
      6          6           0        1.342961    0.934750   -0.049493
      7          6           0       -0.142184    1.029869   -0.329079
      8          1           0       -2.622066    0.319503   -0.688190
      9          1           0       -2.423826   -1.064069    0.503448
     10          1           0        2.448026   -0.990600   -0.169504
     11          1           0        1.548297   -0.733507    1.344631
     12          1           0        1.895404    1.236148   -0.941294
     13          1           0        1.666548    1.558679    0.783662
     14          1           0       -0.547512    1.813419   -0.965299
 ---------------------------------------------------------------------

 SCF Done:  E(RHF) =  -324.128539556     A.U. after    2 cycles

 The electronic state is 1-A.
 Alpha  occ. eigenvalues --  -21.06784 -15.72223 -11.52269 -11.47788 -11.44911
 Alpha  occ. eigenvalues --  -11.42529 -11.38432  -1.81168  -1.50476  -1.17737
 Alpha  occ. eigenvalues --   -1.00551  -0.92962  -0.83404  -0.80234  -0.69709
 Alpha  occ. eigenvalues --   -0.66264  -0.63540  -0.57153  -0.54992  -0.51779
 Alpha  occ. eigenvalues --   -0.47222  -0.44896  -0.43653  -0.39321  -0.34637
 Alpha  occ. eigenvalues --   -0.27623
 Alpha virt. eigenvalues --    0.04105   0.05136   0.05323   0.05825   0.06052
 Alpha virt. eigenvalues --    0.06715   0.07172   0.09462   0.10001   0.12018
 Alpha virt. eigenvalues --    0.12496   0.13094   0.13695   0.14103   0.14762

 Mulliken charges:
               1
     1  O   -3.925422
     2  C    4.438066
     3  C   -3.187532
     4  N   -1.542953
     5  C   -1.786216
     6  C   -2.810911
     7  C   -0.708437
     8  H    1.504063
     9  H    1.345174
    10  H    1.380976
    11  H    1.389311
    12  H    1.301564
    13  H    1.274813
    14  H    1.327503
 Sum of Mulliken charges =  -0.00000

 Dipole moment (field-independent basis, Debye):
    X=              0.4182    Y=              0.3730    Z=             -0.7322  Tot=              0.9220

 Test job not archived.
 1\1\GINC-SE116\SP\RHF\Aug-CC-pVDZ\C5H7N1O1\OHZDE\09-Apr-2025\0\\#t hf
 aug-cc-pvdz iop(5/13=1,5/36=2,99/5=2) pseudo=read geom=check guess=(re
 ad,tcheck) scf=(maxcycle=1)\\title\\0,1\O,0,0.51216569,0.79805995,1.13
 469138\C,0,0.92360277,0.14100246,0.02279592\C,0,1.94380176,-0.8219143,
 -0.32668052\N,0,0.52397246,-1.26142635,-0.26713971\C,0,-0.92449793,0.6
 4573711,1.11498265\C,0,-1.34961021,0.37982478,-0.35140484\C,0,-0.06773
 807,-0.10309822,-0.99674315\H,0,2.43818987,-0.74706699,-1.29511505\H,0
 ,2.54411422,-1.25016989,0.46818805\H,0,-1.35395704,1.55254658,1.537310

 Normal termination of Gaussian 16 at Wed Apr  9 18:37:33 2025.
