 Gaussian 16, Revision C.01,

 ----------------------------------------------------------------------
 #t hf aug-cc-pvdz symm=none int=(grid=ultrafine) guess=(read,tcheck) s
 table=(opt,rrhf)
 ----------------------------------------------------------------------
 -----
 title
 -----
 Symbolic Z-matrix:
 Charge =  0 Multiplicity = 1

 SCF Done:  E(RHF) =  -284.857440750     A.U. after   15 cycles
 Normal termination of Gaussian 16 at Wed Apr  9 03:07:21 2025.
 Gaussian 16:  ES64L-G16RevC.01  3-Jul-2019

 ----------------------------------------------------------------------
 #t hf aug-cc-pvdz iop(5/13=1,5/36=2,99/5=2) pseudo=read geom=check gue
 ss=(read,tcheck) scf=(maxcycle=1)
 ----------------------------------------------------------------------
 -----
 title
 -----
 Structure from the checkpoint file:  "Grambow2020_b97d3_006565_reverse_mol2.chk"
 Charge =  0 Multiplicity = 1

                         Standard orientation:
 ---------------------------------------------------------------------
 Center     Atomic      Atomic             Coordinates (Angstroms)
 Number     Number       Type             X           Y           Z
 ---------------------------------------------------------------------
      1          8           0        2.483026   -0.676499    0.243951
      2          6           0        1.395409   -0.430413   -0.246239
      3          6           0       -2.231159   -0.852964    0.117232
      4          7           0       -1.592187    0.101935   -0.434001
      5          6           0       -0.684172    0.882475    0.398331
      6          6           0        0.727773    0.928774   -0.229013
      7          1           0        1.366010    1.636072    0.315283
      8          1           0        0.799345   -1.223898   -0.759388
      9          1           0       -2.136286   -1.132890    1.183206
     10          1           0       -2.922587   -1.447062   -0.491215
     11          1           0       -0.624247    0.516484    1.442058
     12          1           0       -1.070453    1.912645    0.426651
     13          1           0        0.622208    1.269861   -1.272064
 ---------------------------------------------------------------------

 SCF Done:  E(RHF) =  -286.160243199     A.U. after    2 cycles

 The electronic state is 1-A.
 Alpha  occ. eigenvalues --  -21.06256 -15.75376 -11.48125 -11.44841 -11.43073
 Alpha  occ. eigenvalues --  -11.38933  -1.69980  -1.40160  -1.16075  -0.97430
 Alpha  occ. eigenvalues --   -0.84780  -0.80149  -0.67841  -0.65190  -0.61381
 Alpha  occ. eigenvalues --   -0.59969  -0.54654  -0.50083  -0.49060  -0.43211
 Alpha  occ. eigenvalues --   -0.40333  -0.38635  -0.28763
 Alpha virt. eigenvalues --    0.03657   0.04950   0.05337   0.06097   0.06524
 Alpha virt. eigenvalues --    0.06759   0.06822   0.09457   0.10932   0.11895
 Alpha virt. eigenvalues --    0.12500   0.13304   0.14134   0.14552   0.15005

 Mulliken charges:
               1
     1  O   -2.735871
     2  C    1.770673
     3  C   -1.553485
     4  N   -2.164439
     5  C   -2.109485
     6  C   -3.293588
     7  H    1.221946
     8  H    1.501721
     9  H    1.498328
    10  H    1.398431
    11  H    1.696107
    12  H    1.275553
    13  H    1.494109
 Sum of Mulliken charges =  -0.00000

 Dipole moment (field-independent basis, Debye):
    X=             -1.5989    Y=              0.1540    Z=              0.7367  Tot=              1.7672

 Test job not archived.
 1\1\GINC-SE015\SP\RHF\Aug-CC-pVDZ\C4H7N1O1\OHZDE\09-Apr-2025\0\\#t hf
 aug-cc-pvdz iop(5/13=1,5/36=2,99/5=2) pseudo=read geom=check guess=(re
 ad,tcheck) scf=(maxcycle=1)\\title\\0,1\O,0,-2.29607759,-1.67663407,0.
 55060132\C,0,-1.55688459,-0.90941486,-0.03992622\C,0,0.56117094,2.0695
 2442,0.28010506\N,0,0.68700229,1.08538294,-0.51964938\C,0,0.89328926,-
 0.23786159,0.05739325\C,0,-0.14890711,-1.24017301,-0.48895214\H,0,0.09
 886692,-2.26121495,-0.17279608\H,0,-1.8850294,0.12712177,-0.29711465\H
 ,0,0.59061656,1.98441391,1.38262455\H,0,0.41120097,3.07257083,-0.13539

 Normal termination of Gaussian 16 at Wed Apr  9 03:07:24 2025.
