 Gaussian 16, Revision C.01,

 ----------------------------------------------------------------------
 #t hf aug-cc-pvdz symm=none int=(grid=ultrafine) guess=(read,tcheck) s
 table=(opt,rrhf)
 ----------------------------------------------------------------------
 -----
 title
 -----
 Symbolic Z-matrix:
 Charge =  0 Multiplicity = 1

 SCF Done:  E(RHF) =  -283.463621054     A.U. after   18 cycles
 Normal termination of Gaussian 16 at Wed Apr  9 16:07:42 2025.
 Gaussian 16:  ES64L-G16RevC.01  3-Jul-2019

 ----------------------------------------------------------------------
 #t hf aug-cc-pvdz iop(5/13=1,5/36=2,99/5=2) pseudo=read geom=check gue
 ss=(read,tcheck) scf=(maxcycle=1)
 ----------------------------------------------------------------------
 -----
 title
 -----
 Structure from the checkpoint file:  "Grambow2020_b97d3_006727_reverse_mol2.chk"
 Charge =  0 Multiplicity = 1

                         Standard orientation:
 ---------------------------------------------------------------------
 Center     Atomic      Atomic             Coordinates (Angstroms)
 Number     Number       Type             X           Y           Z
 ---------------------------------------------------------------------
      1          6           0       -1.641664   -0.556703   -0.692815
      2          6           0       -1.868337   -0.117561    0.733535
      3          8           0        1.778020    0.700333   -0.537577
      4          6           0        1.481868    0.102455    0.592466
      5          7           0        1.758029   -1.011569    0.045253
      6          6           0       -1.476867    0.815991   -0.088853
      7          1           0       -0.750852   -1.146204   -0.942305
      8          1           0       -2.505766   -0.760748   -1.337710
      9          1           0       -2.172127   -0.425722    1.728202
     10          1           0        1.146808    0.495495    1.553629
     11          1           0       -1.218421    1.850416   -0.283962
 ---------------------------------------------------------------------

 SCF Done:  E(RHF) =  -284.711735792     A.U. after    2 cycles

 The electronic state is 1-A.
 Alpha  occ. eigenvalues --  -21.09324 -15.84282 -11.52043 -11.44889 -11.43580
 Alpha  occ. eigenvalues --  -11.39033  -1.76841  -1.28805  -1.23176  -0.87517
 Alpha  occ. eigenvalues --   -0.85633  -0.79893  -0.68831  -0.61366  -0.60493
 Alpha  occ. eigenvalues --   -0.56829  -0.50102  -0.46136  -0.40248  -0.37651
 Alpha  occ. eigenvalues --   -0.34846  -0.30413
 Alpha virt. eigenvalues --    0.03252   0.04840   0.05231   0.05776   0.07068
 Alpha virt. eigenvalues --    0.08096   0.09669   0.10412   0.11023   0.11942
 Alpha virt. eigenvalues --    0.12806   0.13558   0.14327   0.14617   0.14889

 Mulliken charges:
               1
     1  C   -2.355138
     2  C   -0.673753
     3  O   -1.767583
     4  C    1.498229
     5  N   -1.414010
     6  C   -1.012001
     7  H    1.306217
     8  H    1.146600
     9  H    0.766202
    10  H    1.693443
    11  H    0.811793
 Sum of Mulliken charges =  -0.00000

 Dipole moment (field-independent basis, Debye):
    X=             -0.9333    Y=              2.0969    Z=              1.8759  Tot=              2.9643

 Test job not archived.
 1\1\GINC-SE229\SP\RHF\Aug-CC-pVDZ\C4H5N1O1\OHZDE\09-Apr-2025\0\\#t hf
 aug-cc-pvdz iop(5/13=1,5/36=2,99/5=2) pseudo=read geom=check guess=(re
 ad,tcheck) scf=(maxcycle=1)\\title\\0,1\C,0,-1.47537691,0.11618411,0.1
 4526517\C,0,-0.9224843,-0.92519476,-0.79735929\O,0,1.90995486,0.941845
 9,1.22057188\C,0,1.89947513,0.75139963,-0.07780496\N,0,1.49426018,1.94
 775243,-0.223744\C,0,-0.58286007,-1.06021525,0.45464556\H,0,-1.0516981
 7,1.12800857,0.14230917\H,0,-2.53453257,0.07764858,0.42969609\H,0,-0.8
 8673265,-1.2763395,-1.82304609\H,0,2.1558714,-0.11870619,-0.68423361\H

 Normal termination of Gaussian 16 at Wed Apr  9 16:07:46 2025.
