 Gaussian 16, Revision C.01,

 ----------------------------------------------------------------------
 #t hf aug-cc-pvdz symm=none int=(grid=ultrafine) guess=(read,tcheck) s
 table=(opt,rrhf)
 ----------------------------------------------------------------------
 -----
 title
 -----
 Symbolic Z-matrix:
 Charge =  0 Multiplicity = 1

 SCF Done:  E(RHF) =  -355.841823797     A.U. after   15 cycles
 Normal termination of Gaussian 16 at Wed Apr  9 03:58:40 2025.
 Gaussian 16:  ES64L-G16RevC.01  3-Jul-2019

 ----------------------------------------------------------------------
 #t hf aug-cc-pvdz iop(5/13=1,5/36=2,99/5=2) pseudo=read geom=check gue
 ss=(read,tcheck) scf=(maxcycle=1)
 ----------------------------------------------------------------------
 -----
 title
 -----
 Structure from the checkpoint file:  "Grambow2020_wb97xd3_008710_forward_mol1.chk"
 Charge =  0 Multiplicity = 1

                         Standard orientation:
 ---------------------------------------------------------------------
 Center     Atomic      Atomic             Coordinates (Angstroms)
 Number     Number       Type             X           Y           Z
 ---------------------------------------------------------------------
      1          6           0       -2.006196   -1.256479    0.187600
      2          7           0       -1.824799    0.090535   -0.251551
      3          6           0       -0.850031    0.808478   -0.094148
      4          7           0       -0.246563    1.918053   -0.044435
      5          6           0        1.082062   -0.308761    0.000697
      6          8           0        1.899182    0.677371    0.142613
      7          7           0        1.687688   -1.481117   -0.103136
      8          1           0       -2.581907   -1.287935    1.115849
      9          1           0       -1.037123   -1.734114    0.377088
     10          1           0       -2.552868   -1.824746   -0.565886
     11          1           0        1.257271    1.481941    0.132775
     12          1           0       -0.791565    2.666959    0.357921
     13          1           0        1.147173   -2.313807   -0.237570
     14          1           0        2.696280   -1.558995   -0.092126
 ---------------------------------------------------------------------

 SCF Done:  E(RHF) =  -357.489792068     A.U. after    2 cycles

 The electronic state is 1-A.
 Alpha  occ. eigenvalues --  -21.08474 -15.79578 -15.72531 -15.72361 -11.51377
 Alpha  occ. eigenvalues --  -11.43081 -11.39790  -1.77791  -1.42218  -1.35625
 Alpha  occ. eigenvalues --   -1.28570  -1.00551  -0.84609  -0.76582  -0.72419
 Alpha  occ. eigenvalues --   -0.66297  -0.63474  -0.60593  -0.58479  -0.56789
 Alpha  occ. eigenvalues --   -0.53881  -0.50516  -0.44698  -0.39489  -0.35838
 Alpha  occ. eigenvalues --   -0.32257  -0.29796
 Alpha virt. eigenvalues --    0.03395   0.04621   0.05693   0.06037   0.06631
 Alpha virt. eigenvalues --    0.07535   0.08597   0.10514   0.12206   0.13017
 Alpha virt. eigenvalues --    0.13311   0.13817   0.14166   0.14990   0.15541

 Mulliken charges:
               1
     1  C   -3.456568
     2  N   -2.642284
     3  C    3.865601
     4  N   -2.909249
     5  C    3.249516
     6  O   -3.351803
     7  N   -2.757539
     8  H    1.277461
     9  H    1.583798
    10  H    1.356642
    11  H    1.574621
    12  H    0.636145
    13  H    0.763378
    14  H    0.810281
 Sum of Mulliken charges =   0.00000

 Dipole moment (field-independent basis, Debye):
    X=              1.8505    Y=             -2.5020    Z=              0.9112  Tot=              3.2426

 Test job not archived.
 1\1\GINC-SE398\SP\RHF\Aug-CC-pVDZ\C3H7N3O1\OHZDE\09-Apr-2025\0\\#t hf
 aug-cc-pvdz iop(5/13=1,5/36=2,99/5=2) pseudo=read geom=check guess=(re
 ad,tcheck) scf=(maxcycle=1)\\title\\0,1\C,0,1.73836202,1.04432597,-0.4
 9499015\N,0,1.57202276,-0.36657671,-0.64293939\C,0,0.72660801,-1.08246
 442,-0.12994003\N,0,0.24793083,-2.18769701,0.25363676\C,0,-1.21473658,
 -0.04606547,0.25380579\O,0,-1.88867122,-1.02182102,0.75778554\N,0,-1.9
 2426937,1.06187318,0.10883008\H,0,2.51331932,1.26864892,0.24203094\H,0
 ,0.80532874,1.50888633,-0.15326323\H,0,2.04052891,1.48661869,-1.445037

 Normal termination of Gaussian 16 at Wed Apr  9 03:58:44 2025.
