 Gaussian 16, Revision C.01,

 ----------------------------------------------------------------------
 #t hf aug-cc-pvdz symm=none int=(grid=ultrafine) guess=(read,tcheck) s
 table=(opt,rrhf)
 ----------------------------------------------------------------------
 -----
 title
 -----
 Symbolic Z-matrix:
 Charge =  0 Multiplicity = 1

 SCF Done:  E(RHF) =  -307.877917896     A.U. after   13 cycles

 1\1\GINC-SE231\Stability\RHF\Aug-CC-pVDZ\C6H10O1\OHZDE\09-Apr-2025\0\\
 #t hf aug-cc-pvdz symm=none int=(grid=ultrafine) guess=(read,tcheck) s
 table=(opt,rrhf)\\title\\0,1\O,0,2.43487003,-0.53483705,-0.34394385\C,
 0,1.04147379,-0.62140483,-0.43205993\C,0,0.2833084,-1.78556903,0.22778
 536\C,0,-0.86538814,-0.79496437,0.51178875\C,0,-1.45205101,2.06043166,
 -0.53850569\C,0,-0.22188533,1.66400296,-0.24896262\C,0,0.14787136,0.35
 929386,0.36601934\H,0,2.69016399,-0.62686713,0.57667278\H,0,0.8025515,
 -0.55802191,-1.49591965\H,0,0.77826955,-2.09209071,1.15332055\H,0,0.07

 Normal termination of Gaussian 16 at Wed Apr  9 19:13:07 2025.
 Gaussian 16:  ES64L-G16RevC.01  3-Jul-2019

 ----------------------------------------------------------------------
 #t hf aug-cc-pvdz iop(5/13=1,5/36=2,99/5=2) pseudo=read geom=check gue
 ss=(read,tcheck) scf=(maxcycle=1)
 ----------------------------------------------------------------------
 -----
 title
 -----
 Structure from the checkpoint file:  "Grambow2020_wb97xd3_008424_reverse_mol2.chk"
 Charge =  0 Multiplicity = 1

                         Standard orientation:
 ---------------------------------------------------------------------
 Center     Atomic      Atomic             Coordinates (Angstroms)
 Number     Number       Type             X           Y           Z
 ---------------------------------------------------------------------
      1          8           0       -1.837018   -1.387667   -0.048512
      2          6           0       -0.985013   -0.329750   -0.382744
      3          6           0       -1.420393    1.128995   -0.163663
      4          6           0        0.052306    1.454401    0.163029
      5          6           0        2.671186   -0.153403   -0.233223
      6          6           0        1.545649   -0.738553    0.147651
      7          6           0        0.271537   -0.040666    0.474425
      8          1           0       -2.148420   -1.258376    0.850093
      9          1           0       -0.694139   -0.494404   -1.422542
     10          1           0       -2.050197    1.213411    0.726156
     11          1           0       -1.902617    1.650096   -0.989562
     12          1           0        0.252725    2.169491    0.958896
     13          1           0        0.598088    1.757331   -0.731693
     14          1           0        3.557039   -0.732219   -0.463915
     15          1           0        2.752066    0.924435   -0.324012
     16          1           0        1.513851   -1.823027    0.229523
     17          1           0        0.006109   -0.231550    1.522303
 ---------------------------------------------------------------------

 SCF Done:  E(RHF) =  -309.356174730     A.U. after    2 cycles

 The electronic state is 1-A.
 Alpha  occ. eigenvalues --  -21.07090 -11.50957 -11.42442 -11.42091 -11.39702
 Alpha  occ. eigenvalues --  -11.37843 -11.35142  -1.71971  -1.33016  -1.13983
 Alpha  occ. eigenvalues --   -0.96383  -0.93409  -0.83266  -0.77439  -0.66927
 Alpha  occ. eigenvalues --   -0.65757  -0.60980  -0.55735  -0.54453  -0.52871
 Alpha  occ. eigenvalues --   -0.50726  -0.50610  -0.45605  -0.41598  -0.36832
 Alpha  occ. eigenvalues --   -0.35006  -0.29423
 Alpha virt. eigenvalues --    0.04064   0.05107   0.05216   0.05407   0.05645
 Alpha virt. eigenvalues --    0.05869   0.06485   0.07284   0.07336   0.08138
 Alpha virt. eigenvalues --    0.11542   0.12342   0.12968   0.13631   0.14059

 Mulliken charges:
               1
     1  O   -3.426290
     2  C    2.232035
     3  C   -3.470523
     4  C   -2.740059
     5  C   -3.284470
     6  C   -0.638957
     7  C   -1.592796
     8  H    0.598547
     9  H    1.630234
    10  H    1.360105
    11  H    1.193587
    12  H    1.155550
    13  H    1.454963
    14  H    1.356783
    15  H    1.471038
    16  H    1.314599
    17  H    1.385655
 Sum of Mulliken charges =   0.00000

 Dipole moment (field-independent basis, Debye):
    X=             -0.1298    Y=              0.5547    Z=              0.4276  Tot=              0.7123

 Test job not archived.
 1\1\GINC-SE231\SP\RHF\Aug-CC-pVDZ\C6H10O1\OHZDE\09-Apr-2025\0\\#t hf a
 ug-cc-pvdz iop(5/13=1,5/36=2,99/5=2) pseudo=read geom=check guess=(rea
 d,tcheck) scf=(maxcycle=1)\\title\\0,1\O,0,2.43487003,-0.53483705,-0.3
 4394385\C,0,1.04147379,-0.62140483,-0.43205993\C,0,0.2833084,-1.785569
 03,0.22778536\C,0,-0.86538814,-0.79496437,0.51178875\C,0,-1.45205101,2
 .06043166,-0.53850569\C,0,-0.22188533,1.66400296,-0.24896262\C,0,0.147
 87136,0.35929386,0.36601934\H,0,2.69016399,-0.62686713,0.57667278\H,0,
 0.8025515,-0.55802191,-1.49591965\H,0,0.77826955,-2.09209071,1.1533205

 Normal termination of Gaussian 16 at Wed Apr  9 19:13:13 2025.
