 Gaussian 16, Revision C.01,

 ----------------------------------------------------------------------
 #t hf aug-cc-pvdz symm=none int=(grid=ultrafine) guess=(read,tcheck) s
 table=(opt,rrhf)
 ----------------------------------------------------------------------
 -----
 title
 -----
 Symbolic Z-matrix:
 Charge =  0 Multiplicity = 1

 SCF Done:  E(RHF) =  -287.883678766     A.U. after   18 cycles

 1\1\GINC-SE041\Stability\RHF\Aug-CC-pVDZ\C6H11N1\OHZDE\09-Apr-2025\0\\
 #t hf aug-cc-pvdz symm=none int=(grid=ultrafine) guess=(read,tcheck) s
 table=(opt,rrhf)\\title\\0,1\C,0,-2.55400581,0.27616945,-0.37053288\C,
 0,-1.17576005,-0.37718011,-0.39250478\C,0,-0.14866666,0.27422741,0.498
 58628\C,0,1.48884866,-0.97374159,0.52124852\C,0,2.56114892,-0.32426756
 ,-0.03752251\C,0,0.57292944,1.48050233,0.01698213\N,0,-0.22763248,2.36
 760641,0.12345472\H,0,-3.24756916,-0.27525243,-1.00867038\H,0,-2.49660
 434,1.30653171,-0.72141228\H,0,-2.96284375,0.29198237,0.64176573\H,0,-

 Normal termination of Gaussian 16 at Wed Apr  9 18:04:35 2025.
 Gaussian 16:  ES64L-G16RevC.01  3-Jul-2019

 ----------------------------------------------------------------------
 #t hf aug-cc-pvdz iop(5/13=1,5/36=2,99/5=2) pseudo=read geom=check gue
 ss=(read,tcheck) scf=(maxcycle=1)
 ----------------------------------------------------------------------
 -----
 title
 -----
 Structure from the checkpoint file:  "Grambow2020_wb97xd3_006570_forward_mol1.chk"
 Charge =  0 Multiplicity = 1

                         Standard orientation:
 ---------------------------------------------------------------------
 Center     Atomic      Atomic             Coordinates (Angstroms)
 Number     Number       Type             X           Y           Z
 ---------------------------------------------------------------------
      1          6           0       -2.567152   -0.520575   -0.103907
      2          6           0       -1.102578   -0.911857   -0.273705
      3          6           0       -0.122221   -0.049817    0.480671
      4          6           0        1.710847   -0.976241    0.335773
      5          6           0        2.575442   -0.164279   -0.354924
      6          6           0        0.305091    1.248191   -0.102702
      7          7           0       -0.629516    1.977808    0.079939
      8          1           0       -3.212466   -1.213689   -0.647485
      9          1           0       -2.741224    0.488517   -0.477391
     10          1           0       -2.857372   -0.540233    0.948487
     11          1           0       -0.968192   -1.934878    0.092004
     12          1           0       -0.833481   -0.919222   -1.334390
     13          1           0       -0.284533   -0.020156    1.555493
     14          1           0        1.839265   -1.087362    1.406837
     15          1           0        1.304654   -1.845336   -0.168975
     16          1           0        2.715764   -0.277166   -1.423234
     17          1           0        1.369151    1.272933   -0.557168
     18          1           0        3.278468    0.479408    0.159007
 ---------------------------------------------------------------------

 SCF Done:  E(RHF) =  -289.335764140     A.U. after    2 cycles

 The electronic state is 1-A.
 Alpha  occ. eigenvalues --  -15.74987 -11.48379 -11.43981 -11.42179 -11.40746
 Alpha  occ. eigenvalues --  -11.38285 -11.36581  -1.36911  -1.20013  -1.14585
 Alpha  occ. eigenvalues --   -0.99207  -0.86672  -0.85553  -0.77219  -0.66306
 Alpha  occ. eigenvalues --   -0.65295  -0.59851  -0.57563  -0.56257  -0.54232
 Alpha  occ. eigenvalues --   -0.50710  -0.49690  -0.48578  -0.47951  -0.40870
 Alpha  occ. eigenvalues --   -0.37648  -0.26679
 Alpha virt. eigenvalues --    0.03828   0.04672   0.04952   0.05452   0.05642
 Alpha virt. eigenvalues --    0.05988   0.06528   0.06845   0.07180   0.08112
 Alpha virt. eigenvalues --    0.08523   0.09144   0.11924   0.12263   0.12746

 Mulliken charges:
               1
     1  C   -3.893195
     2  C   -3.120988
     3  C   -0.890251
     4  C   -3.316656
     5  C   -3.132489
     6  C    1.334368
     7  N   -2.500322
     8  H    1.061792
     9  H    1.387084
    10  H    1.180161
    11  H    1.602228
    12  H    1.538878
    13  H    1.410778
    14  H    1.303265
    15  H    1.573661
    16  H    1.380263
    17  H    1.670874
    18  H    1.410549
 Sum of Mulliken charges =   0.00000

 Dipole moment (field-independent basis, Debye):
    X=              0.9322    Y=             -2.3400    Z=              0.1117  Tot=              2.5213

 Test job not archived.
 1\1\GINC-SE041\SP\RHF\Aug-CC-pVDZ\C6H11N1\OHZDE\09-Apr-2025\0\\#t hf a
 ug-cc-pvdz iop(5/13=1,5/36=2,99/5=2) pseudo=read geom=check guess=(rea
 d,tcheck) scf=(maxcycle=1)\\title\\0,1\C,0,-2.55400581,0.27616945,-0.3
 7053288\C,0,-1.17576005,-0.37718011,-0.39250478\C,0,-0.14866666,0.2742
 2741,0.49858628\C,0,1.48884866,-0.97374159,0.52124852\C,0,2.56114892,-
 0.32426756,-0.03752251\C,0,0.57292944,1.48050233,0.01698213\N,0,-0.227
 63248,2.36760641,0.12345472\H,0,-3.24756916,-0.27525243,-1.00867038\H,
 0,-2.49660434,1.30653171,-0.72141228\H,0,-2.96284375,0.29198237,0.6417

 Normal termination of Gaussian 16 at Wed Apr  9 18:04:42 2025.
