 Gaussian 16, Revision C.01,

 ----------------------------------------------------------------------
 #t hf aug-cc-pvdz symm=none int=(grid=ultrafine) guess=(read,tcheck) s
 table=(opt,rrhf)
 ----------------------------------------------------------------------
 -----
 title
 -----
 Symbolic Z-matrix:
 Charge =  0 Multiplicity = 1

 SCF Done:  E(RHF) =  -308.831471757     A.U. after   16 cycles

 1\1\GINC-SE220\Stability\RHF\Aug-CC-pVDZ\C6H12O1\OHZDE\09-Apr-2025\0\\
 #t hf aug-cc-pvdz symm=none int=(grid=ultrafine) guess=(read,tcheck) s
 table=(opt,rrhf)\\title\\0,1\C,0,2.09041644,-0.78323827,-0.43726149\O,
 0,0.81273696,-0.85568561,0.19280805\C,0,0.24086508,0.3819159,0.9243666
 1\C,0,-0.06933431,1.55133602,-0.01933958\C,0,-1.58195477,1.29487502,0.
 22946049\C,0,-1.15965634,0.10492296,1.05916449\C,0,-0.66312654,-1.5411
 8812,-0.63975332\H,0,2.88319655,-0.89244965,0.30471064\H,0,2.20586813,
 0.16194475,-0.97403687\H,0,2.16031607,-1.61014155,-1.14447179\H,0,0.95

 Normal termination of Gaussian 16 at Wed Apr  9 19:12:29 2025.
 Gaussian 16:  ES64L-G16RevC.01  3-Jul-2019

 ----------------------------------------------------------------------
 #t hf aug-cc-pvdz iop(5/13=1,5/36=2,99/5=2) pseudo=read geom=check gue
 ss=(read,tcheck) scf=(maxcycle=1)
 ----------------------------------------------------------------------
 -----
 title
 -----
 Structure from the checkpoint file:  "Grambow2020_wb97xd3_008396_forward_mol1.chk"
 Charge =  0 Multiplicity = 1

                         Standard orientation:
 ---------------------------------------------------------------------
 Center     Atomic      Atomic             Coordinates (Angstroms)
 Number     Number       Type             X           Y           Z
 ---------------------------------------------------------------------
      1          6           0       -2.180516   -0.701073   -0.158235
      2          8           0       -1.111481    0.093171    0.352687
      3          6           0        0.247054   -0.565528    0.690873
      4          6           0        0.977497   -1.111062   -0.543304
      5          6           0        2.023594    0.025862   -0.373658
      6          6           0        1.169319    0.529981    0.765995
      7          6           0       -0.605979    1.677318   -0.406386
      8          1           0       -2.675385   -1.234817    0.654890
      9          1           0       -1.814952   -1.410217   -0.905432
     10          1           0       -2.902514   -0.028724   -0.622419
     11          1           0       -0.029708   -1.232838    1.510597
     12          1           0        1.373280   -2.119193   -0.417382
     13          1           0        0.403392   -1.079852   -1.473238
     14          1           0        2.138665    0.695171   -1.241807
     15          1           0        3.021822   -0.347373   -0.123538
     16          1           0        1.481176    1.083089    1.644464
     17          1           0        0.111617    1.571577   -1.210706
     18          1           0       -1.629083    1.753677   -0.775311
     19          1           0       -0.372270    2.471130    0.286671
 ---------------------------------------------------------------------

 SCF Done:  E(RHF) =  -310.380332527     A.U. after    2 cycles

 The electronic state is 1-A.
 Alpha  occ. eigenvalues --  -21.06621 -11.51081 -11.45490 -11.41389 -11.39381
 Alpha  occ. eigenvalues --  -11.35426 -11.29660  -1.76469  -1.27660  -1.03891
 Alpha  occ. eigenvalues --   -0.99774  -0.90686  -0.89168  -0.73413  -0.66717
 Alpha  occ. eigenvalues --   -0.65613  -0.62184  -0.59774  -0.59066  -0.57035
 Alpha  occ. eigenvalues --   -0.55328  -0.48353  -0.46269  -0.41859  -0.40321
 Alpha  occ. eigenvalues --   -0.39044  -0.32786  -0.20255
 Alpha virt. eigenvalues --    0.03428   0.04596   0.04808   0.05220   0.05579
 Alpha virt. eigenvalues --    0.06356   0.06452   0.06838   0.07466   0.08226
 Alpha virt. eigenvalues --    0.08720   0.09550   0.11987   0.13137   0.13725

 Mulliken charges:
               1
     1  C   -2.913359
     2  O   -2.199148
     3  C   -0.222163
     4  C   -2.870738
     5  C   -2.885419
     6  C   -1.798293
     7  C   -3.931586
     8  H    1.377755
     9  H    1.464153
    10  H    1.365572
    11  H    1.605734
    12  H    1.203301
    13  H    1.601477
    14  H    1.290754
    15  H    1.290609
    16  H    1.339095
    17  H    1.724274
    18  H    1.190397
    19  H    1.367584
 Sum of Mulliken charges =   0.00000

 Dipole moment (field-independent basis, Debye):
    X=             -3.2408    Y=             -0.2254    Z=             -0.6596  Tot=              3.3150

 Test job not archived.
 1\1\GINC-SE220\SP\RHF\Aug-CC-pVDZ\C6H12O1\OHZDE\09-Apr-2025\0\\#t hf a
 ug-cc-pvdz iop(5/13=1,5/36=2,99/5=2) pseudo=read geom=check guess=(rea
 d,tcheck) scf=(maxcycle=1)\\title\\0,1\C,0,2.09041644,-0.78323827,-0.4
 3726149\O,0,0.81273696,-0.85568561,0.19280805\C,0,0.24086508,0.3819159
 ,0.92436661\C,0,-0.06933431,1.55133602,-0.01933958\C,0,-1.58195477,1.2
 9487502,0.22946049\C,0,-1.15965634,0.10492296,1.05916449\C,0,-0.663126
 54,-1.54118812,-0.63975332\H,0,2.88319655,-0.89244965,0.30471064\H,0,2
 .20586813,0.16194475,-0.97403687\H,0,2.16031607,-1.61014155,-1.1444717

 Normal termination of Gaussian 16 at Wed Apr  9 19:12:36 2025.
