 Gaussian 16, Revision C.01,

 ----------------------------------------------------------------------
 #t hf aug-cc-pvdz symm=none int=(grid=ultrafine) guess=(read,tcheck) s
 table=(opt,rrhf)
 ----------------------------------------------------------------------
 -----
 title
 -----
 Symbolic Z-matrix:
 Charge =  0 Multiplicity = 1

 SCF Done:  E(RHF) =  -283.583994347     A.U. after   16 cycles
 Normal termination of Gaussian 16 at Wed Apr  9 03:15:50 2025.
 Gaussian 16:  ES64L-G16RevC.01  3-Jul-2019

 ----------------------------------------------------------------------
 #t hf aug-cc-pvdz iop(5/13=1,5/36=2,99/5=2) pseudo=read geom=check gue
 ss=(read,tcheck) scf=(maxcycle=1)
 ----------------------------------------------------------------------
 -----
 title
 -----
 Structure from the checkpoint file:  "Grambow2020_b97d3_006995_forward_mol1.chk"
 Charge =  0 Multiplicity = 1

                         Standard orientation:
 ---------------------------------------------------------------------
 Center     Atomic      Atomic             Coordinates (Angstroms)
 Number     Number       Type             X           Y           Z
 ---------------------------------------------------------------------
      1          6           0        1.313816   -1.095966   -0.136462
      2          6           0        0.660017    0.245325   -0.074810
      3          8           0        1.006713    1.367857   -0.226525
      4          6           0       -1.466328   -0.146510   -0.981429
      5          6           0       -1.223448   -0.054759    0.365542
      6          7           0       -0.697291   -0.004609    1.456945
      7          1           0        1.821528   -1.185467   -1.106154
      8          1           0        0.603643   -1.912735   -0.007623
      9          1           0        2.069055   -1.137690    0.661124
     10          1           0       -1.682271   -1.117615   -1.422736
     11          1           0       -1.688971    0.754377   -1.548076
 ---------------------------------------------------------------------

 SCF Done:  E(RHF) =  -284.892961747     A.U. after    2 cycles

 The electronic state is 1-A.
 Alpha  occ. eigenvalues --  -21.12424 -15.76324 -11.60239 -11.46718 -11.44741
 Alpha  occ. eigenvalues --  -11.39845  -1.77218  -1.36314  -1.15157  -1.06938
 Alpha  occ. eigenvalues --   -0.79208  -0.70253  -0.66436  -0.64041  -0.63343
 Alpha  occ. eigenvalues --   -0.58050  -0.54762  -0.52185  -0.49373  -0.43375
 Alpha  occ. eigenvalues --   -0.37334  -0.27105
 Alpha virt. eigenvalues --    0.02597   0.05192   0.05349   0.05829   0.06684
 Alpha virt. eigenvalues --    0.08786   0.09278   0.10905   0.11645   0.11957
 Alpha virt. eigenvalues --    0.13107   0.13682   0.14149   0.14482   0.14880

 Mulliken charges:
               1
     1  C   -3.976104
     2  C    3.567758
     3  O   -3.093934
     4  C   -2.729985
     5  C    1.652536
     6  N   -2.203516
     7  H    1.261184
     8  H    1.548949
     9  H    1.243498
    10  H    1.324153
    11  H    1.405461
 Sum of Mulliken charges =  -0.00000

 Dipole moment (field-independent basis, Debye):
    X=              2.5074    Y=             -0.8965    Z=             -1.9467  Tot=              3.2985

 Test job not archived.
 1\1\GINC-SE080\SP\RHF\Aug-CC-pVDZ\C4H5N1O1\OHZDE\09-Apr-2025\0\\#t hf
 aug-cc-pvdz iop(5/13=1,5/36=2,99/5=2) pseudo=read geom=check guess=(re
 ad,tcheck) scf=(maxcycle=1)\\title\\0,1\C,0,-1.31129522,0.39941469,-0.
 43186517\C,0,-0.4222226,0.13675891,0.73897933\O,0,-0.57736016,-0.17580
 708,1.87102619\C,0,1.43422863,-0.92773439,-0.21876753\C,0,1.41959494,0
 .3987853,0.13033287\N,0,1.08337578,1.5169852,0.45759835\H,0,-1.9680998
 5,-0.4705656,-0.56538395\H,0,-0.75078247,0.59070981,-1.34690002\H,0,-1
 .9314306,1.27476021,-0.19212885\H,0,1.3998942,-1.20620076,-1.27029309\

 Normal termination of Gaussian 16 at Wed Apr  9 03:15:54 2025.
