 Gaussian 16, Revision C.01,

 ----------------------------------------------------------------------
 #t hf aug-cc-pvdz symm=none int=(grid=ultrafine) guess=(read,tcheck) s
 table=(opt,rrhf)
 ----------------------------------------------------------------------
 -----
 title
 -----
 Symbolic Z-matrix:
 Charge =  0 Multiplicity = 1

 SCF Done:  E(RHF) =  -374.484512158     A.U. after   15 cycles
 Normal termination of Gaussian 16 at Wed Apr  9 18:36:28 2025.
 Gaussian 16:  ES64L-G16RevC.01  3-Jul-2019

 ----------------------------------------------------------------------
 #t hf aug-cc-pvdz iop(5/13=1,5/36=2,99/5=2) pseudo=read geom=check gue
 ss=(read,tcheck) scf=(maxcycle=1)
 ----------------------------------------------------------------------
 -----
 title
 -----
 Structure from the checkpoint file:  "Grambow2020_wb97xd3_007328_reverse_mol1.chk"
 Charge =  0 Multiplicity = 1

                         Standard orientation:
 ---------------------------------------------------------------------
 Center     Atomic      Atomic             Coordinates (Angstroms)
 Number     Number       Type             X           Y           Z
 ---------------------------------------------------------------------
      1          7           0        2.286121   -0.404117   -0.217186
      2          6           0        1.031581   -0.260554    0.100944
      3          6           0        0.715218    1.133186    0.083697
      4          8           0       -0.717579    1.150442   -0.107202
      5          6           0       -1.192313   -0.094212   -0.000472
      6          8           0       -2.325962   -0.437035   -0.111364
      7          7           0       -0.093995   -0.982692    0.223567
      8          1           0        2.837310   -1.223357    0.004607
      9          1           0        2.098639    0.882356   -0.488514
     10          1           0        0.955051    1.639171    1.019308
     11          1           0       -0.214479   -1.968282    0.063448
 ---------------------------------------------------------------------

 SCF Done:  E(RHF) =  -376.113708916     A.U. after    2 cycles

 The electronic state is 1-A.
 Alpha  occ. eigenvalues --  -21.10486 -21.05927 -15.82682 -15.77812 -11.54712
 Alpha  occ. eigenvalues --  -11.52397 -11.40063  -1.87988  -1.69492  -1.49627
 Alpha  occ. eigenvalues --   -1.35456  -1.05271  -0.87701  -0.86267  -0.77592
 Alpha  occ. eigenvalues --   -0.68993  -0.62450  -0.60225  -0.55059  -0.52830
 Alpha  occ. eigenvalues --   -0.51631  -0.42373  -0.41189  -0.37043  -0.32542
 Alpha  occ. eigenvalues --   -0.28400
 Alpha virt. eigenvalues --    0.02626   0.04696   0.05234   0.06605   0.09058
 Alpha virt. eigenvalues --    0.10214   0.10626   0.10992   0.12022   0.12541
 Alpha virt. eigenvalues --    0.13588   0.14060   0.14255   0.15523   0.16905

 Mulliken charges:
               1
     1  N   -3.261408
     2  C    3.772080
     3  C   -1.089963
     4  O   -2.940672
     5  C    5.711790
     6  O   -3.176603
     7  N   -2.675702
     8  H    0.787195
     9  H    0.969656
    10  H    1.176779
    11  H    0.726847
 Sum of Mulliken charges =  -0.00000

 Dipole moment (field-independent basis, Debye):
    X=              2.3760    Y=             -2.7209    Z=              0.9250  Tot=              3.7289

 Test job not archived.
 1\1\GINC-SE219\SP\RHF\Aug-CC-pVDZ\C3H4N2O2\OHZDE\09-Apr-2025\0\\#t hf
 aug-cc-pvdz iop(5/13=1,5/36=2,99/5=2) pseudo=read geom=check guess=(re
 ad,tcheck) scf=(maxcycle=1)\\title\\0,1\N,0,-1.80002637,-0.4151882,0.0
 6020805\C,0,-0.53259829,-0.18889324,-0.13499744\C,0,-0.24349203,1.1520
 4163,0.26650413\O,0,1.17590259,1.1229293,0.53875251\C,0,1.67875583,-0.
 04810223,0.13656977\O,0,2.8106212,-0.40443377,0.21960285\N,0,0.6112064
 5,-0.84962681,-0.37703516\H,0,-2.32279145,-1.14877577,-0.40100822\H,0,
 -1.65173197,0.75491321,0.670661\H,0,-0.44021244,1.88591541,-0.51556929

 Normal termination of Gaussian 16 at Wed Apr  9 18:36:32 2025.
