 Gaussian 16, Revision C.01,

 ----------------------------------------------------------------------
 #t hf aug-cc-pvdz symm=none int=(grid=ultrafine) guess=(read,tcheck) s
 table=(opt,rrhf)
 ----------------------------------------------------------------------
 -----
 title
 -----
 Symbolic Z-matrix:
 Charge =  0 Multiplicity = 1

 SCF Done:  E(RHF) =  -302.775777441     A.U. after   17 cycles
 Normal termination of Gaussian 16 at Wed Apr  9 18:23:50 2025.
 Gaussian 16:  ES64L-G16RevC.01  3-Jul-2019

 ----------------------------------------------------------------------
 #t hf aug-cc-pvdz iop(5/13=1,5/36=2,99/5=2) pseudo=read geom=check gue
 ss=(read,tcheck) scf=(maxcycle=1)
 ----------------------------------------------------------------------
 -----
 title
 -----
 Structure from the checkpoint file:  "Grambow2020_wb97xd3_006959_forward_mol1.chk"
 Charge =  0 Multiplicity = 1

                         Standard orientation:
 ---------------------------------------------------------------------
 Center     Atomic      Atomic             Coordinates (Angstroms)
 Number     Number       Type             X           Y           Z
 ---------------------------------------------------------------------
      1          6           0        0.470455    1.536570    0.257124
      2          6           0        0.834353    0.058723    0.166870
      3          6           0        2.028652   -0.210172   -0.745582
      4          7           0        0.601514   -0.755882    1.231199
      5          6           0       -0.424666   -0.901171   -0.156543
      6          6           0       -1.701762   -0.226714   -0.213938
      7          7           0       -2.726374    0.282839   -0.288060
      8          1           0        0.233907    1.961088   -0.720287
      9          1           0        1.337476    2.069905    0.651344
     10          1           0       -0.365924    1.692522    0.935062
     11          1           0        2.913626    0.243960   -0.295915
     12          1           0        2.211601   -1.280926   -0.834919
     13          1           0        1.896454    0.227995   -1.736959
     14          1           0       -0.440720   -1.719002    0.621754
     15          1           0       -0.154592   -1.427655   -1.069645
 ---------------------------------------------------------------------

 SCF Done:  E(RHF) =  -304.208449153     A.U. after    2 cycles

 The electronic state is 1-A.
 Alpha  occ. eigenvalues --  -15.76968 -15.75254 -11.54016 -11.47086 -11.44512
 Alpha  occ. eigenvalues --  -11.41025 -11.38768  -1.47029  -1.30978  -1.13210
 Alpha  occ. eigenvalues --   -1.04543  -1.03925  -0.80407  -0.74604  -0.65436
 Alpha  occ. eigenvalues --   -0.64277  -0.59644  -0.58788  -0.55986  -0.53267
 Alpha  occ. eigenvalues --   -0.51892  -0.49787  -0.47655  -0.44711  -0.40044
 Alpha  occ. eigenvalues --   -0.32622
 Alpha virt. eigenvalues --    0.02962   0.05043   0.05294   0.05479   0.05780
 Alpha virt. eigenvalues --    0.06463   0.07326   0.07891   0.08907   0.10559
 Alpha virt. eigenvalues --    0.11722   0.12869   0.13180   0.13601   0.14049

 Mulliken charges:
               1
     1  C   -3.838076
     2  C    3.305053
     3  C   -4.134605
     4  N   -2.490230
     5  C   -3.321124
     6  C    2.261497
     7  N   -2.444588
     8  H    1.279927
     9  H    1.139928
    10  H    1.359261
    11  H    1.210863
    12  H    1.275631
    13  H    1.261942
    14  H    1.487485
    15  H    1.647036
 Sum of Mulliken charges =  -0.00000

 Dipole moment (field-independent basis, Debye):
    X=              2.8859    Y=             -0.5012    Z=             -1.4267  Tot=              3.2581

 Test job not archived.
 1\1\GINC-SE029\SP\RHF\Aug-CC-pVDZ\C5H8N2\OHZDE\09-Apr-2025\0\\#t hf au
 g-cc-pvdz iop(5/13=1,5/36=2,99/5=2) pseudo=read geom=check guess=(read
 ,tcheck) scf=(maxcycle=1)\\title\\0,1\C,0,-0.6461256,1.33143917,-0.123
 16177\C,0,-0.33969102,-0.15014646,-0.31185157\C,0,-1.24970032,-1.06013
 527,0.50974757\N,0,0.1550397,-0.58684439,-1.50144305\C,0,1.22490928,-0
 .51622151,-0.14115958\C,0,2.09386497,0.62000746,0.06635236\N,0,2.80612
 396,1.49874954,0.25468274\H,0,-0.55600741,1.63920015,0.92022978\H,0,-1
 .67925723,1.50021411,-0.43257124\H,0,0.00266077,1.94681283,-0.74271036

 Normal termination of Gaussian 16 at Wed Apr  9 18:23:55 2025.
