 Gaussian 16, Revision C.01,

 ----------------------------------------------------------------------
 #t hf aug-cc-pvdz symm=none int=(grid=ultrafine) guess=(read,tcheck) s
 table=(opt,rrhf)
 ----------------------------------------------------------------------
 -----
 title
 -----
 Symbolic Z-matrix:
 Charge =  0 Multiplicity = 1

 SCF Done:  E(RHF) =  -301.976860026     A.U. after   23 cycles
 Normal termination of Gaussian 16 at Wed Apr  9 16:05:41 2025.
 Gaussian 16:  ES64L-G16RevC.01  3-Jul-2019

 ----------------------------------------------------------------------
 #t hf aug-cc-pvdz iop(5/13=1,5/36=2,99/5=2) pseudo=read geom=check gue
 ss=(read,tcheck) scf=(maxcycle=1)
 ----------------------------------------------------------------------
 -----
 title
 -----
 Structure from the checkpoint file:  "Grambow2020_b97d3_006717_forward_mol1.chk"
 Charge =  0 Multiplicity = 1

                         Standard orientation:
 ---------------------------------------------------------------------
 Center     Atomic      Atomic             Coordinates (Angstroms)
 Number     Number       Type             X           Y           Z
 ---------------------------------------------------------------------
      1          8           0        1.179310    0.660435    0.254382
      2          6           0        1.242413   -0.732703   -0.088216
      3          6           0        0.074558   -1.378735   -0.027222
      4          6           0       -1.112211   -0.766209   -0.032363
      5          6           0       -1.908230    0.190100    0.081699
      6          8           0        0.156465    1.383384   -0.221961
      7          1           0        2.268854   -1.086591   -0.071483
      8          1           0       -2.734235    0.861320    0.208730
 ---------------------------------------------------------------------

 SCF Done:  E(RHF) =  -303.306081124     A.U. after    2 cycles

 The electronic state is 1-A.
 Alpha  occ. eigenvalues --  -21.14952 -21.07745 -11.51747 -11.50018 -11.47891
 Alpha  occ. eigenvalues --  -11.45347  -1.98689  -1.35263  -1.22674  -1.04697
 Alpha  occ. eigenvalues --   -0.89284  -0.75738  -0.67188  -0.61413  -0.55964
 Alpha  occ. eigenvalues --   -0.48371  -0.46526  -0.41067  -0.35984  -0.30639
 Alpha  occ. eigenvalues --   -0.24472
 Alpha virt. eigenvalues --    0.02446   0.03333   0.05316   0.07708   0.08259
 Alpha virt. eigenvalues --    0.09721   0.11194   0.11370   0.12277   0.12861
 Alpha virt. eigenvalues --    0.13255   0.14500   0.15443   0.16038   0.16327

 Mulliken charges:
               1
     1  O   -1.287701
     2  C   -0.123597
     3  C   -1.071973
     4  C    3.714698
     5  C   -3.086013
     6  O   -0.180072
     7  H    1.355323
     8  H    0.679336
 Sum of Mulliken charges =  -0.00000

 Dipole moment (field-independent basis, Debye):
    X=              0.0621    Y=              3.0357    Z=             -0.4143  Tot=              3.0645

 Test job not archived.
 1\1\GINC-SE097\SP\RHF\Aug-CC-pVDZ\C4H2O2\OHZDE\09-Apr-2025\0\\#t hf au
 g-cc-pvdz iop(5/13=1,5/36=2,99/5=2) pseudo=read geom=check guess=(read
 ,tcheck) scf=(maxcycle=1)\\title\\0,1\O,0,-0.80910921,-0.37501392,1.13
 616977\C,0,-1.37824309,-0.54172277,-0.17168587\C,0,-0.697217,0.0469568
 2,-1.15891513\C,0,0.57839538,0.42839724,-1.05425724\C,0,1.64096209,0.7
 2473124,-0.46746794\O,0,0.51835435,-0.50111732,1.26923888\H,0,-2.40711
 43,-0.8819595,-0.10269294\H,0,2.59838377,1.07948921,-0.14120554\\Versi
 on=ES64L-G16RevC.01\State=1-A\HF=-303.3060811\RMSD=9.007e-01\Dipole=0.

 Normal termination of Gaussian 16 at Wed Apr  9 16:05:45 2025.
