 Gaussian 16, Revision C.01,

 ----------------------------------------------------------------------
 #t hf aug-cc-pvdz symm=none int=(grid=ultrafine) guess=(read,tcheck) s
 table=(opt,rrhf)
 ----------------------------------------------------------------------
 -----
 title
 -----
 Symbolic Z-matrix:
 Charge =  0 Multiplicity = 1

 SCF Done:  E(RHF) =  -308.992789462     A.U. after   15 cycles

 1\1\GINC-SE226\Stability\RHF\Aug-CC-pVDZ\C6H12O1\OHZDE\09-Apr-2025\0\\
 #t hf aug-cc-pvdz symm=none int=(grid=ultrafine) guess=(read,tcheck) s
 table=(opt,rrhf)\\title\\0,1\C,0,-1.89075871,-1.67679323,-1.07848025\C
 ,0,-1.25621346,-0.29439421,-1.01598942\C,0,-0.67505801,0.018125,0.3587
 6793\C,0,-0.01085966,1.37676569,0.44436495\O,0,1.10980362,1.48139833,-
 0.48090969\C,0,2.31905906,1.05570483,-0.27962596\C,0,2.59481177,0.3803
 1345,1.03306867\H,0,-2.69915352,-1.77722316,-0.3496699\H,0,-2.30737569
 ,-1.87773865,-2.06658013\H,0,-1.15532735,-2.456184,-0.86451392\H,0,-2.

 Normal termination of Gaussian 16 at Wed Apr  9 18:11:35 2025.
 Gaussian 16:  ES64L-G16RevC.01  3-Jul-2019

 ----------------------------------------------------------------------
 #t hf aug-cc-pvdz iop(5/13=1,5/36=2,99/5=2) pseudo=read geom=check gue
 ss=(read,tcheck) scf=(maxcycle=1)
 ----------------------------------------------------------------------
 -----
 title
 -----
 Structure from the checkpoint file:  "Grambow2020_wb97xd3_006736_reverse_mol2.chk"
 Charge =  0 Multiplicity = 1

                         Standard orientation:
 ---------------------------------------------------------------------
 Center     Atomic      Atomic             Coordinates (Angstroms)
 Number     Number       Type             X           Y           Z
 ---------------------------------------------------------------------
      1          6           0        2.945910    0.707951   -0.194451
      2          6           0        1.778989   -0.256611   -0.354127
      3          6           0        0.735014   -0.094949    0.745577
      4          6           0       -0.453389   -1.022456    0.597864
      5          8           0       -1.166543   -0.780452   -0.649458
      6          6           0       -2.059574    0.136715   -0.862360
      7          6           0       -2.389370    1.047189    0.285522
      8          1           0        3.452880    0.564608    0.763247
      9          1           0        3.684856    0.570985   -0.985329
     10          1           0        2.605734    1.745594   -0.235285
     11          1           0        2.147258   -1.287695   -0.348568
     12          1           0        0.386647    0.942051    0.775450
     13          1           0        1.191352   -0.293929    1.721620
     14          1           0       -1.140805   -0.950485    1.439796
     15          1           0       -0.129423   -2.059847    0.510042
     16          1           0        1.304642   -0.107044   -1.327305
     17          1           0       -2.005970    0.838744    1.288173
     18          1           0       -2.033649    2.034209   -0.031499
     19          1           0       -3.476660    1.139393    0.317175
 ---------------------------------------------------------------------

 SCF Done:  E(RHF) =  -310.502673313     A.U. after    2 cycles

 The electronic state is 1-A.
 Alpha  occ. eigenvalues --  -21.09901 -11.45871 -11.42002 -11.41651 -11.38707
 Alpha  occ. eigenvalues --  -11.36828 -11.35392  -1.80086  -1.24056  -1.10556
 Alpha  occ. eigenvalues --   -1.07231  -0.93466  -0.84765  -0.73983  -0.67606
 Alpha  occ. eigenvalues --   -0.64582  -0.60825  -0.59008  -0.57204  -0.56657
 Alpha  occ. eigenvalues --   -0.53530  -0.52340  -0.47532  -0.46925  -0.45485
 Alpha  occ. eigenvalues --   -0.40726  -0.39490  -0.29904
 Alpha virt. eigenvalues --    0.03694   0.04642   0.04710   0.05077   0.05617
 Alpha virt. eigenvalues --    0.05819   0.06309   0.07092   0.08109   0.08154
 Alpha virt. eigenvalues --    0.08465   0.08988   0.11247   0.11665   0.12654

 Mulliken charges:
               1
     1  C   -3.898737
     2  C   -2.776976
     3  C   -2.961705
     4  C   -1.919825
     5  O   -2.390110
     6  C    0.118062
     7  C   -3.524500
     8  H    1.267769
     9  H    1.100607
    10  H    1.359214
    11  H    1.414802
    12  H    2.002560
    13  H    1.409696
    14  H    1.642677
    15  H    1.345755
    16  H    1.614734
    17  H    1.520890
    18  H    1.416201
    19  H    1.258886
 Sum of Mulliken charges =   0.00000

 Dipole moment (field-independent basis, Debye):
    X=              1.9168    Y=             -0.5118    Z=              2.6158  Tot=              3.2830

 Test job not archived.
 1\1\GINC-SE226\SP\RHF\Aug-CC-pVDZ\C6H12O1\OHZDE\09-Apr-2025\0\\#t hf a
 ug-cc-pvdz iop(5/13=1,5/36=2,99/5=2) pseudo=read geom=check guess=(rea
 d,tcheck) scf=(maxcycle=1)\\title\\0,1\C,0,-1.89075871,-1.67679323,-1.
 07848025\C,0,-1.25621346,-0.29439421,-1.01598942\C,0,-0.67505801,0.018
 125,0.35876793\C,0,-0.01085966,1.37676569,0.44436495\O,0,1.10980362,1.
 48139833,-0.48090969\C,0,2.31905906,1.05570483,-0.27962596\C,0,2.59481
 177,0.38031345,1.03306867\H,0,-2.69915352,-1.77722316,-0.3496699\H,0,-
 2.30737569,-1.87773865,-2.06658013\H,0,-1.15532735,-2.456184,-0.864513

 Normal termination of Gaussian 16 at Wed Apr  9 18:11:42 2025.
