 Gaussian 16, Revision C.01,

 ----------------------------------------------------------------------
 #t hf aug-cc-pvdz symm=none int=(grid=ultrafine) guess=(read,tcheck) s
 table=(opt,rrhf)
 ----------------------------------------------------------------------
 -----
 title
 -----
 Symbolic Z-matrix:
 Charge =  0 Multiplicity = 1

 SCF Done:  E(RHF) =  -338.565314687     A.U. after   16 cycles
 Normal termination of Gaussian 16 at Wed Apr  9 03:59:37 2025.
 Gaussian 16:  ES64L-G16RevC.01  3-Jul-2019

 ----------------------------------------------------------------------
 #t hf aug-cc-pvdz iop(5/13=1,5/36=2,99/5=2) pseudo=read geom=check gue
 ss=(read,tcheck) scf=(maxcycle=1)
 ----------------------------------------------------------------------
 -----
 title
 -----
 Structure from the checkpoint file:  "Grambow2020_wb97xd3_008814_reverse_mol1.chk"
 Charge =  0 Multiplicity = 1

                         Standard orientation:
 ---------------------------------------------------------------------
 Center     Atomic      Atomic             Coordinates (Angstroms)
 Number     Number       Type             X           Y           Z
 ---------------------------------------------------------------------
      1          7           0        2.205329   -0.222244   -0.015135
      2          6           0        0.915937    0.101020   -0.099275
      3          6           0       -0.088396   -1.012814   -0.429711
      4          8           0       -1.066744   -0.679312    1.115173
      5          7           0       -1.122689   -0.211948   -1.038335
      6          6           0       -1.119982    0.800057   -0.087744
      7          6           0        0.225644    1.256207    0.118801
      8          1           0        2.920363    0.449432    0.191067
      9          1           0        2.461569   -1.171261   -0.223260
     10          1           0       -0.540833   -0.529208    1.910395
     11          1           0       -1.993114   -0.723572   -1.096569
     12          1           0       -2.015303    1.371391    0.137136
     13          1           0        0.523574    2.210242    0.521707
 ---------------------------------------------------------------------

 SCF Done:  E(RHF) =  -340.128298324     A.U. after    2 cycles

 The electronic state is 1-A.
 Alpha  occ. eigenvalues --  -21.01828 -15.79648 -15.74476 -11.52933 -11.48360
 Alpha  occ. eigenvalues --  -11.41695 -11.37730  -1.66645  -1.44256  -1.36639
 Alpha  occ. eigenvalues --   -1.12855  -0.99785  -0.83725  -0.78713  -0.72223
 Alpha  occ. eigenvalues --   -0.68637  -0.61958  -0.59116  -0.53293  -0.52461
 Alpha  occ. eigenvalues --   -0.48176  -0.43573  -0.38994  -0.32708  -0.28468
 Alpha  occ. eigenvalues --   -0.24641
 Alpha virt. eigenvalues --    0.03282   0.04605   0.04832   0.06352   0.06594
 Alpha virt. eigenvalues --    0.07305   0.09832   0.11215   0.11566   0.12097
 Alpha virt. eigenvalues --    0.12614   0.13259   0.13849   0.14722   0.15307

 Mulliken charges:
               1
     1  N   -3.777188
     2  C    5.557878
     3  C   -1.545855
     4  O   -1.752155
     5  N   -2.178739
     6  C   -0.387063
     7  C   -1.785435
     8  H    0.738409
     9  H    0.823958
    10  H    1.023192
    11  H    0.583514
    12  H    1.415557
    13  H    1.283927
 Sum of Mulliken charges =   0.00000

 Dipole moment (field-independent basis, Debye):
    X=              0.8391    Y=              2.2129    Z=              1.5470  Tot=              2.8274

 Test job not archived.
 1\1\GINC-SE459\SP\RHF\Aug-CC-pVDZ\C4H6N2O1\OHZDE\09-Apr-2025\0\\#t hf
 aug-cc-pvdz iop(5/13=1,5/36=2,99/5=2) pseudo=read geom=check guess=(re
 ad,tcheck) scf=(maxcycle=1)\\title\\0,1\N,0,-1.8926077,0.92141949,0.35
 507923\C,0,-0.64400564,0.47548579,0.2276249\C,0,-0.29582103,-0.8857026
 8,0.84765124\O,0,0.29182241,-1.55286851,-0.78471566\N,0,1.1157898,-0.6
 8127834,1.06476116\C,0,1.38664488,-0.11531569,-0.17382981\C,0,0.455231
 95,0.94788555,-0.42585331\H,0,-2.19457749,1.801819,-0.01728382\H,0,-2.
 53188951,0.36637012,0.89623278\H,0,-0.26606319,-1.33661315,-1.54200676

 Normal termination of Gaussian 16 at Wed Apr  9 03:59:41 2025.
