 Gaussian 16, Revision C.01,

 ----------------------------------------------------------------------
 #t hf aug-cc-pvdz symm=none int=(grid=ultrafine) guess=(read,tcheck) s
 table=(opt,rrhf)
 ----------------------------------------------------------------------
 -----
 title
 -----
 Symbolic Z-matrix:
 Charge =  0 Multiplicity = 1

 SCF Done:  E(RHF) =  -322.490952341     A.U. after   17 cycles
 Normal termination of Gaussian 16 at Wed Apr  9 18:50:44 2025.
 Gaussian 16:  ES64L-G16RevC.01  3-Jul-2019

 ----------------------------------------------------------------------
 #t hf aug-cc-pvdz iop(5/13=1,5/36=2,99/5=2) pseudo=read geom=check gue
 ss=(read,tcheck) scf=(maxcycle=1)
 ----------------------------------------------------------------------
 -----
 title
 -----
 Structure from the checkpoint file:  "Grambow2020_wb97xd3_007710_reverse_mol1.chk"
 Charge =  0 Multiplicity = 1

                         Standard orientation:
 ---------------------------------------------------------------------
 Center     Atomic      Atomic             Coordinates (Angstroms)
 Number     Number       Type             X           Y           Z
 ---------------------------------------------------------------------
      1          6           0        2.207119   -0.785437    0.236220
      2          7           0        1.202943    1.468080    0.107077
      3          6           0        0.216891    0.827003   -0.150493
      4          8           0        0.319170   -0.621152   -0.403605
      5          6           0       -1.135761   -0.762115   -0.470725
      6          6           0       -1.749596   -0.300848    0.796409
      7          6           0       -1.300831    0.700120   -0.252135
      8          1           0        2.826930   -0.274880   -0.481689
      9          1           0        2.246064   -0.415389    1.247960
     10          1           0        2.046838   -1.842992    0.092229
     11          1           0       -1.545131   -1.431483   -1.210886
     12          1           0       -1.194697   -0.387307    1.722821
     13          1           0       -2.821386   -0.435021    0.883376
     14          1           0       -1.959505    1.407384   -0.730159
 ---------------------------------------------------------------------

 SCF Done:  E(RHF) =  -323.984179233     A.U. after    2 cycles

 The electronic state is 1-A.
 Alpha  occ. eigenvalues --  -21.05477 -15.64856 -11.50848 -11.47151 -11.44826
 Alpha  occ. eigenvalues --  -11.41845 -11.37909  -1.80247  -1.27263  -1.21250
 Alpha  occ. eigenvalues --   -1.04762  -0.91908  -0.85816  -0.73598  -0.65735
 Alpha  occ. eigenvalues --   -0.65210  -0.64011  -0.62361  -0.54333  -0.50352
 Alpha  occ. eigenvalues --   -0.46528  -0.43096  -0.41389  -0.35001  -0.28289
 Alpha  occ. eigenvalues --   -0.24032
 Alpha virt. eigenvalues --    0.01505   0.04507   0.04815   0.05145   0.05825
 Alpha virt. eigenvalues --    0.06244   0.07079   0.08254   0.10075   0.11328
 Alpha virt. eigenvalues --    0.11508   0.11753   0.13260   0.14575   0.14911

 Mulliken charges:
               1
     1  C   -3.858471
     2  N   -3.047844
     3  C    4.382028
     4  O   -2.950512
     5  C    1.382569
     6  C   -2.941491
     7  C   -2.207495
     8  H    1.368161
     9  H    1.376520
    10  H    1.388063
    11  H    1.367700
    12  H    1.265051
    13  H    1.254359
    14  H    1.221363
 Sum of Mulliken charges =   0.00000

 Dipole moment (field-independent basis, Debye):
    X=             -0.8654    Y=             -4.6994    Z=             -0.1917  Tot=              4.7822

 Test job not archived.
 1\1\GINC-SE173\SP\RHF\Aug-CC-pVDZ\C5H7N1O1\OHZDE\09-Apr-2025\0\\#t hf
 aug-cc-pvdz iop(5/13=1,5/36=2,99/5=2) pseudo=read geom=check guess=(re
 ad,tcheck) scf=(maxcycle=1)\\title\\0,1\C,0,2.19878016,-0.57348774,0.5
 5361308\N,0,1.12051015,1.64730703,0.64737418\C,0,0.24974239,1.05967563
 ,0.05909278\O,0,0.48478891,-0.30606275,-0.44209663\C,0,-0.91201122,-0.
 44811124,-0.85437343\C,0,-1.80711524,-0.25998973,0.31121148\C,0,-1.201
 71906,0.93763584,-0.39727957\H,0,2.92792799,0.07911266,0.10340916\H,0,
 1.99999659,-0.41517747,1.60122545\H,0,2.13253084,-1.58195307,0.1748580

 Normal termination of Gaussian 16 at Wed Apr  9 18:50:48 2025.
