 Gaussian 16, Revision C.01,

 ----------------------------------------------------------------------
 #t hf aug-cc-pvdz symm=none int=(grid=ultrafine) guess=(read,tcheck) s
 table=(opt,rrhf)
 ----------------------------------------------------------------------
 -----
 title
 -----
 Symbolic Z-matrix:
 Charge =  0 Multiplicity = 1

 SCF Done:  E(RHF) =  -271.926409305     A.U. after   15 cycles
 Normal termination of Gaussian 16 at Wed Apr  9 03:39:52 2025.
 Gaussian 16:  ES64L-G16RevC.01  3-Jul-2019

 ----------------------------------------------------------------------
 #t hf aug-cc-pvdz iop(5/13=1,5/36=2,99/5=2) pseudo=read geom=check gue
 ss=(read,tcheck) scf=(maxcycle=1)
 ----------------------------------------------------------------------
 -----
 title
 -----
 Structure from the checkpoint file:  "Grambow2020_wb97xd3_007428_forward_mol1.chk"
 Charge =  0 Multiplicity = 1

                         Standard orientation:
 ---------------------------------------------------------------------
 Center     Atomic      Atomic             Coordinates (Angstroms)
 Number     Number       Type             X           Y           Z
 ---------------------------------------------------------------------
      1          6           0        2.656943    0.171148   -0.178630
      2          6           0        1.399106   -0.684371   -0.093985
      3          6           0        0.250337    0.041491    0.592425
      4          6           0       -0.410252    1.223709   -0.159379
      5          6           0       -1.803363    0.612316   -0.080966
      6          6           0       -1.671814   -0.808806   -0.573650
      7          6           0       -1.022930   -0.838023    0.779402
      8          1           0        3.464630   -0.357930   -0.687032
      9          1           0        3.012536    0.446833    0.816876
     10          1           0        2.469883    1.096641   -0.729518
     11          1           0        1.103427   -0.995369   -1.100259
     12          1           0        1.612357   -1.604533    0.459667
     13          1           0        0.602869    0.369886    1.573342
     14          1           0       -0.069194    1.384463   -1.185922
     15          1           0       -0.317100    2.164699    0.381396
     16          1           0       -2.744261    1.136634   -0.228443
     17          1           0       -2.602033   -1.363281   -0.652178
     18          1           0       -1.046760   -0.912289   -1.455606
     19          1           0       -1.874518    0.329460    1.096372
 ---------------------------------------------------------------------

 SCF Done:  E(RHF) =  -273.324261600     A.U. after    2 cycles

 The electronic state is 1-A.
 Alpha  occ. eigenvalues --  -11.49599 -11.43713 -11.41295 -11.40153 -11.39336
 Alpha  occ. eigenvalues --  -11.36862 -11.34646  -1.41210  -1.17544  -1.04090
 Alpha  occ. eigenvalues --   -0.97248  -0.86403  -0.85866  -0.74706  -0.67753
 Alpha  occ. eigenvalues --   -0.62537  -0.60352  -0.59411  -0.55164  -0.51657
 Alpha  occ. eigenvalues --   -0.49731  -0.49437  -0.47387  -0.45135  -0.41320
 Alpha  occ. eigenvalues --   -0.39416  -0.28245
 Alpha virt. eigenvalues --    0.04082   0.04931   0.05200   0.05366   0.05451
 Alpha virt. eigenvalues --    0.05654   0.06278   0.06584   0.07279   0.08176
 Alpha virt. eigenvalues --    0.08812   0.09345   0.11196   0.12545   0.12991

 Mulliken charges:
               1
     1  C   -3.927598
     2  C   -3.720329
     3  C    0.834774
     4  C   -3.511147
     5  C   -1.736292
     6  C   -3.306424
     7  C   -0.881538
     8  H    1.084755
     9  H    1.266775
    10  H    1.396799
    11  H    1.430168
    12  H    1.369592
    13  H    1.716929
    14  H    1.509646
    15  H    1.357264
    16  H    1.138428
    17  H    1.321114
    18  H    1.516473
    19  H    1.140611
 Sum of Mulliken charges =   0.00000

 Dipole moment (field-independent basis, Debye):
    X=              0.1643    Y=              1.7796    Z=             -1.8099  Tot=              2.5436

 Test job not archived.
 1\1\GINC-SE424\SP\RHF\Aug-CC-pVDZ\C7H12\OHZDE\09-Apr-2025\0\\#t hf aug
 -cc-pvdz iop(5/13=1,5/36=2,99/5=2) pseudo=read geom=check guess=(read,
 tcheck) scf=(maxcycle=1)\\title\\0,1\C,0,2.36691084,0.3953137,-0.70767
 35\C,0,1.11450771,-0.46691226,-0.80403064\C,0,0.27336765,-0.4098258,0.
 46361658\C,0,-0.46694625,0.91313861,0.78130354\C,0,-1.82914299,0.23601
 644,0.86275901\C,0,-1.96582072,-0.59522141,-0.39023408\C,0,-0.9670263,
 -1.35337839,0.434545\H,0,2.94940846,0.35546716,-1.62955342\H,0,3.01120
 012,0.06270561,0.10948277\H,0,2.11336892,1.44231402,-0.52189488\H,0,0.

 Normal termination of Gaussian 16 at Wed Apr  9 03:39:59 2025.
