 Gaussian 16, Revision C.01,

 ----------------------------------------------------------------------
 #t hf aug-cc-pvdz symm=none int=(grid=ultrafine) guess=(read,tcheck) s
 table=(opt,rrhf)
 ----------------------------------------------------------------------
 -----
 title
 -----
 Symbolic Z-matrix:
 Charge =  0 Multiplicity = 1

 SCF Done:  E(RHF) =  -345.891480457     A.U. after   15 cycles

 1\1\GINC-SE035\Stability\RHF\Aug-CC-pVDZ\C5H12O2\OHZDE\09-Apr-2025\0\\
 #t hf aug-cc-pvdz symm=none int=(grid=ultrafine) guess=(read,tcheck) s
 table=(opt,rrhf)\\title\\0,1\C,0,2.27267359,0.10543909,1.58478931\C,0,
 0.94132756,0.53965041,0.96670205\C,0,0.38888437,-0.47638929,0.00803962
 \O,0,0.50189253,-1.77254575,0.36153919\C,0,-1.28255753,0.77903616,-0.7
 5416753\C,0,-1.77706187,0.26557962,-2.07403719\O,0,-1.46610186,-0.3561
 7496,0.263803\H,0,2.17562036,-0.77479251,2.22355588\H,0,3.01508256,-0.
 12200254,0.81796402\H,0,2.66493163,0.91355074,2.20289522\H,0,0.1994485

 Normal termination of Gaussian 16 at Wed Apr  9 19:06:17 2025.
 Gaussian 16:  ES64L-G16RevC.01  3-Jul-2019

 ----------------------------------------------------------------------
 #t hf aug-cc-pvdz iop(5/13=1,5/36=2,99/5=2) pseudo=read geom=check gue
 ss=(read,tcheck) scf=(maxcycle=1)
 ----------------------------------------------------------------------
 -----
 title
 -----
 Structure from the checkpoint file:  "Grambow2020_wb97xd3_008079_reverse_mol1.chk"
 Charge =  0 Multiplicity = 1

                         Standard orientation:
 ---------------------------------------------------------------------
 Center     Atomic      Atomic             Coordinates (Angstroms)
 Number     Number       Type             X           Y           Z
 ---------------------------------------------------------------------
      1          6           0       -2.752139   -0.535703   -0.186718
      2          6           0       -1.287848   -0.803624    0.169826
      3          6           0       -0.361911    0.261132   -0.345439
      4          8           0       -0.787714    1.536903   -0.251333
      5          6           0        1.534158   -0.779326    0.177189
      6          6           0        2.682453   -0.225613   -0.613411
      7          8           0        0.949595    0.384714    0.990794
      8          1           0       -3.148813    0.358866    0.297686
      9          1           0       -2.887090   -0.416984   -1.263109
     10          1           0       -3.363219   -1.378580    0.137478
     11          1           0       -1.166593   -0.873985    1.252813
     12          1           0       -0.939375   -1.748127   -0.239623
     13          1           0        0.107233    0.123067   -1.306719
     14          1           0       -1.266073    1.665223    0.575392
     15          1           0        1.902786   -1.481765    0.932131
     16          1           0        2.364792    0.433515   -1.434117
     17          1           0        3.403169    0.358377   -0.004992
     18          1           0        3.244513   -1.047279   -1.063433
     19          1           0        1.565350    1.133543    0.992127
 ---------------------------------------------------------------------

 SCF Done:  E(RHF) =  -347.541953353     A.U. after    2 cycles

 The electronic state is 1-A.
 Alpha  occ. eigenvalues --  -21.12785 -21.06319 -11.55742 -11.42511 -11.38152
 Alpha  occ. eigenvalues --  -11.35949 -11.30297  -1.80462  -1.68686  -1.20343
 Alpha  occ. eigenvalues --   -1.06318  -0.99603  -0.86906  -0.79642  -0.68830
 Alpha  occ. eigenvalues --   -0.65304  -0.64967  -0.59535  -0.55715  -0.54292
 Alpha  occ. eigenvalues --   -0.53337  -0.51551  -0.49129  -0.48778  -0.45655
 Alpha  occ. eigenvalues --   -0.42590  -0.36655  -0.32364  -0.21793
 Alpha virt. eigenvalues --    0.03369   0.04797   0.05350   0.05410   0.05668
 Alpha virt. eigenvalues --    0.06026   0.06615   0.06712   0.07843   0.08440
 Alpha virt. eigenvalues --    0.09003   0.09278   0.11489   0.11949   0.13798

 Mulliken charges:
               1
     1  C   -4.108836
     2  C   -2.984267
     3  C    2.430854
     4  O   -3.382452
     5  C   -0.559707
     6  C   -4.171567
     7  O   -2.477325
     8  H    1.279730
     9  H    1.224499
    10  H    1.050776
    11  H    1.591335
    12  H    1.547891
    13  H    1.836288
    14  H    0.710064
    15  H    1.258832
    16  H    1.319703
    17  H    1.195203
    18  H    1.293732
    19  H    0.945247
 Sum of Mulliken charges =   0.00000

 Dipole moment (field-independent basis, Debye):
    X=             -3.1392    Y=              1.9494    Z=              0.6023  Tot=              3.7440

 Test job not archived.
 1\1\GINC-SE035\SP\RHF\Aug-CC-pVDZ\C5H12O2\OHZDE\09-Apr-2025\0\\#t hf a
 ug-cc-pvdz iop(5/13=1,5/36=2,99/5=2) pseudo=read geom=check guess=(rea
 d,tcheck) scf=(maxcycle=1)\\title\\0,1\C,0,2.27267359,0.10543909,1.584
 78931\C,0,0.94132756,0.53965041,0.96670205\C,0,0.38888437,-0.47638929,
 0.00803962\O,0,0.50189253,-1.77254575,0.36153919\C,0,-1.28255753,0.779
 03616,-0.75416753\C,0,-1.77706187,0.26557962,-2.07403719\O,0,-1.466101
 86,-0.35617496,0.263803\H,0,2.17562036,-0.77479251,2.22355588\H,0,3.01
 508256,-0.12200254,0.81796402\H,0,2.66493163,0.91355074,2.20289522\H,0

 Normal termination of Gaussian 16 at Wed Apr  9 19:06:24 2025.
