 Gaussian 16, Revision C.01,

 ----------------------------------------------------------------------
 #t hf aug-cc-pvdz symm=none int=(grid=ultrafine) guess=(read,tcheck) s
 table=(opt,rrhf)
 ----------------------------------------------------------------------
 -----
 title
 -----
 Symbolic Z-matrix:
 Charge =  0 Multiplicity = 1

 SCF Done:  E(RHF) =  -186.889909507     A.U. after   14 cycles
 Normal termination of Gaussian 16 at Wed Apr  9 15:41:31 2025.
 Gaussian 16:  ES64L-G16RevC.01  3-Jul-2019

 ----------------------------------------------------------------------
 #t hf aug-cc-pvdz iop(5/13=1,5/36=2,99/5=2) pseudo=read geom=check gue
 ss=(read,tcheck) scf=(maxcycle=1)
 ----------------------------------------------------------------------
 -----
 title
 -----
 Structure from the checkpoint file:  "Grambow2020_b97d3_006607_reverse_mol1.chk"
 Charge =  0 Multiplicity = 1

                         Standard orientation:
 ---------------------------------------------------------------------
 Center     Atomic      Atomic             Coordinates (Angstroms)
 Number     Number       Type             X           Y           Z
 ---------------------------------------------------------------------
      1          7           0       -1.481619   -0.266926   -0.168902
      2          6           0       -0.499593    0.502355    0.380092
      3          6           0        1.296986    0.330567   -0.572001
      4          7           0        1.370982   -0.520077    0.269425
      5          1           0       -1.661432   -0.136690   -1.161446
      6          1           0       -1.484508   -1.248397    0.097200
      7          1           0       -0.343817    0.353046    1.442414
      8          1           0       -0.520140    1.543532    0.069628
 ---------------------------------------------------------------------

 SCF Done:  E(RHF) =  -187.763510778     A.U. after    2 cycles

 The electronic state is 1-A.
 Alpha  occ. eigenvalues --  -15.80594 -15.74160 -11.50298 -11.35930  -1.41624
 Alpha  occ. eigenvalues --   -1.27752  -0.97558  -0.75649  -0.65625  -0.62455
 Alpha  occ. eigenvalues --   -0.56902  -0.54915  -0.42000  -0.40555  -0.37784
 Alpha virt. eigenvalues --    0.03240   0.04680   0.05262   0.06602   0.09536
 Alpha virt. eigenvalues --    0.10687   0.11213   0.12505   0.13070   0.13590
 Alpha virt. eigenvalues --    0.16470   0.17337   0.18137   0.19548   0.20458

 Mulliken charges:
               1
     1  N   -2.153271
     2  C   -1.523500
     3  C    0.479433
     4  N   -0.917865
     5  H    0.655630
     6  H    0.637350
     7  H    1.386821
     8  H    1.435402
 Sum of Mulliken charges =  -0.00000

 Dipole moment (field-independent basis, Debye):
    X=             -4.4551    Y=             -0.1248    Z=              0.7985  Tot=              4.5278

 Test job not archived.
 1\1\GINC-SE168\SP\RHF\Aug-CC-pVDZ\C2H4N2\OHZDE\09-Apr-2025\0\\#t hf au
 g-cc-pvdz iop(5/13=1,5/36=2,99/5=2) pseudo=read geom=check guess=(read
 ,tcheck) scf=(maxcycle=1)\\title\\0,1\N,0,-1.01978723,-0.4896858,0.080
 46618\C,0,-0.12193851,0.53535455,0.05357425\C,0,1.66406909,0.03104827,
 -0.7946821\N,0,1.85086321,-0.21905648,0.36273931\H,0,-1.23215496,-0.93
 31429,-0.80986054\H,0,-0.90533429,-1.1670974,0.83021179\H,0,0.07006392
 ,0.99853755,1.0146591\H,0,-0.26734122,1.2367032,-0.763633\\Version=ES6
 4L-G16RevC.01\State=1-A\HF=-187.7635108\RMSD=5.792e-02\Dipole=-1.72935

 Normal termination of Gaussian 16 at Wed Apr  9 15:41:33 2025.
