 Gaussian 16, Revision C.01,

 ----------------------------------------------------------------------
 #t hf aug-cc-pvdz symm=none int=(grid=ultrafine) guess=(read,tcheck) s
 table=(opt,rrhf)
 ----------------------------------------------------------------------
 -----
 title
 -----
 Symbolic Z-matrix:
 Charge =  0 Multiplicity = 1

 SCF Done:  E(RHF) =  -271.867659603     A.U. after   15 cycles
 Normal termination of Gaussian 16 at Wed Apr  9 03:39:55 2025.
 Gaussian 16:  ES64L-G16RevC.01  3-Jul-2019

 ----------------------------------------------------------------------
 #t hf aug-cc-pvdz iop(5/13=1,5/36=2,99/5=2) pseudo=read geom=check gue
 ss=(read,tcheck) scf=(maxcycle=1)
 ----------------------------------------------------------------------
 -----
 title
 -----
 Structure from the checkpoint file:  "Grambow2020_wb97xd3_007416_forward_mol1.chk"
 Charge =  0 Multiplicity = 1

                         Standard orientation:
 ---------------------------------------------------------------------
 Center     Atomic      Atomic             Coordinates (Angstroms)
 Number     Number       Type             X           Y           Z
 ---------------------------------------------------------------------
      1          6           0        2.355410   -0.599002    0.462820
      2          6           0        1.224784   -0.123418   -0.432224
      3          6           0       -0.069912   -0.982401   -0.372086
      4          6           0       -1.267101    0.030287   -0.377761
      5          6           0       -2.435454   -0.445412    0.468218
      6          6           0       -0.734049    1.429410    0.062693
      7          6           0        0.500037    1.104974   -0.016312
      8          1           0        2.015918   -0.689816    1.496698
      9          1           0        2.719132   -1.573958    0.133176
     10          1           0        3.202973    0.090645    0.439740
     11          1           0        1.582350   -0.036783   -1.463393
     12          1           0       -0.123004   -1.718755   -1.176302
     13          1           0       -0.073169   -1.526609    0.576826
     14          1           0       -1.612067    0.177494   -1.406056
     15          1           0       -2.141172   -0.526997    1.517114
     16          1           0       -2.780324   -1.429191    0.135425
     17          1           0       -3.265887    0.257586    0.405218
     18          1           0        1.540332    2.121147    0.658337
     19          1           0        1.492634    2.368608   -0.088870
 ---------------------------------------------------------------------

 SCF Done:  E(RHF) =  -273.283171772     A.U. after    2 cycles

 The electronic state is 1-A.
 Alpha  occ. eigenvalues --  -11.48769 -11.43927 -11.41719 -11.39753 -11.38253
 Alpha  occ. eigenvalues --  -11.35630 -11.34090  -1.36871  -1.14493  -1.05993
 Alpha  occ. eigenvalues --   -0.99709  -0.90670  -0.80885  -0.75568  -0.68295
 Alpha  occ. eigenvalues --   -0.62120  -0.60634  -0.57114  -0.55864  -0.53250
 Alpha  occ. eigenvalues --   -0.49933  -0.48728  -0.47764  -0.43274  -0.40609
 Alpha  occ. eigenvalues --   -0.34654  -0.31563
 Alpha virt. eigenvalues --    0.03758   0.04612   0.04906   0.05088   0.05223
 Alpha virt. eigenvalues --    0.05845   0.06059   0.07165   0.07309   0.08363
 Alpha virt. eigenvalues --    0.08774   0.08895   0.11284   0.12246   0.12536

 Mulliken charges:
               1
     1  C   -4.186585
     2  C   -2.168853
     3  C   -2.909471
     4  C   -1.430066
     5  C   -4.044165
     6  C   -2.708247
     7  C    2.782054
     8  H    1.306779
     9  H    1.187584
    10  H    1.178818
    11  H    1.465974
    12  H    1.308481
    13  H    1.627897
    14  H    1.488955
    15  H    1.303759
    16  H    1.208161
    17  H    1.231323
    18  H    0.891458
    19  H    0.466145
 Sum of Mulliken charges =   0.00000

 Dipole moment (field-independent basis, Debye):
    X=              3.1179    Y=             -1.8073    Z=             -0.7803  Tot=              3.6874

 Test job not archived.
 1\1\GINC-SE174\SP\RHF\Aug-CC-pVDZ\C7H12\OHZDE\09-Apr-2025\0\\#t hf aug
 -cc-pvdz iop(5/13=1,5/36=2,99/5=2) pseudo=read geom=check guess=(read,
 tcheck) scf=(maxcycle=1)\\title\\0,1\C,0,-2.28071284,-0.41711944,-0.25
 394146\C,0,-1.10217359,0.50879959,-0.0103903\C,0,-0.03599759,-0.028663
 13,0.98565567\C,0,1.35956712,0.34316552,0.37494026\C,0,2.41652206,-0.7
 1117687,0.65463097\C,0,1.17444567,0.62173848,-1.14946666\C,0,-0.103040
 69,0.63815306,-1.10226496\H,0,-1.93632392,-1.40314758,-0.57261195\H,0,
 -2.86788178,-0.53601946,0.65852422\H,0,-2.94911956,-0.02238853,-1.0233

 Normal termination of Gaussian 16 at Wed Apr  9 03:40:02 2025.
