 Gaussian 16, Revision C.01,

 ----------------------------------------------------------------------
 #t hf aug-cc-pvdz symm=none int=(grid=ultrafine) guess=(read,tcheck) s
 table=(opt,rrhf)
 ----------------------------------------------------------------------
 -----
 title
 -----
 Symbolic Z-matrix:
 Charge =  0 Multiplicity = 1

 SCF Done:  E(RHF) =  -269.475152854     A.U. after   17 cycles
 Normal termination of Gaussian 16 at Wed Apr  9 19:08:03 2025.
 Gaussian 16:  ES64L-G16RevC.01  3-Jul-2019

 ----------------------------------------------------------------------
 #t hf aug-cc-pvdz iop(5/13=1,5/36=2,99/5=2) pseudo=read geom=check gue
 ss=(read,tcheck) scf=(maxcycle=1)
 ----------------------------------------------------------------------
 -----
 title
 -----
 Structure from the checkpoint file:  "Grambow2020_wb97xd3_008145_forward_mol1.chk"
 Charge =  0 Multiplicity = 1

                         Standard orientation:
 ---------------------------------------------------------------------
 Center     Atomic      Atomic             Coordinates (Angstroms)
 Number     Number       Type             X           Y           Z
 ---------------------------------------------------------------------
      1          6           0       -2.230803    0.016119   -0.264079
      2          6           0       -0.752751    0.037720   -0.104028
      3          6           0        0.357782   -0.979435   -0.437775
      4          6           0        0.821884   -0.797871    0.961197
      5          6           0        1.418697   -0.003476   -0.800058
      6          6           0        0.841006    1.166466   -0.247754
      7          6           0        0.149156    0.589477    0.934668
      8          1           0       -2.678760    0.913608    0.163520
      9          1           0       -2.518190   -0.053977   -1.314399
     10          1           0       -2.657164   -0.849940    0.253766
     11          1           0        0.229375   -1.931454   -0.941580
     12          1           0        0.886123   -1.534239    1.759492
     13          1           0        2.207844   -0.118712   -1.529723
     14          1           0        1.064878    2.208926   -0.424636
     15          1           0       -0.163937    1.191790    1.780532
 ---------------------------------------------------------------------

 SCF Done:  E(RHF) =  -270.826768431     A.U. after    2 cycles

 The electronic state is 1-A.
 Alpha  occ. eigenvalues --  -11.50929 -11.45517 -11.42209 -11.42021 -11.40739
 Alpha  occ. eigenvalues --  -11.40051 -11.35550  -1.48729  -1.10879  -1.01551
 Alpha  occ. eigenvalues --   -0.99584  -0.85965  -0.75868  -0.74341  -0.70645
 Alpha  occ. eigenvalues --   -0.59667  -0.59021  -0.54800  -0.53445  -0.51465
 Alpha  occ. eigenvalues --   -0.50866  -0.44156  -0.40235  -0.26667  -0.22402
 Alpha virt. eigenvalues --    0.03616   0.04767   0.04959   0.05645   0.05767
 Alpha virt. eigenvalues --    0.06229   0.06521   0.06635   0.10512   0.11127
 Alpha virt. eigenvalues --    0.11817   0.12445   0.12492   0.13150   0.13739

 Mulliken charges:
               1
     1  C   -5.552532
     2  C    3.964645
     3  C   -3.875849
     4  C   -0.423676
     5  C   -0.464228
     6  C   -0.801984
     7  C   -3.078763
     8  H    1.137766
     9  H    1.189884
    10  H    1.144874
    11  H    1.423527
    12  H    1.357180
    13  H    1.308555
    14  H    1.246553
    15  H    1.424045
 Sum of Mulliken charges =  -0.00000

 Dipole moment (field-independent basis, Debye):
    X=             -1.7148    Y=             -0.1504    Z=             -0.1370  Tot=              1.7268

 Test job not archived.
 1\1\GINC-SE014\SP\RHF\Aug-CC-pVDZ\C7H8\OHZDE\09-Apr-2025\0\\#t hf aug-
 cc-pvdz iop(5/13=1,5/36=2,99/5=2) pseudo=read geom=check guess=(read,t
 check) scf=(maxcycle=1)\\title\\0,1\C,0,2.03386339,-0.11705261,-0.1743
 1163\C,0,0.5601932,-0.01148873,-0.00735668\C,0,-0.58596929,-1.04013154
 ,-0.09385091\C,0,-1.24455154,-0.09509923,-1.03122155\C,0,-1.46445989,-
 0.44673773,0.94798541\C,0,-0.85956094,0.83076347,1.04606197\C,0,-0.430
 86963,1.03160408,-0.36304408\H,0,2.50197982,0.86518776,-0.10315273\H,0
 ,2.47552428,-0.77227602,0.57821386\H,0,2.2766848,-0.53294983,-1.158217

 Normal termination of Gaussian 16 at Wed Apr  9 19:08:08 2025.
