 Gaussian 16, Revision C.01,

 ----------------------------------------------------------------------
 #t hf aug-cc-pvdz symm=none int=(grid=ultrafine) guess=(read,tcheck) s
 table=(opt,rrhf)
 ----------------------------------------------------------------------
 -----
 title
 -----
 Symbolic Z-matrix:
 Charge =  0 Multiplicity = 1

 SCF Done:  E(RHF) =  -381.871409378     A.U. after   13 cycles

 1\1\GINC-SE222\Stability\RHF\Aug-CC-pVDZ\C4H10O3\OHZDE\09-Apr-2025\0\\
 #t hf aug-cc-pvdz symm=none int=(grid=ultrafine) guess=(read,tcheck) s
 table=(opt,rrhf)\\title\\0,1\C,0,2.63739231,-0.04107977,0.0612306\O,0,
 1.34543489,0.05548373,0.60751828\C,0,0.36569437,-0.4152498,-0.25487499
 \C,0,-1.00922075,-0.2298706,0.34348249\O,0,-1.20073957,0.26071387,1.42
 460203\C,0,-2.18520733,-0.69276262,-0.49709265\O,0,-3.3903417,-0.47990
 88,0.164246\H,0,3.33153343,0.34339509,0.80595944\H,0,2.72796287,0.5547
 974,-0.85610099\H,0,2.89838969,-1.08213354,-0.1680587\H,0,0.41298863,2

 Normal termination of Gaussian 16 at Wed Apr  9 19:25:14 2025.
 Gaussian 16:  ES64L-G16RevC.01  3-Jul-2019

 ----------------------------------------------------------------------
 #t hf aug-cc-pvdz iop(5/13=1,5/36=2,99/5=2) pseudo=read geom=check gue
 ss=(read,tcheck) scf=(maxcycle=1)
 ----------------------------------------------------------------------
 -----
 title
 -----
 Structure from the checkpoint file:  "Grambow2020_wb97xd3_008928_reverse_mol2.chk"
 Charge =  0 Multiplicity = 1

                         Standard orientation:
 ---------------------------------------------------------------------
 Center     Atomic      Atomic             Coordinates (Angstroms)
 Number     Number       Type             X           Y           Z
 ---------------------------------------------------------------------
      1          6           0       -3.037686   -0.259835   -0.085641
      2          8           0       -1.761948    0.300429   -0.274070
      3          6           0       -0.739900   -0.585085    0.036556
      4          6           0        0.608901    0.078800   -0.114377
      5          8           0        0.749832    1.221797   -0.460597
      6          6           0        1.825273   -0.771577    0.203550
      7          8           0        3.002522   -0.054484    0.016765
      8          1           0       -3.766872    0.500799   -0.357664
      9          1           0       -3.194870   -0.550494    0.961059
     10          1           0       -3.185651   -1.141753   -0.721890
     11          1           0       -1.152715    1.505141    2.678437
     12          1           0       -0.820315   -0.953226    1.072749
     13          1           0       -0.759969   -1.474729   -0.613948
     14          1           0       -1.260186    1.551222    1.941078
     15          1           0        1.804903   -1.663033   -0.437705
     16          1           0        1.740137   -1.122327    1.241164
     17          1           0        2.732755    0.832657   -0.260601
 ---------------------------------------------------------------------

 SCF Done:  E(RHF) =  -383.579123277     A.U. after    2 cycles

 The electronic state is 1-A.
 Alpha  occ. eigenvalues --  -21.06998 -21.06907 -21.06530 -11.51013 -11.45771
 Alpha  occ. eigenvalues --  -11.42448 -11.41627  -1.79957  -1.74737  -1.68585
 Alpha  occ. eigenvalues --   -1.13439  -1.02924  -0.94083  -0.77377  -0.70156
 Alpha  occ. eigenvalues --   -0.69083  -0.63987  -0.62518  -0.60957  -0.58472
 Alpha  occ. eigenvalues --   -0.58174  -0.56036  -0.49487  -0.43703  -0.41243
 Alpha  occ. eigenvalues --   -0.40719  -0.33132  -0.31565  -0.30721
 Alpha virt. eigenvalues --    0.03432   0.04561   0.04898   0.05515   0.05930
 Alpha virt. eigenvalues --    0.06211   0.07116   0.07811   0.08869   0.09385
 Alpha virt. eigenvalues --    0.11203   0.11420   0.12543   0.14122   0.14478

 Mulliken charges:
               1
     1  C   -3.163837
     2  O   -3.188702
     3  C    0.041594
     4  C    2.679599
     5  O   -3.234590
     6  C   -0.692085
     7  O   -2.812782
     8  H    1.350184
     9  H    1.358991
    10  H    1.350153
    11  H    0.219417
    12  H    1.621481
    13  H    1.425403
    14  H   -0.398100
    15  H    1.382584
    16  H    1.354870
    17  H    0.705819
 Sum of Mulliken charges =  -0.00000

 Dipole moment (field-independent basis, Debye):
    X=             -1.7326    Y=             -0.9495    Z=              0.1194  Tot=              1.9793

 Test job not archived.
 1\1\GINC-SE222\SP\RHF\Aug-CC-pVDZ\C4H10O3\OHZDE\09-Apr-2025\0\\#t hf a
 ug-cc-pvdz iop(5/13=1,5/36=2,99/5=2) pseudo=read geom=check guess=(rea
 d,tcheck) scf=(maxcycle=1)\\title\\0,1\C,0,2.63739231,-0.04107977,0.06
 12306\O,0,1.34543489,0.05548373,0.60751828\C,0,0.36569437,-0.4152498,-
 0.25487499\C,0,-1.00922075,-0.2298706,0.34348249\O,0,-1.20073957,0.260
 71387,1.42460203\C,0,-2.18520733,-0.69276262,-0.49709265\O,0,-3.390341
 7,-0.4799088,0.164246\H,0,3.33153343,0.34339509,0.80595944\H,0,2.72796
 287,0.5547974,-0.85610099\H,0,2.89838969,-1.08213354,-0.1680587\H,0,0.

 Normal termination of Gaussian 16 at Wed Apr  9 19:25:19 2025.
