 Gaussian 16, Revision C.01,

 ----------------------------------------------------------------------
 #t hf aug-cc-pvdz symm=none int=(grid=ultrafine) guess=(read,tcheck) s
 table=(opt,rrhf)
 ----------------------------------------------------------------------
 -----
 title
 -----
 Symbolic Z-matrix:
 Charge =  0 Multiplicity = 1

 SCF Done:  E(RHF) =  -268.652814311     A.U. after   18 cycles
 Normal termination of Gaussian 16 at Wed Apr  9 03:16:38 2025.
 Gaussian 16:  ES64L-G16RevC.01  3-Jul-2019

 ----------------------------------------------------------------------
 #t hf aug-cc-pvdz iop(5/13=1,5/36=2,99/5=2) pseudo=read geom=check gue
 ss=(read,tcheck) scf=(maxcycle=1)
 ----------------------------------------------------------------------
 -----
 title
 -----
 Structure from the checkpoint file:  "Grambow2020_b97d3_007029_forward_mol1.chk"
 Charge =  0 Multiplicity = 1

                         Standard orientation:
 ---------------------------------------------------------------------
 Center     Atomic      Atomic             Coordinates (Angstroms)
 Number     Number       Type             X           Y           Z
 ---------------------------------------------------------------------
      1          6           0       -2.481145   -0.407614    0.101565
      2          6           0       -1.089793    0.135012    0.094634
      3          6           0       -0.369425    1.041962   -0.526855
      4          6           0        0.990604    1.165415    0.000724
      5          6           0        1.454072   -0.247059    0.539608
      6          8           0        1.492504   -1.255997   -0.352613
      7          1           0       -2.494645   -1.502975   -0.006837
      8          1           0       -2.994426   -0.167147    1.045510
      9          1           0       -3.056161    0.032488   -0.723453
     10          1           0        1.783983    1.435970   -0.724682
     11          1           0        1.046178    1.907071    0.812094
     12          1           0        2.382632   -0.287535    1.130116
     13          1           0       -0.305127   -0.340004    0.927404
     14          1           0        0.671663   -1.156180   -0.897301
 ---------------------------------------------------------------------

 SCF Done:  E(RHF) =  -269.949287693     A.U. after    2 cycles

 The electronic state is 1-A.
 Alpha  occ. eigenvalues --  -21.15644 -11.53628 -11.42766 -11.40441 -11.37509
 Alpha  occ. eigenvalues --  -11.33517  -1.80233  -1.24486  -1.09334  -0.96238
 Alpha  occ. eigenvalues --   -0.88137  -0.71124  -0.66878  -0.63085  -0.61462
 Alpha  occ. eigenvalues --   -0.56596  -0.55571  -0.51253  -0.48960  -0.46966
 Alpha  occ. eigenvalues --   -0.41605  -0.31884  -0.26656
 Alpha virt. eigenvalues --    0.03327   0.03781   0.04950   0.05595   0.05846
 Alpha virt. eigenvalues --    0.06652   0.07001   0.07309   0.07792   0.10316
 Alpha virt. eigenvalues --    0.11338   0.12274   0.12846   0.13446   0.14675

 Mulliken charges:
               1
     1  C   -4.506587
     2  C    2.606692
     3  C   -2.150259
     4  C   -3.848138
     5  C    0.203133
     6  O   -2.704719
     7  H    1.159625
     8  H    1.096777
     9  H    1.192744
    10  H    1.382869
    11  H    1.370632
    12  H    1.544901
    13  H    1.520978
    14  H    1.131355
 Sum of Mulliken charges =   0.00000

 Dipole moment (field-independent basis, Debye):
    X=              3.2772    Y=             -2.6747    Z=              1.4827  Tot=              4.4824

 Test job not archived.
 1\1\GINC-SE229\SP\RHF\Aug-CC-pVDZ\C5H8O1\OHZDE\09-Apr-2025\0\\#t hf au
 g-cc-pvdz iop(5/13=1,5/36=2,99/5=2) pseudo=read geom=check guess=(read
 ,tcheck) scf=(maxcycle=1)\\title\\0,1\C,0,2.29768492,0.21831919,0.1790
 7148\C,0,0.87106492,-0.09505187,-0.13222535\C,0,0.07334006,-0.21511233
 ,-1.16999093\C,0,-1.27973656,-0.64758632,-0.81586091\C,0,-1.62792976,-
 0.09174367,0.62291689\O,0,-1.61381094,1.2466314,0.77797781\H,0,2.38758
 259,1.02939452,0.91787014\H,0,2.81358115,-0.66067828,0.59564019\H,0,2.
 82065614,0.52070042,-0.73747272\H,0,-2.10678399,-0.2634248,-1.44616018

 Normal termination of Gaussian 16 at Wed Apr  9 03:16:43 2025.
