 Gaussian 16, Revision C.01,

 ----------------------------------------------------------------------
 #t hf aug-cc-pvdz symm=none int=(grid=ultrafine) guess=(read,tcheck) s
 table=(opt,rrhf)
 ----------------------------------------------------------------------
 -----
 title
 -----
 Symbolic Z-matrix:
 Charge =  0 Multiplicity = 1

 SCF Done:  E(RHF) =  -284.839844163     A.U. after   14 cycles
 Normal termination of Gaussian 16 at Wed Apr  9 03:06:47 2025.
 Gaussian 16:  ES64L-G16RevC.01  3-Jul-2019

 ----------------------------------------------------------------------
 #t hf aug-cc-pvdz iop(5/13=1,5/36=2,99/5=2) pseudo=read geom=check gue
 ss=(read,tcheck) scf=(maxcycle=1)
 ----------------------------------------------------------------------
 -----
 title
 -----
 Structure from the checkpoint file:  "Grambow2020_b97d3_006550_reverse_mol2.chk"
 Charge =  0 Multiplicity = 1

                         Standard orientation:
 ---------------------------------------------------------------------
 Center     Atomic      Atomic             Coordinates (Angstroms)
 Number     Number       Type             X           Y           Z
 ---------------------------------------------------------------------
      1          8           0        2.805045   -0.420078   -0.183106
      2          6           0        1.550483   -0.229860    0.325630
      3          6           0       -2.550325   -0.730200   -0.095231
      4          7           0       -1.825043    0.254620   -0.448654
      5          6           0       -0.772772    0.683361    0.479654
      6          6           0        0.578101    0.553801   -0.172109
      7          1           0        2.886980    0.108176   -1.001404
      8          1           0        1.422392   -0.813953    1.237667
      9          1           0       -2.442594   -1.273486    0.863087
     10          1           0       -3.337262   -1.080464   -0.774070
     11          1           0       -0.785398    0.121564    1.435028
     12          1           0       -0.975917    1.741600    0.716507
     13          1           0        0.733811    1.112237   -1.099057
 ---------------------------------------------------------------------

 SCF Done:  E(RHF) =  -286.147770552     A.U. after    2 cycles

 The electronic state is 1-A.
 Alpha  occ. eigenvalues --  -21.10192 -15.73953 -11.46260 -11.43550 -11.41494
 Alpha  occ. eigenvalues --  -11.37356  -1.74405  -1.38426  -1.14456  -0.97945
 Alpha  occ. eigenvalues --   -0.83324  -0.80864  -0.66447  -0.64091  -0.61669
 Alpha  occ. eigenvalues --   -0.57846  -0.55238  -0.49829  -0.47283  -0.44861
 Alpha  occ. eigenvalues --   -0.38801  -0.37301  -0.27804
 Alpha virt. eigenvalues --    0.03863   0.05126   0.05735   0.05961   0.06269
 Alpha virt. eigenvalues --    0.06865   0.07208   0.10417   0.11569   0.11845
 Alpha virt. eigenvalues --    0.11995   0.13605   0.14590   0.14863   0.15340

 Mulliken charges:
               1
     1  O   -3.264227
     2  C    0.766534
     3  C   -1.484047
     4  N   -2.099661
     5  C   -2.940801
     6  C   -0.497896
     7  H    0.880689
     8  H    1.599126
     9  H    1.505679
    10  H    1.380493
    11  H    1.587654
    12  H    1.179309
    13  H    1.387148
 Sum of Mulliken charges =   0.00000

 Dipole moment (field-independent basis, Debye):
    X=              0.2293    Y=             -0.6214    Z=              0.6471  Tot=              0.9260

 Test job not archived.
 1\1\GINC-SE332\SP\RHF\Aug-CC-pVDZ\C4H7N1O1\OHZDE\09-Apr-2025\0\\#t hf
 aug-cc-pvdz iop(5/13=1,5/36=2,99/5=2) pseudo=read geom=check guess=(re
 ad,tcheck) scf=(maxcycle=1)\\title\\0,1\O,0,-2.19014664,-2.0867997,0.1
 9957602\C,0,-1.16405191,-1.23212102,0.4921093\C,0,0.81898803,2.3239904
 4,-0.32380274\N,0,1.04169969,1.15998032,-0.78887513\C,0,0.96527773,0.0
 3412725,0.14892248\C,0,-0.10840579,-0.92868583,-0.28308886\H,0,-2.0426
 4609,-2.44675391,-0.69711456\H,0,-1.302777,-0.8048027,1.48585853\H,0,0
 .58086167,2.53864273,0.73561158\H,0,0.85749442,3.18360018,-1.00377831\

 Normal termination of Gaussian 16 at Wed Apr  9 03:06:50 2025.
