 Gaussian 16, Revision C.01,

 ----------------------------------------------------------------------
 #t hf aug-cc-pvdz symm=none int=(grid=ultrafine) guess=(read,tcheck) s
 table=(opt,rrhf)
 ----------------------------------------------------------------------
 -----
 title
 -----
 Symbolic Z-matrix:
 Charge =  0 Multiplicity = 1

 SCF Done:  E(RHF) =  -339.281157287     A.U. after   17 cycles
 Normal termination of Gaussian 16 at Wed Apr  9 16:28:40 2025.
 Gaussian 16:  ES64L-G16RevC.01  3-Jul-2019

 ----------------------------------------------------------------------
 #t hf aug-cc-pvdz iop(5/13=1,5/36=2,99/5=2) pseudo=read geom=check gue
 ss=(read,tcheck) scf=(maxcycle=1)
 ----------------------------------------------------------------------
 -----
 title
 -----
 Structure from the checkpoint file:  "Grambow2020_b97d3_006812_reverse_mol2.chk"
 Charge =  0 Multiplicity = 1

                         Standard orientation:
 ---------------------------------------------------------------------
 Center     Atomic      Atomic             Coordinates (Angstroms)
 Number     Number       Type             X           Y           Z
 ---------------------------------------------------------------------
      1          8           0       -1.840994   -0.778300   -0.330946
      2          6           0       -0.987221   -0.317298    0.544785
      3          6           0        0.047923    0.588249    0.052538
      4          8           0       -0.193042    1.800799   -0.039562
      5          6           0        1.452873    0.016579   -0.090482
      6          8           0        1.688407   -1.174804    0.017346
      7          1           0       -2.538728   -1.285359    0.144821
      8          1           0        2.222313    0.778619   -0.360574
 ---------------------------------------------------------------------

 SCF Done:  E(RHF) =  -340.667178169     A.U. after    2 cycles

 The electronic state is 1-A.
 Alpha  occ. eigenvalues --  -21.18953 -21.11634 -21.09712 -11.53383 -11.49974
 Alpha  occ. eigenvalues --  -11.46501  -1.83059  -1.75127  -1.71403  -1.07692
 Alpha  occ. eigenvalues --   -0.94159  -0.76231  -0.66035  -0.63543  -0.59691
 Alpha  occ. eigenvalues --   -0.54215  -0.52846  -0.48960  -0.43996  -0.37610
 Alpha  occ. eigenvalues --   -0.34836  -0.29367
 Alpha virt. eigenvalues --    0.03018   0.05248   0.07915   0.09270   0.10022
 Alpha virt. eigenvalues --    0.10379   0.10916   0.11581   0.12374   0.12579
 Alpha virt. eigenvalues --    0.13333   0.14083   0.15056   0.15504   0.19290

 Mulliken charges:
               1
     1  O   -2.464352
     2  C    0.510956
     3  C    3.721428
     4  O   -2.994012
     5  C    1.062518
     6  O   -2.566866
     7  H    1.106357
     8  H    1.623970
 Sum of Mulliken charges =  -0.00000

 Dipole moment (field-independent basis, Debye):
    X=             -1.3275    Y=             -1.0425    Z=             -1.4381  Tot=              2.2175

 Test job not archived.
 1\1\GINC-SE174\SP\RHF\Aug-CC-pVDZ\C3H2O3\OHZDE\09-Apr-2025\0\\#t hf au
 g-cc-pvdz iop(5/13=1,5/36=2,99/5=2) pseudo=read geom=check guess=(read
 ,tcheck) scf=(maxcycle=1)\\title\\0,1\O,0,-1.50607403,0.56863773,1.175
 01942\C,0,-0.22234805,0.62797615,0.93652047\C,0,0.21040003,0.39877183,
 -0.43972066\O,0,0.23023271,1.34484034,-1.24058634\C,0,0.8473406,-0.950
 81725,-0.7464168\O,0,0.8403986,-1.87359609,0.0504063\H,0,-1.66711047,0
 .84275469,2.10734041\H,0,1.25990862,-1.0279194,-1.78059981\\Version=ES
 64L-G16RevC.01\State=1-A\HF=-340.6671782\RMSD=1.984e-01\Dipole=-0.8334

 Normal termination of Gaussian 16 at Wed Apr  9 16:28:42 2025.
