 Gaussian 16, Revision C.01,

 ----------------------------------------------------------------------
 #t hf aug-cc-pvdz symm=none int=(grid=ultrafine) guess=(read,tcheck) s
 table=(opt,rrhf)
 ----------------------------------------------------------------------
 -----
 title
 -----
 Symbolic Z-matrix:
 Charge =  0 Multiplicity = 1

 SCF Done:  E(RHF) =  -322.612193713     A.U. after   15 cycles
 Normal termination of Gaussian 16 at Wed Apr  9 03:34:22 2025.
 Gaussian 16:  ES64L-G16RevC.01  3-Jul-2019

 ----------------------------------------------------------------------
 #t hf aug-cc-pvdz iop(5/13=1,5/36=2,99/5=2) pseudo=read geom=check gue
 ss=(read,tcheck) scf=(maxcycle=1)
 ----------------------------------------------------------------------
 -----
 title
 -----
 Structure from the checkpoint file:  "Grambow2020_wb97xd3_007116_forward_mol1.chk"
 Charge =  0 Multiplicity = 1

                         Standard orientation:
 ---------------------------------------------------------------------
 Center     Atomic      Atomic             Coordinates (Angstroms)
 Number     Number       Type             X           Y           Z
 ---------------------------------------------------------------------
      1          7           0       -2.233595   -0.371170   -0.036973
      2          6           0       -1.006641   -0.102563   -0.116682
      3          8           0       -0.506293    1.140539    0.185736
      4          6           0        0.899423    1.290270    0.049598
      5          6           0        1.471588   -0.045133   -0.366962
      6          6           0        1.023181   -1.181985    0.563287
      7          6           0       -0.040257   -1.188180   -0.460726
      8          1           0       -2.751717    0.422367    0.334646
      9          1           0        1.302683    1.630520    1.006872
     10          1           0        1.097244    2.054787   -0.705225
     11          1           0        2.520678   -0.089042   -0.646217
     12          1           0        0.787412   -0.821605    1.563895
     13          1           0        1.684186   -2.043261    0.573381
     14          1           0        0.961264   -0.314351   -1.365520
 ---------------------------------------------------------------------

 SCF Done:  E(RHF) =  -324.098223667     A.U. after    2 cycles

 The electronic state is 1-A.
 Alpha  occ. eigenvalues --  -21.08881 -15.72081 -11.49639 -11.48078 -11.45151
 Alpha  occ. eigenvalues --  -11.43219 -11.39856  -1.82323  -1.33575  -1.30509
 Alpha  occ. eigenvalues --   -1.06303  -0.92470  -0.89074  -0.76007  -0.71031
 Alpha  occ. eigenvalues --   -0.66019  -0.62006  -0.58204  -0.56207  -0.53878
 Alpha  occ. eigenvalues --   -0.52255  -0.46955  -0.41682  -0.38167  -0.32462
 Alpha  occ. eigenvalues --   -0.30628
 Alpha virt. eigenvalues --    0.03253   0.04560   0.04909   0.05010   0.05588
 Alpha virt. eigenvalues --    0.06537   0.07361   0.09853   0.10857   0.11506
 Alpha virt. eigenvalues --    0.12758   0.13261   0.13456   0.13982   0.14453

 Mulliken charges:
               1
     1  N   -3.597855
     2  C    6.298779
     3  O   -3.652285
     4  C   -1.278663
     5  C   -2.386281
     6  C   -3.232098
     7  C   -1.206328
     8  H    0.692910
     9  H    1.510790
    10  H    1.438362
    11  H    1.231169
    12  H    1.448406
    13  H    1.293973
    14  H    1.439123
 Sum of Mulliken charges =   0.00000

 Dipole moment (field-independent basis, Debye):
    X=              4.0281    Y=              2.8580    Z=              1.3582  Tot=              5.1224

 Test job not archived.
 1\1\GINC-SE459\SP\RHF\Aug-CC-pVDZ\C5H7N1O1\OHZDE\09-Apr-2025\0\\#t hf
 aug-cc-pvdz iop(5/13=1,5/36=2,99/5=2) pseudo=read geom=check guess=(re
 ad,tcheck) scf=(maxcycle=1)\\title\\0,1\N,0,1.82506011,-1.86116514,-0.
 27757402\C,0,1.01276065,-0.90005942,-0.2966346\O,0,1.37121237,0.355515
 66,-0.72342687\C,0,0.34443214,1.33607992,-0.68871684\C,0,-0.9228479,0.
 66627399,-0.20959653\C,0,-1.2523226,-0.59558914,-1.0207766\C,0,-0.4158
 0893,-1.14142821,0.06635138\H,0,2.72024132,-1.58293633,-0.67442812\H,0
 ,0.23500406,1.75418938,-1.69269546\H,0,0.64782109,2.13480205,-0.007999

 Normal termination of Gaussian 16 at Wed Apr  9 03:34:26 2025.
