 Gaussian 16, Revision C.01,

 ----------------------------------------------------------------------
 #t hf aug-cc-pvdz symm=none int=(grid=ultrafine) guess=(read,tcheck) s
 table=(opt,rrhf)
 ----------------------------------------------------------------------
 -----
 title
 -----
 Symbolic Z-matrix:
 Charge =  0 Multiplicity = 1

 SCF Done:  E(RHF) =  -320.641303506     A.U. after   15 cycles
 Normal termination of Gaussian 16 at Wed Apr  9 17:26:09 2025.
 Gaussian 16:  ES64L-G16RevC.01  3-Jul-2019

 ----------------------------------------------------------------------
 #t hf aug-cc-pvdz iop(5/13=1,5/36=2,99/5=2) pseudo=read geom=check gue
 ss=(read,tcheck) scf=(maxcycle=1)
 ----------------------------------------------------------------------
 -----
 title
 -----
 Structure from the checkpoint file:  "Grambow2020_b97d3_007134_reverse_mol2.chk"
 Charge =  0 Multiplicity = 1

                         Standard orientation:
 ---------------------------------------------------------------------
 Center     Atomic      Atomic             Coordinates (Angstroms)
 Number     Number       Type             X           Y           Z
 ---------------------------------------------------------------------
      1          8           0       -2.242275   -0.832793   -0.471017
      2          6           0       -1.378227   -0.076064   -0.098434
      3          7           0       -0.469373    0.138431    0.915074
      4          6           0       -0.618878    1.183718   -0.186098
      5          6           0        2.040399   -0.676170    0.216558
      6          8           0        2.348735    0.199812   -0.570278
      7          1           0       -0.762469    0.329607    1.876006
      8          1           0       -1.158947    2.107777    0.041735
      9          1           0        0.285480    1.297199   -0.788436
     10          1           0        1.528641   -1.613096   -0.099620
     11          1           0        2.281463   -0.615560    1.303006
 ---------------------------------------------------------------------

 SCF Done:  E(RHF) =  -322.019284156     A.U. after    2 cycles

 The electronic state is 1-A.
 Alpha  occ. eigenvalues --  -21.07804 -21.07257 -15.78447 -11.53608 -11.47939
 Alpha  occ. eigenvalues --  -11.45676  -1.72418  -1.70525  -1.45803  -0.98746
 Alpha  occ. eigenvalues --   -0.89998  -0.82131  -0.69468  -0.66217  -0.60664
 Alpha  occ. eigenvalues --   -0.58583  -0.52930  -0.49567  -0.47482  -0.44814
 Alpha  occ. eigenvalues --   -0.37889  -0.30748  -0.29217
 Alpha virt. eigenvalues --    0.03047   0.04609   0.04989   0.06378   0.07457
 Alpha virt. eigenvalues --    0.09308   0.10245   0.10725   0.12084   0.12646
 Alpha virt. eigenvalues --    0.13481   0.13707   0.14663   0.16016   0.16576

 Mulliken charges:
               1
     1  O   -2.843011
     2  C    3.977594
     3  N   -1.970652
     4  C   -2.587447
     5  C   -0.759883
     6  O   -2.065314
     7  H    0.704601
     8  H    1.317923
     9  H    1.519146
    10  H    1.390876
    11  H    1.316167
 Sum of Mulliken charges =  -0.00000

 Dipole moment (field-independent basis, Debye):
    X=             -0.0892    Y=              1.1545    Z=              1.7343  Tot=              2.0853

 Test job not archived.
 1\1\GINC-SE162\SP\RHF\Aug-CC-pVDZ\C3H5N1O2\OHZDE\09-Apr-2025\0\\#t hf
 aug-cc-pvdz iop(5/13=1,5/36=2,99/5=2) pseudo=read geom=check guess=(re
 ad,tcheck) scf=(maxcycle=1)\\title\\0,1\O,0,0.85801428,-1.92504738,-1.
 65718979\C,0,0.55555492,-1.34073344,-0.64470241\N,0,0.91393954,-0.2803
 6887,0.15929362\C,0,-0.21741694,-1.20306636,0.60225758\C,0,-0.64764138
 ,1.91153168,-0.29621567\O,0,-1.68837625,1.55682683,0.22587914\H,0,1.80
 692657,-0.25362774,0.65699137\H,0,-0.01733577,-1.93014767,1.39521949\H
 ,0,-1.18292531,-0.69460944,0.65533126\H,0,-0.41736891,1.71587164,-1.36

 Normal termination of Gaussian 16 at Wed Apr  9 17:26:13 2025.
