 Gaussian 16, Revision C.01,

 ----------------------------------------------------------------------
 #t hf aug-cc-pvdz symm=none int=(grid=ultrafine) guess=(read,tcheck) s
 table=(opt,rrhf)
 ----------------------------------------------------------------------
 -----
 title
 -----
 Symbolic Z-matrix:
 Charge =  0 Multiplicity = 1

 SCF Done:  E(RHF) =  -308.918209062     A.U. after   14 cycles

 1\1\GINC-SE049\Stability\RHF\Aug-CC-pVDZ\C6H12O1\OHZDE\09-Apr-2025\0\\
 #t hf aug-cc-pvdz symm=none int=(grid=ultrafine) guess=(read,tcheck) s
 table=(opt,rrhf)\\title\\0,1\C,0,-0.68180213,-1.95526752,-0.40064356\C
 ,0,-0.73200559,-0.48359151,-0.76502955\C,0,-1.447991,0.40766556,0.2614
 7148\C,0,-0.10094886,2.27639557,1.34764942\O,0,-0.16837632,0.85268749,
 0.78006698\C,0,0.51805701,0.35373198,-0.44050571\C,0,1.85154632,-0.250
 7357,-0.12821288\H,0,-1.66658858,-2.40835514,-0.52784744\H,0,0.0190169
 9,-2.50189721,-1.03433415\H,0,-0.38446899,-2.10117985,0.63977772\H,0,-

 Normal termination of Gaussian 16 at Wed Apr  9 03:29:10 2025.
 Gaussian 16:  ES64L-G16RevC.01  3-Jul-2019

 ----------------------------------------------------------------------
 #t hf aug-cc-pvdz iop(5/13=1,5/36=2,99/5=2) pseudo=read geom=check gue
 ss=(read,tcheck) scf=(maxcycle=1)
 ----------------------------------------------------------------------
 -----
 title
 -----
 Structure from the checkpoint file:  "Grambow2020_wb97xd3_006725_reverse_mol2.chk"
 Charge =  0 Multiplicity = 1

                         Standard orientation:
 ---------------------------------------------------------------------
 Center     Atomic      Atomic             Coordinates (Angstroms)
 Number     Number       Type             X           Y           Z
 ---------------------------------------------------------------------
      1          6           0       -2.166862   -0.374584   -0.410832
      2          6           0       -0.997239   -0.509808    0.545632
      3          6           0        0.143441   -1.407351    0.041702
      4          6           0        2.444928   -0.351716   -0.232615
      5          8           0        0.917682   -0.234914   -0.319327
      6          6           0        0.046604    0.621196    0.528167
      7          6           0       -0.204254    1.959060   -0.094962
      8          1           0       -2.749716   -1.297264   -0.425527
      9          1           0       -2.835857    0.435504   -0.114659
     10          1           0       -1.830397   -0.181740   -1.431506
     11          1           0       -1.343718   -0.756388    1.548264
     12          1           0       -0.028330   -2.030503   -0.834367
     13          1           0        0.681279   -1.960285    0.810948
     14          1           0        2.755264    0.506292   -0.842929
     15          1           0        2.634273   -0.080925    0.821378
     16          1           0        0.556128    0.714707    1.490781
     17          1           0       -0.691723    1.868108   -1.064927
     18          1           0       -0.834564    2.561850    0.561486
     19          1           0        0.746196    2.479173   -0.226885
 ---------------------------------------------------------------------

 SCF Done:  E(RHF) =  -310.434492942     A.U. after    2 cycles

 The electronic state is 1-A.
 Alpha  occ. eigenvalues --  -21.10826 -11.51523 -11.47812 -11.42608 -11.41029
 Alpha  occ. eigenvalues --  -11.38461 -11.30668  -1.86735  -1.24470  -1.13376
 Alpha  occ. eigenvalues --   -1.02890  -0.95132  -0.88442  -0.79202  -0.70479
 Alpha  occ. eigenvalues --   -0.66163  -0.64166  -0.61778  -0.56472  -0.56183
 Alpha  occ. eigenvalues --   -0.54631  -0.53295  -0.50987  -0.48192  -0.43016
 Alpha  occ. eigenvalues --   -0.42470  -0.34975  -0.26367
 Alpha virt. eigenvalues --    0.03070   0.04350   0.04539   0.04711   0.04995
 Alpha virt. eigenvalues --    0.05259   0.06605   0.06937   0.07299   0.08809
 Alpha virt. eigenvalues --    0.08946   0.09649   0.11547   0.11786   0.12860

 Mulliken charges:
               1
     1  C   -3.954298
     2  C   -2.767610
     3  C   -1.681788
     4  C   -2.746480
     5  O   -2.835943
     6  C    0.972042
     7  C   -3.769324
     8  H    1.133520
     9  H    1.310773
    10  H    1.414298
    11  H    1.502751
    12  H    1.513428
    13  H    1.733332
    14  H    1.382447
    15  H    1.407763
    16  H    1.680543
    17  H    1.285421
    18  H    1.206698
    19  H    1.212426
 Sum of Mulliken charges =   0.00000

 Dipole moment (field-independent basis, Debye):
    X=             -4.8067    Y=              1.4082    Z=              1.1588  Tot=              5.1410

 Test job not archived.
 1\1\GINC-SE049\SP\RHF\Aug-CC-pVDZ\C6H12O1\OHZDE\09-Apr-2025\0\\#t hf a
 ug-cc-pvdz iop(5/13=1,5/36=2,99/5=2) pseudo=read geom=check guess=(rea
 d,tcheck) scf=(maxcycle=1)\\title\\0,1\C,0,-0.68180213,-1.95526752,-0.
 40064356\C,0,-0.73200559,-0.48359151,-0.76502955\C,0,-1.447991,0.40766
 556,0.26147148\C,0,-0.10094886,2.27639557,1.34764942\O,0,-0.16837632,0
 .85268749,0.78006698\C,0,0.51805701,0.35373198,-0.44050571\C,0,1.85154
 632,-0.2507357,-0.12821288\H,0,-1.66658858,-2.40835514,-0.52784744\H,0
 ,0.01901699,-2.50189721,-1.03433415\H,0,-0.38446899,-2.10117985,0.6397

 Normal termination of Gaussian 16 at Wed Apr  9 03:29:17 2025.
