 Gaussian 16, Revision C.01,

 ----------------------------------------------------------------------
 #t hf aug-cc-pvdz symm=none int=(grid=ultrafine) guess=(read,tcheck) s
 table=(opt,rrhf)
 ----------------------------------------------------------------------
 -----
 title
 -----
 Symbolic Z-matrix:
 Charge =  0 Multiplicity = 1

 SCF Done:  E(RHF) =  -283.534675390     A.U. after   17 cycles
 Normal termination of Gaussian 16 at Wed Apr  9 17:33:13 2025.
 Gaussian 16:  ES64L-G16RevC.01  3-Jul-2019

 ----------------------------------------------------------------------
 #t hf aug-cc-pvdz iop(5/13=1,5/36=2,99/5=2) pseudo=read geom=check gue
 ss=(read,tcheck) scf=(maxcycle=1)
 ----------------------------------------------------------------------
 -----
 title
 -----
 Structure from the checkpoint file:  "Grambow2020_b97d3_007175_forward_mol1.chk"
 Charge =  0 Multiplicity = 1

                         Standard orientation:
 ---------------------------------------------------------------------
 Center     Atomic      Atomic             Coordinates (Angstroms)
 Number     Number       Type             X           Y           Z
 ---------------------------------------------------------------------
      1          6           0       -1.372555   -1.196161    0.117535
      2          7           0       -0.039553   -1.125876   -0.005483
      3          6           0        0.881127    0.135999    0.067058
      4          8           0        2.068664   -0.084645   -0.012932
      5          6           0        0.110512    1.345606    0.112846
      6          6           0       -1.172055    1.429901   -0.148038
      7          1           0       -1.925499   -1.875385   -0.530423
      8          1           0       -1.703554    0.447219   -0.505498
      9          1           0       -1.825109   -0.887429    1.057814
     10          1           0        0.346031   -1.692996   -0.764203
     11          1           0       -1.846484    2.274810   -0.012256
 ---------------------------------------------------------------------

 SCF Done:  E(RHF) =  -284.835674458     A.U. after    2 cycles

 The electronic state is 1-A.
 Alpha  occ. eigenvalues --  -21.06444 -15.82946 -11.53364 -11.50671 -11.41763
 Alpha  occ. eigenvalues --  -11.35717  -1.72278  -1.43787  -1.14517  -1.01719
 Alpha  occ. eigenvalues --   -0.88590  -0.75872  -0.71968  -0.64756  -0.62748
 Alpha  occ. eigenvalues --   -0.59535  -0.51439  -0.51070  -0.43531  -0.34363
 Alpha  occ. eigenvalues --   -0.31814  -0.27647
 Alpha virt. eigenvalues --    0.01967   0.04219   0.04657   0.05005   0.06296
 Alpha virt. eigenvalues --    0.06704   0.09471   0.10433   0.10889   0.11610
 Alpha virt. eigenvalues --    0.12822   0.13554   0.14495   0.14952   0.15209

 Mulliken charges:
               1
     1  C   -1.949720
     2  N   -2.413196
     3  C    3.482963
     4  O   -2.848646
     5  C   -0.976389
     6  C   -1.971698
     7  H    1.441057
     8  H    1.911132
     9  H    1.434079
    10  H    0.576409
    11  H    1.314008
 Sum of Mulliken charges =  -0.00000

 Dipole moment (field-independent basis, Debye):
    X=             -3.3711    Y=             -4.5547    Z=             -0.6307  Tot=              5.7015

 Test job not archived.
 1\1\GINC-SE041\SP\RHF\Aug-CC-pVDZ\C4H5N1O1\OHZDE\09-Apr-2025\0\\#t hf
 aug-cc-pvdz iop(5/13=1,5/36=2,99/5=2) pseudo=read geom=check guess=(re
 ad,tcheck) scf=(maxcycle=1)\\title\\0,1\C,0,-1.00563729,0.38152214,-0.
 84553302\N,0,-0.90277769,-0.65644393,-0.00350397\C,0,0.17329262,-0.912
 32616,1.10186529\O,0,-0.00021256,-1.90467074,1.77303896\C,0,1.23567753
 ,0.04975556,1.03237165\C,0,1.44595191,0.86585498,0.02742762\H,0,-1.304
 2423,0.1948742,-1.87652321\H,0,0.7440782,0.74676632,-0.90484031\H,0,-1
 .15826011,1.37550002,-0.42964861\H,0,-1.06225507,-1.56954339,-0.435675

 Normal termination of Gaussian 16 at Wed Apr  9 17:33:16 2025.
