 Gaussian 16, Revision C.01,

 ----------------------------------------------------------------------
 #t hf aug-cc-pvdz symm=none int=(grid=ultrafine) guess=(read,tcheck) s
 table=(opt,rrhf)
 ----------------------------------------------------------------------
 -----
 title
 -----
 Symbolic Z-matrix:
 Charge =  0 Multiplicity = 1

 SCF Done:  E(RHF) =  -302.765400948     A.U. after   15 cycles
 Normal termination of Gaussian 16 at Wed Apr  9 04:05:47 2025.
 Gaussian 16:  ES64L-G16RevC.01  3-Jul-2019

 ----------------------------------------------------------------------
 #t hf aug-cc-pvdz iop(5/13=1,5/36=2,99/5=2) pseudo=read geom=check gue
 ss=(read,tcheck) scf=(maxcycle=1)
 ----------------------------------------------------------------------
 -----
 title
 -----
 Structure from the checkpoint file:  "Grambow2020_wb97xd3_009323_forward_mol1.chk"
 Charge =  0 Multiplicity = 1

                         Standard orientation:
 ---------------------------------------------------------------------
 Center     Atomic      Atomic             Coordinates (Angstroms)
 Number     Number       Type             X           Y           Z
 ---------------------------------------------------------------------
      1          6           0        2.440679   -0.537790    0.002597
      2          7           0        1.060476   -0.117122   -0.032778
      3          6           0       -0.055812   -0.869527   -0.002369
      4          6           0       -1.153261   -0.051979    0.011445
      5          6           0       -2.589187   -0.464404   -0.015381
      6          6           0       -0.670770    1.290526    0.094891
      7          7           0        0.719984    1.196005    0.076496
      8          1           0        2.725722   -0.892345    0.995067
      9          1           0        3.055019    0.322068   -0.254086
     10          1           0        2.610400   -1.329555   -0.727344
     11          1           0        0.016756   -1.948276    0.011249
     12          1           0       -2.695644   -1.538778   -0.174814
     13          1           0       -3.121377    0.053616   -0.814763
     14          1           0       -3.087520   -0.211185    0.921764
     15          1           0        0.203536    1.791322   -0.810199
 ---------------------------------------------------------------------

 SCF Done:  E(RHF) =  -304.228558367     A.U. after    2 cycles

 The electronic state is 1-A.
 Alpha  occ. eigenvalues --  -15.79089 -15.77530 -11.46938 -11.42813 -11.39548
 Alpha  occ. eigenvalues --  -11.37769 -11.35120  -1.63045  -1.26552  -1.19134
 Alpha  occ. eigenvalues --   -1.05914  -0.95843  -0.82800  -0.76516  -0.68788
 Alpha  occ. eigenvalues --   -0.67134  -0.59718  -0.58997  -0.57254  -0.55264
 Alpha  occ. eigenvalues --   -0.51729  -0.49492  -0.42075  -0.39834  -0.31856
 Alpha  occ. eigenvalues --   -0.30917
 Alpha virt. eigenvalues --    0.02958   0.04820   0.05173   0.05479   0.06218
 Alpha virt. eigenvalues --    0.06632   0.07304   0.08090   0.09873   0.10522
 Alpha virt. eigenvalues --    0.11115   0.11813   0.12921   0.13404   0.14328

 Mulliken charges:
               1
     1  C   -3.403301
     2  N   -2.328276
     3  C   -1.233515
     4  C    5.017725
     5  C   -4.071375
     6  C   -2.515567
     7  N   -1.932075
     8  H    1.445140
     9  H    1.402964
    10  H    1.442516
    11  H    1.499267
    12  H    1.242326
    13  H    1.253849
    14  H    1.247481
    15  H    0.932839
 Sum of Mulliken charges =  -0.00000

 Dipole moment (field-independent basis, Debye):
    X=              2.9879    Y=             -4.0435    Z=             -0.8049  Tot=              5.0917

 Test job not archived.
 1\1\GINC-SE339\SP\RHF\Aug-CC-pVDZ\C5H8N2\OHZDE\09-Apr-2025\0\\#t hf au
 g-cc-pvdz iop(5/13=1,5/36=2,99/5=2) pseudo=read geom=check guess=(read
 ,tcheck) scf=(maxcycle=1)\\title\\0,1\C,0,-2.47526807,-0.05476998,-0.4
 0166037\N,0,-1.09827975,0.17317919,-0.03407984\C,0,0.00090261,-0.51423
 262,-0.39794606\C,0,1.10917679,0.09026855,0.13051986\C,0,2.52679218,-0
 .37081118,0.02819648\C,0,0.66310546,1.28332255,0.77837998\N,0,-0.72374
 981,1.29625852,0.63718619\H,0,-2.66378077,0.22440246,-1.44015987\H,0,-
 3.09638519,0.55916483,0.24637737\H,0,-2.73371809,-1.10382512,-0.256069

 Normal termination of Gaussian 16 at Wed Apr  9 04:05:52 2025.
