 Gaussian 16, Revision C.01,

 ----------------------------------------------------------------------
 #t hf aug-cc-pvdz symm=none int=(grid=ultrafine) guess=(read,tcheck) s
 table=(opt,rrhf)
 ----------------------------------------------------------------------
 -----
 title
 -----
 Symbolic Z-matrix:
 Charge =  0 Multiplicity = 1

 SCF Done:  E(RHF) =  -335.394068827     A.U. after   19 cycles
 Normal termination of Gaussian 16 at Wed Apr  9 16:09:39 2025.
 Gaussian 16:  ES64L-G16RevC.01  3-Jul-2019

 ----------------------------------------------------------------------
 #t hf aug-cc-pvdz iop(5/13=1,5/36=2,99/5=2) pseudo=read geom=check gue
 ss=(read,tcheck) scf=(maxcycle=1)
 ----------------------------------------------------------------------
 -----
 title
 -----
 Structure from the checkpoint file:  "Grambow2020_b97d3_006740_forward_mol1.chk"
 Charge =  0 Multiplicity = 1

                         Standard orientation:
 ---------------------------------------------------------------------
 Center     Atomic      Atomic             Coordinates (Angstroms)
 Number     Number       Type             X           Y           Z
 ---------------------------------------------------------------------
      1          8           0       -2.315057    0.032424   -0.110017
      2          6           0       -1.287407   -0.027251    0.417409
      3          7           0        0.330832    1.269631   -0.209216
      4          6           0        1.436537    0.625997    0.008335
      5          7           0        1.416029   -0.790991    0.120053
      6          8           0        0.330371   -1.314048   -0.189047
      7          1           0        0.378514    2.251446    0.094727
      8          1           0        2.376168    1.058591    0.367463
 ---------------------------------------------------------------------

 SCF Done:  E(RHF) =  -336.811775521     A.U. after    2 cycles

 The electronic state is 1-A.
 Alpha  occ. eigenvalues --  -21.15417 -21.12401 -15.87413 -15.80895 -11.47203
 Alpha  occ. eigenvalues --  -11.47019  -1.86633  -1.75164  -1.39085  -1.13985
 Alpha  occ. eigenvalues --   -0.82489  -0.77397  -0.71479  -0.62379  -0.59063
 Alpha  occ. eigenvalues --   -0.54024  -0.52638  -0.48681  -0.47088  -0.42841
 Alpha  occ. eigenvalues --   -0.37176  -0.29575
 Alpha virt. eigenvalues --    0.02926   0.04885   0.05860   0.08961   0.09685
 Alpha virt. eigenvalues --    0.10604   0.11554   0.12232   0.13198   0.14286
 Alpha virt. eigenvalues --    0.15663   0.15819   0.16719   0.18296   0.18768

 Mulliken charges:
               1
     1  O   -1.704337
     2  C    1.607625
     3  N   -2.044851
     4  C    1.234798
     5  N    0.392765
     6  O   -1.815283
     7  H    0.736031
     8  H    1.593253
 Sum of Mulliken charges =  -0.00000

 Dipole moment (field-independent basis, Debye):
    X=              0.0286    Y=              1.9859    Z=             -0.5949  Tot=              2.0733

 Test job not archived.
 1\1\GINC-SE113\SP\RHF\Aug-CC-pVDZ\C2H2N2O2\OHZDE\09-Apr-2025\0\\#t hf
 aug-cc-pvdz iop(5/13=1,5/36=2,99/5=2) pseudo=read geom=check guess=(re
 ad,tcheck) scf=(maxcycle=1)\\title\\0,1\O,0,2.66369155,0.25379225,0.31
 865036\C,0,1.66854112,-0.12382493,-0.13399265\N,0,-0.18716891,0.897093
 83,0.32133624\C,0,-1.1280543,0.00396032,0.28633201\N,0,-0.80019378,-1.
 37049118,0.44172906\O,0,0.37643719,-1.58114429,0.78661921\H,0,-0.45083
 156,1.76813955,-0.15863852\H,0,-2.1429563,0.14919745,-0.09824171\\Vers
 ion=ES64L-G16RevC.01\State=1-A\HF=-336.8117755\RMSD=5.413e-02\Dipole=-

 Normal termination of Gaussian 16 at Wed Apr  9 16:09:42 2025.
