 Gaussian 16, Revision C.01,

 ----------------------------------------------------------------------
 #t hf aug-cc-pvdz symm=none int=(grid=ultrafine) guess=(read,tcheck) s
 table=(opt,rrhf)
 ----------------------------------------------------------------------
 -----
 title
 -----
 Symbolic Z-matrix:
 Charge =  0 Multiplicity = 1

 SCF Done:  E(RHF) =  -269.829120821     A.U. after   15 cycles

 1\1\GINC-SE173\Stability\RHF\Aug-CC-pVDZ\C5H10O1\OHZDE\09-Apr-2025\0\\
 #t hf aug-cc-pvdz symm=none int=(grid=ultrafine) guess=(read,tcheck) s
 table=(opt,rrhf)\\title\\0,1\C,0,2.31634883,0.01326157,0.39189639\O,0,
 1.23695541,-0.73232913,0.53045326\C,0,0.09807053,-0.38895059,0.0155178
 5\C,0,-0.52780974,0.9790686,-0.01772262\C,0,-1.89902157,0.25245873,-0.
 05668628\C,0,-1.20386739,-1.10678232,0.23867131\H,0,2.18997267,1.08729
 999,0.33104051\H,0,1.871596,-0.12039943,-1.47866127\H,0,3.19710589,-0.
 42317446,0.83616958\H,0,1.09541963,-0.29827419,-1.62005635\H,0,-0.3529

 Normal termination of Gaussian 16 at Wed Apr  9 17:50:59 2025.
 Gaussian 16:  ES64L-G16RevC.01  3-Jul-2019

 ----------------------------------------------------------------------
 #t hf aug-cc-pvdz iop(5/13=1,5/36=2,99/5=2) pseudo=read geom=check gue
 ss=(read,tcheck) scf=(maxcycle=1)
 ----------------------------------------------------------------------
 -----
 title
 -----
 Structure from the checkpoint file:  "Grambow2020_wb97xd3_006205_forward_mol1.chk"
 Charge =  0 Multiplicity = 1

                         Standard orientation:
 ---------------------------------------------------------------------
 Center     Atomic      Atomic             Coordinates (Angstroms)
 Number     Number       Type             X           Y           Z
 ---------------------------------------------------------------------
      1          6           0       -2.269293    0.214732   -0.130552
      2          8           0       -1.234233   -0.601447   -0.182491
      3          6           0       -0.045854   -0.221833    0.169323
      4          6           0        0.633988    1.086955   -0.129338
      5          6           0        1.974410    0.310087   -0.032148
      6          6           0        1.205347   -1.040632    0.013803
      7          1           0       -2.096417    1.269490   -0.306144
      8          1           0       -1.684785    0.447324    1.691235
      9          1           0       -3.198655   -0.255296   -0.411528
     10          1           0       -0.907502    0.260302    1.813446
     11          1           0        0.407599    1.434032   -1.147091
     12          1           0        0.487109    1.921611    0.556428
     13          1           0        2.515779    0.517494    0.889263
     14          1           0        2.652073    0.434485   -0.874561
     15          1           0        1.246560   -1.596389   -0.927453
     16          1           0        1.460511   -1.717330    0.829798
 ---------------------------------------------------------------------

 SCF Done:  E(RHF) =  -271.175055991     A.U. after    2 cycles

 The electronic state is 1-A.
 Alpha  occ. eigenvalues --  -21.15552 -11.52635 -11.43161 -11.40879 -11.39899
 Alpha  occ. eigenvalues --  -11.36022  -1.86314  -1.31587  -1.00145  -0.97880
 Alpha  occ. eigenvalues --   -0.88090  -0.75921  -0.70909  -0.68198  -0.64082
 Alpha  occ. eigenvalues --   -0.62234  -0.55525  -0.52708  -0.49663  -0.45990
 Alpha  occ. eigenvalues --   -0.45172  -0.43905  -0.38286  -0.26438
 Alpha virt. eigenvalues --    0.04078   0.05181   0.05262   0.05421   0.05834
 Alpha virt. eigenvalues --    0.06148   0.06491   0.07460   0.07837   0.09878
 Alpha virt. eigenvalues --    0.11264   0.11957   0.12747   0.13059   0.13832

 Mulliken charges:
               1
     1  C   -2.372922
     2  O   -3.750218
     3  C    4.854107
     4  C   -3.568591
     5  C   -2.761724
     6  C   -3.092168
     7  H    1.469017
     8  H    0.298400
     9  H    1.395833
    10  H   -0.404285
    11  H    1.377913
    12  H    1.335766
    13  H    1.379345
    14  H    1.223656
    15  H    1.320214
    16  H    1.295657
 Sum of Mulliken charges =   0.00000

 Dipole moment (field-independent basis, Debye):
    X=              1.2161    Y=             -0.0270    Z=             -1.1944  Tot=              1.7048

 Test job not archived.
 1\1\GINC-SE173\SP\RHF\Aug-CC-pVDZ\C5H10O1\OHZDE\09-Apr-2025\0\\#t hf a
 ug-cc-pvdz iop(5/13=1,5/36=2,99/5=2) pseudo=read geom=check guess=(rea
 d,tcheck) scf=(maxcycle=1)\\title\\0,1\C,0,2.31634883,0.01326157,0.391
 89639\O,0,1.23695541,-0.73232913,0.53045326\C,0,0.09807053,-0.38895059
 ,0.01551785\C,0,-0.52780974,0.9790686,-0.01772262\C,0,-1.89902157,0.25
 245873,-0.05668628\C,0,-1.20386739,-1.10678232,0.23867131\H,0,2.189972
 67,1.08729999,0.33104051\H,0,1.871596,-0.12039943,-1.47866127\H,0,3.19
 710589,-0.42317446,0.83616958\H,0,1.09541963,-0.29827419,-1.62005635\H

 Normal termination of Gaussian 16 at Wed Apr  9 17:51:03 2025.
