 Gaussian 16, Revision C.01,

 ----------------------------------------------------------------------
 #t hf aug-cc-pvdz symm=none int=(grid=ultrafine) guess=(read,tcheck) s
 table=(opt,rrhf)
 ----------------------------------------------------------------------
 -----
 title
 -----
 Symbolic Z-matrix:
 Charge =  0 Multiplicity = 1

 SCF Done:  E(RHF) =  -342.362953662     A.U. after   17 cycles
 Normal termination of Gaussian 16 at Wed Apr  9 19:25:08 2025.
 Gaussian 16:  ES64L-G16RevC.01  3-Jul-2019

 ----------------------------------------------------------------------
 #t hf aug-cc-pvdz iop(5/13=1,5/36=2,99/5=2) pseudo=read geom=check gue
 ss=(read,tcheck) scf=(maxcycle=1)
 ----------------------------------------------------------------------
 -----
 title
 -----
 Structure from the checkpoint file:  "Grambow2020_wb97xd3_008946_forward_mol1.chk"
 Charge =  0 Multiplicity = 1

                         Standard orientation:
 ---------------------------------------------------------------------
 Center     Atomic      Atomic             Coordinates (Angstroms)
 Number     Number       Type             X           Y           Z
 ---------------------------------------------------------------------
      1          8           0       -2.681679   -0.109771   -0.275239
      2          6           0       -1.509934   -0.029467   -0.075999
      3          6           0       -0.504221    1.088209   -0.148867
      4          6           0        0.502550    0.268970    0.426039
      5          6           0        2.074090    0.264873    0.249077
      6          8           0        2.085677   -0.525227   -0.787372
      7          6           0       -0.412048   -0.960793    0.442261
      8          1           0        0.142994    1.055658    1.231331
      9          1           0       -0.506726    2.134891   -0.431853
     10          1           0        2.354135    1.326397    0.089572
     11          1           0        2.547184   -0.094020    1.181791
     12          1           0       -0.070580   -1.668722   -0.313102
     13          1           0       -0.601610   -1.464967    1.388080
 ---------------------------------------------------------------------

 SCF Done:  E(RHF) =  -343.891959523     A.U. after    2 cycles

 The electronic state is 1-A.
 Alpha  occ. eigenvalues --  -21.11637 -20.94179 -11.59056 -11.53483 -11.50357
 Alpha  occ. eigenvalues --  -11.45171 -11.42297  -1.76264  -1.61271  -1.39844
 Alpha  occ. eigenvalues --   -1.05130  -0.98794  -0.85031  -0.80743  -0.70594
 Alpha  occ. eigenvalues --   -0.65913  -0.62780  -0.60183  -0.57533  -0.51148
 Alpha  occ. eigenvalues --   -0.48652  -0.47819  -0.41870  -0.33501  -0.22827
 Alpha  occ. eigenvalues --   -0.21823
 Alpha virt. eigenvalues --    0.00220   0.03347   0.04062   0.05060   0.05651
 Alpha virt. eigenvalues --    0.06031   0.07305   0.08376   0.10128   0.10897
 Alpha virt. eigenvalues --    0.11768   0.12363   0.12658   0.13715   0.14075

 Mulliken charges:
               1
     1  O   -3.062199
     2  C    3.750841
     3  C   -1.038667
     4  C   -0.735423
     5  C   -0.813647
     6  O   -2.253807
     7  C   -3.444995
     8  H    1.574329
     9  H    1.141551
    10  H    1.039625
    11  H    1.194231
    12  H    1.406748
    13  H    1.241413
 Sum of Mulliken charges =  -0.00000

 Dipole moment (field-independent basis, Debye):
    X=             -2.3705    Y=              1.8333    Z=              1.7568  Tot=              3.4736

 Test job not archived.
 1\1\GINC-SE115\SP\RHF\Aug-CC-pVDZ\C5H6O2\OHZDE\09-Apr-2025\0\\#t hf au
 g-cc-pvdz iop(5/13=1,5/36=2,99/5=2) pseudo=read geom=check guess=(read
 ,tcheck) scf=(maxcycle=1)\\title\\0,1\O,0,-2.91031244,-0.463391,-0.429
 32438\C,0,-1.7463435,-0.28229469,-0.25180421\C,0,-0.89810415,0.9338386
 ,0.00796014\C,0,0.2446659,0.12898847,0.25606075\C,0,1.78617351,0.40687
 192,0.03787331\O,0,1.81865095,-0.00629563,-1.1977878\C,0,-0.50361187,-
 1.16135762,-0.09630044\H,0,-0.149101,0.56171311,1.28287696\H,0,-1.0540
 8688,2.00455098,0.07777124\H,0,1.91715958,1.49325439,0.22040093\H,0,2.

 Normal termination of Gaussian 16 at Wed Apr  9 19:25:12 2025.
