 Gaussian 16, Revision C.01,

 ----------------------------------------------------------------------
 #t hf aug-cc-pvdz symm=none int=(grid=ultrafine) guess=(read,tcheck) s
 table=(opt,rrhf)
 ----------------------------------------------------------------------
 -----
 title
 -----
 Symbolic Z-matrix:
 Charge =  0 Multiplicity = 1

 SCF Done:  E(RHF) =  -338.658968552     A.U. after   16 cycles
 Normal termination of Gaussian 16 at Wed Apr  9 03:27:45 2025.
 Gaussian 16:  ES64L-G16RevC.01  3-Jul-2019

 ----------------------------------------------------------------------
 #t hf aug-cc-pvdz iop(5/13=1,5/36=2,99/5=2) pseudo=read geom=check gue
 ss=(read,tcheck) scf=(maxcycle=1)
 ----------------------------------------------------------------------
 -----
 title
 -----
 Structure from the checkpoint file:  "Grambow2020_wb97xd3_006691_reverse_mol1.chk"
 Charge =  0 Multiplicity = 1

                         Standard orientation:
 ---------------------------------------------------------------------
 Center     Atomic      Atomic             Coordinates (Angstroms)
 Number     Number       Type             X           Y           Z
 ---------------------------------------------------------------------
      1          6           0        2.927725    0.391752    0.222450
      2          6           0        1.749408   -0.196393   -0.415823
      3          6           0        0.661476   -0.817099   -0.068770
      4          7           0       -0.586824   -1.035414    0.074436
      5          6           0       -1.304765    0.173624    0.007571
      6          7           0       -2.640195   -0.027398    0.113071
      7          8           0       -0.801291    1.275572   -0.119959
      8          1           0        2.679090    1.460364    0.238388
      9          1           0        3.090014    0.081147    1.256054
     10          1           0        3.834892    0.280856   -0.369045
     11          1           0        1.449069   -1.695828   -0.120309
     12          1           0       -3.255104    0.758074    0.023165
     13          1           0       -3.001571   -0.960811    0.146309
 ---------------------------------------------------------------------

 SCF Done:  E(RHF) =  -340.188566325     A.U. after    2 cycles

 The electronic state is 1-A.
 Alpha  occ. eigenvalues --  -21.00579 -15.76286 -15.71831 -11.50673 -11.48273
 Alpha  occ. eigenvalues --  -11.46809 -11.42757  -1.70631  -1.40055  -1.32199
 Alpha  occ. eigenvalues --   -1.20007  -1.03612  -0.84074  -0.72528  -0.68381
 Alpha  occ. eigenvalues --   -0.63873  -0.61594  -0.60579  -0.57401  -0.55281
 Alpha  occ. eigenvalues --   -0.51891  -0.46230  -0.39796  -0.32326  -0.29505
 Alpha  occ. eigenvalues --   -0.28211
 Alpha virt. eigenvalues --    0.02408   0.05100   0.05336   0.05749   0.06364
 Alpha virt. eigenvalues --    0.07224   0.08743   0.09919   0.10369   0.12065
 Alpha virt. eigenvalues --    0.12322   0.13234   0.13666   0.14493   0.15252

 Mulliken charges:
               1
     1  C   -3.911641
     2  C   -0.441881
     3  C    1.523232
     4  N   -3.265974
     5  C    5.238998
     6  N   -2.766611
     7  O   -2.776068
     8  H    1.204988
     9  H    1.296983
    10  H    1.249502
    11  H    1.255571
    12  H    0.662330
    13  H    0.730570
 Sum of Mulliken charges =   0.00000

 Dipole moment (field-independent basis, Debye):
    X=              1.8116    Y=             -0.3173    Z=              0.9881  Tot=              2.0878

 Test job not archived.
 1\1\GINC-SE222\SP\RHF\Aug-CC-pVDZ\C4H6N2O1\OHZDE\09-Apr-2025\0\\#t hf
 aug-cc-pvdz iop(5/13=1,5/36=2,99/5=2) pseudo=read geom=check guess=(re
 ad,tcheck) scf=(maxcycle=1)\\title\\0,1\C,0,-2.59385905,0.16452946,-0.
 18040436\C,0,-1.32927958,-0.26597108,0.41729676\C,0,-0.20713482,-0.803
 19205,0.04112846\N,0,1.04643047,-0.91197897,-0.1666268\C,0,1.64496151,
 0.3610893,-0.21896764\N,0,2.98553604,0.28021078,-0.39569321\O,0,1.0438
 7866,1.41673505,-0.1275922\H,0,-2.45253171,1.24835102,-0.27716607\H,0,
 -2.78320088,-0.22837696,-1.18086659\H,0,-3.45079996,0.00842187,0.47258

 Normal termination of Gaussian 16 at Wed Apr  9 03:27:49 2025.
