 Gaussian 16, Revision C.01,

 ----------------------------------------------------------------------
 #t hf aug-cc-pvdz symm=none int=(grid=ultrafine) guess=(read,tcheck) s
 table=(opt,rrhf)
 ----------------------------------------------------------------------
 -----
 title
 -----
 Symbolic Z-matrix:
 Charge =  0 Multiplicity = 1

 SCF Done:  E(RHF) =  -305.706664560     A.U. after   15 cycles
 Normal termination of Gaussian 16 at Wed Apr  9 16:12:54 2025.
 Gaussian 16:  ES64L-G16RevC.01  3-Jul-2019

 ----------------------------------------------------------------------
 #t hf aug-cc-pvdz iop(5/13=1,5/36=2,99/5=2) pseudo=read geom=check gue
 ss=(read,tcheck) scf=(maxcycle=1)
 ----------------------------------------------------------------------
 -----
 title
 -----
 Structure from the checkpoint file:  "Grambow2020_b97d3_006758_forward_mol1.chk"
 Charge =  0 Multiplicity = 1

                         Standard orientation:
 ---------------------------------------------------------------------
 Center     Atomic      Atomic             Coordinates (Angstroms)
 Number     Number       Type             X           Y           Z
 ---------------------------------------------------------------------
      1          6           0       -2.527961    0.008472    0.061684
      2          6           0       -1.201432   -0.731953   -0.111157
      3          6           0        0.014748    0.175465   -0.035634
      4          8           0       -0.025577    1.389027    0.020998
      5          6           0        1.399273   -0.554610   -0.075827
      6          8           0        2.529079    0.120921   -0.100822
      7          1           0       -2.569369    0.512838    1.035454
      8          1           0       -3.371108   -0.690934   -0.005751
      9          1           0       -2.646386    0.775726   -0.713201
     10          1           0       -1.165358   -1.248427   -1.086991
     11          1           0       -1.084237   -1.532770    0.638774
     12          1           0        1.267307   -1.149857    1.326043
     13          1           0        1.330318   -1.543529   -0.589239
     14          1           0        2.103052   -0.586875    0.999103
 ---------------------------------------------------------------------

 SCF Done:  E(RHF) =  -307.123737932     A.U. after    2 cycles

 The electronic state is 1-A.
 Alpha  occ. eigenvalues --  -21.08091 -21.02897 -11.54190 -11.50136 -11.43719
 Alpha  occ. eigenvalues --  -11.38480  -1.74048  -1.68546  -1.21072  -1.04562
 Alpha  occ. eigenvalues --   -0.92723  -0.78574  -0.72910  -0.68330  -0.64589
 Alpha  occ. eigenvalues --   -0.55654  -0.55388  -0.52016  -0.49195  -0.48177
 Alpha  occ. eigenvalues --   -0.43860  -0.33768  -0.31490  -0.28083
 Alpha virt. eigenvalues --    0.02644   0.04197   0.04765   0.05131   0.05676
 Alpha virt. eigenvalues --    0.06367   0.06871   0.09087   0.09864   0.11146
 Alpha virt. eigenvalues --    0.12338   0.12670   0.13258   0.13816   0.14119

 Mulliken charges:
               1
     1  C   -3.710142
     2  C   -3.471446
     3  C    4.513859
     4  O   -3.266529
     5  C   -0.047519
     6  O   -2.643617
     7  H    1.280913
     8  H    1.053883
     9  H    1.258234
    10  H    1.419362
    11  H    1.541489
    12  H   -0.348482
    13  H    1.490816
    14  H    0.929180
 Sum of Mulliken charges =   0.00000

 Dipole moment (field-independent basis, Debye):
    X=             -1.4109    Y=             -1.0145    Z=             -0.5001  Tot=              1.8083

 Test job not archived.
 1\1\GINC-SE162\SP\RHF\Aug-CC-pVDZ\C4H8O2\OHZDE\09-Apr-2025\0\\#t hf au
 g-cc-pvdz iop(5/13=1,5/36=2,99/5=2) pseudo=read geom=check guess=(read
 ,tcheck) scf=(maxcycle=1)\\title\\0,1\C,0,-2.1081271,0.29366896,-0.153
 65087\C,0,-0.7659896,-0.43385633,-0.06905618\C,0,0.43008272,0.46649493
 ,-0.32787088\O,0,0.36317996,1.62192654,-0.69944606\C,0,1.83025075,-0.2
 0371351,-0.12322062\O,0,2.94486251,0.44256269,-0.39413638\H,0,-2.15858
 668,1.1062929,0.58216476\H,0,-2.93581751,-0.40164764,0.03628313\H,0,-2
 .24502913,0.73830476,-1.14698265\H,0,-0.72060029,-1.25864666,-0.802512

 Normal termination of Gaussian 16 at Wed Apr  9 16:12:58 2025.
