 Gaussian 16, Revision C.01,

 ----------------------------------------------------------------------
 #t hf aug-cc-pvdz symm=none int=(grid=ultrafine) guess=(read,tcheck) s
 table=(opt,rrhf)
 ----------------------------------------------------------------------
 -----
 title
 -----
 Symbolic Z-matrix:
 Charge =  0 Multiplicity = 1

 SCF Done:  E(RHF) =  -305.321184168     A.U. after   18 cycles
 Normal termination of Gaussian 16 at Wed Apr  9 03:52:38 2025.
 Gaussian 16:  ES64L-G16RevC.01  3-Jul-2019

 ----------------------------------------------------------------------
 #t hf aug-cc-pvdz iop(5/13=1,5/36=2,99/5=2) pseudo=read geom=check gue
 ss=(read,tcheck) scf=(maxcycle=1)
 ----------------------------------------------------------------------
 -----
 title
 -----
 Structure from the checkpoint file:  "Grambow2020_wb97xd3_008345_reverse_mol1.chk"
 Charge =  0 Multiplicity = 1

                         Standard orientation:
 ---------------------------------------------------------------------
 Center     Atomic      Atomic             Coordinates (Angstroms)
 Number     Number       Type             X           Y           Z
 ---------------------------------------------------------------------
      1          8           0        0.654268   -1.277659    0.432172
      2          6           0       -0.385063    0.410622    0.683875
      3          6           0        0.468363    1.417570    0.062675
      4          6           0        1.676930    0.653035   -0.561762
      5          6           0        1.688080   -0.639401   -0.372151
      6          6           0       -1.600694    0.018916    0.064779
      7          6           0       -2.642549   -0.250406   -0.466099
      8          1           0        0.167330   -1.915143   -0.108511
      9          1           0       -0.315734    0.230067    1.748471
     10          1           0        0.864095    2.116594    0.797512
     11          1           0       -0.044455    1.961865   -0.727940
     12          1           0        2.434137   -1.353547   -0.698194
     13          1           0       -3.569914   -0.480582   -0.936607
 ---------------------------------------------------------------------

 SCF Done:  E(RHF) =  -306.736069509     A.U. after    2 cycles

 The electronic state is 1-A.
 Alpha  occ. eigenvalues --  -21.11137 -11.56849 -11.47542 -11.45747 -11.42208
 Alpha  occ. eigenvalues --  -11.38016 -11.31360  -1.75181  -1.27298  -1.13444
 Alpha  occ. eigenvalues --   -1.02945  -0.92158  -0.78766  -0.73598  -0.70526
 Alpha  occ. eigenvalues --   -0.65709  -0.60035  -0.55278  -0.50360  -0.49481
 Alpha  occ. eigenvalues --   -0.47088  -0.42027  -0.37856  -0.29827  -0.24190
 Alpha virt. eigenvalues --    0.02074   0.04189   0.04613   0.05402   0.06704
 Alpha virt. eigenvalues --    0.06794   0.07176   0.08898   0.09794   0.10136
 Alpha virt. eigenvalues --    0.11087   0.12177   0.12747   0.13629   0.13923

 Mulliken charges:
               1
     1  O   -2.410414
     2  C   -1.837714
     3  C   -2.953532
     4  C   -0.917824
     5  C    0.761455
     6  C    4.897455
     7  C   -4.758930
     8  H    0.906615
     9  H    1.233753
    10  H    1.380658
    11  H    1.385157
    12  H    1.493928
    13  H    0.819392
 Sum of Mulliken charges =   0.00000

 Dipole moment (field-independent basis, Debye):
    X=             -5.4320    Y=             -2.4225    Z=              2.2858  Tot=              6.3718

 Test job not archived.
 1\1\GINC-SE071\SP\RHF\Aug-CC-pVDZ\C6H6O1\OHZDE\09-Apr-2025\0\\#t hf au
 g-cc-pvdz iop(5/13=1,5/36=2,99/5=2) pseudo=read geom=check guess=(read
 ,tcheck) scf=(maxcycle=1)\\title\\0,1\O,0,-0.59466593,0.17022647,1.454
 90694\C,0,0.51092727,-0.67084533,0.01820278\C,0,-0.44964242,-0.8698396
 5,-1.06155406\C,0,-1.79301883,-0.2347714,-0.58500656\C,0,-1.78397403,0
 .27142619,0.61921536\C,0,1.52204011,0.31889428,-0.09376724\C,0,2.38998
 239,1.13320098,-0.24676782\H,0,-0.27398816,1.05605957,1.67467684\H,0,0
 .70876491,-1.47360349,0.7162087\H,0,-0.63173045,-1.92710889,-1.2466234

 Normal termination of Gaussian 16 at Wed Apr  9 03:52:42 2025.
