 Gaussian 16, Revision C.01,

 ----------------------------------------------------------------------
 #t hf aug-cc-pvdz symm=none int=(grid=ultrafine) guess=(read,tcheck) s
 table=(opt,rrhf)
 ----------------------------------------------------------------------
 -----
 title
 -----
 Symbolic Z-matrix:
 Charge =  0 Multiplicity = 1

 SCF Done:  E(RHF) =  -354.679243520     A.U. after   15 cycles
 Normal termination of Gaussian 16 at Wed Apr  9 03:39:45 2025.
 Gaussian 16:  ES64L-G16RevC.01  3-Jul-2019

 ----------------------------------------------------------------------
 #t hf aug-cc-pvdz iop(5/13=1,5/36=2,99/5=2) pseudo=read geom=check gue
 ss=(read,tcheck) scf=(maxcycle=1)
 ----------------------------------------------------------------------
 -----
 title
 -----
 Structure from the checkpoint file:  "Grambow2020_wb97xd3_007463_reverse_mol2.chk"
 Charge =  0 Multiplicity = 1

                         Standard orientation:
 ---------------------------------------------------------------------
 Center     Atomic      Atomic             Coordinates (Angstroms)
 Number     Number       Type             X           Y           Z
 ---------------------------------------------------------------------
      1          7           0       -2.374151   -0.510282   -0.089642
      2          6           0       -1.095319    0.056249    0.011682
      3          6           0       -0.724249    1.341268    0.021651
      4          7           0        0.794828    1.165896    0.011329
      5          6           0        1.172827   -0.299454    0.002020
      6          8           0        2.305763   -0.689804   -0.020551
      7          7           0       -0.013676   -0.897388    0.019220
      8          1           0       -2.678167   -0.934742    0.778081
      9          1           0       -3.032192    0.214629   -0.339315
     10          1           0        1.206167    1.614885    0.826933
     11          1           0        1.207345    1.617866   -0.802689
     12          1           0       -0.117829   -1.890171   -0.097074
 ---------------------------------------------------------------------

 SCF Done:  E(RHF) =  -356.265867796     A.U. after    2 cycles

 The electronic state is 1-A.
 Alpha  occ. eigenvalues --  -21.07259 -15.86037 -15.79881 -15.75365 -11.54515
 Alpha  occ. eigenvalues --  -11.42491 -11.33296  -1.76178  -1.55058  -1.37855
 Alpha  occ. eigenvalues --   -1.30680  -1.02922  -0.90222  -0.80431  -0.76439
 Alpha  occ. eigenvalues --   -0.69022  -0.64994  -0.62986  -0.58340  -0.55027
 Alpha  occ. eigenvalues --   -0.52903  -0.45253  -0.37823  -0.37310  -0.29557
 Alpha  occ. eigenvalues --   -0.26907
 Alpha virt. eigenvalues --    0.03123   0.04976   0.05793   0.06012   0.06914
 Alpha virt. eigenvalues --    0.09757   0.09946   0.10907   0.11605   0.12769
 Alpha virt. eigenvalues --    0.13727   0.14099   0.14828   0.15655   0.16167

 Mulliken charges:
               1
     1  N   -3.005565
     2  C    4.806281
     3  C   -1.825094
     4  N   -2.215361
     5  C    4.743597
     6  O   -3.127186
     7  N   -2.608704
     8  H    0.526468
     9  H    0.578888
    10  H    0.649302
    11  H    0.665964
    12  H    0.811412
 Sum of Mulliken charges =  -0.00000

 Dipole moment (field-independent basis, Debye):
    X=              1.5384    Y=             -1.6197    Z=              0.6081  Tot=              2.3151

 Test job not archived.
 1\1\GINC-SE041\SP\RHF\Aug-CC-pVDZ\C3H5N3O1\OHZDE\09-Apr-2025\0\\#t hf
 aug-cc-pvdz iop(5/13=1,5/36=2,99/5=2) pseudo=read geom=check guess=(re
 ad,tcheck) scf=(maxcycle=1)\\title\\0,1\N,0,2.13651363,-0.33556878,0.1
 6749264\C,0,0.80365493,0.08160908,0.04066577\C,0,0.285234,1.31453633,0
 .05471481\N,0,-1.20254993,0.9637799,0.01082623\C,0,-1.40661994,-0.5350
 9777,-0.03324282\O,0,-2.48628067,-1.05483543,-0.05839768\N,0,-0.158311
 9,-0.99041672,-0.02870702\H,0,2.51309501,-0.6941987,-0.70147638\H,0,2.
 69771696,0.45255972,0.45861969\H,0,-1.63980903,1.38756845,-0.80477748\

 Normal termination of Gaussian 16 at Wed Apr  9 03:39:50 2025.
