 Gaussian 16, Revision C.01,

 ----------------------------------------------------------------------
 #t hf aug-cc-pvdz symm=none int=(grid=ultrafine) guess=(read,tcheck) s
 table=(opt,rrhf)
 ----------------------------------------------------------------------
 -----
 title
 -----
 Symbolic Z-matrix:
 Charge =  0 Multiplicity = 1

 SCF Done:  E(RHF) =  -322.621129055     A.U. after   16 cycles
 Normal termination of Gaussian 16 at Wed Apr  9 18:18:17 2025.
 Gaussian 16:  ES64L-G16RevC.01  3-Jul-2019

 ----------------------------------------------------------------------
 #t hf aug-cc-pvdz iop(5/13=1,5/36=2,99/5=2) pseudo=read geom=check gue
 ss=(read,tcheck) scf=(maxcycle=1)
 ----------------------------------------------------------------------
 -----
 title
 -----
 Structure from the checkpoint file:  "Grambow2020_wb97xd3_006853_forward_mol1.chk"
 Charge =  0 Multiplicity = 1

                         Standard orientation:
 ---------------------------------------------------------------------
 Center     Atomic      Atomic             Coordinates (Angstroms)
 Number     Number       Type             X           Y           Z
 ---------------------------------------------------------------------
      1          6           0        2.600825   -0.479737    0.040696
      2          6           0        1.191540    0.049292   -0.036710
      3          6           0        0.083349   -0.879649   -0.062641
      4          6           0       -1.085424   -0.209757    0.014068
      5          7           0       -2.482068   -0.515869   -0.005849
      6          6           0       -1.464359    1.084405    0.180557
      7          8           0        0.971862    1.259930   -0.037225
      8          1           0        3.304170    0.295762   -0.255261
      9          1           0        2.728782   -1.362301   -0.588055
     10          1           0        2.817044   -0.771948    1.071367
     11          1           0        0.183000   -1.954654   -0.067033
     12          1           0       -2.900621   -0.817188    0.857125
     13          1           0       -2.822077   -0.983136   -0.831923
     14          1           0       -1.666293    1.737779   -0.663299
 ---------------------------------------------------------------------

 SCF Done:  E(RHF) =  -324.107315804     A.U. after    2 cycles

 The electronic state is 1-A.
 Alpha  occ. eigenvalues --  -21.01873 -15.80159 -11.48076 -11.47721 -11.42539
 Alpha  occ. eigenvalues --  -11.38401 -11.37427  -1.69118  -1.43527  -1.15880
 Alpha  occ. eigenvalues --   -1.08178  -0.99073  -0.80249  -0.72762  -0.71066
 Alpha  occ. eigenvalues --   -0.66889  -0.60033  -0.58605  -0.54828  -0.51638
 Alpha  occ. eigenvalues --   -0.46941  -0.45372  -0.42315  -0.37892  -0.28386
 Alpha  occ. eigenvalues --   -0.27127
 Alpha virt. eigenvalues --    0.02893   0.04420   0.05262   0.05342   0.06040
 Alpha virt. eigenvalues --    0.06746   0.07509   0.09229   0.10949   0.11306
 Alpha virt. eigenvalues --    0.12260   0.13081   0.13496   0.13806   0.14597

 Mulliken charges:
               1
     1  C   -4.444066
     2  C    4.875749
     3  C   -3.962789
     4  C    5.912638
     5  N   -3.193831
     6  C   -3.173039
     7  O   -3.498095
     8  H    1.223649
     9  H    1.251563
    10  H    1.224040
    11  H    1.691885
    12  H    0.464619
    13  H    0.472969
    14  H    1.154708
 Sum of Mulliken charges =  -0.00000

 Dipole moment (field-independent basis, Debye):
    X=             -1.8217    Y=             -2.6195    Z=             -1.0894  Tot=              3.3715

 Test job not archived.
 1\1\GINC-SE041\SP\RHF\Aug-CC-pVDZ\C5H7N1O1\OHZDE\09-Apr-2025\0\\#t hf
 aug-cc-pvdz iop(5/13=1,5/36=2,99/5=2) pseudo=read geom=check guess=(re
 ad,tcheck) scf=(maxcycle=1)\\title\\0,1\C,0,2.51851552,-0.0697943,-0.0
 5009361\C,0,1.08317536,0.38914927,-0.01669449\C,0,0.02137814,-0.588061
 2,-0.11331785\C,0,-1.17459662,0.00559987,0.08131197\N,0,-2.5543526,-0.
 36980502,0.07349923\C,0,-1.6090949,1.25002275,0.41114302\O,0,0.8049740
 1,1.57841623,0.13214396\H,0,3.17081395,0.7708442,-0.27706776\H,0,2.663
 92686,-0.86597737,-0.78191826\H,0,2.7899352,-0.46696551,0.93123582\H,0

 Normal termination of Gaussian 16 at Wed Apr  9 18:18:21 2025.
