 Gaussian 16, Revision C.01,

 ----------------------------------------------------------------------
 #t hf aug-cc-pvdz symm=none int=(grid=ultrafine) guess=(read,tcheck) s
 table=(opt,rrhf)
 ----------------------------------------------------------------------
 -----
 title
 -----
 Symbolic Z-matrix:
 Charge =  0 Multiplicity = 1

 SCF Done:  E(RHF) =  -305.715423235     A.U. after   15 cycles
 Normal termination of Gaussian 16 at Wed Apr  9 17:57:56 2025.
 Gaussian 16:  ES64L-G16RevC.01  3-Jul-2019

 ----------------------------------------------------------------------
 #t hf aug-cc-pvdz iop(5/13=1,5/36=2,99/5=2) pseudo=read geom=check gue
 ss=(read,tcheck) scf=(maxcycle=1)
 ----------------------------------------------------------------------
 -----
 title
 -----
 Structure from the checkpoint file:  "Grambow2020_wb97xd3_006283_forward_mol1.chk"
 Charge =  0 Multiplicity = 1

                         Standard orientation:
 ---------------------------------------------------------------------
 Center     Atomic      Atomic             Coordinates (Angstroms)
 Number     Number       Type             X           Y           Z
 ---------------------------------------------------------------------
      1          6           0       -2.153923   -0.273529   -0.258119
      2          6           0       -0.712234    0.022291    0.052776
      3          6           0       -0.233127    1.295951    0.451147
      4          8           0        1.587345    0.544625   -0.579062
      5          6           0        1.562134   -0.587490    0.061027
      6          8           0        0.066274   -1.017183    0.361533
      7          1           0       -2.667267    0.606912   -0.645734
      8          1           0       -2.214365   -1.079191   -0.987559
      9          1           0       -2.661209   -0.595225    0.651954
     10          1           0       -0.175755    0.527076   -0.909378
     11          1           0       -0.738696    2.170227    0.055891
     12          1           0        0.553583    1.461784    1.169811
     13          1           0        1.904494   -1.456849   -0.513020
     14          1           0        1.993154   -0.597618    1.077285
 ---------------------------------------------------------------------

 SCF Done:  E(RHF) =  -307.108423868     A.U. after    2 cycles

 The electronic state is 1-A.
 Alpha  occ. eigenvalues --  -21.03202 -20.95996 -11.52111 -11.46919 -11.41914
 Alpha  occ. eigenvalues --  -11.41032  -1.78012  -1.58741  -1.22002  -1.05749
 Alpha  occ. eigenvalues --   -0.89935  -0.81519  -0.69858  -0.67387  -0.62769
 Alpha  occ. eigenvalues --   -0.60467  -0.57205  -0.52522  -0.49828  -0.47738
 Alpha  occ. eigenvalues --   -0.37673  -0.30390  -0.25746  -0.23516
 Alpha virt. eigenvalues --    0.01821   0.04548   0.04638   0.05508   0.06359
 Alpha virt. eigenvalues --    0.06808   0.07065   0.07300   0.09080   0.10815
 Alpha virt. eigenvalues --    0.12237   0.12788   0.14006   0.15042   0.15722

 Mulliken charges:
               1
     1  C   -4.437437
     2  C    2.855607
     3  C   -3.144573
     4  O   -2.230444
     5  C   -0.573729
     6  O   -3.333673
     7  H    1.152279
     8  H    1.197602
     9  H    1.192046
    10  H    1.868713
    11  H    1.301207
    12  H    1.247521
    13  H    1.441984
    14  H    1.462897
 Sum of Mulliken charges =   0.00000

 Dipole moment (field-independent basis, Debye):
    X=             -2.7693    Y=              1.4603    Z=              0.7428  Tot=              3.2176

 Test job not archived.
 1\1\GINC-SE219\SP\RHF\Aug-CC-pVDZ\C4H8O2\OHZDE\09-Apr-2025\0\\#t hf au
 g-cc-pvdz iop(5/13=1,5/36=2,99/5=2) pseudo=read geom=check guess=(read
 ,tcheck) scf=(maxcycle=1)\\title\\0,1\C,0,-1.83904655,0.02070732,0.555
 81543\C,0,-0.43734019,-0.01712434,0.0113698\C,0,0.16385209,-1.17268499
 ,-0.54871855\O,0,1.98650107,-0.18355359,0.25097285\C,0,1.68384179,0.95
 941805,-0.29128821\O,0,0.11084339,1.15072733,-0.33145507\H,0,-2.140827
 49,-0.95065849,0.94865123\H,0,-1.90652378,0.76786058,1.3445086\H,0,-2.
 52895348,0.299311,-0.24134713\H,0,0.31777886,-0.47385536,0.84176038\H,

 Normal termination of Gaussian 16 at Wed Apr  9 17:58:00 2025.
