 Gaussian 16, Revision C.01,

 ----------------------------------------------------------------------
 #t hf aug-cc-pvdz symm=none int=(grid=ultrafine) guess=(read,tcheck) s
 table=(opt,rrhf)
 ----------------------------------------------------------------------
 -----
 title
 -----
 Symbolic Z-matrix:
 Charge =  0 Multiplicity = 1

 SCF Done:  E(RHF) =  -320.684359772     A.U. after   15 cycles
 Normal termination of Gaussian 16 at Wed Apr  9 17:27:49 2025.
 Gaussian 16:  ES64L-G16RevC.01  3-Jul-2019

 ----------------------------------------------------------------------
 #t hf aug-cc-pvdz iop(5/13=1,5/36=2,99/5=2) pseudo=read geom=check gue
 ss=(read,tcheck) scf=(maxcycle=1)
 ----------------------------------------------------------------------
 -----
 title
 -----
 Structure from the checkpoint file:  "Grambow2020_b97d3_007146_reverse_mol2.chk"
 Charge =  0 Multiplicity = 1

                         Standard orientation:
 ---------------------------------------------------------------------
 Center     Atomic      Atomic             Coordinates (Angstroms)
 Number     Number       Type             X           Y           Z
 ---------------------------------------------------------------------
      1          8           0        2.832891   -0.898421   -0.017909
      2          6           0        1.711165   -1.075049    0.130046
      3          7           0       -1.638524   -0.473548    0.323458
      4          6           0       -2.541395   -1.194470   -0.216100
      5          6           0       -0.405990    1.879248    0.221938
      6          8           0        0.582801    1.586228   -0.426113
      7          1           0       -0.717117   -0.933084    0.304737
      8          1           0       -2.386600   -2.201588   -0.638442
      9          1           0       -3.564992   -0.802437   -0.274619
     10          1           0       -0.450431    1.782783    1.329016
     11          1           0       -1.319404    2.308337   -0.248023
 ---------------------------------------------------------------------

 SCF Done:  E(RHF) =  -322.060450307     A.U. after    2 cycles

 The electronic state is 1-A.
 Alpha  occ. eigenvalues --  -21.16782 -21.05882 -15.75590 -11.50567 -11.46651
 Alpha  occ. eigenvalues --  -11.43219  -1.78609  -1.69181  -1.33285  -0.89704
 Alpha  occ. eigenvalues --   -0.87628  -0.71962  -0.67773  -0.64974  -0.59044
 Alpha  occ. eigenvalues --   -0.52591  -0.51190  -0.50804  -0.49633  -0.45481
 Alpha  occ. eigenvalues --   -0.42795  -0.38757  -0.29416
 Alpha virt. eigenvalues --    0.03448   0.04879   0.05437   0.06455   0.07329
 Alpha virt. eigenvalues --    0.09119   0.10290   0.10763   0.11716   0.12147
 Alpha virt. eigenvalues --    0.13087   0.13999   0.15178   0.15747   0.16306

 Mulliken charges:
               1
     1  O   -1.284155
     2  C    1.050536
     3  N   -2.309719
     4  C   -1.328344
     5  C   -0.709781
     6  O   -2.069196
     7  H    1.184068
     8  H    1.375832
     9  H    1.411464
    10  H    1.332693
    11  H    1.346600
 Sum of Mulliken charges =  -0.00000

 Dipole moment (field-independent basis, Debye):
    X=              0.2316    Y=             -1.1345    Z=             -0.3711  Tot=              1.2159

 Test job not archived.
 1\1\GINC-SE174\SP\RHF\Aug-CC-pVDZ\C3H5N1O2\OHZDE\09-Apr-2025\0\\#t hf
 aug-cc-pvdz iop(5/13=1,5/36=2,99/5=2) pseudo=read geom=check guess=(re
 ad,tcheck) scf=(maxcycle=1)\\title\\0,1\O,0,3.56358198,0.37610659,-0.7
 4928724\C,0,2.63718288,-0.11416259,-0.28800825\N,0,-0.61054246,-0.6489
 3371,0.59851779\C,0,-1.22489939,-1.76025568,0.48208562\C,0,-0.43424914
 ,1.83056434,-0.34281512\O,0,0.48313456,1.70492791,-1.13411841\H,0,0.40
 375678,-0.75313975,0.45410884\H,0,-0.74966404,-2.73393233,0.27538571\H
 ,0,-2.31666081,-1.77422795,0.59489271\H,0,-0.2739445,2.06817637,0.7317

 Normal termination of Gaussian 16 at Wed Apr  9 17:27:52 2025.
