 Gaussian 16, Revision C.01,

 ----------------------------------------------------------------------
 #t hf aug-cc-pvdz symm=none int=(grid=ultrafine) guess=(read,tcheck) s
 table=(opt,rrhf)
 ----------------------------------------------------------------------
 -----
 title
 -----
 Symbolic Z-matrix:
 Charge =  0 Multiplicity = 1

 SCF Done:  E(RHF) =  -306.535926090     A.U. after   15 cycles
 Normal termination of Gaussian 16 at Wed Apr  9 19:14:04 2025.
 Gaussian 16:  ES64L-G16RevC.01  3-Jul-2019

 ----------------------------------------------------------------------
 #t hf aug-cc-pvdz iop(5/13=1,5/36=2,99/5=2) pseudo=read geom=check gue
 ss=(read,tcheck) scf=(maxcycle=1)
 ----------------------------------------------------------------------
 -----
 title
 -----
 Structure from the checkpoint file:  "Grambow2020_wb97xd3_008449_reverse_mol1.chk"
 Charge =  0 Multiplicity = 1

                         Standard orientation:
 ---------------------------------------------------------------------
 Center     Atomic      Atomic             Coordinates (Angstroms)
 Number     Number       Type             X           Y           Z
 ---------------------------------------------------------------------
      1          6           0       -0.893635    1.339457   -0.707635
      2          6           0       -1.268254   -0.692021   -0.373601
      3          6           0        0.067501   -1.252633    0.062716
      4          8           0        1.223484   -0.724629   -0.503732
      5          6           0        1.404146    0.599257    0.020586
      6          6           0        0.020732    1.033921    0.489058
      7          6           0       -0.610010   -0.276543    0.933380
      8          1           0       -1.090143    0.086877   -1.261882
      9          1           0       -1.874244    1.619981   -0.294559
     10          1           0       -2.183406   -1.260927   -0.457835
     11          1           0        0.112900   -2.306659    0.303839
     12          1           0        1.778917    1.230927   -0.785367
     13          1           0        2.130522    0.567666    0.841574
     14          1           0        0.038142    1.834734    1.227367
     15          1           0       -1.023440   -0.484196    1.909696
 ---------------------------------------------------------------------

 SCF Done:  E(RHF) =  -307.970176476     A.U. after    2 cycles

 The electronic state is 1-A.
 Alpha  occ. eigenvalues --  -21.04714 -11.48933 -11.47382 -11.43858 -11.41335
 Alpha  occ. eigenvalues --  -11.40546 -11.37242  -1.78532  -1.35501  -1.13841
 Alpha  occ. eigenvalues --   -0.97396  -0.91708  -0.82614  -0.75914  -0.74502
 Alpha  occ. eigenvalues --   -0.65236  -0.61115  -0.59104  -0.54385  -0.50193
 Alpha  occ. eigenvalues --   -0.48355  -0.45544  -0.40632  -0.38291  -0.28772
 Alpha  occ. eigenvalues --   -0.27129
 Alpha virt. eigenvalues --    0.03684   0.04518   0.04629   0.05144   0.05691
 Alpha virt. eigenvalues --    0.05997   0.06878   0.08038   0.09626   0.11380
 Alpha virt. eigenvalues --    0.11950   0.12683   0.13233   0.13631   0.14312

 Mulliken charges:
               1
     1  C   -2.097895
     2  C   -2.306119
     3  C    1.658758
     4  O   -3.456225
     5  C   -1.658253
     6  C   -2.704695
     7  C   -0.903538
     8  H    1.603413
     9  H    1.070332
    10  H    1.171835
    11  H    1.498819
    12  H    1.587191
    13  H    1.415650
    14  H    1.767767
    15  H    1.352959
 Sum of Mulliken charges =  -0.00000

 Dipole moment (field-independent basis, Debye):
    X=             -0.7830    Y=             -1.2875    Z=              2.5327  Tot=              2.9471

 Test job not archived.
 1\1\GINC-SE083\SP\RHF\Aug-CC-pVDZ\C6H8O1\OHZDE\09-Apr-2025\0\\#t hf au
 g-cc-pvdz iop(5/13=1,5/36=2,99/5=2) pseudo=read geom=check guess=(read
 ,tcheck) scf=(maxcycle=1)\\title\\0,1\C,0,0.43976259,1.56626524,0.2913
 7172\C,0,1.42856341,-0.26462226,0.07014111\C,0,0.34403998,-1.30185794,
 0.26210654\O,0,-0.6724256,-1.03528949,1.17407551\C,0,-1.503931,-0.0067
 4506,0.61647609\C,0,-0.62534112,0.70495623,-0.40518731\C,0,0.27450256,
 -0.41224152,-0.90988946\H,0,1.26758428,0.61550397,0.86191896\H,0,1.046
 61502,2.02531259,-0.50356583\H,0,2.46448409,-0.48181447,-0.14883153\H,

 Normal termination of Gaussian 16 at Wed Apr  9 19:14:10 2025.
