 Gaussian 16, Revision C.01,

 ----------------------------------------------------------------------
 #t hf aug-cc-pvdz symm=none int=(grid=ultrafine) guess=(read,tcheck) s
 table=(opt,rrhf)
 ----------------------------------------------------------------------
 -----
 title
 -----
 Symbolic Z-matrix:
 Charge =  0 Multiplicity = 1

 SCF Done:  E(RHF) =  -268.646487645     A.U. after   16 cycles
 Normal termination of Gaussian 16 at Wed Apr  9 17:05:33 2025.
 Gaussian 16:  ES64L-G16RevC.01  3-Jul-2019

 ----------------------------------------------------------------------
 #t hf aug-cc-pvdz iop(5/13=1,5/36=2,99/5=2) pseudo=read geom=check gue
 ss=(read,tcheck) scf=(maxcycle=1)
 ----------------------------------------------------------------------
 -----
 title
 -----
 Structure from the checkpoint file:  "Grambow2020_b97d3_007035_forward_mol1.chk"
 Charge =  0 Multiplicity = 1

                         Standard orientation:
 ---------------------------------------------------------------------
 Center     Atomic      Atomic             Coordinates (Angstroms)
 Number     Number       Type             X           Y           Z
 ---------------------------------------------------------------------
      1          6           0       -2.315855    0.513796    0.335896
      2          6           0       -1.575176   -0.125069   -0.644668
      3          6           0       -0.489093   -0.756605   -0.676701
      4          6           0        0.524109   -0.990461    0.246057
      5          6           0        1.814060   -0.186670    0.187615
      6          8           0        1.622355    1.175451   -0.133305
      7          1           0       -1.204024    0.205477    1.406644
      8          1           0       -2.363713    1.605879    0.357946
      9          1           0       -3.188993    0.008627    0.759683
     10          1           0       -0.368928   -0.237567    1.413456
     11          1           0        0.648372   -2.004853    0.646539
     12          1           0        2.306806   -0.221124    1.169078
     13          1           0        2.492675   -0.690277   -0.532403
     14          1           0        0.950689    1.200288   -0.843701
 ---------------------------------------------------------------------

 SCF Done:  E(RHF) =  -269.965980626     A.U. after    2 cycles

 The electronic state is 1-A.
 Alpha  occ. eigenvalues --  -21.07078 -11.48336 -11.44995 -11.42581 -11.41431
 Alpha  occ. eigenvalues --  -11.39513  -1.71294  -1.25422  -1.10630  -0.97846
 Alpha  occ. eigenvalues --   -0.86561  -0.68277  -0.66885  -0.64335  -0.61343
 Alpha  occ. eigenvalues --   -0.60673  -0.58730  -0.52235  -0.42045  -0.38184
 Alpha  occ. eigenvalues --   -0.35953  -0.35375  -0.32094
 Alpha virt. eigenvalues --    0.03885   0.04491   0.05480   0.05958   0.06152
 Alpha virt. eigenvalues --    0.07097   0.07797   0.08519   0.09181   0.10144
 Alpha virt. eigenvalues --    0.11493   0.12252   0.12506   0.13683   0.13948

 Mulliken charges:
               1
     1  C   -4.272616
     2  C    1.471313
     3  C    0.987111
     4  C   -2.329719
     5  C   -1.248478
     6  O   -2.561988
     7  H    0.738881
     8  H    1.209896
     9  H    1.150862
    10  H    0.209965
    11  H    1.127113
    12  H    1.330189
    13  H    1.266629
    14  H    0.920841
 Sum of Mulliken charges =   0.00000

 Dipole moment (field-independent basis, Debye):
    X=             -0.1569    Y=             -0.1453    Z=              1.3006  Tot=              1.3180

 Test job not archived.
 1\1\GINC-SE041\SP\RHF\Aug-CC-pVDZ\C5H8O1\OHZDE\09-Apr-2025\0\\#t hf au
 g-cc-pvdz iop(5/13=1,5/36=2,99/5=2) pseudo=read geom=check guess=(read
 ,tcheck) scf=(maxcycle=1)\\title\\0,1\C,0,2.19961011,0.36910243,-0.479
 20406\C,0,1.52497211,-0.74127902,0.00056426\C,0,0.33535487,-1.14573746
 ,-0.02517438\C,0,-0.86846415,-0.5910979,-0.44463202\C,0,-1.84016608,-0
 .01118333,0.57171643\O,0,-1.21191611,0.69019743,1.62456029\H,0,0.85222
 287,0.98386247,-1.0124458\H,0,2.54717627,1.13805211,0.21602055\H,0,2.7
 9004116,0.28023026,-1.39607567\H,0,-0.05691651,0.72495372,-1.02479104\

 Normal termination of Gaussian 16 at Wed Apr  9 17:05:39 2025.
