 Gaussian 16, Revision C.01,

 ----------------------------------------------------------------------
 #t hf aug-cc-pvdz symm=none int=(grid=ultrafine) guess=(read,tcheck) s
 table=(opt,rrhf)
 ----------------------------------------------------------------------
 -----
 title
 -----
 Symbolic Z-matrix:
 Charge =  0 Multiplicity = 1

 SCF Done:  E(RHF) =  -269.489726125     A.U. after   15 cycles
 Normal termination of Gaussian 16 at Wed Apr  9 19:07:59 2025.
 Gaussian 16:  ES64L-G16RevC.01  3-Jul-2019

 ----------------------------------------------------------------------
 #t hf aug-cc-pvdz iop(5/13=1,5/36=2,99/5=2) pseudo=read geom=check gue
 ss=(read,tcheck) scf=(maxcycle=1)
 ----------------------------------------------------------------------
 -----
 title
 -----
 Structure from the checkpoint file:  "Grambow2020_wb97xd3_008146_forward_mol1.chk"
 Charge =  0 Multiplicity = 1

                         Standard orientation:
 ---------------------------------------------------------------------
 Center     Atomic      Atomic             Coordinates (Angstroms)
 Number     Number       Type             X           Y           Z
 ---------------------------------------------------------------------
      1          6           0        2.158646   -0.245836   -0.080560
      2          6           0        0.679153   -0.085938    0.022963
      3          6           0       -0.479096   -1.026508   -0.422314
      4          6           0       -1.300410    0.199841   -0.724630
      5          6           0       -1.312471   -0.390494    0.657858
      6          6           0       -0.090776    0.381854    1.245785
      7          6           0       -0.116297    1.121057   -0.427728
      8          1           0        2.657604    0.616802    0.365806
      9          1           0        2.483910   -1.135750    0.461605
     10          1           0        2.483304   -0.339441   -1.119713
     11          1           0       -0.512672   -2.008962   -0.866178
     12          1           0       -2.143954    0.319945   -1.387499
     13          1           0       -2.179171   -0.766748    1.181063
     14          1           0       -0.335448    1.631235    0.705323
     15          1           0        0.313938    1.959064   -0.968651
 ---------------------------------------------------------------------

 SCF Done:  E(RHF) =  -270.822635306     A.U. after    2 cycles

 The electronic state is 1-A.
 Alpha  occ. eigenvalues --  -11.54142 -11.48090 -11.43085 -11.41299 -11.41066
 Alpha  occ. eigenvalues --  -11.38963 -11.35701  -1.54046  -1.12511  -1.04361
 Alpha  occ. eigenvalues --   -0.95606  -0.90179  -0.77891  -0.71995  -0.69924
 Alpha  occ. eigenvalues --   -0.61211  -0.59012  -0.55723  -0.54672  -0.50012
 Alpha  occ. eigenvalues --   -0.45106  -0.42718  -0.39401  -0.33782  -0.25854
 Alpha virt. eigenvalues --    0.03759   0.04705   0.04984   0.05292   0.05835
 Alpha virt. eigenvalues --    0.06504   0.06667   0.07573   0.09548   0.11477
 Alpha virt. eigenvalues --    0.11826   0.12229   0.12618   0.13194   0.13448

 Mulliken charges:
               1
     1  C   -5.079947
     2  C    1.657235
     3  C   -1.027632
     4  C   -1.392312
     5  C   -0.598414
     6  C   -0.990925
     7  C   -1.536576
     8  H    1.190561
     9  H    1.185415
    10  H    1.166964
    11  H    1.044909
    12  H    1.099026
    13  H    1.192813
    14  H    0.805875
    15  H    1.283008
 Sum of Mulliken charges =  -0.00000

 Dipole moment (field-independent basis, Debye):
    X=             -0.5421    Y=             -0.1974    Z=             -2.8305  Tot=              2.8887

 Test job not archived.
 1\1\GINC-SE116\SP\RHF\Aug-CC-pVDZ\C7H8\OHZDE\09-Apr-2025\0\\#t hf aug-
 cc-pvdz iop(5/13=1,5/36=2,99/5=2) pseudo=read geom=check guess=(read,t
 check) scf=(maxcycle=1)\\title\\0,1\C,0,2.02024866,-0.02604182,0.06456
 164\C,0,0.52988602,-0.02843371,0.12780356\C,0,-0.5024821,-1.1299717,-0
 .25339752\C,0,-1.44808687,-0.03600868,-0.67643635\C,0,-1.4313853,-0.50
 392543,0.75209085\C,0,-0.32095556,0.45053113,1.29123631\C,0,-0.3837935
 8,1.03669757,-0.44086632\H,0,2.40651154,0.92293582,0.44216945\H,0,2.42
 870532,-0.82340519,0.68830796\H,0,2.38166399,-0.17000984,-0.95654347\H

 Normal termination of Gaussian 16 at Wed Apr  9 19:08:04 2025.
