 Gaussian 16, Revision C.01,

 ----------------------------------------------------------------------
 #t hf aug-cc-pvdz symm=none int=(grid=ultrafine) guess=(read,tcheck) s
 table=(opt,rrhf)
 ----------------------------------------------------------------------
 -----
 title
 -----
 Symbolic Z-matrix:
 Charge =  0 Multiplicity = 1

 SCF Done:  E(RHF) =  -302.720936896     A.U. after   15 cycles
 Normal termination of Gaussian 16 at Wed Apr  9 19:22:10 2025.
 Gaussian 16:  ES64L-G16RevC.01  3-Jul-2019

 ----------------------------------------------------------------------
 #t hf aug-cc-pvdz iop(5/13=1,5/36=2,99/5=2) pseudo=read geom=check gue
 ss=(read,tcheck) scf=(maxcycle=1)
 ----------------------------------------------------------------------
 -----
 title
 -----
 Structure from the checkpoint file:  "Grambow2020_wb97xd3_008838_reverse_mol1.chk"
 Charge =  0 Multiplicity = 1

                         Standard orientation:
 ---------------------------------------------------------------------
 Center     Atomic      Atomic             Coordinates (Angstroms)
 Number     Number       Type             X           Y           Z
 ---------------------------------------------------------------------
      1          6           0       -0.654224    1.522584   -0.173842
      2          6           0       -0.479175   -0.332678   -0.631520
      3          6           0        0.651671   -0.926932    0.204367
      4          6           0        1.918810   -0.213602    0.069251
      5          7           0        2.908569    0.358101   -0.027757
      6          6           0       -1.718199    0.212603    0.567089
      7          7           0       -1.704070   -0.965062   -0.215365
      8          1           0       -0.854354    2.138957    0.712790
      9          1           0        0.419414    1.595944   -0.325142
     10          1           0       -1.165669    1.943351   -1.033294
     11          1           0        0.780166   -1.924756   -0.224699
     12          1           0        0.443254   -1.079019    1.270572
     13          1           0       -2.609650    0.818509    0.466722
     14          1           0       -1.373330    0.085024    1.586246
     15          1           0       -2.384626   -0.901139   -0.963416
 ---------------------------------------------------------------------

 SCF Done:  E(RHF) =  -304.186381042     A.U. after    2 cycles

 The electronic state is 1-A.
 Alpha  occ. eigenvalues --  -15.75972 -15.75139 -11.49909 -11.46814 -11.43434
 Alpha  occ. eigenvalues --  -11.42059 -11.40525  -1.49576  -1.30974  -1.14147
 Alpha  occ. eigenvalues --   -1.08989  -0.93285  -0.84911  -0.71196  -0.68653
 Alpha  occ. eigenvalues --   -0.64670  -0.61633  -0.60417  -0.56040  -0.54962
 Alpha  occ. eigenvalues --   -0.51517  -0.47680  -0.43036  -0.42756  -0.38365
 Alpha  occ. eigenvalues --   -0.30333
 Alpha virt. eigenvalues --    0.03121   0.04629   0.04997   0.05160   0.05654
 Alpha virt. eigenvalues --    0.06419   0.07448   0.08110   0.09146   0.10961
 Alpha virt. eigenvalues --    0.11962   0.12661   0.13142   0.13562   0.13961

 Mulliken charges:
               1
     1  C   -3.588039
     2  C    0.616500
     3  C   -2.416772
     4  C    2.113026
     5  N   -2.413031
     6  C   -1.953323
     7  N   -2.147325
     8  H    0.972751
     9  H    1.396472
    10  H    1.140981
    11  H    1.471892
    12  H    1.525434
    13  H    1.148865
    14  H    1.469519
    15  H    0.663050
 Sum of Mulliken charges =   0.00000

 Dipole moment (field-independent basis, Debye):
    X=             -4.7385    Y=             -0.0943    Z=              1.3082  Tot=              4.9166

 Test job not archived.
 1\1\GINC-SE083\SP\RHF\Aug-CC-pVDZ\C5H8N2\OHZDE\09-Apr-2025\0\\#t hf au
 g-cc-pvdz iop(5/13=1,5/36=2,99/5=2) pseudo=read geom=check guess=(read
 ,tcheck) scf=(maxcycle=1)\\title\\0,1\C,0,-0.89170499,0.91288628,0.620
 60812\C,0,-0.19518158,-0.12035498,-0.83863044\C,0,1.32162855,-0.201820
 21,-0.68595916\C,0,1.97234127,1.10174637,-0.58583882\N,0,2.47846829,2.
 12692524,-0.49245009\C,0,-0.86366893,-0.92997044,0.63338283\N,0,-0.719
 44398,-1.45122006,-0.67307306\H,0,-0.90570484,0.88640709,1.71841738\H,
 0,-0.13841568,1.655463,0.37139482\H,0,-1.85651234,1.24501406,0.2516686

 Normal termination of Gaussian 16 at Wed Apr  9 19:22:15 2025.
