 Gaussian 16, Revision C.01,

 ----------------------------------------------------------------------
 #t hf aug-cc-pvdz symm=none int=(grid=ultrafine) guess=(read,tcheck) s
 table=(opt,rrhf)
 ----------------------------------------------------------------------
 -----
 title
 -----
 Symbolic Z-matrix:
 Charge =  0 Multiplicity = 1

 SCF Done:  E(RHF) =  -266.687218812     A.U. after   15 cycles
 Normal termination of Gaussian 16 at Wed Apr  9 03:05:13 2025.
 Gaussian 16:  ES64L-G16RevC.01  3-Jul-2019

 ----------------------------------------------------------------------
 #t hf aug-cc-pvdz iop(5/13=1,5/36=2,99/5=2) pseudo=read geom=check gue
 ss=(read,tcheck) scf=(maxcycle=1)
 ----------------------------------------------------------------------
 -----
 title
 -----
 Structure from the checkpoint file:  "Grambow2020_b97d3_006478_reverse_mol2.chk"
 Charge =  0 Multiplicity = 1

                         Standard orientation:
 ---------------------------------------------------------------------
 Center     Atomic      Atomic             Coordinates (Angstroms)
 Number     Number       Type             X           Y           Z
 ---------------------------------------------------------------------
      1          8           0        2.112723    0.581233    0.193313
      2          6           0        1.252757   -0.472533   -0.304846
      3          6           0       -0.080703   -0.531350    0.338808
      4          6           0       -2.320700    0.275285    0.068759
      5          8           0       -1.086142    0.029698   -0.315658
      6          1           0        1.600354    1.408354    0.113124
      7          1           0        1.114104   -0.397245   -1.398250
      8          1           0        1.817723   -1.390877   -0.096866
      9          1           0       -0.239218   -0.776709    1.390084
     10          1           0       -2.647360   -0.020998    1.063326
     11          1           0       -2.966379    0.661623   -0.708978
 ---------------------------------------------------------------------

 SCF Done:  E(RHF) =  -267.909133673     A.U. after    2 cycles

 The electronic state is 1-A.
 Alpha  occ. eigenvalues --  -21.20182 -21.06312 -11.45530 -11.42009 -11.39883
 Alpha  occ. eigenvalues --   -1.86880  -1.68798  -1.09481  -0.94855  -0.82920
 Alpha  occ. eigenvalues --   -0.69338  -0.66526  -0.60461  -0.58155  -0.55879
 Alpha  occ. eigenvalues --   -0.51152  -0.44031  -0.41952  -0.32423  -0.25855
 Alpha virt. eigenvalues --    0.03663   0.05414   0.05578   0.06263   0.06484
 Alpha virt. eigenvalues --    0.06727   0.08768   0.11426   0.12764   0.13226
 Alpha virt. eigenvalues --    0.14363   0.14547   0.16207   0.16822   0.17601

 Mulliken charges:
               1
     1  O   -2.272609
     2  C   -1.597330
     3  C    0.902326
     4  C   -1.598845
     5  O   -3.316378
     6  H    0.806675
     7  H    1.260254
     8  H    1.335145
     9  H    1.584117
    10  H    1.432316
    11  H    1.464329
 Sum of Mulliken charges =   0.00000

 Dipole moment (field-independent basis, Debye):
    X=             -0.6632    Y=             -0.0601    Z=              0.0345  Tot=              0.6668

 Test job not archived.
 1\1\GINC-SE094\SP\RHF\Aug-CC-pVDZ\C3H6O2\OHZDE\09-Apr-2025\0\\#t hf au
 g-cc-pvdz iop(5/13=1,5/36=2,99/5=2) pseudo=read geom=check guess=(read
 ,tcheck) scf=(maxcycle=1)\\title\\0,1\O,0,-2.30201815,0.10239786,-0.38
 966706\C,0,-1.10717005,0.92020007,-0.34887636\C,0,0.00035594,0.3480111
 2,0.4522789\C,0,1.95611971,-1.01753254,0.22545\O,0,0.95630234,-0.28247
 623,-0.21304766\H,0,-2.01451098,-0.78081356,-0.69026427\H,0,-0.7322050
 8,1.1378698,-1.36497063\H,0,-1.45149182,1.86365833,0.09511273\H,0,-0.0
 4278076,0.19962495,1.5323856\H,0,2.09710549,-1.1574343,1.29512506\H,0,

 Normal termination of Gaussian 16 at Wed Apr  9 03:05:16 2025.
