 Gaussian 16, Revision C.01,

 ----------------------------------------------------------------------
 #t hf aug-cc-pvdz symm=none int=(grid=ultrafine) guess=(read,tcheck) s
 table=(opt,rrhf)
 ----------------------------------------------------------------------
 -----
 title
 -----
 Symbolic Z-matrix:
 Charge =  0 Multiplicity = 1

 SCF Done:  E(RHF) =  -307.776887729     A.U. after   16 cycles

 1\1\GINC-SE035\Stability\RHF\Aug-CC-pVDZ\C6H10O1\OHZDE\09-Apr-2025\0\\
 #t hf aug-cc-pvdz symm=none int=(grid=ultrafine) guess=(read,tcheck) s
 table=(opt,rrhf)\\title\\0,1\C,0,1.80926539,0.70851077,0.30524813\C,0,
 0.93751611,-0.45902685,-0.132971\C,0,-0.08430524,-0.91992372,0.9224584
 5\C,0,-1.32556986,-0.04957967,0.65987584\O,0,-2.40000435,-0.84090311,0
 .54141004\C,0,-0.86286432,0.95713644,-1.05497754\C,0,-0.0774956,-0.139
 25834,-1.20431496\H,0,2.38981951,1.09772266,-0.53393053\H,0,2.5053076,
 0.39198383,1.08421065\H,0,1.21108106,1.52485819,0.71325498\H,0,1.57899

 Normal termination of Gaussian 16 at Wed Apr  9 19:19:17 2025.
 Gaussian 16:  ES64L-G16RevC.01  3-Jul-2019

 ----------------------------------------------------------------------
 #t hf aug-cc-pvdz iop(5/13=1,5/36=2,99/5=2) pseudo=read geom=check gue
 ss=(read,tcheck) scf=(maxcycle=1)
 ----------------------------------------------------------------------
 -----
 title
 -----
 Structure from the checkpoint file:  "Grambow2020_wb97xd3_008618_reverse_mol1.chk"
 Charge =  0 Multiplicity = 1

                         Standard orientation:
 ---------------------------------------------------------------------
 Center     Atomic      Atomic             Coordinates (Angstroms)
 Number     Number       Type             X           Y           Z
 ---------------------------------------------------------------------
      1          6           0       -2.188519   -0.184275   -0.523329
      2          6           0       -1.109444   -0.333746    0.538924
      3          6           0        0.075706   -1.222635    0.119673
      4          6           0        1.055003   -0.256077   -0.568752
      5          8           0        2.269927   -0.398586   -0.022596
      6          6           0        0.230209    1.584268   -0.250720
      7          6           0       -0.289162    0.906157    0.803608
      8          1           0       -2.911362    0.583468   -0.239043
      9          1           0       -2.724785   -1.125732   -0.655710
     10          1           0       -1.764066    0.089108   -1.490706
     11          1           0       -1.564668   -0.703784    1.458380
     12          1           0       -0.167521   -2.037320   -0.569276
     13          1           0        0.524648   -1.664837    1.014694
     14          1           0        2.893929    0.107618   -0.549489
     15          1           0        1.019103    2.310451   -0.085900
     16          1           0       -0.276058    1.662777   -1.200508
     17          1           0        0.168601    1.004785    1.781909
 ---------------------------------------------------------------------

 SCF Done:  E(RHF) =  -309.274837431     A.U. after    2 cycles

 The electronic state is 1-A.
 Alpha  occ. eigenvalues --  -21.10504 -11.45370 -11.42885 -11.40830 -11.38990
 Alpha  occ. eigenvalues --  -11.37640 -11.35267  -1.75504  -1.31238  -1.08444
 Alpha  occ. eigenvalues --   -1.03148  -0.90726  -0.79614  -0.74821  -0.68360
 Alpha  occ. eigenvalues --   -0.62124  -0.59029  -0.57349  -0.55849  -0.54909
 Alpha  occ. eigenvalues --   -0.51232  -0.46436  -0.45412  -0.43277  -0.41277
 Alpha  occ. eigenvalues --   -0.35634  -0.24403
 Alpha virt. eigenvalues --    0.04069   0.05218   0.05339   0.05423   0.05915
 Alpha virt. eigenvalues --    0.06049   0.06527   0.06854   0.07464   0.09124
 Alpha virt. eigenvalues --    0.10288   0.11794   0.12936   0.13419   0.14218

 Mulliken charges:
               1
     1  C   -4.014170
     2  C   -1.784056
     3  C   -3.109152
     4  C    2.520399
     5  O   -3.010581
     6  C   -3.770473
     7  C   -0.242583
     8  H    1.280797
     9  H    1.176611
    10  H    1.494940
    11  H    1.591599
    12  H    1.585518
    13  H    1.274009
    14  H    0.840882
    15  H    1.364448
    16  H    1.394285
    17  H    1.407527
 Sum of Mulliken charges =  -0.00000

 Dipole moment (field-independent basis, Debye):
    X=              0.7801    Y=              0.0517    Z=              0.7447  Tot=              1.0797

 Test job not archived.
 1\1\GINC-SE035\SP\RHF\Aug-CC-pVDZ\C6H10O1\OHZDE\09-Apr-2025\0\\#t hf a
 ug-cc-pvdz iop(5/13=1,5/36=2,99/5=2) pseudo=read geom=check guess=(rea
 d,tcheck) scf=(maxcycle=1)\\title\\0,1\C,0,1.80926539,0.70851077,0.305
 24813\C,0,0.93751611,-0.45902685,-0.132971\C,0,-0.08430524,-0.91992372
 ,0.92245845\C,0,-1.32556986,-0.04957967,0.65987584\O,0,-2.40000435,-0.
 84090311,0.54141004\C,0,-0.86286432,0.95713644,-1.05497754\C,0,-0.0774
 956,-0.13925834,-1.20431496\H,0,2.38981951,1.09772266,-0.53393053\H,0,
 2.5053076,0.39198383,1.08421065\H,0,1.21108106,1.52485819,0.71325498\H

 Normal termination of Gaussian 16 at Wed Apr  9 19:19:23 2025.
