 Gaussian 16, Revision C.01,

 ----------------------------------------------------------------------
 #t hf aug-cc-pvdz symm=none int=(grid=ultrafine) guess=(read,tcheck) s
 table=(opt,rrhf)
 ----------------------------------------------------------------------
 -----
 title
 -----
 Symbolic Z-matrix:
 Charge =  0 Multiplicity = 1

 SCF Done:  E(RHF) =  -302.675140199     A.U. after   16 cycles
 Normal termination of Gaussian 16 at Wed Apr  9 18:28:50 2025.
 Gaussian 16:  ES64L-G16RevC.01  3-Jul-2019

 ----------------------------------------------------------------------
 #t hf aug-cc-pvdz iop(5/13=1,5/36=2,99/5=2) pseudo=read geom=check gue
 ss=(read,tcheck) scf=(maxcycle=1)
 ----------------------------------------------------------------------
 -----
 title
 -----
 Structure from the checkpoint file:  "Grambow2020_wb97xd3_007175_forward_mol1.chk"
 Charge =  0 Multiplicity = 1

                         Standard orientation:
 ---------------------------------------------------------------------
 Center     Atomic      Atomic             Coordinates (Angstroms)
 Number     Number       Type             X           Y           Z
 ---------------------------------------------------------------------
      1          6           0        1.731553    1.436950    0.394368
      2          6           0        1.540230   -0.640748   -0.338566
      3          6           0        0.718115   -1.336406    0.653503
      4          7           0        0.247085   -0.724312   -0.587745
      5          6           0       -0.592671    0.389769   -0.681257
      6          6           0       -1.885792    0.248180   -0.084731
      7          7           0       -2.905165    0.189175    0.446534
      8          1           0        2.428273    0.935335    1.067402
      9          1           0        1.329489    2.270767    0.982851
     10          1           0        2.284584    1.859355   -0.443512
     11          1           0        2.450758   -0.676232   -0.912028
     12          1           0        0.613258   -2.414234    0.698236
     13          1           0        0.528285   -0.798731    1.582330
     14          1           0        0.507100    1.137638    0.020958
     15          1           0       -0.603800    0.845595   -1.667666
 ---------------------------------------------------------------------

 SCF Done:  E(RHF) =  -304.146249227     A.U. after    2 cycles

 The electronic state is 1-A.
 Alpha  occ. eigenvalues --  -15.80512 -15.73901 -11.53256 -11.46379 -11.45188
 Alpha  occ. eigenvalues --  -11.40873 -11.37863  -1.57010  -1.29368  -1.13247
 Alpha  occ. eigenvalues --   -1.04543  -0.94128  -0.86398  -0.73624  -0.72558
 Alpha  occ. eigenvalues --   -0.68562  -0.61651  -0.55746  -0.54454  -0.53824
 Alpha  occ. eigenvalues --   -0.49474  -0.47841  -0.45180  -0.42470  -0.39046
 Alpha  occ. eigenvalues --   -0.28216
 Alpha virt. eigenvalues --    0.02848   0.03913   0.04761   0.05511   0.05626
 Alpha virt. eigenvalues --    0.06229   0.07009   0.08179   0.09626   0.09841
 Alpha virt. eigenvalues --    0.10519   0.12143   0.12556   0.13213   0.13707

 Mulliken charges:
               1
     1  C   -5.283693
     2  C    0.118549
     3  C   -2.338810
     4  N   -2.095683
     5  C   -2.422160
     6  C    2.088380
     7  N   -2.456536
     8  H    1.289300
     9  H    0.404644
    10  H    0.970545
    11  H    1.173031
    12  H    1.331928
    13  H    1.596651
    14  H    4.326746
    15  H    1.297107
 Sum of Mulliken charges =  -0.00000

 Dipole moment (field-independent basis, Debye):
    X=              4.9108    Y=             -1.0195    Z=             -1.1190  Tot=              5.1389

 Test job not archived.
 1\1\GINC-SE168\SP\RHF\Aug-CC-pVDZ\C5H8N2\OHZDE\09-Apr-2025\0\\#t hf au
 g-cc-pvdz iop(5/13=1,5/36=2,99/5=2) pseudo=read geom=check guess=(read
 ,tcheck) scf=(maxcycle=1)\\title\\0,1\C,0,-1.32756013,-1.06013908,-0.4
 4302781\C,0,-0.66515231,1.04835108,-0.52122396\C,0,-0.20001109,1.36757
 475,0.82998103\N,0,0.62981873,0.93625972,-0.29366248\C,0,1.32455842,-0
 .2742419,-0.37813852\C,0,2.31334411,-0.49791994,0.63197112\N,0,3.06483
 575,-0.73694886,1.47040463\H,0,-2.16753372,-0.58043198,0.06128942\H,0,
 -1.25978776,-2.05413179,0.01588861\H,0,-1.57279489,-1.19728301,-1.4953

 Normal termination of Gaussian 16 at Wed Apr  9 18:28:55 2025.
