 Gaussian 16, Revision C.01,

 ----------------------------------------------------------------------
 #t hf aug-cc-pvdz symm=none int=(grid=ultrafine) guess=(read,tcheck) s
 table=(opt,rrhf)
 ----------------------------------------------------------------------
 -----
 title
 -----
 Symbolic Z-matrix:
 Charge =  0 Multiplicity = 1

 SCF Done:  E(RHF) =  -307.887606879     A.U. after   14 cycles

 1\1\GINC-SE045\Stability\RHF\Aug-CC-pVDZ\C6H10O1\OHZDE\09-Apr-2025\0\\
 #t hf aug-cc-pvdz symm=none int=(grid=ultrafine) guess=(read,tcheck) s
 table=(opt,rrhf)\\title\\0,1\C,0,2.58659024,0.32233917,0.03838611\C,0,
 1.16361461,0.02397346,0.50326651\C,0,0.22937138,1.16097109,0.21998852\
 C,0,-1.01437536,1.09940015,-0.25672504\C,0,-1.80463115,-0.09532103,-0.
 56657636\C,0,-1.85194624,-1.19193114,0.18710897\O,0,-2.57400616,-2.307
 85865,-0.06689475\H,0,2.61573938,0.49109663,-1.04009115\H,0,2.98146464
 ,1.21768855,0.52445835\H,0,3.25966263,-0.50532236,0.26827602\H,0,1.175

 Normal termination of Gaussian 16 at Wed Apr  9 03:45:45 2025.
 Gaussian 16:  ES64L-G16RevC.01  3-Jul-2019

 ----------------------------------------------------------------------
 #t hf aug-cc-pvdz iop(5/13=1,5/36=2,99/5=2) pseudo=read geom=check gue
 ss=(read,tcheck) scf=(maxcycle=1)
 ----------------------------------------------------------------------
 -----
 title
 -----
 Structure from the checkpoint file:  "Grambow2020_wb97xd3_007820_reverse_mol2.chk"
 Charge =  0 Multiplicity = 1

                         Standard orientation:
 ---------------------------------------------------------------------
 Center     Atomic      Atomic             Coordinates (Angstroms)
 Number     Number       Type             X           Y           Z
 ---------------------------------------------------------------------
      1          6           0       -2.898037   -0.799629    0.363521
      2          6           0       -1.530852   -0.561581   -0.272195
      3          6           0       -1.166071    0.891789   -0.293870
      4          6           0        0.014546    1.443908   -0.012337
      5          6           0        1.269107    0.767852    0.329560
      6          6           0        1.727765   -0.330549   -0.267083
      7          8           0        2.882271   -0.975388    0.020110
      8          1           0       -2.909203   -0.457869    1.400592
      9          1           0       -3.682200   -0.258918   -0.171794
     10          1           0       -3.159248   -1.859156    0.355038
     11          1           0       -1.540090   -0.953640   -1.296138
     12          1           0       -0.764541   -1.127577    0.263390
     13          1           0       -1.979790    1.569974   -0.542456
     14          1           0        0.066860    2.529568   -0.019201
     15          1           0        1.883297    1.235995    1.097306
     16          1           0        1.206584   -0.810333   -1.086510
     17          1           0        3.321424   -0.535686    0.753309
 ---------------------------------------------------------------------

 SCF Done:  E(RHF) =  -309.362230393     A.U. after    2 cycles

 The electronic state is 1-A.
 Alpha  occ. eigenvalues --  -21.10557 -11.46132 -11.44365 -11.40459 -11.39223
 Alpha  occ. eigenvalues --  -11.37526 -11.35397  -1.75586  -1.25706  -1.13844
 Alpha  occ. eigenvalues --   -1.02677  -0.90518  -0.84215  -0.75831  -0.66030
 Alpha  occ. eigenvalues --   -0.61864  -0.61223  -0.58255  -0.55580  -0.51393
 Alpha  occ. eigenvalues --   -0.50110  -0.48575  -0.46618  -0.45249  -0.41978
 Alpha  occ. eigenvalues --   -0.36178  -0.26145
 Alpha virt. eigenvalues --    0.03700   0.05037   0.05457   0.05607   0.06020
 Alpha virt. eigenvalues --    0.06346   0.06522   0.07604   0.08178   0.08746
 Alpha virt. eigenvalues --    0.09898   0.11813   0.12701   0.13813   0.14173

 Mulliken charges:
               1
     1  C   -4.108714
     2  C   -3.969532
     3  C   -0.477243
     4  C   -0.386561
     5  C   -1.310665
     6  C    0.837813
     7  O   -3.531605
     8  H    1.274644
     9  H    1.243617
    10  H    1.107172
    11  H    1.259293
    12  H    1.702821
    13  H    1.459417
    14  H    1.171606
    15  H    1.271348
    16  H    1.560892
    17  H    0.895697
 Sum of Mulliken charges =   0.00000

 Dipole moment (field-independent basis, Debye):
    X=              0.5687    Y=             -0.3649    Z=              0.2632  Tot=              0.7251

 Test job not archived.
 1\1\GINC-SE045\SP\RHF\Aug-CC-pVDZ\C6H10O1\OHZDE\09-Apr-2025\0\\#t hf a
 ug-cc-pvdz iop(5/13=1,5/36=2,99/5=2) pseudo=read geom=check guess=(rea
 d,tcheck) scf=(maxcycle=1)\\title\\0,1\C,0,2.58659024,0.32233917,0.038
 38611\C,0,1.16361461,0.02397346,0.50326651\C,0,0.22937138,1.16097109,0
 .21998852\C,0,-1.01437536,1.09940015,-0.25672504\C,0,-1.80463115,-0.09
 532103,-0.56657636\C,0,-1.85194624,-1.19193114,0.18710897\O,0,-2.57400
 616,-2.30785865,-0.06689475\H,0,2.61573938,0.49109663,-1.04009115\H,0,
 2.98146464,1.21768855,0.52445835\H,0,3.25966263,-0.50532236,0.26827602

 Normal termination of Gaussian 16 at Wed Apr  9 03:45:51 2025.
