 Gaussian 16, Revision C.01,

 ----------------------------------------------------------------------
 #t hf aug-cc-pvdz symm=none int=(grid=ultrafine) guess=(read,tcheck) s
 table=(opt,rrhf)
 ----------------------------------------------------------------------
 -----
 title
 -----
 Symbolic Z-matrix:
 Charge =  0 Multiplicity = 1

 SCF Done:  E(RHF) =  -306.728590513     A.U. after   14 cycles
 Normal termination of Gaussian 16 at Wed Apr  9 03:59:45 2025.
 Gaussian 16:  ES64L-G16RevC.01  3-Jul-2019

 ----------------------------------------------------------------------
 #t hf aug-cc-pvdz iop(5/13=1,5/36=2,99/5=2) pseudo=read geom=check gue
 ss=(read,tcheck) scf=(maxcycle=1)
 ----------------------------------------------------------------------
 -----
 title
 -----
 Structure from the checkpoint file:  "Grambow2020_wb97xd3_008773_reverse_mol2.chk"
 Charge =  0 Multiplicity = 1

                         Standard orientation:
 ---------------------------------------------------------------------
 Center     Atomic      Atomic             Coordinates (Angstroms)
 Number     Number       Type             X           Y           Z
 ---------------------------------------------------------------------
      1          8           0       -0.087495   -0.887738   -0.341483
      2          6           0       -1.157931   -0.118505    0.005708
      3          6           0       -2.381884   -0.611262    0.170779
      4          6           0        2.170590   -0.612223    0.472054
      5          6           0        1.089195   -0.080291   -0.450760
      6          6           0        0.606258    1.300832   -0.121694
      7          6           0       -0.691769    1.261396    0.145297
      8          1           0       -3.190860    0.048910    0.446467
      9          1           0       -2.586650   -1.663806    0.036188
     10          1           0        1.840576   -0.561815    1.510781
     11          1           0        2.396057   -1.650252    0.226879
     12          1           0        3.084096   -0.024224    0.363484
     13          1           0        1.433295   -0.136729   -1.491433
     14          1           0        1.252263    2.167412   -0.111610
     15          1           0       -1.335573    2.082725    0.422810
 ---------------------------------------------------------------------

 SCF Done:  E(RHF) =  -308.164822163     A.U. after    2 cycles

 The electronic state is 1-A.
 Alpha  occ. eigenvalues --  -21.06076 -11.48748 -11.45825 -11.43201 -11.40008
 Alpha  occ. eigenvalues --  -11.37862 -11.36006  -1.80522  -1.21570  -1.16422
 Alpha  occ. eigenvalues --   -1.05140  -0.91248  -0.80805  -0.76788  -0.69844
 Alpha  occ. eigenvalues --   -0.63367  -0.59118  -0.57923  -0.54772  -0.51399
 Alpha  occ. eigenvalues --   -0.47661  -0.46768  -0.46463  -0.39381  -0.36153
 Alpha  occ. eigenvalues --   -0.25668
 Alpha virt. eigenvalues --    0.03498   0.04706   0.05081   0.05557   0.05832
 Alpha virt. eigenvalues --    0.06521   0.06794   0.07906   0.10495   0.11325
 Alpha virt. eigenvalues --    0.11434   0.12023   0.12558   0.13305   0.13828

 Mulliken charges:
               1
     1  O   -4.215743
     2  C    5.567927
     3  C   -4.947092
     4  C   -3.933874
     5  C   -0.395805
     6  C   -0.438598
     7  C   -2.403595
     8  H    1.416576
     9  H    1.466026
    10  H    1.293237
    11  H    1.246164
    12  H    1.131215
    13  H    1.495708
    14  H    1.358794
    15  H    1.359060
 Sum of Mulliken charges =  -0.00000

 Dipole moment (field-independent basis, Debye):
    X=              1.6263    Y=              1.1297    Z=             -0.1493  Tot=              1.9858

 Test job not archived.
 1\1\GINC-SE097\SP\RHF\Aug-CC-pVDZ\C6H8O1\OHZDE\09-Apr-2025\0\\#t hf au
 g-cc-pvdz iop(5/13=1,5/36=2,99/5=2) pseudo=read geom=check guess=(read
 ,tcheck) scf=(maxcycle=1)\\title\\0,1\O,0,-0.6589721,-0.46693894,0.655
 00733\C,0,0.08107726,-1.45121023,0.0705163\C,0,-0.25776312,-2.73627048
 ,0.11441855\C,0,-1.01665952,1.74867442,-0.23931612\C,0,-0.04256244,0.8
 077808,0.44610728\C,0,1.18509597,0.48415733,-0.3521013\C,0,1.2392983,-
 0.82315968,-0.56587401\H,0,0.3696031,-3.4709575,-0.36819902\H,0,-1.152
 77882,-3.06421956,0.62362339\H,0,-1.29232756,1.35941675,-1.22058583\H,

 Normal termination of Gaussian 16 at Wed Apr  9 03:59:50 2025.
