 Gaussian 16, Revision C.01,

 ----------------------------------------------------------------------
 #t hf aug-cc-pvdz symm=none int=(grid=ultrafine) guess=(read,tcheck) s
 table=(opt,rrhf)
 ----------------------------------------------------------------------
 -----
 title
 -----
 Symbolic Z-matrix:
 Charge =  0 Multiplicity = 1

 SCF Done:  E(RHF) =  -283.503304727     A.U. after   19 cycles
 Normal termination of Gaussian 16 at Wed Apr  9 03:09:45 2025.
 Gaussian 16:  ES64L-G16RevC.01  3-Jul-2019

 ----------------------------------------------------------------------
 #t hf aug-cc-pvdz iop(5/13=1,5/36=2,99/5=2) pseudo=read geom=check gue
 ss=(read,tcheck) scf=(maxcycle=1)
 ----------------------------------------------------------------------
 -----
 title
 -----
 Structure from the checkpoint file:  "Grambow2020_b97d3_006663_forward_mol1.chk"
 Charge =  0 Multiplicity = 1

                         Standard orientation:
 ---------------------------------------------------------------------
 Center     Atomic      Atomic             Coordinates (Angstroms)
 Number     Number       Type             X           Y           Z
 ---------------------------------------------------------------------
      1          7           0       -2.263091   -0.153271   -0.016515
      2          6           0       -1.094047    0.206790   -0.050176
      3          6           0        0.014715    1.226261   -0.073266
      4          6           0        1.008198    0.079848    0.400736
      5          6           0       -0.174611   -1.088980   -0.033323
      6          8           0        2.071083   -0.222189   -0.241376
      7          1           0       -0.102332    2.125074    0.544853
      8          1           0        0.233974    1.502365   -1.114172
      9          1           0        1.003603    0.018349    1.515734
     10          1           0       -0.377267   -1.884061    0.689496
     11          1           0       -0.010533   -1.454830   -1.053124
 ---------------------------------------------------------------------

 SCF Done:  E(RHF) =  -284.787164624     A.U. after    2 cycles

 The electronic state is 1-A.
 Alpha  occ. eigenvalues --  -20.98852 -15.86914 -11.55725 -11.49167 -11.46165
 Alpha  occ. eigenvalues --  -11.42974  -1.64280  -1.42315  -1.20521  -1.02681
 Alpha  occ. eigenvalues --   -0.83944  -0.77484  -0.68519  -0.61954  -0.60125
 Alpha  occ. eigenvalues --   -0.59079  -0.54022  -0.51770  -0.47269  -0.43025
 Alpha  occ. eigenvalues --   -0.25795  -0.24610
 Alpha virt. eigenvalues --    0.02683   0.03918   0.05062   0.05682   0.06187
 Alpha virt. eigenvalues --    0.06524   0.08424   0.10752   0.11230   0.11386
 Alpha virt. eigenvalues --    0.12192   0.13357   0.13935   0.14323   0.14852

 Mulliken charges:
               1
     1  N   -2.474096
     2  C    3.261237
     3  C   -3.334156
     4  C    2.315095
     5  C   -3.638251
     6  O   -2.902460
     7  H    1.420494
     8  H    1.368567
     9  H    1.363834
    10  H    1.271208
    11  H    1.348527
 Sum of Mulliken charges =  -0.00000

 Dipole moment (field-independent basis, Debye):
    X=             -0.2614    Y=              0.7042    Z=              0.3276  Tot=              0.8195

 Test job not archived.
 1\1\GINC-SE029\SP\RHF\Aug-CC-pVDZ\C4H5N1O1\OHZDE\09-Apr-2025\0\\#t hf
 aug-cc-pvdz iop(5/13=1,5/36=2,99/5=2) pseudo=read geom=check guess=(re
 ad,tcheck) scf=(maxcycle=1)\\title\\0,1\N,0,1.91497446,1.26242748,-0.2
 3010284\C,0,1.0691761,0.37969891,-0.17665616\C,0,0.5974473,-1.0493253,
 -0.10907199\C,0,-0.80002956,-0.50828984,0.4203522\C,0,-0.36205515,1.06
 659878,-0.11022229\O,0,-1.90960973,-0.7884939,-0.14848688\H,0,1.171561
 87,-1.74998529,0.50988207\H,0,0.48234662,-1.44345503,-1.12848644\H,0,-
 0.76347221,-0.40235665,1.53141627\H,0,-0.53183262,1.89174386,0.5869160

 Normal termination of Gaussian 16 at Wed Apr  9 03:09:48 2025.
