 Gaussian 16, Revision C.01,

 ----------------------------------------------------------------------
 #t hf aug-cc-pvdz symm=none int=(grid=ultrafine) guess=(read,tcheck) s
 table=(opt,rrhf)
 ----------------------------------------------------------------------
 -----
 title
 -----
 Symbolic Z-matrix:
 Charge =  0 Multiplicity = 1

 SCF Done:  E(RHF) =  -302.812487650     A.U. after   15 cycles
 Normal termination of Gaussian 16 at Wed Apr  9 18:23:47 2025.
 Gaussian 16:  ES64L-G16RevC.01  3-Jul-2019

 ----------------------------------------------------------------------
 #t hf aug-cc-pvdz iop(5/13=1,5/36=2,99/5=2) pseudo=read geom=check gue
 ss=(read,tcheck) scf=(maxcycle=1)
 ----------------------------------------------------------------------
 -----
 title
 -----
 Structure from the checkpoint file:  "Grambow2020_wb97xd3_006961_reverse_mol2.chk"
 Charge =  0 Multiplicity = 1

                         Standard orientation:
 ---------------------------------------------------------------------
 Center     Atomic      Atomic             Coordinates (Angstroms)
 Number     Number       Type             X           Y           Z
 ---------------------------------------------------------------------
      1          6           0       -1.345680   -1.266636    0.033340
      2          6           0       -0.497479   -0.000834   -0.042190
      3          6           0       -1.340485    1.269702    0.011957
      4          7           0        0.485810    0.007524    1.064755
      5          6           0        1.668194    0.003620    0.552374
      6          6           0        1.633030   -0.009465   -0.952826
      7          7           0        0.344465   -0.011182   -1.207573
      8          1           0       -1.990159   -1.302253   -0.843169
      9          1           0       -1.970492   -1.275824    0.929280
     10          1           0       -0.706854   -2.149938    0.024769
     11          1           0       -1.958688    1.302656    0.911927
     12          1           0       -0.698523    2.150162   -0.021920
     13          1           0       -1.991780    1.290153   -0.860066
     14          1           0        0.256452    0.019198    2.047007
     15          1           0        2.542647    0.013134    1.195970
 ---------------------------------------------------------------------

 SCF Done:  E(RHF) =  -304.253820643     A.U. after    2 cycles

 The electronic state is 1-A.
 Alpha  occ. eigenvalues --  -15.83288 -15.70043 -11.47884 -11.47181 -11.41160
 Alpha  occ. eigenvalues --  -11.37555 -11.33437  -1.56863  -1.28697  -1.18412
 Alpha  occ. eigenvalues --   -1.03619  -0.97415  -0.84295  -0.79160  -0.72708
 Alpha  occ. eigenvalues --   -0.64183  -0.62179  -0.59948  -0.56419  -0.52487
 Alpha  occ. eigenvalues --   -0.50054  -0.49142  -0.44750  -0.38826  -0.35773
 Alpha  occ. eigenvalues --   -0.26947
 Alpha virt. eigenvalues --    0.02309   0.04222   0.04541   0.04687   0.05934
 Alpha virt. eigenvalues --    0.06263   0.06515   0.07292   0.08541   0.10228
 Alpha virt. eigenvalues --    0.10954   0.12593   0.12897   0.13552   0.13874

 Mulliken charges:
               1
     1  C   -3.651366
     2  C    5.852452
     3  C   -3.649610
     4  N   -3.766613
     5  C   -0.054767
     6  C   -1.189000
     7  N   -3.295951
     8  H    1.150769
     9  H    1.153287
    10  H    1.330212
    11  H    1.155509
    12  H    1.331254
    13  H    1.149653
    14  H    0.845660
    15  H    1.638510
 Sum of Mulliken charges =   0.00000

 Dipole moment (field-independent basis, Debye):
    X=             -2.8750    Y=              0.0644    Z=              6.7437  Tot=              7.3312

 Test job not archived.
 1\1\GINC-SE162\SP\RHF\Aug-CC-pVDZ\C5H8N2\OHZDE\09-Apr-2025\0\\#t hf au
 g-cc-pvdz iop(5/13=1,5/36=2,99/5=2) pseudo=read geom=check guess=(read
 ,tcheck) scf=(maxcycle=1)\\title\\0,1\C,0,-0.50741632,1.49559223,-0.34
 127993\C,0,-0.04550865,0.14898701,0.20708139\C,0,-1.19725853,-0.675341
 08,0.77436409\N,0,0.6354333,-0.61754385,-0.86109531\C,0,1.8544296,-0.8
 2048073,-0.4957924\C,0,2.14869927,-0.22014526,0.8532949\N,0,0.9967007,
 0.31791778,1.18296952\H,0,-0.91295809,2.08176331,0.48141519\H,0,-1.282
 88249,1.37278226,-1.10072319\H,0,0.33647412,2.03956588,-0.76593964\H,0

 Normal termination of Gaussian 16 at Wed Apr  9 18:23:52 2025.
