 Gaussian 16, Revision C.01,

 ----------------------------------------------------------------------
 #t hf aug-cc-pvdz symm=none int=(grid=ultrafine) guess=(read,tcheck) s
 table=(opt,rrhf)
 ----------------------------------------------------------------------
 -----
 title
 -----
 Symbolic Z-matrix:
 Charge =  0 Multiplicity = 1

 SCF Done:  E(RHF) =  -279.682902321     A.U. after   16 cycles
 Normal termination of Gaussian 16 at Wed Apr  9 17:07:07 2025.
 Gaussian 16:  ES64L-G16RevC.01  3-Jul-2019

 ----------------------------------------------------------------------
 #t hf aug-cc-pvdz iop(5/13=1,5/36=2,99/5=2) pseudo=read geom=check gue
 ss=(read,tcheck) scf=(maxcycle=1)
 ----------------------------------------------------------------------
 -----
 title
 -----
 Structure from the checkpoint file:  "Grambow2020_b97d3_007046_reverse_mol2.chk"
 Charge =  0 Multiplicity = 1

                         Standard orientation:
 ---------------------------------------------------------------------
 Center     Atomic      Atomic             Coordinates (Angstroms)
 Number     Number       Type             X           Y           Z
 ---------------------------------------------------------------------
      1          7           0       -1.782005   -0.587241   -0.087675
      2          6           0       -0.711717    0.263832   -0.003847
      3          6           0       -0.253073    1.530185    0.024994
      4          6           0        1.183309    0.979977   -0.035505
      5          7           0        0.715633   -0.279069   -0.042371
      6          7           0        0.965741   -1.549749    0.028721
      7          1           0       -2.594097   -0.351126    0.479218
      8          1           0       -1.482878   -1.557752    0.035180
      9          1           0       -0.713715    2.509210    0.034475
     10          1           0        2.194650    1.324784    0.133762
     11          1           0        1.989331   -1.656663    0.112795
 ---------------------------------------------------------------------

 SCF Done:  E(RHF) =  -280.991453163     A.U. after    2 cycles

 The electronic state is 1-A.
 Alpha  occ. eigenvalues --  -15.85539 -15.78277 -15.73200 -11.49683 -11.45069
 Alpha  occ. eigenvalues --  -11.39277  -1.59431  -1.35890  -1.25004  -0.97829
 Alpha  occ. eigenvalues --   -0.90986  -0.73729  -0.71383  -0.69759  -0.63134
 Alpha  occ. eigenvalues --   -0.60235  -0.53781  -0.48875  -0.46026  -0.41304
 Alpha  occ. eigenvalues --   -0.35535  -0.21002
 Alpha virt. eigenvalues --    0.03397   0.05085   0.05312   0.06505   0.07162
 Alpha virt. eigenvalues --    0.08305   0.10563   0.11713   0.12086   0.12936
 Alpha virt. eigenvalues --    0.13608   0.14137   0.14854   0.15597   0.16379

 Mulliken charges:
               1
     1  N   -3.174862
     2  C    3.289898
     3  C   -2.187950
     4  C    0.332721
     5  N   -1.285267
     6  N   -1.301032
     7  H    0.556425
     8  H    0.739018
     9  H    1.064402
    10  H    1.305061
    11  H    0.661585
 Sum of Mulliken charges =   0.00000

 Dipole moment (field-independent basis, Debye):
    X=             -0.8471    Y=              0.5636    Z=              1.0370  Tot=              1.4528

 Test job not archived.
 1\1\GINC-SE220\SP\RHF\Aug-CC-pVDZ\C3H5N3\OHZDE\09-Apr-2025\0\\#t hf au
 g-cc-pvdz iop(5/13=1,5/36=2,99/5=2) pseudo=read geom=check guess=(read
 ,tcheck) scf=(maxcycle=1)\\title\\0,1\N,0,-1.82143271,-0.33409832,0.14
 591988\C,0,-0.46510057,-0.51640462,0.0826991\C,0,0.57971622,-1.3666466
 4,0.09954299\C,0,1.5280262,-0.15423741,0.1183535\N,0,0.47943241,0.6841
 8025,0.07997469\N,0,0.04117097,1.89835014,-0.04632983\H,0,-2.39101285,
 -0.97767355,-0.39997525\H,0,-2.06279963,0.64595999,-0.0204825\H,0,0.68
 821761,-2.44258896,0.1362313\H,0,2.57428284,0.06327083,-0.05013753\H,0

 Normal termination of Gaussian 16 at Wed Apr  9 17:07:10 2025.
