 Gaussian 16, Revision C.01,

 ----------------------------------------------------------------------
 #t hf aug-cc-pvdz symm=none int=(grid=ultrafine) guess=(read,tcheck) s
 table=(opt,rrhf)
 ----------------------------------------------------------------------
 -----
 title
 -----
 Symbolic Z-matrix:
 Charge =  0 Multiplicity = 1

 SCF Done:  E(RHF) =  -344.790518852     A.U. after   15 cycles

 1\1\GINC-SE114\Stability\RHF\Aug-CC-pVDZ\C5H10O2\OHZDE\09-Apr-2025\0\\
 #t hf aug-cc-pvdz symm=none int=(grid=ultrafine) guess=(read,tcheck) s
 table=(opt,rrhf)\\title\\0,1\O,0,2.63894498,0.5069454,1.22505449\C,0,2
 .43246608,-0.35732983,0.12226705\C,0,0.9936283,-0.82548004,0.20967181\
 C,0,0.00962168,0.20874116,-0.15309439\C,0,-2.81485311,0.64896748,-0.94
 125676\O,0,-2.27154962,0.94535172,0.32080711\C,0,-1.19695532,0.1136411
 ,0.65360391\H,0,3.48474169,0.94557035,1.12779782\H,0,3.116429,-1.21415
 654,0.16868238\H,0,2.57806091,0.16757309,-0.82748147\H,0,0.82517556,-1

 Normal termination of Gaussian 16 at Wed Apr  9 18:41:44 2025.
 Gaussian 16:  ES64L-G16RevC.01  3-Jul-2019

 ----------------------------------------------------------------------
 #t hf aug-cc-pvdz iop(5/13=1,5/36=2,99/5=2) pseudo=read geom=check gue
 ss=(read,tcheck) scf=(maxcycle=1)
 ----------------------------------------------------------------------
 -----
 title
 -----
 Structure from the checkpoint file:  "Grambow2020_wb97xd3_007544_reverse_mol2.chk"
 Charge =  0 Multiplicity = 1

                         Standard orientation:
 ---------------------------------------------------------------------
 Center     Atomic      Atomic             Coordinates (Angstroms)
 Number     Number       Type             X           Y           Z
 ---------------------------------------------------------------------
      1          8           0       -2.723646   -0.870103   -0.224188
      2          6           0       -2.438759    0.517174   -0.231165
      3          6           0       -1.121885    0.686752    0.499687
      4          6           0        0.048028    0.233132   -0.271684
      5          6           0        3.003279    0.398014   -0.450479
      6          8           0        2.281301   -0.720215    0.001340
      7          6           0        1.057381   -0.372284    0.582900
      8          1           0       -3.466203   -1.042367   -0.803978
      9          1           0       -3.232975    1.077938    0.277635
     10          1           0       -2.329350    0.895867   -1.252617
     11          1           0       -1.210228    0.313831    1.532796
     12          1           0       -0.899887    1.766651    0.567333
     13          1           0        2.428208    0.965222   -1.191000
     14          1           0        3.270158    1.063949    0.382814
     15          1           0        3.917332    0.028635   -0.912558
     16          1           0        0.562924   -1.315508    0.881032
     17          1           0        1.210520    0.191598    1.525780
 ---------------------------------------------------------------------

 SCF Done:  E(RHF) =  -346.363987791     A.U. after    2 cycles

 The electronic state is 1-A.
 Alpha  occ. eigenvalues --  -21.07233 -21.03919 -11.46503 -11.43242 -11.41150
 Alpha  occ. eigenvalues --  -11.39276 -11.37471  -1.75571  -1.71633  -1.21626
 Alpha  occ. eigenvalues --   -1.05822  -0.96384  -0.87811  -0.74774  -0.67548
 Alpha  occ. eigenvalues --   -0.65014  -0.64641  -0.61581  -0.57813  -0.55765
 Alpha  occ. eigenvalues --   -0.51374  -0.50145  -0.48953  -0.41931  -0.37016
 Alpha  occ. eigenvalues --   -0.33060  -0.32470  -0.29187
 Alpha virt. eigenvalues --    0.03881   0.04931   0.05478   0.05516   0.05749
 Alpha virt. eigenvalues --    0.05905   0.06598   0.07082   0.07396   0.08575
 Alpha virt. eigenvalues --    0.08951   0.11668   0.12786   0.13376   0.13935

 Mulliken charges:
               1
     1  O   -2.514014
     2  C   -1.052300
     3  C   -2.674217
     4  C   -0.942860
     5  C   -2.917516
     6  O   -3.123583
     7  C   -0.131741
     8  H    0.778898
     9  H    1.238532
    10  H    1.584312
    11  H    1.500811
    12  H    1.437543
    13  H    1.456399
    14  H    1.294235
    15  H    1.238111
    16  H    1.311796
    17  H    1.515595
 Sum of Mulliken charges =  -0.00000

 Dipole moment (field-independent basis, Debye):
    X=             -1.0268    Y=              0.7347    Z=              1.1390  Tot=              1.7005

 Test job not archived.
 1\1\GINC-SE114\SP\RHF\Aug-CC-pVDZ\C5H10O2\OHZDE\09-Apr-2025\0\\#t hf a
 ug-cc-pvdz iop(5/13=1,5/36=2,99/5=2) pseudo=read geom=check guess=(rea
 d,tcheck) scf=(maxcycle=1)\\title\\0,1\O,0,2.63894498,0.5069454,1.2250
 5449\C,0,2.43246608,-0.35732983,0.12226705\C,0,0.9936283,-0.82548004,0
 .20967181\C,0,0.00962168,0.20874116,-0.15309439\C,0,-2.81485311,0.6489
 6748,-0.94125676\O,0,-2.27154962,0.94535172,0.32080711\C,0,-1.19695532
 ,0.1136411,0.65360391\H,0,3.48474169,0.94557035,1.12779782\H,0,3.11642
 9,-1.21415654,0.16868238\H,0,2.57806091,0.16757309,-0.82748147\H,0,0.8

 Normal termination of Gaussian 16 at Wed Apr  9 18:41:49 2025.
