 Gaussian 16, Revision C.01,

 ----------------------------------------------------------------------
 #t hf aug-cc-pvdz symm=none int=(grid=ultrafine) guess=(read,tcheck) s
 table=(opt,rrhf)
 ----------------------------------------------------------------------
 -----
 title
 -----
 Symbolic Z-matrix:
 Charge =  0 Multiplicity = 1

 SCF Done:  E(RHF) =  -353.455409893     A.U. after   17 cycles
 Normal termination of Gaussian 16 at Wed Apr  9 18:53:26 2025.
 Gaussian 16:  ES64L-G16RevC.01  3-Jul-2019

 ----------------------------------------------------------------------
 #t hf aug-cc-pvdz iop(5/13=1,5/36=2,99/5=2) pseudo=read geom=check gue
 ss=(read,tcheck) scf=(maxcycle=1)
 ----------------------------------------------------------------------
 -----
 title
 -----
 Structure from the checkpoint file:  "Grambow2020_wb97xd3_007764_reverse_mol1.chk"
 Charge =  0 Multiplicity = 1

                         Standard orientation:
 ---------------------------------------------------------------------
 Center     Atomic      Atomic             Coordinates (Angstroms)
 Number     Number       Type             X           Y           Z
 ---------------------------------------------------------------------
      1          8           0       -2.637658    0.187492   -0.168391
      2          6           0       -1.772860   -0.603753    0.093394
      3          7           0       -0.398015   -0.344993    0.074190
      4          6           0        0.022465    0.869143    0.078190
      5          7           0        1.364983    1.163029    0.017485
      6          6           0        1.924437    0.001232   -0.046196
      7          7           0        1.838040   -1.216781   -0.061097
      8          1           0       -1.991655   -1.647205    0.364502
      9          1           0       -0.640291    1.728308    0.144798
     10          1           0        3.053906   -0.389553   -0.128543
 ---------------------------------------------------------------------

 SCF Done:  E(RHF) =  -354.989179590     A.U. after    2 cycles

 The electronic state is 1-A.
 Alpha  occ. eigenvalues --  -21.05462 -15.88691 -15.76570 -15.73741 -11.54489
 Alpha  occ. eigenvalues --  -11.48833 -11.48257  -1.72132  -1.54706  -1.38791
 Alpha  occ. eigenvalues --   -1.29376  -0.96758  -0.83487  -0.79459  -0.68684
 Alpha  occ. eigenvalues --   -0.63683  -0.63525  -0.60391  -0.56141  -0.52973
 Alpha  occ. eigenvalues --   -0.45589  -0.43854  -0.40564  -0.33316  -0.30393
 Alpha virt. eigenvalues --    0.02880   0.04958   0.06193   0.07016   0.08198
 Alpha virt. eigenvalues --    0.09840   0.10265   0.10495   0.11073   0.11541
 Alpha virt. eigenvalues --    0.12915   0.14284   0.15332   0.15747   0.16339

 Mulliken charges:
               1
     1  O   -2.627655
     2  C    2.290497
     3  N   -2.508078
     4  C    0.858796
     5  N   -3.114518
     6  C    2.173035
     7  N   -1.690104
     8  H    1.626014
     9  H    1.566186
    10  H    1.425828
 Sum of Mulliken charges =   0.00000

 Dipole moment (field-independent basis, Debye):
    X=              2.0899    Y=             -0.5223    Z=              0.1539  Tot=              2.1597

 Test job not archived.
 1\1\GINC-SE115\SP\RHF\Aug-CC-pVDZ\C3H3N3O1\OHZDE\09-Apr-2025\0\\#t hf
 aug-cc-pvdz iop(5/13=1,5/36=2,99/5=2) pseudo=read geom=check guess=(re
 ad,tcheck) scf=(maxcycle=1)\\title\\0,1\O,0,2.64097614,0.80138487,0.18
 466704\C,0,1.95296576,-0.18240604,0.22036535\N,0,0.55896589,-0.2070893
 1,0.10340066\C,0,-0.05917685,0.8137511,-0.37276118\N,0,-1.43150479,0.8
 4256198,-0.46384361\C,0,-1.78901332,-0.29905132,0.02166856\N,0,-1.4988
 8013,-1.38429312,0.50053774\H,0,2.37127345,-1.18848691,0.3719618\H,0,0
 .45131695,1.69917577,-0.74325557\H,0,-2.83825711,-0.84344702,0.2163901

 Normal termination of Gaussian 16 at Wed Apr  9 18:53:30 2025.
