 Gaussian 16, Revision C.01,

 ----------------------------------------------------------------------
 #t hf aug-cc-pvdz symm=none int=(grid=ultrafine) guess=(read,tcheck) s
 table=(opt,rrhf)
 ----------------------------------------------------------------------
 -----
 title
 -----
 Symbolic Z-matrix:
 Charge =  0 Multiplicity = 1

 SCF Done:  E(RHF) =  -206.630195569     A.U. after   14 cycles
 Normal termination of Gaussian 16 at Wed Apr  9 03:09:36 2025.
 Gaussian 16:  ES64L-G16RevC.01  3-Jul-2019

 ----------------------------------------------------------------------
 #t hf aug-cc-pvdz iop(5/13=1,5/36=2,99/5=2) pseudo=read geom=check gue
 ss=(read,tcheck) scf=(maxcycle=1)
 ----------------------------------------------------------------------
 -----
 title
 -----
 Structure from the checkpoint file:  "Grambow2020_b97d3_006673_forward_mol1.chk"
 Charge =  0 Multiplicity = 1

                         Standard orientation:
 ---------------------------------------------------------------------
 Center     Atomic      Atomic             Coordinates (Angstroms)
 Number     Number       Type             X           Y           Z
 ---------------------------------------------------------------------
      1          8           0       -1.382286   -0.089557   -0.304692
      2          6           0       -0.258585   -0.011411    0.461967
      3          6           0        0.946259   -0.762977   -0.044123
      4          7           0        1.260037    0.472326   -0.244390
      5          1           0       -1.968582    0.664039   -0.095600
      6          1           0       -0.336608    0.153797    1.537954
      7          1           0        0.417175    1.238666    0.198851
 ---------------------------------------------------------------------

 SCF Done:  E(RHF) =  -207.542118804     A.U. after    2 cycles

 The electronic state is 1-A.
 Alpha  occ. eigenvalues --  -21.13920 -15.80550 -11.51314 -11.40518  -1.79001
 Alpha  occ. eigenvalues --   -1.43588  -0.93832  -0.82920  -0.71005  -0.62256
 Alpha  occ. eigenvalues --   -0.54581  -0.45802  -0.43312  -0.41740  -0.33645
 Alpha virt. eigenvalues --    0.02723   0.04935   0.05733   0.08630   0.11047
 Alpha virt. eigenvalues --    0.11424   0.11678   0.13172   0.14206   0.15320
 Alpha virt. eigenvalues --    0.16817   0.18824   0.20673   0.21171   0.22381

 Mulliken charges:
               1
     1  O   -2.640800
     2  C    1.210773
     3  C   -0.508194
     4  N   -1.285860
     5  H    0.737669
     6  H    1.517975
     7  H    0.968437
 Sum of Mulliken charges =  -0.00000

 Dipole moment (field-independent basis, Debye):
    X=             -2.9079    Y=              2.3717    Z=              1.4121  Tot=              4.0094

 Test job not archived.
 1\1\GINC-SE106\SP\RHF\Aug-CC-pVDZ\C2H3N1O1\OHZDE\09-Apr-2025\0\\#t hf
 aug-cc-pvdz iop(5/13=1,5/36=2,99/5=2) pseudo=read geom=check guess=(re
 ad,tcheck) scf=(maxcycle=1)\\title\\0,1\O,0,-0.90767219,0.9050286,-0.3
 6428392\C,0,-0.05427512,-0.15530959,-0.30124724\C,0,1.36582768,0.10636
 664,-0.7342149\N,0,1.46297892,-0.01808975,0.54625657\H,0,-1.66791779,0
 .7429957,0.22828784\H,0,-0.43361882,-1.17392323,-0.3994959\H,0,0.39822
 532,-0.32820636,1.06034154\\Version=ES64L-G16RevC.01\State=1-A\HF=-207
 .5421188\RMSD=1.961e-01\Dipole=-1.4119026,-0.3584127,0.6052433\Quadrup

 Normal termination of Gaussian 16 at Wed Apr  9 03:09:38 2025.
