 Gaussian 16, Revision C.01,

 ----------------------------------------------------------------------
 #t hf aug-cc-pvdz symm=none int=(grid=ultrafine) guess=(read,tcheck) s
 table=(opt,rrhf)
 ----------------------------------------------------------------------
 -----
 title
 -----
 Symbolic Z-matrix:
 Charge =  0 Multiplicity = 1

 SCF Done:  E(RHF) =  -320.234165434     A.U. after   17 cycles
 Normal termination of Gaussian 16 at Wed Apr  9 18:47:21 2025.
 Gaussian 16:  ES64L-G16RevC.01  3-Jul-2019

 ----------------------------------------------------------------------
 #t hf aug-cc-pvdz iop(5/13=1,5/36=2,99/5=2) pseudo=read geom=check gue
 ss=(read,tcheck) scf=(maxcycle=1)
 ----------------------------------------------------------------------
 -----
 title
 -----
 Structure from the checkpoint file:  "Grambow2020_wb97xd3_007656_reverse_mol1.chk"
 Charge =  0 Multiplicity = 1

                         Standard orientation:
 ---------------------------------------------------------------------
 Center     Atomic      Atomic             Coordinates (Angstroms)
 Number     Number       Type             X           Y           Z
 ---------------------------------------------------------------------
      1          7           0       -2.913647   -0.011292   -0.127563
      2          6           0       -1.775802   -0.062719    0.000082
      3          6           0       -0.345121   -0.085204    0.145948
      4          6           0        0.453709    1.078111    0.035341
      5          8           0        1.688403    0.729734   -0.066022
      6          6           0        1.760979   -0.669992   -0.078323
      7          6           0        0.561700   -1.313218   -0.034646
      8          1           0        0.215108    2.131198    0.036281
      9          1           0        2.772820   -1.023486   -0.190706
     10          1           0       -0.032411   -0.548406    1.165131
 ---------------------------------------------------------------------

 SCF Done:  E(RHF) =  -321.658869683     A.U. after    2 cycles

 The electronic state is 1-A.
 Alpha  occ. eigenvalues --  -21.20589 -15.78094 -11.56195 -11.49709 -11.45831
 Alpha  occ. eigenvalues --  -11.44528 -11.38836  -1.92977  -1.35487  -1.25798
 Alpha  occ. eigenvalues --   -1.11157  -0.91152  -0.85262  -0.77164  -0.71220
 Alpha  occ. eigenvalues --   -0.62398  -0.60022  -0.54004  -0.52275  -0.51863
 Alpha  occ. eigenvalues --   -0.45378  -0.42290  -0.35808  -0.34539
 Alpha virt. eigenvalues --    0.01936   0.04492   0.05133   0.06660   0.08318
 Alpha virt. eigenvalues --    0.09445   0.09741   0.10377   0.11247   0.11625
 Alpha virt. eigenvalues --    0.12411   0.12706   0.13541   0.14614   0.14842

 Mulliken charges:
               1
     1  N   -2.389902
     2  C    1.784293
     3  C    0.137212
     4  C    0.559230
     5  O   -3.702626
     6  C    0.567124
     7  C   -1.690326
     8  H    1.458937
     9  H    1.599778
    10  H    1.676281
 Sum of Mulliken charges =   0.00000

 Dipole moment (field-independent basis, Debye):
    X=              3.8415    Y=              4.1793    Z=              0.5565  Tot=              5.7038

 Test job not archived.
 1\1\GINC-SE224\SP\RHF\Aug-CC-pVDZ\C5H3N1O1\OHZDE\09-Apr-2025\0\\#t hf
 aug-cc-pvdz iop(5/13=1,5/36=2,99/5=2) pseudo=read geom=check guess=(re
 ad,tcheck) scf=(maxcycle=1)\\title\\0,1\N,0,3.05099601,-0.81284611,0.0
 3998709\C,0,1.93651415,-0.55687657,-0.03772069\C,0,0.54519507,-0.19963
 508,-0.11012161\C,0,0.04995465,1.04505113,0.34721585\O,0,-1.23370027,0
 .98488034,0.41593065\C,0,-1.64288744,-0.30734832,0.05905335\C,0,-0.634
 31288,-1.17967002,-0.21617179\H,0,0.53619899,1.97144754,0.61420047\H,0
 ,-2.7117334,-0.42804158,0.12548935\H,0,0.14479211,-0.28193635,-1.19823

 Normal termination of Gaussian 16 at Wed Apr  9 18:47:24 2025.
