 Gaussian 16, Revision C.01,

 ----------------------------------------------------------------------
 #t hf aug-cc-pvdz symm=none int=(grid=ultrafine) guess=(read,tcheck) s
 table=(opt,rrhf)
 ----------------------------------------------------------------------
 -----
 title
 -----
 Symbolic Z-matrix:
 Charge =  0 Multiplicity = 1

 SCF Done:  E(RHF) =  -318.734810464     A.U. after   14 cycles
 Normal termination of Gaussian 16 at Wed Apr  9 18:22:16 2025.
 Gaussian 16:  ES64L-G16RevC.01  3-Jul-2019

 ----------------------------------------------------------------------
 #t hf aug-cc-pvdz iop(5/13=1,5/36=2,99/5=2) pseudo=read geom=check gue
 ss=(read,tcheck) scf=(maxcycle=1)
 ----------------------------------------------------------------------
 -----
 title
 -----
 Structure from the checkpoint file:  "Grambow2020_wb97xd3_006935_reverse_mol2.chk"
 Charge =  0 Multiplicity = 1

                         Standard orientation:
 ---------------------------------------------------------------------
 Center     Atomic      Atomic             Coordinates (Angstroms)
 Number     Number       Type             X           Y           Z
 ---------------------------------------------------------------------
      1          7           0       -2.961900    0.475202   -0.003345
      2          6           0       -1.680282    0.382701    0.364402
      3          6           0        1.831514    1.161888   -0.398029
      4          6           0        1.208703   -0.040911   -0.111846
      5          7           0        2.639373   -0.062101    0.172847
      6          6           0        0.291283   -0.988159    0.031183
      7          7           0       -1.087594   -0.712918   -0.118328
      8          1           0       -3.440678   -0.185493   -0.607935
      9          1           0       -3.501114    1.255236    0.317781
     10          1           0        1.766196    1.962087    0.334168
     11          1           0        3.279422   -0.503976   -0.468774
     12          1           0        2.888510   -0.148535    1.149435
     13          1           0        0.570497   -1.998579    0.301142
     14          1           0       -1.599292   -1.375132   -0.698294
 ---------------------------------------------------------------------

 SCF Done:  E(RHF) =  -320.226548666     A.U. after    2 cycles

 The electronic state is 1-A.
 Alpha  occ. eigenvalues --  -15.82620 -15.76241 -15.75586 -11.45073 -11.40533
 Alpha  occ. eigenvalues --  -11.37092 -11.36511  -1.49613  -1.44051  -1.28684
 Alpha  occ. eigenvalues --   -1.05431  -0.97002  -0.83928  -0.74741  -0.72861
 Alpha  occ. eigenvalues --   -0.68690  -0.67975  -0.62929  -0.56902  -0.50458
 Alpha  occ. eigenvalues --   -0.47365  -0.46481  -0.41004  -0.34312  -0.32380
 Alpha  occ. eigenvalues --   -0.24716
 Alpha virt. eigenvalues --    0.03382   0.04612   0.05016   0.05637   0.06185
 Alpha virt. eigenvalues --    0.06561   0.08151   0.10326   0.11893   0.12025
 Alpha virt. eigenvalues --    0.12432   0.13478   0.14486   0.14703   0.15111

 Mulliken charges:
               1
     1  N   -2.559393
     2  C    0.716403
     3  C   -3.218043
     4  C    4.861481
     5  N   -2.634255
     6  C   -0.661425
     7  N   -2.306251
     8  H    0.682346
     9  H    0.833356
    10  H    1.046744
    11  H    0.663768
    12  H    0.617705
    13  H    1.451277
    14  H    0.506288
 Sum of Mulliken charges =  -0.00000

 Dipole moment (field-independent basis, Debye):
    X=              0.3039    Y=             -3.4197    Z=              0.6489  Tot=              3.4939

 Test job not archived.
 1\1\GINC-SE219\SP\RHF\Aug-CC-pVDZ\C4H7N3\OHZDE\09-Apr-2025\0\\#t hf au
 g-cc-pvdz iop(5/13=1,5/36=2,99/5=2) pseudo=read geom=check guess=(read
 ,tcheck) scf=(maxcycle=1)\\title\\0,1\N,0,-3.02012662,0.02175373,-0.15
 505974\C,0,-1.72865615,-0.2487761,-0.36779254\C,0,1.50950463,-1.247125
 58,1.06005792\C,0,1.15745699,-0.16142595,0.27657979\N,0,2.57601154,-0.
 48955967,0.18521902\C,0,0.45829753,0.79626216,-0.31790067\N,0,-0.95365
 877,0.83312184,-0.25132195\H,0,-3.3870988,0.93376347,0.09958916\H,0,-3
 .68775404,-0.72034118,-0.23184515\H,0,1.32288466,-2.24439358,0.6710512

 Normal termination of Gaussian 16 at Wed Apr  9 18:22:20 2025.
