 Gaussian 16, Revision C.01,

 ----------------------------------------------------------------------
 #t hf aug-cc-pvdz symm=none int=(grid=ultrafine) guess=(read,tcheck) s
 table=(opt,rrhf)
 ----------------------------------------------------------------------
 -----
 title
 -----
 Symbolic Z-matrix:
 Charge =  0 Multiplicity = 1

 SCF Done:  E(RHF) =  -343.741072087     A.U. after   15 cycles
 Normal termination of Gaussian 16 at Wed Apr  9 03:27:23 2025.
 Gaussian 16:  ES64L-G16RevC.01  3-Jul-2019

 ----------------------------------------------------------------------
 #t hf aug-cc-pvdz iop(5/13=1,5/36=2,99/5=2) pseudo=read geom=check gue
 ss=(read,tcheck) scf=(maxcycle=1)
 ----------------------------------------------------------------------
 -----
 title
 -----
 Structure from the checkpoint file:  "Grambow2020_wb97xd3_006672_forward_mol2.chk"
 Charge =  0 Multiplicity = 1

                         Standard orientation:
 ---------------------------------------------------------------------
 Center     Atomic      Atomic             Coordinates (Angstroms)
 Number     Number       Type             X           Y           Z
 ---------------------------------------------------------------------
      1          6           0       -1.395273    0.091737    1.199522
      2          6           0       -0.581621    0.055128   -0.083554
      3          8           0       -1.280536   -0.558941   -1.136216
      4          6           0        0.067485    1.405718   -0.473294
      5          6           0        1.436588    0.933376    0.084670
      6          6           0        0.848018   -0.468966    0.134877
      7          8           0        1.297561   -1.574337    0.173113
      8          1           0       -2.327876    0.629117    1.021106
      9          1           0       -1.631938   -0.922888    1.526738
     10          1           0       -0.853373    0.589677    2.006629
     11          1           0       -1.266310   -1.509361   -0.991036
     12          1           0        0.080809    1.521630   -1.555463
     13          1           0       -0.367957    2.291127   -0.013806
     14          1           0        2.317205    1.050440   -0.545281
     15          1           0        1.662059    1.314520    1.082604
 ---------------------------------------------------------------------

 SCF Done:  E(RHF) =  -345.304285888     A.U. after    2 cycles

 The electronic state is 1-A.
 Alpha  occ. eigenvalues --  -21.08026 -21.06846 -11.53019 -11.46999 -11.43654
 Alpha  occ. eigenvalues --  -11.39681 -11.37561  -1.75031  -1.70188  -1.30513
 Alpha  occ. eigenvalues --   -1.08643  -0.93959  -0.90536  -0.72490  -0.67594
 Alpha  occ. eigenvalues --   -0.64531  -0.61000  -0.57532  -0.57143  -0.55193
 Alpha  occ. eigenvalues --   -0.51381  -0.47093  -0.44652  -0.43612  -0.39658
 Alpha  occ. eigenvalues --   -0.34175  -0.26644
 Alpha virt. eigenvalues --    0.03591   0.04792   0.05300   0.05467   0.05767
 Alpha virt. eigenvalues --    0.06539   0.07172   0.07759   0.09815   0.12035
 Alpha virt. eigenvalues --    0.12343   0.13270   0.13648   0.14430   0.14578

 Mulliken charges:
               1
     1  C   -3.891700
     2  C    3.601119
     3  O   -3.591723
     4  C   -3.442503
     5  C   -2.947290
     6  C    4.122404
     7  O   -3.350200
     8  H    1.205341
     9  H    1.161794
    10  H    1.303189
    11  H    0.606021
    12  H    1.252144
    13  H    1.393409
    14  H    1.244860
    15  H    1.333135
 Sum of Mulliken charges =   0.00000

 Dipole moment (field-independent basis, Debye):
    X=             -0.3335    Y=              1.1020    Z=              0.3624  Tot=              1.2071

 Test job not archived.
 1\1\GINC-SE070\SP\RHF\Aug-CC-pVDZ\C5H8O2\OHZDE\09-Apr-2025\0\\#t hf au
 g-cc-pvdz iop(5/13=1,5/36=2,99/5=2) pseudo=read geom=check guess=(read
 ,tcheck) scf=(maxcycle=1)\\title\\0,1\C,0,-1.52443549,-0.61774829,-0.1
 331597\C,0,-0.40133126,0.40521623,-0.09034461\O,0,-0.87227219,1.716258
 52,-0.27212656\C,0,0.56334158,0.25262219,1.11109232\C,0,1.61034283,-0.
 45306314,0.20850106\C,0,0.78949132,0.01710086,-0.98340813\O,0,1.003439
 94,0.18005342,-2.14662258\H,0,-2.25593169,-0.38431551,0.64193967\H,0,-
 2.02244052,-0.59267722,-1.10470864\H,0,-1.15280354,-1.63173585,0.03036

 Normal termination of Gaussian 16 at Wed Apr  9 03:27:28 2025.
