 Gaussian 16, Revision C.01,

 ----------------------------------------------------------------------
 #t hf aug-cc-pvdz symm=none int=(grid=ultrafine) guess=(read,tcheck) s
 table=(opt,rrhf)
 ----------------------------------------------------------------------
 -----
 title
 -----
 Symbolic Z-matrix:
 Charge =  0 Multiplicity = 1

 SCF Done:  E(RHF) =  -307.022668827     A.U. after   14 cycles

 1\1\GINC-SE051\Stability\RHF\Aug-CC-pVDZ\C4H10O2\OHZDE\09-Apr-2025\0\\
 #t hf aug-cc-pvdz symm=none int=(grid=ultrafine) guess=(read,tcheck) s
 table=(opt,rrhf)\\title\\0,1\C,0,2.63841055,-0.53277445,-0.67194738\O,
 0,1.96109599,0.63941072,-0.23270906\C,0,0.59725133,0.39269991,0.045915
 58\C,0,0.39801091,-0.35390071,1.36440647\C,0,-3.05061899,0.44283157,-0
 .58651582\O,0,-0.62245865,-0.93445799,1.68433604\H,0,2.60401815,-1.341
 63409,0.08022818\H,0,2.20787689,-0.91834393,-1.61386848\H,0,3.68325039
 ,-0.24881989,-0.84137572\H,0,0.07979812,-0.14768897,-0.76721564\H,0,0.

 Normal termination of Gaussian 16 at Wed Apr  9 03:07:28 2025.
 Gaussian 16:  ES64L-G16RevC.01  3-Jul-2019

 ----------------------------------------------------------------------
 #t hf aug-cc-pvdz iop(5/13=1,5/36=2,99/5=2) pseudo=read geom=check gue
 ss=(read,tcheck) scf=(maxcycle=1)
 ----------------------------------------------------------------------
 -----
 title
 -----
 Structure from the checkpoint file:  "Grambow2020_b97d3_006566_reverse_mol2.chk"
 Charge =  0 Multiplicity = 1

                         Standard orientation:
 ---------------------------------------------------------------------
 Center     Atomic      Atomic             Coordinates (Angstroms)
 Number     Number       Type             X           Y           Z
 ---------------------------------------------------------------------
      1          6           0        2.460560   -0.553337    0.601905
      2          8           0        1.686611   -0.649006   -0.588706
      3          6           0        0.332327   -0.306411   -0.371652
      4          6           0        0.129221    1.201206   -0.225479
      5          6           0       -3.280458   -0.938210    0.136343
      6          8           0       -0.861677    1.723803    0.249676
      7          1           0        2.449936    0.467028    1.026107
      8          1           0        2.097589   -1.253236    1.376263
      9          1           0        3.489714   -0.815328    0.331295
     10          1           0       -0.112114   -0.825600    0.496609
     11          1           0       -0.223224   -0.629205   -1.266928
     12          1           0        0.978323    1.801476   -0.640407
     13          1           0       -4.343531   -0.758922    0.337982
     14          1           0       -2.914228   -1.729156    0.803305
     15          1           0       -3.159653   -1.258373   -0.906532
     16          1           0       -2.712184   -0.016552    0.307845
 ---------------------------------------------------------------------

 SCF Done:  E(RHF) =  -308.431853335     A.U. after    2 cycles

 The electronic state is 1-A.
 Alpha  occ. eigenvalues --  -21.07503 -21.06908 -11.49848 -11.43420 -11.41897
 Alpha  occ. eigenvalues --  -11.35119  -1.77543  -1.70556  -1.08657  -1.01958
 Alpha  occ. eigenvalues --   -0.96920  -0.83320  -0.67168  -0.64075  -0.63134
 Alpha  occ. eigenvalues --   -0.58120  -0.54176  -0.53215  -0.52916  -0.52726
 Alpha  occ. eigenvalues --   -0.51446  -0.43383  -0.41172  -0.33920  -0.28847
 Alpha virt. eigenvalues --    0.03351   0.04632   0.05301   0.05594   0.05756
 Alpha virt. eigenvalues --    0.06464   0.07196   0.08086   0.08886   0.09729
 Alpha virt. eigenvalues --    0.10705   0.11784   0.12981   0.13281   0.14274

 Mulliken charges:
               1
     1  C   -2.867987
     2  O   -3.106633
     3  C   -1.117750
     4  C    1.306145
     5  C   -5.215258
     6  O   -2.871759
     7  H    1.413055
     8  H    1.327381
     9  H    1.248393
    10  H    1.708908
    11  H    1.418040
    12  H    1.574709
    13  H    1.181672
    14  H    1.263363
    15  H    1.265693
    16  H    1.472027
 Sum of Mulliken charges =   0.00000

 Dipole moment (field-independent basis, Debye):
    X=              1.0208    Y=             -0.6374    Z=              0.0824  Tot=              1.2063

 Test job not archived.
 1\1\GINC-SE051\SP\RHF\Aug-CC-pVDZ\C4H10O2\OHZDE\09-Apr-2025\0\\#t hf a
 ug-cc-pvdz iop(5/13=1,5/36=2,99/5=2) pseudo=read geom=check guess=(rea
 d,tcheck) scf=(maxcycle=1)\\title\\0,1\C,0,2.63841055,-0.53277445,-0.6
 7194738\O,0,1.96109599,0.63941072,-0.23270906\C,0,0.59725133,0.3926999
 1,0.04591558\C,0,0.39801091,-0.35390071,1.36440647\C,0,-3.05061899,0.4
 4283157,-0.58651582\O,0,-0.62245865,-0.93445799,1.68433604\H,0,2.60401
 815,-1.34163409,0.08022818\H,0,2.20787689,-0.91834393,-1.61386848\H,0,
 3.68325039,-0.24881989,-0.84137572\H,0,0.07979812,-0.14768897,-0.76721

 Normal termination of Gaussian 16 at Wed Apr  9 03:07:33 2025.
