 Gaussian 16, Revision C.01,

 ----------------------------------------------------------------------
 #t hf aug-cc-pvdz symm=none int=(grid=ultrafine) guess=(read,tcheck) s
 table=(opt,rrhf)
 ----------------------------------------------------------------------
 -----
 title
 -----
 Symbolic Z-matrix:
 Charge =  0 Multiplicity = 1

 SCF Done:  E(RHF) =  -316.422115915     A.U. after   16 cycles
 Normal termination of Gaussian 16 at Wed Apr  9 18:34:09 2025.
 Gaussian 16:  ES64L-G16RevC.01  3-Jul-2019

 ----------------------------------------------------------------------
 #t hf aug-cc-pvdz iop(5/13=1,5/36=2,99/5=2) pseudo=read geom=check gue
 ss=(read,tcheck) scf=(maxcycle=1)
 ----------------------------------------------------------------------
 -----
 title
 -----
 Structure from the checkpoint file:  "Grambow2020_wb97xd3_007272_forward_mol1.chk"
 Charge =  0 Multiplicity = 1

                         Standard orientation:
 ---------------------------------------------------------------------
 Center     Atomic      Atomic             Coordinates (Angstroms)
 Number     Number       Type             X           Y           Z
 ---------------------------------------------------------------------
      1          7           0        2.872117   -0.017685    0.009979
      2          6           0        1.726441   -0.091940    0.000452
      3          6           0        0.302922   -0.111002   -0.020381
      4          7           0       -0.470068   -1.147946   -0.005837
      5          6           0       -1.758162   -0.675565    0.008885
      6          6           0       -1.914636    0.693356   -0.086782
      7          7           0       -0.450043    1.060967   -0.008860
      8          1           0       -2.574943   -1.380174    0.054682
      9          1           0       -1.112228    1.270794    0.915763
     10          1           0       -0.116267    1.952934   -0.350461
 ---------------------------------------------------------------------

 SCF Done:  E(RHF) =  -317.849750169     A.U. after    2 cycles

 The electronic state is 1-A.
 Alpha  occ. eigenvalues --  -15.88232 -15.79791 -15.79749 -11.52931 -11.46581
 Alpha  occ. eigenvalues --  -11.43431 -11.40075  -1.63330  -1.35386  -1.33663
 Alpha  occ. eigenvalues --   -1.14311  -0.92605  -0.87491  -0.81932  -0.73185
 Alpha  occ. eigenvalues --   -0.63641  -0.58667  -0.55053  -0.52053  -0.49328
 Alpha  occ. eigenvalues --   -0.46076  -0.45477  -0.37487  -0.34352
 Alpha virt. eigenvalues --    0.02406   0.05132   0.05569   0.07688   0.08054
 Alpha virt. eigenvalues --    0.09443   0.09609   0.10772   0.10991   0.12029
 Alpha virt. eigenvalues --    0.12759   0.13169   0.14035   0.14341   0.15061

 Mulliken charges:
               1
     1  N   -2.642222
     2  C    1.670004
     3  C    4.035934
     4  N   -3.322763
     5  C    1.030046
     6  C   -1.592752
     7  N   -2.642684
     8  H    1.642569
     9  H    1.081559
    10  H    0.740310
 Sum of Mulliken charges =  -0.00000

 Dipole moment (field-independent basis, Debye):
    X=             -0.2963    Y=              1.7349    Z=              0.3514  Tot=              1.7948

 Test job not archived.
 1\1\GINC-SE135\SP\RHF\Aug-CC-pVDZ\C4H3N3\OHZDE\09-Apr-2025\0\\#t hf au
 g-cc-pvdz iop(5/13=1,5/36=2,99/5=2) pseudo=read geom=check guess=(read
 ,tcheck) scf=(maxcycle=1)\\title\\0,1\N,0,3.13885923,-0.45221771,0.630
 54257\C,0,2.01385782,-0.42699365,0.40270157\C,0,0.62640806,-0.32543155
 ,0.09959445\N,0,-0.2541964,-1.27261211,0.11862317\C,0,-1.4574087,-0.69
 463408,-0.19881729\C,0,-1.4292403,0.64486117,-0.53428456\N,0,0.0293851
 6,0.89154321,-0.22155337\H,0,-2.34683672,-1.30660023,-0.20969646\H,0,-
 0.76140852,1.31650823,0.50748382\H,0,0.52415838,1.67762272,-0.62277789

 Normal termination of Gaussian 16 at Wed Apr  9 18:34:12 2025.
