 Gaussian 16, Revision C.01,

 ----------------------------------------------------------------------
 #t hf aug-cc-pvdz symm=none int=(grid=ultrafine) guess=(read,tcheck) s
 table=(opt,rrhf)
 ----------------------------------------------------------------------
 -----
 title
 -----
 Symbolic Z-matrix:
 Charge =  0 Multiplicity = 1

 SCF Done:  E(RHF) =  -307.762317179     A.U. after   15 cycles

 1\1\GINC-SE340\Stability\RHF\Aug-CC-pVDZ\C6H10O1\OHZDE\09-Apr-2025\0\\
 #t hf aug-cc-pvdz symm=none int=(grid=ultrafine) guess=(read,tcheck) s
 table=(opt,rrhf)\\title\\0,1\C,0,2.38339437,1.43345927,-0.29419706\C,0
 ,0.56018293,-1.03810312,0.38187335\C,0,-0.53565385,-1.45307266,1.00621
 038\C,0,-1.78634283,-0.7875072,0.50323808\C,0,-1.29225987,0.00647235,-
 0.7206026\C,0,0.23539157,0.03151588,-0.61614499\O,0,0.70479532,1.33241
 158,-0.13197339\H,0,2.47954949,2.40558736,0.22093375\H,0,2.37248182,1.
 7213018,-1.35943133\H,0,1.58064994,-1.33552357,0.57602408\H,0,-0.54760

 Normal termination of Gaussian 16 at Wed Apr  9 18:52:51 2025.
 Gaussian 16:  ES64L-G16RevC.01  3-Jul-2019

 ----------------------------------------------------------------------
 #t hf aug-cc-pvdz iop(5/13=1,5/36=2,99/5=2) pseudo=read geom=check gue
 ss=(read,tcheck) scf=(maxcycle=1)
 ----------------------------------------------------------------------
 -----
 title
 -----
 Structure from the checkpoint file:  "Grambow2020_wb97xd3_007743_reverse_mol2.chk"
 Charge =  0 Multiplicity = 1

                         Standard orientation:
 ---------------------------------------------------------------------
 Center     Atomic      Atomic             Coordinates (Angstroms)
 Number     Number       Type             X           Y           Z
 ---------------------------------------------------------------------
      1          6           0       -2.733210    0.361649    0.028643
      2          6           0        0.288035    1.134067   -0.377856
      3          6           0        1.510140    1.086759    0.138938
      4          6           0        1.997521   -0.316893    0.367852
      5          6           0        0.906975   -1.178577   -0.295861
      6          6           0       -0.282698   -0.243136   -0.530138
      7          8           0       -1.329619   -0.468649    0.469958
      8          1           0       -3.287238    0.129733    0.955415
      9          1           0       -3.098275   -0.407512   -0.673365
     10          1           0       -0.296560    2.013839   -0.605359
     11          1           0        2.106034    1.956932    0.387556
     12          1           0        2.107761   -0.520231    1.437772
     13          1           0        2.980047   -0.485751   -0.077488
     14          1           0        1.257565   -1.543962   -1.261741
     15          1           0        0.615746   -2.049245    0.291588
     16          1           0       -0.803084   -0.415762   -1.469317
     17          1           0       -1.065621    0.007931    1.265806
 ---------------------------------------------------------------------

 SCF Done:  E(RHF) =  -309.231856819     A.U. after    2 cycles

 The electronic state is 1-A.
 Alpha  occ. eigenvalues --  -21.12680 -11.49292 -11.46851 -11.42412 -11.40235
 Alpha  occ. eigenvalues --  -11.36786 -11.33660  -1.79959  -1.32808  -1.05870
 Alpha  occ. eigenvalues --   -1.03953  -0.90113  -0.84818  -0.78923  -0.72521
 Alpha  occ. eigenvalues --   -0.66444  -0.61104  -0.56722  -0.54112  -0.51794
 Alpha  occ. eigenvalues --   -0.50173  -0.48580  -0.47516  -0.45584  -0.40859
 Alpha  occ. eigenvalues --   -0.35065  -0.26328
 Alpha virt. eigenvalues --    0.03278   0.04806   0.05049   0.05227   0.05298
 Alpha virt. eigenvalues --    0.06260   0.06509   0.07188   0.07929   0.09037
 Alpha virt. eigenvalues --    0.11630   0.11870   0.12286   0.12713   0.13516

 Mulliken charges:
               1
     1  C   -2.806506
     2  C   -0.222833
     3  C   -0.189232
     4  C   -3.657557
     5  C   -3.533373
     6  C   -0.397741
     7  O   -2.690081
     8  H    1.164463
     9  H    1.302877
    10  H    1.525473
    11  H    1.422295
    12  H    1.272358
    13  H    1.242367
    14  H    1.267681
    15  H    1.384576
    16  H    1.899663
    17  H    1.015571
 Sum of Mulliken charges =  -0.00000

 Dipole moment (field-independent basis, Debye):
    X=              3.7492    Y=             -2.1485    Z=              0.8664  Tot=              4.4072

 Test job not archived.
 1\1\GINC-SE340\SP\RHF\Aug-CC-pVDZ\C6H10O1\OHZDE\09-Apr-2025\0\\#t hf a
 ug-cc-pvdz iop(5/13=1,5/36=2,99/5=2) pseudo=read geom=check guess=(rea
 d,tcheck) scf=(maxcycle=1)\\title\\0,1\C,0,2.38339437,1.43345927,-0.29
 419706\C,0,0.56018293,-1.03810312,0.38187335\C,0,-0.53565385,-1.453072
 66,1.00621038\C,0,-1.78634283,-0.7875072,0.50323808\C,0,-1.29225987,0.
 00647235,-0.7206026\C,0,0.23539157,0.03151588,-0.61614499\O,0,0.704795
 32,1.33241158,-0.13197339\H,0,2.47954949,2.40558736,0.22093375\H,0,2.3
 7248182,1.7213018,-1.35943133\H,0,1.58064994,-1.33552357,0.57602408\H,

 Normal termination of Gaussian 16 at Wed Apr  9 18:52:55 2025.
