 Gaussian 16, Revision C.01,

 ----------------------------------------------------------------------
 #t hf aug-cc-pvdz symm=none int=(grid=ultrafine) guess=(read,tcheck) s
 table=(opt,rrhf)
 ----------------------------------------------------------------------
 -----
 title
 -----
 Symbolic Z-matrix:
 Charge =  0 Multiplicity = 1

 SCF Done:  E(RHF) =  -302.701654375     A.U. after   17 cycles
 Normal termination of Gaussian 16 at Wed Apr  9 04:05:49 2025.
 Gaussian 16:  ES64L-G16RevC.01  3-Jul-2019

 ----------------------------------------------------------------------
 #t hf aug-cc-pvdz iop(5/13=1,5/36=2,99/5=2) pseudo=read geom=check gue
 ss=(read,tcheck) scf=(maxcycle=1)
 ----------------------------------------------------------------------
 -----
 title
 -----
 Structure from the checkpoint file:  "Grambow2020_wb97xd3_009336_forward_mol1.chk"
 Charge =  0 Multiplicity = 1

                         Standard orientation:
 ---------------------------------------------------------------------
 Center     Atomic      Atomic             Coordinates (Angstroms)
 Number     Number       Type             X           Y           Z
 ---------------------------------------------------------------------
      1          6           0        2.328506   -0.638615    0.164721
      2          7           0        1.145624    0.055881   -0.141755
      3          6           0        0.097229   -0.869977   -0.204765
      4          6           0       -1.077497   -0.070203    0.032784
      5          6           0       -2.490686   -0.530519    0.106493
      6          6           0       -0.593239    1.217700    0.028168
      7          7           0        0.768198    1.289427   -0.047917
      8          1           0        1.038306   -1.683766    0.240250
      9          1           0        2.391580   -0.879693    1.221017
     10          1           0        3.240978   -0.219592   -0.250461
     11          1           0        0.096768   -1.452811   -1.127699
     12          1           0       -3.177741    0.315342    0.112157
     13          1           0       -2.666781   -1.113046    1.013263
     14          1           0       -2.746827   -1.170042   -0.742035
     15          1           0       -1.158908    2.136135    0.096806
 ---------------------------------------------------------------------

 SCF Done:  E(RHF) =  -304.179260583     A.U. after    2 cycles

 The electronic state is 1-A.
 Alpha  occ. eigenvalues --  -15.83556 -15.77700 -11.46122 -11.44220 -11.41649
 Alpha  occ. eigenvalues --  -11.39058 -11.37064  -1.65606  -1.25769  -1.21002
 Alpha  occ. eigenvalues --   -1.04965  -0.95568  -0.83526  -0.78243  -0.70365
 Alpha  occ. eigenvalues --   -0.66299  -0.60413  -0.58557  -0.57515  -0.54439
 Alpha  occ. eigenvalues --   -0.52544  -0.49992  -0.45594  -0.40634  -0.33896
 Alpha  occ. eigenvalues --   -0.25667
 Alpha virt. eigenvalues --    0.03044   0.05183   0.05492   0.05626   0.06096
 Alpha virt. eigenvalues --    0.06407   0.06966   0.07922   0.08552   0.10127
 Alpha virt. eigenvalues --    0.11419   0.11859   0.12180   0.13095   0.13459

 Mulliken charges:
               1
     1  C   -2.399755
     2  N   -1.055282
     3  C   -2.759540
     4  C    3.807333
     5  C   -4.533498
     6  C   -0.852381
     7  N   -2.209742
     8  H    1.172384
     9  H    1.303525
    10  H    1.402126
    11  H    0.980917
    12  H    1.255682
    13  H    1.241557
    14  H    1.197720
    15  H    1.448955
 Sum of Mulliken charges =   0.00000

 Dipole moment (field-independent basis, Debye):
    X=             -2.4894    Y=             -0.2355    Z=             -0.1915  Tot=              2.5078

 Test job not archived.
 1\1\GINC-SE456\SP\RHF\Aug-CC-pVDZ\C5H8N2\OHZDE\09-Apr-2025\0\\#t hf au
 g-cc-pvdz iop(5/13=1,5/36=2,99/5=2) pseudo=read geom=check guess=(read
 ,tcheck) scf=(maxcycle=1)\\title\\0,1\C,0,-2.51108239,-0.3703143,-0.19
 829097\N,0,-1.31826264,0.14743866,0.33516574\C,0,-0.26200407,-0.677018
 47,-0.07091849\C,0,0.89337545,0.17854101,0.0248179\C,0,2.3036973,-0.15
 799079,-0.31009419\C,0,0.40166287,1.31268624,0.62909746\N,0,-0.9543265
 8,1.30255305,0.78920512\H,0,-1.21986842,-1.23207878,-0.7922511\H,0,-2.
 62805059,-0.11376074,-1.24631578\H,0,-3.40316385,-0.20908313,0.4006724

 Normal termination of Gaussian 16 at Wed Apr  9 04:05:54 2025.
