 Gaussian 16, Revision C.01,

 ----------------------------------------------------------------------
 #t hf aug-cc-pvdz symm=none int=(grid=ultrafine) guess=(read,tcheck) s
 table=(opt,rrhf)
 ----------------------------------------------------------------------
 -----
 title
 -----
 Symbolic Z-matrix:
 Charge =  0 Multiplicity = 1

 SCF Done:  E(RHF) =  -322.686242516     A.U. after   13 cycles
 Normal termination of Gaussian 16 at Wed Apr  9 18:10:36 2025.
 Gaussian 16:  ES64L-G16RevC.01  3-Jul-2019

 ----------------------------------------------------------------------
 #t hf aug-cc-pvdz iop(5/13=1,5/36=2,99/5=2) pseudo=read geom=check gue
 ss=(read,tcheck) scf=(maxcycle=1)
 ----------------------------------------------------------------------
 -----
 title
 -----
 Structure from the checkpoint file:  "Grambow2020_wb97xd3_006632_reverse_mol2.chk"
 Charge =  0 Multiplicity = 1

                         Standard orientation:
 ---------------------------------------------------------------------
 Center     Atomic      Atomic             Coordinates (Angstroms)
 Number     Number       Type             X           Y           Z
 ---------------------------------------------------------------------
      1          8           0        3.297280   -0.169020   -0.298313
      2          6           0        2.864409    0.640857    0.348506
      3          6           0       -1.215052    1.276591   -0.210190
      4          6           0       -1.632124   -0.004965   -0.792421
      5          6           0       -0.590699   -1.083159   -0.550812
      6          6           0       -0.714781   -0.711793    0.941984
      7          7           0       -1.805519    0.273765    0.672789
      8          1           0       -0.157890    1.507106   -0.106455
      9          1           0       -1.857173    2.134293   -0.366617
     10          1           0       -2.482960   -0.087289   -1.458200
     11          1           0        0.372699   -0.949228   -1.045700
     12          1           0       -0.957165   -2.087055   -0.757773
     13          1           0        0.159177   -0.265106    1.422831
     14          1           0       -1.086813   -1.522108    1.566499
 ---------------------------------------------------------------------

 SCF Done:  E(RHF) =  -324.163887054     A.U. after    2 cycles

 The electronic state is 1-A.
 Alpha  occ. eigenvalues --  -21.18699 -15.71090 -11.51738 -11.48542 -11.43227
 Alpha  occ. eigenvalues --  -11.40008 -11.36609  -1.81533  -1.52600  -1.09733
 Alpha  occ. eigenvalues --   -0.99715  -0.87367  -0.77799  -0.72965  -0.70480
 Alpha  occ. eigenvalues --   -0.63564  -0.60293  -0.54011  -0.53891  -0.53753
 Alpha  occ. eigenvalues --   -0.52986  -0.51838  -0.45595  -0.40803  -0.38643
 Alpha  occ. eigenvalues --   -0.31982
 Alpha virt. eigenvalues --    0.04456   0.05683   0.05809   0.06013   0.06702
 Alpha virt. eigenvalues --    0.07046   0.07167   0.09297   0.10680   0.11100
 Alpha virt. eigenvalues --    0.11479   0.12552   0.13176   0.13745   0.14080

 Mulliken charges:
               1
     1  O   -0.917810
     2  C    0.946116
     3  C   -2.088686
     4  C    0.005656
     5  C   -3.507332
     6  C   -2.264849
     7  N   -1.538727
     8  H    1.490681
     9  H    1.329911
    10  H    1.291412
    11  H    1.288208
    12  H    1.176147
    13  H    1.461666
    14  H    1.327608
 Sum of Mulliken charges =   0.00000

 Dipole moment (field-independent basis, Debye):
    X=              1.5535    Y=             -1.4869    Z=             -1.6550  Tot=              2.7135

 Test job not archived.
 1\1\GINC-SE229\SP\RHF\Aug-CC-pVDZ\C5H7N1O1\OHZDE\09-Apr-2025\0\\#t hf
 aug-cc-pvdz iop(5/13=1,5/36=2,99/5=2) pseudo=read geom=check guess=(re
 ad,tcheck) scf=(maxcycle=1)\\title\\0,1\O,0,1.97352807,0.32886312,3.14
 50768\C,0,1.59062946,1.28587154,2.69878581\C,0,0.29188795,0.93307182,-
 1.24419577\C,0,0.01932061,-0.50677356,-1.33296581\C,0,-0.09697184,-1.1
 3011556,0.04665887\C,0,-1.16134766,-0.04746364,0.32363927\N,0,-1.08531
 137,0.47671025,-1.07384424\H,0,0.82042436,1.33325388,-0.38280596\H,0,0
 .44756049,1.47475926,-2.1687396\H,0,0.08608399,-1.05073904,-2.26763393

 Normal termination of Gaussian 16 at Wed Apr  9 18:10:40 2025.
