 Gaussian 16, Revision C.01,

 ----------------------------------------------------------------------
 #t hf aug-cc-pvdz symm=none int=(grid=ultrafine) guess=(read,tcheck) s
 table=(opt,rrhf)
 ----------------------------------------------------------------------
 -----
 title
 -----
 Symbolic Z-matrix:
 Charge =  0 Multiplicity = 1

 SCF Done:  E(RHF) =  -283.515171805     A.U. after   17 cycles
 Normal termination of Gaussian 16 at Wed Apr  9 17:33:13 2025.
 Gaussian 16:  ES64L-G16RevC.01  3-Jul-2019

 ----------------------------------------------------------------------
 #t hf aug-cc-pvdz iop(5/13=1,5/36=2,99/5=2) pseudo=read geom=check gue
 ss=(read,tcheck) scf=(maxcycle=1)
 ----------------------------------------------------------------------
 -----
 title
 -----
 Structure from the checkpoint file:  "Grambow2020_b97d3_007176_reverse_mol1.chk"
 Charge =  0 Multiplicity = 1

                         Standard orientation:
 ---------------------------------------------------------------------
 Center     Atomic      Atomic             Coordinates (Angstroms)
 Number     Number       Type             X           Y           Z
 ---------------------------------------------------------------------
      1          6           0        0.137714    1.652277   -0.023752
      2          7           0       -1.008379    0.840050   -0.169711
      3          6           0       -0.606205   -0.487545    0.031968
      4          8           0       -1.259194   -1.506285   -0.006680
      5          6           0        0.890201   -0.212720    0.275772
      6          6           0        1.977941   -0.859318   -0.208727
      7          1           0        0.656088    1.963143   -0.933093
      8          1           0        1.035022    0.334168    1.235088
      9          1           0        0.115267    2.409652    0.769124
     10          1           0       -1.960553    1.150582    0.013925
     11          1           0        2.888478   -0.243779   -0.295201
 ---------------------------------------------------------------------

 SCF Done:  E(RHF) =  -284.792616907     A.U. after    2 cycles

 The electronic state is 1-A.
 Alpha  occ. eigenvalues --  -21.04548 -15.78478 -11.51875 -11.47459 -11.44161
 Alpha  occ. eigenvalues --  -11.40881  -1.70833  -1.44935  -1.15101  -0.98576
 Alpha  occ. eigenvalues --   -0.91147  -0.74444  -0.67584  -0.66222  -0.64372
 Alpha  occ. eigenvalues --   -0.56901  -0.50804  -0.49852  -0.42766  -0.34656
 Alpha  occ. eigenvalues --   -0.30829  -0.28636
 Alpha virt. eigenvalues --    0.01864   0.03910   0.04506   0.04980   0.05747
 Alpha virt. eigenvalues --    0.06346   0.09168   0.10207   0.11790   0.11973
 Alpha virt. eigenvalues --    0.12350   0.13505   0.14096   0.15139   0.15397

 Mulliken charges:
               1
     1  C   -1.948004
     2  N   -2.399775
     3  C    4.625379
     4  O   -3.022324
     5  C   -0.022749
     6  C   -3.314501
     7  H    1.470266
     8  H    1.410509
     9  H    1.375497
    10  H    0.706219
    11  H    1.119484
 Sum of Mulliken charges =   0.00000

 Dipole moment (field-independent basis, Debye):
    X=             -0.2797    Y=              4.6167    Z=              1.2009  Tot=              4.7785

 Test job not archived.
 1\1\GINC-SE135\SP\RHF\Aug-CC-pVDZ\C4H5N1O1\OHZDE\09-Apr-2025\0\\#t hf
 aug-cc-pvdz iop(5/13=1,5/36=2,99/5=2) pseudo=read geom=check guess=(re
 ad,tcheck) scf=(maxcycle=1)\\title\\0,1\C,0,-0.88043567,0.2452045,-0.8
 0340277\N,0,-0.89390126,-0.92793089,-0.01719848\C,0,0.2454512,-0.89536
 645,0.79873162\O,0,0.6315439,-1.69892756,1.617842\C,0,0.82287357,0.439
 47607,0.28983234\C,0,2.09820699,0.76157851,-0.03541065\H,0,-0.49022974
 ,0.16777222,-1.82025764\H,0,0.16704403,1.28793362,0.5904244\H,0,-1.729
 54577,0.93038796,-0.69246754\H,0,-1.73771567,-1.43025745,0.25193618\H,

 Normal termination of Gaussian 16 at Wed Apr  9 17:33:16 2025.
