 Gaussian 16, Revision C.01,

 ----------------------------------------------------------------------
 #t hf aug-cc-pvdz symm=none int=(grid=ultrafine) guess=(read,tcheck) s
 table=(opt,rrhf)
 ----------------------------------------------------------------------
 -----
 title
 -----
 Symbolic Z-matrix:
 Charge =  0 Multiplicity = 1

 SCF Done:  E(RHF) =  -284.709396774     A.U. after   16 cycles
 Normal termination of Gaussian 16 at Wed Apr  9 03:06:52 2025.
 Gaussian 16:  ES64L-G16RevC.01  3-Jul-2019

 ----------------------------------------------------------------------
 #t hf aug-cc-pvdz iop(5/13=1,5/36=2,99/5=2) pseudo=read geom=check gue
 ss=(read,tcheck) scf=(maxcycle=1)
 ----------------------------------------------------------------------
 -----
 title
 -----
 Structure from the checkpoint file:  "Grambow2020_b97d3_006542_forward_mol1.chk"
 Charge =  0 Multiplicity = 1

                         Standard orientation:
 ---------------------------------------------------------------------
 Center     Atomic      Atomic             Coordinates (Angstroms)
 Number     Number       Type             X           Y           Z
 ---------------------------------------------------------------------
      1          6           0        1.063993    1.160874    0.251767
      2          6           0        1.434879   -0.230158   -0.200754
      3          8           0        0.484277   -1.300092    0.057120
      4          6           0       -0.863163   -1.093627    0.078854
      5          7           0       -1.509634    0.008856    0.015791
      6          6           0       -1.155817    1.255255   -0.284328
      7          1           0        0.845350    1.265333    1.314225
      8          1           0        1.789141    1.906234   -0.096053
      9          1           0        1.625366   -0.238619   -1.284867
     10          1           0        2.351967   -0.574364    0.298900
     11          1           0       -1.380372   -2.038985    0.235156
     12          1           0       -1.433885    1.979305    0.499336
     13          1           0        0.016309    1.485776   -0.607427
 ---------------------------------------------------------------------

 SCF Done:  E(RHF) =  -286.032608361     A.U. after    2 cycles

 The electronic state is 1-A.
 Alpha  occ. eigenvalues --  -21.08603 -15.74636 -11.46581 -11.46163 -11.41031
 Alpha  occ. eigenvalues --  -11.39972  -1.78926  -1.37934  -1.16366  -0.97473
 Alpha  occ. eigenvalues --   -0.92195  -0.75275  -0.69998  -0.64847  -0.61521
 Alpha  occ. eigenvalues --   -0.58743  -0.58130  -0.55105  -0.50641  -0.42887
 Alpha  occ. eigenvalues --   -0.37981  -0.34112  -0.24210
 Alpha virt. eigenvalues --    0.03155   0.05353   0.05446   0.05839   0.05993
 Alpha virt. eigenvalues --    0.06106   0.07407   0.10267   0.10534   0.11697
 Alpha virt. eigenvalues --    0.12555   0.13168   0.14032   0.14573   0.15157

 Mulliken charges:
               1
     1  C   -3.290398
     2  C   -1.332602
     3  O   -3.194101
     4  C    1.979173
     5  N   -2.749359
     6  C   -1.986851
     7  H    1.342791
     8  H    1.082351
     9  H    1.344276
    10  H    1.408015
    11  H    1.817031
    12  H    1.287725
    13  H    2.291949
 Sum of Mulliken charges =   0.00000

 Dipole moment (field-independent basis, Debye):
    X=              2.6757    Y=             -0.5709    Z=              0.8168  Tot=              2.8552

 Test job not archived.
 1\1\GINC-SE188\SP\RHF\Aug-CC-pVDZ\C4H7N1O1\OHZDE\09-Apr-2025\0\\#t hf
 aug-cc-pvdz iop(5/13=1,5/36=2,99/5=2) pseudo=read geom=check guess=(re
 ad,tcheck) scf=(maxcycle=1)\\title\\0,1\C,0,0.59907396,-0.98408394,0.4
 2498085\C,0,-0.80121978,-1.03024843,-0.13568385\O,0,-1.57742483,0.1993
 9247,-0.11589406\C,0,-1.00297189,1.43044171,-0.2308532\N,0,0.23819618,
 1.74139287,-0.2442969\C,0,1.354136,1.02664862,-0.35649147\H,0,0.679079
 2,-0.64927237,1.45892284\H,0,1.13500979,-1.92509248,0.25277512\H,0,-0.
 77981867,-1.36712991,-1.18340164\H,0,-1.42645063,-1.73866586,0.4268218

 Normal termination of Gaussian 16 at Wed Apr  9 03:06:55 2025.
