 Gaussian 16, Revision C.01,

 ----------------------------------------------------------------------
 #t hf aug-cc-pvdz symm=none int=(grid=ultrafine) guess=(read,tcheck) s
 table=(opt,rrhf)
 ----------------------------------------------------------------------
 -----
 title
 -----
 Symbolic Z-matrix:
 Charge =  0 Multiplicity = 1

 SCF Done:  E(RHF) =  -307.760479775     A.U. after   15 cycles

 1\1\GINC-SE114\Stability\RHF\Aug-CC-pVDZ\C6H10O1\OHZDE\09-Apr-2025\0\\
 #t hf aug-cc-pvdz symm=none int=(grid=ultrafine) guess=(read,tcheck) s
 table=(opt,rrhf)\\title\\0,1\C,0,2.01066835,0.59993921,-0.07805612\C,0
 ,0.92788212,-0.43773393,-0.35057033\C,0,0.01401491,-0.81963183,0.84282
 394\C,0,-1.26229633,-0.45847216,0.10901926\O,0,-2.497183,-0.87294081,0
 .57432386\C,0,-1.04121534,0.91124942,-0.46490682\C,0,-0.12901687,0.085
 69738,-1.35526397\H,0,2.74619486,0.20186513,0.62310437\H,0,1.60679389,
 1.51766286,0.35348141\H,0,2.5328895,0.8635734,-0.99955479\H,0,1.407284

 Normal termination of Gaussian 16 at Wed Apr  9 19:19:16 2025.
 Gaussian 16:  ES64L-G16RevC.01  3-Jul-2019

 ----------------------------------------------------------------------
 #t hf aug-cc-pvdz iop(5/13=1,5/36=2,99/5=2) pseudo=read geom=check gue
 ss=(read,tcheck) scf=(maxcycle=1)
 ----------------------------------------------------------------------
 -----
 title
 -----
 Structure from the checkpoint file:  "Grambow2020_wb97xd3_008622_forward_mol1.chk"
 Charge =  0 Multiplicity = 1

                         Standard orientation:
 ---------------------------------------------------------------------
 Center     Atomic      Atomic             Coordinates (Angstroms)
 Number     Number       Type             X           Y           Z
 ---------------------------------------------------------------------
      1          6           0       -2.372269   -0.026318   -0.370727
      2          6           0       -1.144791   -0.317658    0.484769
      3          6           0       -0.015357   -1.147898   -0.178758
      4          6           0        1.043364   -0.092543    0.072661
      5          8           0        2.389783   -0.387817   -0.042271
      6          6           0        0.463748    1.204878   -0.412259
      7          6           0       -0.369829    0.976982    0.836577
      8          1           0       -2.904250   -0.952644   -0.594344
      9          1           0       -2.113463    0.443032   -1.321667
     10          1           0       -3.060262    0.637920    0.155419
     11          1           0       -1.480683   -0.795256    1.406524
     12          1           0       -0.142277   -1.373814   -1.241064
     13          1           0        0.181515   -2.078550    0.352844
     14          1           0        2.825146    0.309347   -0.534982
     15          1           0        1.133436    2.060284   -0.341306
     16          1           0       -0.029839    1.151217   -1.380271
     17          1           0        0.843218    0.116341    1.243446
 ---------------------------------------------------------------------

 SCF Done:  E(RHF) =  -309.241529385     A.U. after    2 cycles

 The electronic state is 1-A.
 Alpha  occ. eigenvalues --  -21.09647 -11.50894 -11.45353 -11.41125 -11.40805
 Alpha  occ. eigenvalues --  -11.38873 -11.35895  -1.74944  -1.38284  -1.11646
 Alpha  occ. eigenvalues --   -1.03081  -0.90732  -0.85598  -0.73287  -0.69384
 Alpha  occ. eigenvalues --   -0.64929  -0.60238  -0.59561  -0.55879  -0.51649
 Alpha  occ. eigenvalues --   -0.51265  -0.50044  -0.45998  -0.43565  -0.38711
 Alpha  occ. eigenvalues --   -0.34623  -0.28514
 Alpha virt. eigenvalues --    0.03688   0.05085   0.05160   0.05442   0.05705
 Alpha virt. eigenvalues --    0.06166   0.06422   0.06878   0.07622   0.09032
 Alpha virt. eigenvalues --    0.10546   0.11867   0.13283   0.13503   0.13859

 Mulliken charges:
               1
     1  C   -4.169771
     2  C   -0.307861
     3  C   -3.666854
     4  C    3.561450
     5  O   -3.504731
     6  C   -3.624694
     7  C   -0.522893
     8  H    1.211400
     9  H    1.290731
    10  H    1.208435
    11  H    1.517055
    12  H    1.360914
    13  H    1.306447
    14  H    0.604562
    15  H    1.305563
    16  H    1.545403
    17  H    0.884845
 Sum of Mulliken charges =  -0.00000

 Dipole moment (field-independent basis, Debye):
    X=              0.6288    Y=             -1.2312    Z=             -2.2438  Tot=              2.6355

 Test job not archived.
 1\1\GINC-SE114\SP\RHF\Aug-CC-pVDZ\C6H10O1\OHZDE\09-Apr-2025\0\\#t hf a
 ug-cc-pvdz iop(5/13=1,5/36=2,99/5=2) pseudo=read geom=check guess=(rea
 d,tcheck) scf=(maxcycle=1)\\title\\0,1\C,0,2.01066835,0.59993921,-0.07
 805612\C,0,0.92788212,-0.43773393,-0.35057033\C,0,0.01401491,-0.819631
 83,0.84282394\C,0,-1.26229633,-0.45847216,0.10901926\O,0,-2.497183,-0.
 87294081,0.57432386\C,0,-1.04121534,0.91124942,-0.46490682\C,0,-0.1290
 1687,0.08569738,-1.35526397\H,0,2.74619486,0.20186513,0.62310437\H,0,1
 .60679389,1.51766286,0.35348141\H,0,2.5328895,0.8635734,-0.99955479\H,

 Normal termination of Gaussian 16 at Wed Apr  9 19:19:22 2025.
