 Gaussian 16, Revision C.01,

 ----------------------------------------------------------------------
 #t hf aug-cc-pvdz symm=none int=(grid=ultrafine) guess=(read,tcheck) s
 table=(opt,rrhf)
 ----------------------------------------------------------------------
 -----
 title
 -----
 Symbolic Z-matrix:
 Charge =  0 Multiplicity = 1

 SCF Done:  E(RHF) =  -380.765953108     A.U. after   14 cycles
 Normal termination of Gaussian 16 at Wed Apr  9 19:15:01 2025.
 Gaussian 16:  ES64L-G16RevC.01  3-Jul-2019

 ----------------------------------------------------------------------
 #t hf aug-cc-pvdz iop(5/13=1,5/36=2,99/5=2) pseudo=read geom=check gue
 ss=(read,tcheck) scf=(maxcycle=1)
 ----------------------------------------------------------------------
 -----
 title
 -----
 Structure from the checkpoint file:  "Grambow2020_wb97xd3_008487_reverse_mol2.chk"
 Charge =  0 Multiplicity = 1

                         Standard orientation:
 ---------------------------------------------------------------------
 Center     Atomic      Atomic             Coordinates (Angstroms)
 Number     Number       Type             X           Y           Z
 ---------------------------------------------------------------------
      1          6           0        1.139605    1.954452   -0.020738
      2          8           0        0.696779    0.596251   -0.045601
      3          6           0       -0.641008    0.415641    0.000415
      4          8           0       -1.415076    1.329645    0.075333
      5          6           0       -0.988892   -1.024540   -0.053734
      6          6           0       -2.256793   -1.402353   -0.001437
      7          8           0        2.447193   -1.778526   -0.051953
      8          1           0        0.809718    2.445090    0.894316
      9          1           0        2.224949    1.913150   -0.064406
     10          1           0        0.743462    2.496665   -0.878586
     11          1           0       -0.173283   -1.733050   -0.141943
     12          1           0        1.987277   -0.932738   -0.095883
     13          1           0       -3.046577   -0.664906    0.083572
     14          1           0       -2.533910   -2.448021   -0.042815
     15          1           0        2.639721   -1.914340    0.876474
 ---------------------------------------------------------------------

 SCF Done:  E(RHF) =  -382.437405288     A.U. after    2 cycles

 The electronic state is 1-A.
 Alpha  occ. eigenvalues --  -21.10466 -21.08548 -21.05324 -11.53425 -11.43924
 Alpha  occ. eigenvalues --  -11.42538 -11.40006  -1.86159  -1.67354  -1.65120
 Alpha  occ. eigenvalues --   -1.19037  -1.04006  -0.89333  -0.74982  -0.70758
 Alpha  occ. eigenvalues --   -0.64563  -0.64206  -0.62014  -0.58410  -0.54039
 Alpha  occ. eigenvalues --   -0.53665  -0.52089  -0.46814  -0.42045  -0.37549
 Alpha  occ. eigenvalues --   -0.34494  -0.33292  -0.30810
 Alpha virt. eigenvalues --    0.03145   0.04973   0.05398   0.05894   0.06382
 Alpha virt. eigenvalues --    0.06478   0.07965   0.08583   0.09877   0.10794
 Alpha virt. eigenvalues --    0.12838   0.13597   0.13637   0.14202   0.14659

 Mulliken charges:
               1
     1  C   -3.127511
     2  O   -3.627359
     3  C    6.216376
     4  O   -3.398313
     5  C   -1.728380
     6  C   -3.076411
     7  O   -2.145779
     8  H    1.400816
     9  H    1.325777
    10  H    1.398310
    11  H    1.539035
    12  H    1.640864
    13  H    1.509696
    14  H    1.375158
    15  H    0.697722
 Sum of Mulliken charges =  -0.00000

 Dipole moment (field-independent basis, Debye):
    X=              0.0660    Y=              0.2810    Z=              0.6097  Tot=              0.6746

 Test job not archived.
 1\1\GINC-SE035\SP\RHF\Aug-CC-pVDZ\C4H8O3\OHZDE\09-Apr-2025\0\\#t hf au
 g-cc-pvdz iop(5/13=1,5/36=2,99/5=2) pseudo=read geom=check guess=(read
 ,tcheck) scf=(maxcycle=1)\\title\\0,1\C,0,-2.18179252,-0.43885868,0.30
 103092\O,0,-0.78172352,-0.15837145,0.35159189\C,0,-0.21319221,0.197653
 ,-0.82076947\O,0,-0.831791,0.26002166,-1.84724007\C,0,1.2308065,0.4867
 6453,-0.64942644\C,0,1.96524399,0.83570955,-1.69436164\O,0,0.93592132,
 -0.42536991,2.73527883\H,0,-2.37969224,-1.26396661,-0.38227586\H,0,-2.
 46782719,-0.70366278,1.31574684\H,0,-2.73133332,0.44037902,-0.03329577

 Normal termination of Gaussian 16 at Wed Apr  9 19:15:06 2025.
