 Gaussian 16, Revision C.01,

 ----------------------------------------------------------------------
 #t hf aug-cc-pvdz symm=none int=(grid=ultrafine) guess=(read,tcheck) s
 table=(opt,rrhf)
 ----------------------------------------------------------------------
 -----
 title
 -----
 Symbolic Z-matrix:
 Charge =  0 Multiplicity = 1

 SCF Done:  E(RHF) =  -343.715887201     A.U. after   13 cycles
 Normal termination of Gaussian 16 at Wed Apr  9 19:31:12 2025.
 Gaussian 16:  ES64L-G16RevC.01  3-Jul-2019

 ----------------------------------------------------------------------
 #t hf aug-cc-pvdz iop(5/13=1,5/36=2,99/5=2) pseudo=read geom=check gue
 ss=(read,tcheck) scf=(maxcycle=1)
 ----------------------------------------------------------------------
 -----
 title
 -----
 Structure from the checkpoint file:  "Grambow2020_wb97xd3_009103_reverse_mol2.chk"
 Charge =  0 Multiplicity = 1

                         Standard orientation:
 ---------------------------------------------------------------------
 Center     Atomic      Atomic             Coordinates (Angstroms)
 Number     Number       Type             X           Y           Z
 ---------------------------------------------------------------------
      1          6           0        0.316305    1.522696   -0.069406
      2          6           0       -0.986030    1.263758    0.006342
      3          8           0       -1.633485    0.090263    0.180059
      4          6           0       -1.026512   -1.107570   -0.269472
      5          6           0        0.338643   -1.415124    0.310993
      6          8           0        1.368600   -0.707845   -0.327993
      7          6           0        1.506166    0.621994    0.108473
      8          1           0        2.350402    1.026889   -0.451029
      9          1           0        0.557835    2.572466   -0.195742
     10          1           0       -1.698868    2.079319   -0.048412
     11          1           0       -0.936023   -1.075201   -1.361432
     12          1           0       -1.728722   -1.895894    0.005645
     13          1           0        0.345009   -1.232408    1.395435
     14          1           0        0.544719   -2.475005    0.144155
     15          1           0        1.793290    0.625961    1.173263
 ---------------------------------------------------------------------

 SCF Done:  E(RHF) =  -345.272491791     A.U. after    2 cycles

 The electronic state is 1-A.
 Alpha  occ. eigenvalues --  -21.07024 -21.04609 -11.46503 -11.45705 -11.44283
 Alpha  occ. eigenvalues --  -11.39572 -11.37440  -1.80322  -1.74820  -1.17743
 Alpha  occ. eigenvalues --   -1.07462  -0.99786  -0.84716  -0.75609  -0.70012
 Alpha  occ. eigenvalues --   -0.67149  -0.62818  -0.61178  -0.58241  -0.56105
 Alpha  occ. eigenvalues --   -0.50543  -0.48165  -0.44391  -0.40377  -0.36644
 Alpha  occ. eigenvalues --   -0.29504  -0.27301
 Alpha virt. eigenvalues --    0.03571   0.05081   0.05282   0.05859   0.06073
 Alpha virt. eigenvalues --    0.06285   0.06623   0.07269   0.10698   0.12039
 Alpha virt. eigenvalues --    0.12534   0.13347   0.13589   0.14033   0.14534

 Mulliken charges:
               1
     1  C   -0.676742
     2  C    0.682578
     3  O   -3.748190
     4  C   -1.513933
     5  C   -1.428813
     6  O   -3.021002
     7  C   -1.598512
     8  H    1.161324
     9  H    1.330986
    10  H    1.671531
    11  H    1.594029
    12  H    1.337002
    13  H    1.596610
    14  H    1.278223
    15  H    1.334909
 Sum of Mulliken charges =   0.00000

 Dipole moment (field-independent basis, Debye):
    X=             -0.1354    Y=             -0.4408    Z=              0.2343  Tot=              0.5172

 Test job not archived.
 1\1\GINC-SE135\SP\RHF\Aug-CC-pVDZ\C5H8O2\OHZDE\09-Apr-2025\0\\#t hf au
 g-cc-pvdz iop(5/13=1,5/36=2,99/5=2) pseudo=read geom=check guess=(read
 ,tcheck) scf=(maxcycle=1)\\title\\0,1\C,0,-1.5022749,-0.23484251,0.303
 49513\C,0,-1.34226354,0.51220584,-0.78516389\O,0,-0.21461672,0.8786928
 1,-1.433673\C,0,0.99592156,0.98941961,-0.70728753\C,0,1.4465378,-0.260
 31015,0.02092636\O,0,0.7829226,-0.441048,1.24416288\C,0,-0.50120616,-1
 .00128065,1.12148484\H,0,-0.87350854,-1.10380779,2.14158142\H,0,-2.535
 72887,-0.38310506,0.59727367\H,0,-2.21320239,0.90301862,-1.29995347\H,

 Normal termination of Gaussian 16 at Wed Apr  9 19:31:17 2025.
