 Gaussian 16, Revision C.01,

 ----------------------------------------------------------------------
 #t hf aug-cc-pvdz symm=none int=(grid=ultrafine) guess=(read,tcheck) s
 table=(opt,rrhf)
 ----------------------------------------------------------------------
 -----
 title
 -----
 Symbolic Z-matrix:
 Charge =  0 Multiplicity = 1

 SCF Done:  E(RHF) =  -308.977781187     A.U. after   14 cycles

 1\1\GINC-SE224\Stability\RHF\Aug-CC-pVDZ\C6H12O1\OHZDE\09-Apr-2025\0\\
 #t hf aug-cc-pvdz symm=none int=(grid=ultrafine) guess=(read,tcheck) s
 table=(opt,rrhf)\\title\\0,1\C,0,2.55306179,0.08339261,-0.44018646\C,0
 ,1.57839897,-0.13182511,0.75154997\O,0,2.23722771,0.09516833,1.9776434
 8\C,0,0.53551909,0.83867829,0.45415626\C,0,-0.45561372,0.36879931,-0.5
 300333\C,0,-1.70527404,0.02140458,0.31897355\C,0,-2.84643744,-0.483061
 02,-0.55503181\H,0,2.18546429,-0.37737174,-1.35640483\H,0,3.49551488,-
 0.37821725,-0.14967609\H,0,2.73630987,1.14565994,-0.61538695\H,0,1.248

 Normal termination of Gaussian 16 at Wed Apr  9 18:43:56 2025.
 Gaussian 16:  ES64L-G16RevC.01  3-Jul-2019

 ----------------------------------------------------------------------
 #t hf aug-cc-pvdz iop(5/13=1,5/36=2,99/5=2) pseudo=read geom=check gue
 ss=(read,tcheck) scf=(maxcycle=1)
 ----------------------------------------------------------------------
 -----
 title
 -----
 Structure from the checkpoint file:  "Grambow2020_wb97xd3_007567_reverse_mol2.chk"
 Charge =  0 Multiplicity = 1

                         Standard orientation:
 ---------------------------------------------------------------------
 Center     Atomic      Atomic             Coordinates (Angstroms)
 Number     Number       Type             X           Y           Z
 ---------------------------------------------------------------------
      1          6           0        2.068581    1.227549   -0.139623
      2          6           0        1.397233   -0.164497   -0.307025
      3          8           0        2.346983   -1.194889   -0.148429
      4          6           0        0.386344   -0.128337    0.739261
      5          6           0       -0.844202    0.587008    0.357427
      6          6           0       -1.873907   -0.538969    0.083510
      7          6           0       -3.225571    0.033183   -0.324253
      8          1           0        1.458533    2.027745   -0.557254
      9          1           0        3.017389    1.173686   -0.671187
     10          1           0        2.280418    1.441673    0.910121
     11          1           0        0.999440   -0.231734   -1.330283
     12          1           0        2.212164   -1.537085    0.741382
     13          1           0       -1.498644   -1.195738   -0.706355
     14          1           0       -0.773360    1.220114   -0.539859
     15          1           0       -1.225894    1.183661    1.189898
     16          1           0       -1.974967   -1.153886    0.979390
     17          1           0       -3.146771    0.629637   -1.235498
     18          1           0       -3.632340    0.673552    0.461027
     19          1           0       -3.942702   -0.768128   -0.509732
 ---------------------------------------------------------------------

 SCF Done:  E(RHF) =  -310.475251941     A.U. after    2 cycles

 The electronic state is 1-A.
 Alpha  occ. eigenvalues --  -21.05716 -11.45936 -11.43022 -11.41318 -11.39423
 Alpha  occ. eigenvalues --  -11.37782 -11.36088  -1.71327  -1.27312  -1.14740
 Alpha  occ. eigenvalues --   -1.03914  -0.92327  -0.85525  -0.76839  -0.66257
 Alpha  occ. eigenvalues --   -0.63934  -0.61056  -0.58365  -0.55106  -0.54658
 Alpha  occ. eigenvalues --   -0.52763  -0.50598  -0.48869  -0.47907  -0.46613
 Alpha  occ. eigenvalues --   -0.37917  -0.32507  -0.30928
 Alpha virt. eigenvalues --    0.03982   0.04894   0.05075   0.05500   0.05702
 Alpha virt. eigenvalues --    0.05904   0.06146   0.06789   0.07371   0.07865
 Alpha virt. eigenvalues --    0.08255   0.09240   0.10210   0.11544   0.12707

 Mulliken charges:
               1
     1  C   -3.784952
     2  C    1.348403
     3  O   -3.154323
     4  C   -1.541631
     5  C   -2.261414
     6  C   -2.626662
     7  C   -3.897284
     8  H    1.259016
     9  H    1.160517
    10  H    1.252549
    11  H    1.725300
    12  H    0.713498
    13  H    1.457178
    14  H    1.752595
    15  H    1.492341
    16  H    1.414928
    17  H    1.329973
    18  H    1.270299
    19  H    1.089671
 Sum of Mulliken charges =   0.00000

 Dipole moment (field-independent basis, Debye):
    X=             -1.4154    Y=              1.0164    Z=             -1.1486  Tot=              2.0871

 Test job not archived.
 1\1\GINC-SE224\SP\RHF\Aug-CC-pVDZ\C6H12O1\OHZDE\09-Apr-2025\0\\#t hf a
 ug-cc-pvdz iop(5/13=1,5/36=2,99/5=2) pseudo=read geom=check guess=(rea
 d,tcheck) scf=(maxcycle=1)\\title\\0,1\C,0,2.55306179,0.08339261,-0.44
 018646\C,0,1.57839897,-0.13182511,0.75154997\O,0,2.23722771,0.09516833
 ,1.97764348\C,0,0.53551909,0.83867829,0.45415626\C,0,-0.45561372,0.368
 79931,-0.5300333\C,0,-1.70527404,0.02140458,0.31897355\C,0,-2.84643744
 ,-0.48306102,-0.55503181\H,0,2.18546429,-0.37737174,-1.35640483\H,0,3.
 49551488,-0.37821725,-0.14967609\H,0,2.73630987,1.14565994,-0.61538695

 Normal termination of Gaussian 16 at Wed Apr  9 18:44:03 2025.
