 Gaussian 16, Revision C.01,

 ----------------------------------------------------------------------
 #t hf aug-cc-pvdz symm=none int=(grid=ultrafine) guess=(read,tcheck) s
 table=(opt,rrhf)
 ----------------------------------------------------------------------
 -----
 title
 -----
 Symbolic Z-matrix:
 Charge =  0 Multiplicity = 1

 SCF Done:  E(RHF) =  -308.877619888     A.U. after   14 cycles

 1\1\GINC-SE127\Stability\RHF\Aug-CC-pVDZ\C6H12O1\OHZDE\09-Apr-2025\0\\
 #t hf aug-cc-pvdz symm=none int=(grid=ultrafine) guess=(read,tcheck) s
 table=(opt,rrhf)\\title\\0,1\C,0,-0.65518219,-1.71287874,-0.94574383\C
 ,0,-0.4787044,-0.3043333,-0.79108241\C,0,-1.20127682,0.47389828,1.0012
 2247\C,0,-0.55282864,1.78399913,0.67778633\O,0,0.74736949,1.55894376,0
 .13547829\C,0,0.87004567,0.34434453,-0.5713752\C,0,1.89307751,-0.54574
 716,0.10917723\H,0,-1.06765623,-0.86833264,0.18604918\H,0,-1.51052366,
 -2.08346289,-1.48818268\H,0,0.09609213,-2.40370059,-0.59814105\H,0,-1.

 Normal termination of Gaussian 16 at Wed Apr  9 03:29:15 2025.
 Gaussian 16:  ES64L-G16RevC.01  3-Jul-2019

 ----------------------------------------------------------------------
 #t hf aug-cc-pvdz iop(5/13=1,5/36=2,99/5=2) pseudo=read geom=check gue
 ss=(read,tcheck) scf=(maxcycle=1)
 ----------------------------------------------------------------------
 -----
 title
 -----
 Structure from the checkpoint file:  "Grambow2020_wb97xd3_006734_reverse_mol1.chk"
 Charge =  0 Multiplicity = 1

                         Standard orientation:
 ---------------------------------------------------------------------
 Center     Atomic      Atomic             Coordinates (Angstroms)
 Number     Number       Type             X           Y           Z
 ---------------------------------------------------------------------
      1          6           0        1.943101   -1.123124   -0.095277
      2          6           0        0.662957   -0.659325   -0.525611
      3          6           0       -0.921094   -1.190697    0.718791
      4          6           0       -1.822356   -0.289460   -0.066677
      5          8           0       -1.146717    0.931855   -0.361916
      6          6           0        0.251615    0.795883   -0.488884
      7          6           0        0.947506    1.619827    0.578290
      8          1           0        0.638184   -1.343159    0.547470
      9          1           0        2.338064   -2.041102   -0.500866
     10          1           0        2.551351   -0.527026    0.565915
     11          1           0        0.221656   -1.219723   -1.344077
     12          1           0       -0.808817   -0.896176    1.765000
     13          1           0       -1.151672   -2.251475    0.622031
     14          1           0       -2.732489    0.001062    0.462962
     15          1           0       -2.131195   -0.780638   -0.999587
     16          1           0        0.539113    1.180504   -1.477735
     17          1           0        0.792008    1.190036    1.570173
     18          1           0        2.018981    1.688814    0.386086
     19          1           0        0.528183    2.625416    0.574169
 ---------------------------------------------------------------------

 SCF Done:  E(RHF) =  -310.409190518     A.U. after    2 cycles

 The electronic state is 1-A.
 Alpha  occ. eigenvalues --  -21.03728 -11.50455 -11.45245 -11.44110 -11.37867
 Alpha  occ. eigenvalues --  -11.36952 -11.35168  -1.76450  -1.26015  -1.14097
 Alpha  occ. eigenvalues --   -1.04787  -0.93587  -0.85667  -0.79340  -0.69534
 Alpha  occ. eigenvalues --   -0.65399  -0.63661  -0.61596  -0.57433  -0.54177
 Alpha  occ. eigenvalues --   -0.53597  -0.50696  -0.49292  -0.48413  -0.46828
 Alpha  occ. eigenvalues --   -0.36587  -0.29300  -0.22771
 Alpha virt. eigenvalues --    0.03941   0.04865   0.04927   0.05394   0.05565
 Alpha virt. eigenvalues --    0.05882   0.06277   0.06647   0.07081   0.08577
 Alpha virt. eigenvalues --    0.09295   0.09364   0.11950   0.12528   0.13187

 Mulliken charges:
               1
     1  C   -3.997498
     2  C   -1.795771
     3  C   -3.450468
     4  C   -1.761616
     5  O   -3.607921
     6  C    1.041188
     7  C   -3.595369
     8  H    3.118763
     9  H    1.174276
    10  H    1.275480
    11  H    1.281988
    12  H    1.057063
    13  H    1.017227
    14  H    1.318679
    15  H    1.476835
    16  H    1.647161
    17  H    1.375276
    18  H    1.313208
    19  H    1.111499
 Sum of Mulliken charges =  -0.00000

 Dipole moment (field-independent basis, Debye):
    X=             -0.5556    Y=             -0.0325    Z=             -0.4929  Tot=              0.7434

 Test job not archived.
 1\1\GINC-SE127\SP\RHF\Aug-CC-pVDZ\C6H12O1\OHZDE\09-Apr-2025\0\\#t hf a
 ug-cc-pvdz iop(5/13=1,5/36=2,99/5=2) pseudo=read geom=check guess=(rea
 d,tcheck) scf=(maxcycle=1)\\title\\0,1\C,0,-0.65518219,-1.71287874,-0.
 94574383\C,0,-0.4787044,-0.3043333,-0.79108241\C,0,-1.20127682,0.47389
 828,1.00122247\C,0,-0.55282864,1.78399913,0.67778633\O,0,0.74736949,1.
 55894376,0.13547829\C,0,0.87004567,0.34434453,-0.5713752\C,0,1.8930775
 1,-0.54574716,0.10917723\H,0,-1.06765623,-0.86833264,0.18604918\H,0,-1
 .51052366,-2.08346289,-1.48818268\H,0,0.09609213,-2.40370059,-0.598141

 Normal termination of Gaussian 16 at Wed Apr  9 03:29:22 2025.
