 Gaussian 16, Revision C.01,

 ----------------------------------------------------------------------
 #t hf aug-cc-pvdz symm=none int=(grid=ultrafine) guess=(read,tcheck) s
 table=(opt,rrhf)
 ----------------------------------------------------------------------
 -----
 title
 -----
 Symbolic Z-matrix:
 Charge =  0 Multiplicity = 1

 SCF Done:  E(RHF) =  -284.690844213     A.U. after   16 cycles
 Normal termination of Gaussian 16 at Wed Apr  9 17:40:32 2025.
 Gaussian 16:  ES64L-G16RevC.01  3-Jul-2019

 ----------------------------------------------------------------------
 #t hf aug-cc-pvdz iop(5/13=1,5/36=2,99/5=2) pseudo=read geom=check gue
 ss=(read,tcheck) scf=(maxcycle=1)
 ----------------------------------------------------------------------
 -----
 title
 -----
 Structure from the checkpoint file:  "Grambow2020_b97d3_007215_forward_mol1.chk"
 Charge =  0 Multiplicity = 1

                         Standard orientation:
 ---------------------------------------------------------------------
 Center     Atomic      Atomic             Coordinates (Angstroms)
 Number     Number       Type             X           Y           Z
 ---------------------------------------------------------------------
      1          6           0       -2.205422    0.150517   -0.178974
      2          6           0       -0.848069   -0.044411    0.427599
      3          8           0       -0.104393   -1.006242   -0.168608
      4          6           0        1.301681   -0.913180    0.022124
      5          6           0        1.741077    0.553195   -0.171550
      6          7           0        0.855801    1.399713   -0.008927
      7          1           0       -2.882980   -0.702865    0.012870
      8          1           0       -2.687843    1.044255    0.242513
      9          1           0       -2.131686    0.269374   -1.269523
     10          1           0       -0.750560    0.027144    1.519790
     11          1           0       -0.004699    1.920814   -0.054876
     12          1           0        1.771023   -1.602739   -0.686611
     13          1           0        1.595681   -1.180758    1.051991
 ---------------------------------------------------------------------

 SCF Done:  E(RHF) =  -286.015102251     A.U. after    2 cycles

 The electronic state is 1-A.
 Alpha  occ. eigenvalues --  -21.09391 -15.77616 -11.47745 -11.43914 -11.39588
 Alpha  occ. eigenvalues --  -11.39105  -1.80356  -1.33375  -1.14404  -1.01742
 Alpha  occ. eigenvalues --   -0.85056  -0.82432  -0.66439  -0.64578  -0.63537
 Alpha  occ. eigenvalues --   -0.57934  -0.54707  -0.52501  -0.47919  -0.44424
 Alpha  occ. eigenvalues --   -0.39914  -0.35384  -0.23763
 Alpha virt. eigenvalues --    0.03449   0.04857   0.05292   0.05637   0.06345
 Alpha virt. eigenvalues --    0.06536   0.07000   0.09663   0.10090   0.12079
 Alpha virt. eigenvalues --    0.12419   0.13199   0.13662   0.14325   0.14432

 Mulliken charges:
               1
     1  C   -3.553165
     2  C    0.375389
     3  O   -3.063095
     4  C   -1.245111
     5  C    0.408839
     6  N   -2.034867
     7  H    1.244915
     8  H    1.230366
     9  H    1.243232
    10  H    1.528559
    11  H    0.910264
    12  H    1.486725
    13  H    1.467948
 Sum of Mulliken charges =   0.00000

 Dipole moment (field-independent basis, Debye):
    X=             -3.1115    Y=             -0.5459    Z=              0.5222  Tot=              3.2019

 Test job not archived.
 1\1\GINC-SE045\SP\RHF\Aug-CC-pVDZ\C4H7N1O1\OHZDE\09-Apr-2025\0\\#t hf
 aug-cc-pvdz iop(5/13=1,5/36=2,99/5=2) pseudo=read geom=check guess=(re
 ad,tcheck) scf=(maxcycle=1)\\title\\0,1\C,0,-1.76300591,-0.65849231,-0
 .05119231\C,0,-0.55063572,0.12761565,-0.45184914\O,0,0.09287039,0.7235
 4562,0.57984924\C,0,1.4565637,1.05685639,0.35329364\C,0,2.15847828,-0.
 13157759,-0.33646954\N,0,1.41481882,-0.90804793,-0.94541869\H,0,-2.594
 02983,-0.01294028,0.2905854\H,0,-2.13960791,-1.24168557,-0.90395557\H,
 0,-1.52614603,-1.34793735,0.77186621\H,0,-0.58837757,0.7021818,-1.3877

 Normal termination of Gaussian 16 at Wed Apr  9 17:40:39 2025.
