 Gaussian 16, Revision C.01,

 ----------------------------------------------------------------------
 #t hf aug-cc-pvdz symm=none int=(grid=ultrafine) guess=(read,tcheck) s
 table=(opt,rrhf)
 ----------------------------------------------------------------------
 -----
 title
 -----
 Symbolic Z-matrix:
 Charge =  0 Multiplicity = 1

 SCF Done:  E(RHF) =  -359.760899138     A.U. after   14 cycles
 Normal termination of Gaussian 16 at Wed Apr  9 04:05:46 2025.
 Gaussian 16:  ES64L-G16RevC.01  3-Jul-2019

 ----------------------------------------------------------------------
 #t hf aug-cc-pvdz iop(5/13=1,5/36=2,99/5=2) pseudo=read geom=check gue
 ss=(read,tcheck) scf=(maxcycle=1)
 ----------------------------------------------------------------------
 -----
 title
 -----
 Structure from the checkpoint file:  "Grambow2020_wb97xd3_009244_reverse_mol2.chk"
 Charge =  0 Multiplicity = 1

                         Standard orientation:
 ---------------------------------------------------------------------
 Center     Atomic      Atomic             Coordinates (Angstroms)
 Number     Number       Type             X           Y           Z
 ---------------------------------------------------------------------
      1          6           0       -1.179489   -0.963221    0.822974
      2          6           0       -0.069616   -0.861809   -0.212974
      3          6           0       -1.444338   -0.242369   -0.441784
      4          8           0       -1.612881    1.123490   -0.490267
      5          6           0        1.040789    0.076528    0.075171
      6          8           0        0.864295    1.139157    0.657334
      7          7           0        2.267040   -0.294399   -0.359387
      8          1           0       -0.891638    1.521151    0.024553
      9          1           0       -1.616516   -1.939279    0.985488
     10          1           0       -1.040379   -0.355773    1.708569
     11          1           0        0.178142   -1.753336   -0.775698
     12          1           0       -2.055437   -0.736282   -1.186861
     13          1           0        2.424010   -1.162803   -0.833102
     14          1           0        3.037154    0.331171   -0.204106
 ---------------------------------------------------------------------

 SCF Done:  E(RHF) =  -361.366619480     A.U. after    2 cycles

 The electronic state is 1-A.
 Alpha  occ. eigenvalues --  -21.05682 -21.02717 -15.78964 -11.52871 -11.45804
 Alpha  occ. eigenvalues --  -11.42152 -11.38167  -1.74280  -1.69619  -1.36424
 Alpha  occ. eigenvalues --   -1.27547  -0.96230  -0.85940  -0.79509  -0.72124
 Alpha  occ. eigenvalues --   -0.71766  -0.63376  -0.58865  -0.56560  -0.52757
 Alpha  occ. eigenvalues --   -0.49078  -0.48899  -0.46496  -0.37876  -0.33066
 Alpha  occ. eigenvalues --   -0.29730  -0.27976
 Alpha virt. eigenvalues --    0.03193   0.04554   0.04943   0.05306   0.06880
 Alpha virt. eigenvalues --    0.07355   0.08806   0.10193   0.11771   0.12236
 Alpha virt. eigenvalues --    0.12681   0.13206   0.13877   0.14890   0.15477

 Mulliken charges:
               1
     1  C   -2.291381
     2  C   -1.952687
     3  C    1.819388
     4  O   -3.264070
     5  C    4.519532
     6  O   -3.281825
     7  N   -3.091286
     8  H    0.830544
     9  H    1.215589
    10  H    1.247952
    11  H    1.457282
    12  H    1.331668
    13  H    0.705249
    14  H    0.754047
 Sum of Mulliken charges =   0.00000

 Dipole moment (field-independent basis, Debye):
    X=              1.5426    Y=             -2.3407    Z=             -0.7873  Tot=              2.9118

 Test job not archived.
 1\1\GINC-SE036\SP\RHF\Aug-CC-pVDZ\C4H7N1O2\OHZDE\09-Apr-2025\0\\#t hf
 aug-cc-pvdz iop(5/13=1,5/36=2,99/5=2) pseudo=read geom=check guess=(re
 ad,tcheck) scf=(maxcycle=1)\\title\\0,1\C,0,-1.3354302,-0.85945864,0.0
 4621146\C,0,-0.20935852,-0.05843251,-0.59066462\C,0,-1.3814074,0.61798
 979,0.11266653\O,0,-1.20482366,1.30861309,1.29087979\C,0,1.09138419,-0
 .03778968,0.11936655\O,0,1.1692326,-0.03858687,1.34132539\N,0,2.197940
 75,0.00280782,-0.6578103\H,0,-0.42070242,0.93739333,1.72758968\H,0,-2.
 00472351,-1.3873318,-0.6197384\H,0,-1.07240481,-1.37900631,0.95918012\

 Normal termination of Gaussian 16 at Wed Apr  9 04:05:52 2025.
