 Gaussian 16, Revision C.01,

 ----------------------------------------------------------------------
 #t hf aug-cc-pvdz symm=none int=(grid=ultrafine) guess=(read,tcheck) s
 table=(opt,rrhf)
 ----------------------------------------------------------------------
 -----
 title
 -----
 Symbolic Z-matrix:
 Charge =  0 Multiplicity = 1

 SCF Done:  E(RHF) =  -343.560492376     A.U. after   16 cycles
 Normal termination of Gaussian 16 at Wed Apr  9 18:27:28 2025.
 Gaussian 16:  ES64L-G16RevC.01  3-Jul-2019

 ----------------------------------------------------------------------
 #t hf aug-cc-pvdz iop(5/13=1,5/36=2,99/5=2) pseudo=read geom=check gue
 ss=(read,tcheck) scf=(maxcycle=1)
 ----------------------------------------------------------------------
 -----
 title
 -----
 Structure from the checkpoint file:  "Grambow2020_wb97xd3_007153_reverse_mol1.chk"
 Charge =  0 Multiplicity = 1

                         Standard orientation:
 ---------------------------------------------------------------------
 Center     Atomic      Atomic             Coordinates (Angstroms)
 Number     Number       Type             X           Y           Z
 ---------------------------------------------------------------------
      1          8           0        0.271639    1.489669    0.373333
      2          6           0        0.528964    0.523187   -0.525300
      3          6           0       -0.353543   -1.089559   -0.049798
      4          6           0       -1.781742   -0.593251   -0.090740
      5          8           0       -2.185300    0.537754   -0.033608
      6          6           0        1.470621   -0.844000    0.527470
      7          6           0        1.987424    0.144334   -0.422814
      8          1           0       -0.690098    1.614688    0.340498
      9          1           0       -0.240007   -1.711904   -0.939659
     10          1           0       -0.457307   -1.811889    0.791533
     11          1           0       -2.512221   -1.429082   -0.140734
     12          1           0        1.711126   -1.888896    0.380070
     13          1           0        1.395535   -0.524605    1.558806
     14          1           0        2.585653    0.945293   -0.001314
     15          1           0        2.406258   -0.257253   -1.339913
 ---------------------------------------------------------------------

 SCF Done:  E(RHF) =  -345.153071405     A.U. after    2 cycles

 The electronic state is 1-A.
 Alpha  occ. eigenvalues --  -21.07858 -21.07074 -11.50531 -11.45627 -11.43725
 Alpha  occ. eigenvalues --  -11.42964 -11.37731  -1.75956  -1.71483  -1.26775
 Alpha  occ. eigenvalues --   -1.09426  -0.91225  -0.82540  -0.77806  -0.67721
 Alpha  occ. eigenvalues --   -0.67030  -0.61207  -0.59758  -0.55851  -0.52860
 Alpha  occ. eigenvalues --   -0.50255  -0.47573  -0.44988  -0.43436  -0.36992
 Alpha  occ. eigenvalues --   -0.29518  -0.25371
 Alpha virt. eigenvalues --    0.03944   0.04660   0.05172   0.05537   0.05949
 Alpha virt. eigenvalues --    0.06036   0.07008   0.08138   0.10060   0.11229
 Alpha virt. eigenvalues --    0.11733   0.12740   0.13177   0.14192   0.14578

 Mulliken charges:
               1
     1  O   -2.892800
     2  C    2.167498
     3  C   -2.339191
     4  C    1.952546
     5  O   -2.992788
     6  C   -2.622871
     7  C   -3.179432
     8  H    1.036463
     9  H    1.274659
    10  H    1.048554
    11  H    1.409561
    12  H    1.094702
    13  H    1.299366
    14  H    1.338851
    15  H    1.404882
 Sum of Mulliken charges =  -0.00000

 Dipole moment (field-independent basis, Debye):
    X=              0.9729    Y=             -0.9436    Z=              0.8173  Tot=              1.5827

 Test job not archived.
 1\1\GINC-SE103\SP\RHF\Aug-CC-pVDZ\C5H8O2\OHZDE\09-Apr-2025\0\\#t hf au
 g-cc-pvdz iop(5/13=1,5/36=2,99/5=2) pseudo=read geom=check guess=(read
 ,tcheck) scf=(maxcycle=1)\\title\\0,1\O,0,0.06581796,0.19042638,-1.761
 32875\C,0,-0.13871142,0.80032969,-0.58063781\C,0,0.58714549,-0.2271646
 5,0.84177482\C,0,2.03635474,-0.23159374,0.4087356\O,0,2.49474762,-0.01
 451583,-0.68124034\C,0,-1.27527403,-0.46819119,0.40085134\C,0,-1.61843
 244,0.78387421,-0.27848754\H,0,1.03028729,0.13257335,-1.85132105\H,0,0
 .54392555,0.45424141,1.69375736\H,0,0.54902925,-1.24606921,1.2898239\H

 Normal termination of Gaussian 16 at Wed Apr  9 18:27:33 2025.
