 Gaussian 16, Revision C.01,

 ----------------------------------------------------------------------
 #t hf aug-cc-pvdz symm=none int=(grid=ultrafine) guess=(read,tcheck) s
 table=(opt,rrhf)
 ----------------------------------------------------------------------
 -----
 title
 -----
 Symbolic Z-matrix:
 Charge =  0 Multiplicity = 1

 SCF Done:  E(RHF) =  -260.189386674     A.U. after   16 cycles
 Normal termination of Gaussian 16 at Wed Apr  9 03:04:04 2025.
 Gaussian 16:  ES64L-G16RevC.01  3-Jul-2019

 ----------------------------------------------------------------------
 #t hf aug-cc-pvdz iop(5/13=1,5/36=2,99/5=2) pseudo=read geom=check gue
 ss=(read,tcheck) scf=(maxcycle=1)
 ----------------------------------------------------------------------
 -----
 title
 -----
 Structure from the checkpoint file:  "Grambow2020_b97d3_006470_reverse_mol2.chk"
 Charge =  0 Multiplicity = 1

                         Standard orientation:
 ---------------------------------------------------------------------
 Center     Atomic      Atomic             Coordinates (Angstroms)
 Number     Number       Type             X           Y           Z
 ---------------------------------------------------------------------
      1          6           0        0.079835    0.427843    0.000407
      2          6           0       -0.147371    1.762706   -0.000289
      3          6           0        2.353442   -0.756558   -0.000195
      4          7           0        1.284420   -0.225195    0.000021
      5          6           0       -1.180515   -0.257338    0.000445
      6          7           0       -2.231899   -0.783365   -0.000336
 ---------------------------------------------------------------------

 SCF Done:  E(RHF) =  -261.277671723     A.U. after    2 cycles

 The electronic state is 1-A.
 Alpha  occ. eigenvalues --  -15.84683 -15.82111 -11.55869 -11.53161 -11.50114
 Alpha  occ. eigenvalues --  -11.48357  -1.49207  -1.34328  -1.20315  -0.91661
 Alpha  occ. eigenvalues --   -0.85374  -0.62158  -0.57941  -0.55882  -0.52247
 Alpha  occ. eigenvalues --   -0.50727  -0.49002  -0.47585  -0.39597
 Alpha virt. eigenvalues --   -0.00069   0.04211   0.04993   0.07859   0.08400
 Alpha virt. eigenvalues --    0.09180   0.09188   0.10520   0.12035   0.12292
 Alpha virt. eigenvalues --    0.13265   0.13524   0.14266   0.15743   0.16253

 Mulliken charges:
               1
     1  C    3.684069
     2  C   -1.435367
     3  C   -0.547643
     4  N   -1.187631
     5  C    1.690573
     6  N   -2.204000
 Sum of Mulliken charges =   0.00000

 Dipole moment (field-independent basis, Debye):
    X=              0.3332    Y=              0.9838    Z=              0.0012  Tot=              1.0387

 Test job not archived.
 1\1\GINC-SE132\SP\RHF\Aug-CC-pVDZ\C4N2\OHZDE\09-Apr-2025\0\\#t hf aug-
 cc-pvdz iop(5/13=1,5/36=2,99/5=2) pseudo=read geom=check guess=(read,t
 check) scf=(maxcycle=1)\\title\\0,1\C,0,0.08550075,0.05425492,0.396192
 57\C,0,-0.05396416,0.25337281,1.72825303\C,0,2.27588303,-0.20396731,-0
 .91057427\N,0,1.24432768,-0.08610913,-0.3213725\C,0,-1.21628116,0.0073
 5824,-0.2047407\N,0,-2.29922914,-0.02449753,-0.66116314\\Version=ES64L
 -G16RevC.01\State=1-A\HF=-261.2776717\RMSD=2.802e-01\Dipole=0.1560063,
 0.0492166,0.3744723\Quadrupole=-3.7341827,3.151535,0.5826478,0.4394971

 Normal termination of Gaussian 16 at Wed Apr  9 03:04:06 2025.
