 Gaussian 16, Revision C.01,

 ----------------------------------------------------------------------
 #t hf aug-cc-pvdz symm=none int=(grid=ultrafine) guess=(read,tcheck) s
 table=(opt,rrhf)
 ----------------------------------------------------------------------
 -----
 title
 -----
 Symbolic Z-matrix:
 Charge =  0 Multiplicity = 1

 SCF Done:  E(RHF) =  -301.651112751     A.U. after   15 cycles
 Normal termination of Gaussian 16 at Wed Apr  9 03:46:46 2025.
 Gaussian 16:  ES64L-G16RevC.01  3-Jul-2019

 ----------------------------------------------------------------------
 #t hf aug-cc-pvdz iop(5/13=1,5/36=2,99/5=2) pseudo=read geom=check gue
 ss=(read,tcheck) scf=(maxcycle=1)
 ----------------------------------------------------------------------
 -----
 title
 -----
 Structure from the checkpoint file:  "Grambow2020_wb97xd3_007931_forward_mol1.chk"
 Charge =  0 Multiplicity = 1

                         Standard orientation:
 ---------------------------------------------------------------------
 Center     Atomic      Atomic             Coordinates (Angstroms)
 Number     Number       Type             X           Y           Z
 ---------------------------------------------------------------------
      1          6           0       -1.428496    0.603686    0.674824
      2          6           0       -1.793714   -0.464815   -0.275626
      3          6           0       -0.311354   -0.372467   -0.361401
      4          7           0        0.597574   -1.237494    0.084452
      5          6           0        1.699154   -0.473542    0.212569
      6          6           0        1.421280    0.855398   -0.073563
      7          7           0        0.135810    0.941634   -0.472671
      8          1           0       -1.154213    0.312635    1.681532
      9          1           0       -1.750422    1.622792    0.533060
     10          1           0       -2.112736   -1.407379    0.153515
     11          1           0       -2.357926   -0.155737   -1.148078
     12          1           0        2.649343   -0.907235    0.493596
     13          1           0        2.071039    1.716384   -0.056905
 ---------------------------------------------------------------------

 SCF Done:  E(RHF) =  -303.082001266     A.U. after    2 cycles

 The electronic state is 1-A.
 Alpha  occ. eigenvalues --  -15.74882 -15.70894 -11.50568 -11.46541 -11.42874
 Alpha  occ. eigenvalues --  -11.41488 -11.36633  -1.57141  -1.28632  -1.22140
 Alpha  occ. eigenvalues --   -1.00204  -0.92254  -0.80722  -0.76182  -0.69184
 Alpha  occ. eigenvalues --   -0.67634  -0.61358  -0.56572  -0.55504  -0.51406
 Alpha  occ. eigenvalues --   -0.47925  -0.40909  -0.37438  -0.35843  -0.29766
 Alpha virt. eigenvalues --    0.03717   0.05194   0.05536   0.05607   0.05928
 Alpha virt. eigenvalues --    0.06546   0.08513   0.10350   0.10717   0.11841
 Alpha virt. eigenvalues --    0.12205   0.12964   0.13346   0.13613   0.14465

 Mulliken charges:
               1
     1  C   -2.392777
     2  C   -3.175098
     3  C    4.562306
     4  N   -3.700018
     5  C   -0.070097
     6  C    0.012271
     7  N   -2.936988
     8  H    1.322246
     9  H    1.206382
    10  H    1.246052
    11  H    1.417005
    12  H    1.278864
    13  H    1.229851
 Sum of Mulliken charges =  -0.00000

 Dipole moment (field-independent basis, Debye):
    X=             -2.2223    Y=              1.2032    Z=              1.0479  Tot=              2.7358

 Test job not archived.
 1\1\GINC-SE029\SP\RHF\Aug-CC-pVDZ\C5H6N2\OHZDE\09-Apr-2025\0\\#t hf au
 g-cc-pvdz iop(5/13=1,5/36=2,99/5=2) pseudo=read geom=check guess=(read
 ,tcheck) scf=(maxcycle=1)\\title\\0,1\C,0,-1.39136838,-0.33437872,-0.2
 9355293\C,0,-1.3777465,1.02721188,0.27593628\C,0,0.04561696,0.5948313,
 0.2949066\N,0,1.05044415,1.02636935,-0.46489976\C,0,1.92931286,0.00782
 364,-0.40431658\C,0,1.41016582,-1.05744691,0.31738266\N,0,0.20553108,-
 0.69228704,0.8018102\H,0,-1.20325656,-0.44017364,-1.35507269\H,0,-1.90
 542324,-1.14734472,0.19342147\H,0,-1.53952709,1.84440446,-0.4171634\H,

 Normal termination of Gaussian 16 at Wed Apr  9 03:46:51 2025.
