 Gaussian 16, Revision C.01,

 ----------------------------------------------------------------------
 #t hf aug-cc-pvdz symm=none int=(grid=ultrafine) guess=(read,tcheck) s
 table=(opt,rrhf)
 ----------------------------------------------------------------------
 -----
 title
 -----
 Symbolic Z-matrix:
 Charge =  0 Multiplicity = 1

 SCF Done:  E(RHF) =  -308.975793887     A.U. after   14 cycles

 1\1\GINC-SE115\Stability\RHF\Aug-CC-pVDZ\C6H12O1\OHZDE\09-Apr-2025\0\\
 #t hf aug-cc-pvdz symm=none int=(grid=ultrafine) guess=(read,tcheck) s
 table=(opt,rrhf)\\title\\0,1\C,0,2.28564982,0.28459105,-0.38698292\C,0
 ,2.15988853,1.37390354,0.63147938\O,0,1.35476635,1.39110521,1.52389215
 \C,0,-0.86416947,-1.180604,1.25846361\C,0,-2.23034343,-1.61998706,0.81
 617737\C,0,-0.92952563,-2.36134982,0.75255049\C,0,-1.07999305,1.240608
 23,-1.44774653\H,0,1.53362778,-0.48688563,-0.23152467\H,0,3.28830749,-
 0.14751661,-0.32873195\H,0,2.18219792,0.71310794,-1.38718308\H,0,-0.85

 Normal termination of Gaussian 16 at Wed Apr  9 19:34:39 2025.
 Gaussian 16:  ES64L-G16RevC.01  3-Jul-2019

 ----------------------------------------------------------------------
 #t hf aug-cc-pvdz iop(5/13=1,5/36=2,99/5=2) pseudo=read geom=check gue
 ss=(read,tcheck) scf=(maxcycle=1)
 ----------------------------------------------------------------------
 -----
 title
 -----
 Structure from the checkpoint file:  "Grambow2020_wb97xd3_009427_reverse_mol2.chk"
 Charge =  0 Multiplicity = 1

                         Standard orientation:
 ---------------------------------------------------------------------
 Center     Atomic      Atomic             Coordinates (Angstroms)
 Number     Number       Type             X           Y           Z
 ---------------------------------------------------------------------
      1          6           0       -1.967137   -0.374107    1.158544
      2          6           0       -2.448401   -0.474268   -0.254975
      3          8           0       -1.749778   -0.711747   -1.203894
      4          6           0        1.546505   -0.784278   -0.345362
      5          6           0        2.850775   -0.041000   -0.306366
      6          6           0        2.278034   -1.003078    0.689709
      7          6           0       -0.000995    2.488064    0.014428
      8          1           0       -0.890227   -0.521143    1.217917
      9          1           0       -2.484767   -1.119909    1.767864
     10          1           0       -2.234632    0.606147    1.561382
     11          1           0        0.448832    1.985273    0.869886
     12          1           0       -3.536814   -0.312563   -0.399330
     13          1           0        0.636341   -0.948441   -0.898542
     14          1           0        2.853625    1.026341   -0.086703
     15          1           0        3.667505   -0.356920   -0.954048
     16          1           0        2.432943   -1.501663    1.630092
     17          1           0       -0.932542    2.965328    0.317616
     18          1           0        0.684787    3.245465   -0.361830
     19          1           0       -0.199517    1.758062   -0.769016
 ---------------------------------------------------------------------

 SCF Done:  E(RHF) =  -310.471884202     A.U. after    2 cycles

 The electronic state is 1-A.
 Alpha  occ. eigenvalues --  -21.06837 -11.49006 -11.43843 -11.41665 -11.39608
 Alpha  occ. eigenvalues --  -11.37554 -11.35515  -1.71830  -1.27905  -1.12182
 Alpha  occ. eigenvalues --   -1.02709  -0.84647  -0.82367  -0.78136  -0.67626
 Alpha  occ. eigenvalues --   -0.64754  -0.59957  -0.58893  -0.56670  -0.53530
 Alpha  occ. eigenvalues --   -0.53379  -0.53359  -0.50583  -0.44825  -0.43248
 Alpha  occ. eigenvalues --   -0.38732  -0.33173  -0.30204
 Alpha virt. eigenvalues --    0.03328   0.04728   0.04735   0.05225   0.05683
 Alpha virt. eigenvalues --    0.06026   0.07027   0.07595   0.08073   0.08615
 Alpha virt. eigenvalues --    0.09052   0.09156   0.10972   0.11750   0.12140

 Mulliken charges:
               1
     1  C   -4.305998
     2  C    1.216876
     3  O   -2.737067
     4  C   -0.544412
     5  C   -2.801383
     6  C   -0.838032
     7  C   -5.599525
     8  H    1.614806
     9  H    1.205409
    10  H    1.475307
    11  H    1.585976
    12  H    1.582599
    13  H    0.894460
    14  H    1.288186
    15  H    1.209116
    16  H    0.743397
    17  H    1.255257
    18  H    1.204023
    19  H    1.551005
 Sum of Mulliken charges =  -0.00000

 Dipole moment (field-independent basis, Debye):
    X=             -1.2557    Y=             -0.1167    Z=              1.2309  Tot=              1.7623

 Test job not archived.
 1\1\GINC-SE115\SP\RHF\Aug-CC-pVDZ\C6H12O1\OHZDE\09-Apr-2025\0\\#t hf a
 ug-cc-pvdz iop(5/13=1,5/36=2,99/5=2) pseudo=read geom=check guess=(rea
 d,tcheck) scf=(maxcycle=1)\\title\\0,1\C,0,2.28564982,0.28459105,-0.38
 698292\C,0,2.15988853,1.37390354,0.63147938\O,0,1.35476635,1.39110521,
 1.52389215\C,0,-0.86416947,-1.180604,1.25846361\C,0,-2.23034343,-1.619
 98706,0.81617737\C,0,-0.92952563,-2.36134982,0.75255049\C,0,-1.0799930
 5,1.24060823,-1.44774653\H,0,1.53362778,-0.48688563,-0.23152467\H,0,3.
 28830749,-0.14751661,-0.32873195\H,0,2.18219792,0.71310794,-1.38718308

 Normal termination of Gaussian 16 at Wed Apr  9 19:34:46 2025.
