 Gaussian 16, Revision C.01,

 ----------------------------------------------------------------------
 #t hf aug-cc-pvdz symm=none int=(grid=ultrafine) guess=(read,tcheck) s
 table=(opt,rrhf)
 ----------------------------------------------------------------------
 -----
 title
 -----
 Symbolic Z-matrix:
 Charge =  0 Multiplicity = 1

 SCF Done:  E(RHF) =  -335.378171417     A.U. after   17 cycles
 Normal termination of Gaussian 16 at Wed Apr  9 16:09:39 2025.
 Gaussian 16:  ES64L-G16RevC.01  3-Jul-2019

 ----------------------------------------------------------------------
 #t hf aug-cc-pvdz iop(5/13=1,5/36=2,99/5=2) pseudo=read geom=check gue
 ss=(read,tcheck) scf=(maxcycle=1)
 ----------------------------------------------------------------------
 -----
 title
 -----
 Structure from the checkpoint file:  "Grambow2020_b97d3_006737_forward_mol1.chk"
 Charge =  0 Multiplicity = 1

                         Standard orientation:
 ---------------------------------------------------------------------
 Center     Atomic      Atomic             Coordinates (Angstroms)
 Number     Number       Type             X           Y           Z
 ---------------------------------------------------------------------
      1          8           0        2.144004   -0.436417    0.016536
      2          6           0        1.183315    0.255774    0.000484
      3          7           0        0.350473    1.185011   -0.066407
      4          6           0       -1.587249    0.714531    0.042658
      5          7           0       -1.523372   -0.508771    0.008560
      6          8           0       -0.596808   -1.336747   -0.013446
      7          1           0        0.576412    2.133949    0.203947
      8          1           0       -2.320090    1.495851   -0.082598
 ---------------------------------------------------------------------

 SCF Done:  E(RHF) =  -336.828969246     A.U. after    2 cycles

 The electronic state is 1-A.
 Alpha  occ. eigenvalues --  -21.14510 -21.04829 -15.85736 -15.81588 -11.60612
 Alpha  occ. eigenvalues --  -11.48706  -1.80504  -1.77388  -1.39633  -1.23694
 Alpha  occ. eigenvalues --   -0.84569  -0.81090  -0.70900  -0.63144  -0.61222
 Alpha  occ. eigenvalues --   -0.58108  -0.56357  -0.52862  -0.43958  -0.38018
 Alpha  occ. eigenvalues --   -0.28874  -0.25476
 Alpha virt. eigenvalues --    0.02182   0.04049   0.08180   0.09541   0.09761
 Alpha virt. eigenvalues --    0.11347   0.11730   0.12148   0.13417   0.13984
 Alpha virt. eigenvalues --    0.15363   0.15882   0.16790   0.17929   0.19730

 Mulliken charges:
               1
     1  O   -2.306985
     2  C    3.660235
     3  N   -2.033050
     4  C    0.429951
     5  N    0.285395
     6  O   -2.305423
     7  H    0.799173
     8  H    1.470704
 Sum of Mulliken charges =  -0.00000

 Dipole moment (field-independent basis, Debye):
    X=              1.1049    Y=              2.5256    Z=              0.1312  Tot=              2.7599

 Test job not archived.
 1\1\GINC-SE141\SP\RHF\Aug-CC-pVDZ\C2H2N2O2\OHZDE\09-Apr-2025\0\\#t hf
 aug-cc-pvdz iop(5/13=1,5/36=2,99/5=2) pseudo=read geom=check guess=(re
 ad,tcheck) scf=(maxcycle=1)\\title\\0,1\O,0,2.4859068,0.03702953,0.221
 8974\C,0,1.34224981,0.32775207,0.12269863\N,0,0.23404809,0.86046407,-0
 .10021037\C,0,-1.41101678,-0.18940672,0.32351442\N,0,-0.91789508,-1.27
 558381,0.60415938\O,0,0.24188566,-1.71047445,0.70577991\H,0,0.10963703
 ,1.8649608,-0.11165828\H,0,-2.37341254,0.22809951,0.07313792\\Version=
 ES64L-G16RevC.01\State=1-A\HF=-336.8289692\RMSD=5.952e-02\Dipole=0.054

 Normal termination of Gaussian 16 at Wed Apr  9 16:09:42 2025.
