 Gaussian 16, Revision C.01,

 ----------------------------------------------------------------------
 #t hf aug-cc-pvdz symm=none int=(grid=ultrafine) guess=(read,tcheck) s
 table=(opt,rrhf)
 ----------------------------------------------------------------------
 -----
 title
 -----
 Symbolic Z-matrix:
 Charge =  0 Multiplicity = 1

 SCF Done:  E(RHF) =  -231.674584445     A.U. after   16 cycles
 Normal termination of Gaussian 16 at Wed Apr  9 03:21:07 2025.
 Gaussian 16:  ES64L-G16RevC.01  3-Jul-2019

 ----------------------------------------------------------------------
 #t hf aug-cc-pvdz iop(5/13=1,5/36=2,99/5=2) pseudo=read geom=check gue
 ss=(read,tcheck) scf=(maxcycle=1)
 ----------------------------------------------------------------------
 -----
 title
 -----
 Structure from the checkpoint file:  "Grambow2020_wb97xd3_006055_reverse_mol1.chk"
 Charge =  0 Multiplicity = 1

                         Standard orientation:
 ---------------------------------------------------------------------
 Center     Atomic      Atomic             Coordinates (Angstroms)
 Number     Number       Type             X           Y           Z
 ---------------------------------------------------------------------
      1          6           0       -1.276390   -0.514946    0.722982
      2          6           0       -0.537504   -0.712367   -0.573369
      3          6           0       -1.041255    0.647476   -0.186975
      4          6           0        0.222078    1.488996   -0.113663
      5          6           0        1.692664   -0.304422    0.492000
      6          6           0        0.937295   -0.472018   -0.603666
      7          1           0       -0.757315   -0.569405    1.671942
      8          1           0       -2.273182   -0.938687    0.740596
      9          1           0       -0.983592   -1.300353   -1.363676
     10          1           0       -1.867523    1.104924   -0.720436
     11          1           0        0.478101    1.713971    0.937426
     12          1           0        2.715099    0.039001    0.404671
     13          1           0        1.325190   -0.513636    1.487344
     14          1           0        1.381902   -0.332131   -1.581722
 ---------------------------------------------------------------------

 SCF Done:  E(RHF) =  -232.817448624     A.U. after    2 cycles

 The electronic state is 1-A.
 Alpha  occ. eigenvalues --  -11.46912 -11.43482 -11.41415 -11.39591 -11.38714
 Alpha  occ. eigenvalues --  -11.36609  -1.38568  -1.13138  -0.96405  -0.91973
 Alpha  occ. eigenvalues --   -0.79940  -0.76072  -0.70285  -0.63542  -0.59960
 Alpha  occ. eigenvalues --   -0.53465  -0.53371  -0.46774  -0.44630  -0.42816
 Alpha  occ. eigenvalues --   -0.32606  -0.29212
 Alpha virt. eigenvalues --    0.03903   0.05063   0.05175   0.05506   0.06030
 Alpha virt. eigenvalues --    0.06394   0.06562   0.08659   0.09164   0.10006
 Alpha virt. eigenvalues --    0.11236   0.12312   0.14046   0.14276   0.14742

 Mulliken charges:
               1
     1  C   -2.630271
     2  C   -1.037358
     3  C   -0.037417
     4  C   -2.583167
     5  C   -3.373732
     6  C   -1.114116
     7  H    1.284234
     8  H    1.183909
     9  H    1.309074
    10  H    1.380698
    11  H    1.320136
    12  H    1.451211
    13  H    1.433533
    14  H    1.413266
 Sum of Mulliken charges =   0.00000

 Dipole moment (field-independent basis, Debye):
    X=             -0.4895    Y=             -1.9759    Z=              0.7146  Tot=              2.1574

 Test job not archived.
 1\1\GINC-SE162\SP\RHF\Aug-CC-pVDZ\C6H8\OHZDE\09-Apr-2025\0\\#t hf aug-
 cc-pvdz iop(5/13=1,5/36=2,99/5=2) pseudo=read geom=check guess=(read,t
 check) scf=(maxcycle=1)\\title\\0,1\C,0,1.21971822,-0.66040853,-0.5841
 2028\C,0,0.87533942,0.1873596,0.61093021\C,0,0.71010912,0.73145187,-0.
 77791842\C,0,-0.77456554,1.0440368,-0.86494633\C,0,-1.48574506,-0.6468
 1477,0.67811651\C,0,-0.53861201,0.2067111,1.09475365\H,0,0.60077598,-1
 .50410825,-0.86342686\H,0,2.280796,-0.8255493,-0.72660829\H,0,1.657402
 66,0.51724373,1.28090039\H,0,1.36619709,1.51111718,-1.14970874\H,0,-1.

 Normal termination of Gaussian 16 at Wed Apr  9 03:21:11 2025.
