 Gaussian 16, Revision C.01,

 ----------------------------------------------------------------------
 #t hf aug-cc-pvdz symm=none int=(grid=ultrafine) guess=(read,tcheck) s
 table=(opt,rrhf)
 ----------------------------------------------------------------------
 -----
 title
 -----
 Symbolic Z-matrix:
 Charge =  0 Multiplicity = 1

 SCF Done:  E(RHF) =  -307.813878350     A.U. after   15 cycles

 1\1\GINC-SE174\Stability\RHF\Aug-CC-pVDZ\C6H10O1\OHZDE\09-Apr-2025\0\\
 #t hf aug-cc-pvdz symm=none int=(grid=ultrafine) guess=(read,tcheck) s
 table=(opt,rrhf)\\title\\0,1\C,0,1.85228273,-0.55541234,0.23949238\C,0
 ,0.52744805,0.14521498,0.48106515\C,0,0.19636586,1.29301824,-0.4875200
 8\C,0,-1.26655252,1.47611249,-0.61398461\C,0,-1.82091362,0.29483112,0.
 08676033\C,0,-0.72429687,-0.74245162,0.36998928\O,0,-0.64920237,-1.722
 81085,-0.65009714\H,0,1.87955099,-1.01242253,-0.75100129\H,0,2.6828142
 8,0.14967767,0.31241678\H,0,2.02066673,-1.34871658,0.97000111\H,0,0.52

 Normal termination of Gaussian 16 at Wed Apr  9 03:45:45 2025.
 Gaussian 16:  ES64L-G16RevC.01  3-Jul-2019

 ----------------------------------------------------------------------
 #t hf aug-cc-pvdz iop(5/13=1,5/36=2,99/5=2) pseudo=read geom=check gue
 ss=(read,tcheck) scf=(maxcycle=1)
 ----------------------------------------------------------------------
 -----
 title
 -----
 Structure from the checkpoint file:  "Grambow2020_wb97xd3_007823_reverse_mol2.chk"
 Charge =  0 Multiplicity = 1

                         Standard orientation:
 ---------------------------------------------------------------------
 Center     Atomic      Atomic             Coordinates (Angstroms)
 Number     Number       Type             X           Y           Z
 ---------------------------------------------------------------------
      1          6           0       -2.124884   -0.218903    0.050530
      2          6           0       -0.683069   -0.426462    0.477746
      3          6           0        0.133623   -1.399033   -0.389632
      4          6           0        1.576476   -1.075025   -0.336308
      5          6           0        1.608574    0.228283    0.366646
      6          6           0        0.200627    0.832975    0.470443
      7          8           0       -0.071074    1.723725   -0.597294
      8          1           0       -2.179645    0.196039   -0.957193
      9          1           0       -2.672062   -1.163761    0.060176
     10          1           0       -2.640597    0.474167    0.717628
     11          1           0       -0.669745   -0.813258    1.503722
     12          1           0       -0.037204   -1.194639   -1.467361
     13          1           0       -0.096687   -2.461347   -0.289004
     14          1           0        1.917366   -0.158995    1.358432
     15          1           0        2.403130    0.915089    0.069808
     16          1           0        0.059417    1.431371    1.371473
     17          1           0        0.216539    1.334534   -1.425875
 ---------------------------------------------------------------------

 SCF Done:  E(RHF) =  -309.274955464     A.U. after    2 cycles

 The electronic state is 1-A.
 Alpha  occ. eigenvalues --  -21.07276 -11.47277 -11.44107 -11.40544 -11.39913
 Alpha  occ. eigenvalues --  -11.38683 -11.35544  -1.72521  -1.32817  -1.11697
 Alpha  occ. eigenvalues --   -1.03550  -0.95359  -0.81199  -0.74976  -0.68988
 Alpha  occ. eigenvalues --   -0.63189  -0.60603  -0.58592  -0.55936  -0.53047
 Alpha  occ. eigenvalues --   -0.50650  -0.46386  -0.45682  -0.44635  -0.40006
 Alpha  occ. eigenvalues --   -0.33615  -0.29299
 Alpha virt. eigenvalues --    0.03700   0.04857   0.04889   0.05355   0.05643
 Alpha virt. eigenvalues --    0.06123   0.06513   0.06564   0.07730   0.08174
 Alpha virt. eigenvalues --    0.09466   0.10675   0.12414   0.12948   0.13246

 Mulliken charges:
               1
     1  C   -3.839640
     2  C   -1.544389
     3  C   -2.491997
     4  C   -0.865669
     5  C   -2.884285
     6  C    1.601607
     7  O   -3.407382
     8  H    1.357755
     9  H    1.215844
    10  H    1.172963
    11  H    1.519742
    12  H    1.635833
    13  H    1.300417
    14  H    1.475322
    15  H    1.301444
    16  H    1.748559
    17  H    0.703876
 Sum of Mulliken charges =  -0.00000

 Dipole moment (field-independent basis, Debye):
    X=             -1.5844    Y=              0.6648    Z=              0.9593  Tot=              1.9679

 Test job not archived.
 1\1\GINC-SE174\SP\RHF\Aug-CC-pVDZ\C6H10O1\OHZDE\09-Apr-2025\0\\#t hf a
 ug-cc-pvdz iop(5/13=1,5/36=2,99/5=2) pseudo=read geom=check guess=(rea
 d,tcheck) scf=(maxcycle=1)\\title\\0,1\C,0,1.85228273,-0.55541234,0.23
 949238\C,0,0.52744805,0.14521498,0.48106515\C,0,0.19636586,1.29301824,
 -0.48752008\C,0,-1.26655252,1.47611249,-0.61398461\C,0,-1.82091362,0.2
 9483112,0.08676033\C,0,-0.72429687,-0.74245162,0.36998928\O,0,-0.64920
 237,-1.72281085,-0.65009714\H,0,1.87955099,-1.01242253,-0.75100129\H,0
 ,2.68281428,0.14967767,0.31241678\H,0,2.02066673,-1.34871658,0.9700011

 Normal termination of Gaussian 16 at Wed Apr  9 03:45:51 2025.
