 Gaussian 16, Revision C.01,

 ----------------------------------------------------------------------
 #t hf aug-cc-pvdz symm=none int=(grid=ultrafine) guess=(read,tcheck) s
 table=(opt,rrhf)
 ----------------------------------------------------------------------
 -----
 title
 -----
 Symbolic Z-matrix:
 Charge =  0 Multiplicity = 1

 SCF Done:  E(RHF) =  -306.712283221     A.U. after   14 cycles
 Normal termination of Gaussian 16 at Wed Apr  9 19:08:56 2025.
 Gaussian 16:  ES64L-G16RevC.01  3-Jul-2019

 ----------------------------------------------------------------------
 #t hf aug-cc-pvdz iop(5/13=1,5/36=2,99/5=2) pseudo=read geom=check gue
 ss=(read,tcheck) scf=(maxcycle=1)
 ----------------------------------------------------------------------
 -----
 title
 -----
 Structure from the checkpoint file:  "Grambow2020_wb97xd3_008160_reverse_mol2.chk"
 Charge =  0 Multiplicity = 1

                         Standard orientation:
 ---------------------------------------------------------------------
 Center     Atomic      Atomic             Coordinates (Angstroms)
 Number     Number       Type             X           Y           Z
 ---------------------------------------------------------------------
      1          8           0        2.195798   -0.461411   -0.017733
      2          6           0        0.933783    0.022201   -0.069820
      3          6           0       -1.161914   -1.163834    0.642458
      4          6           0       -1.404768   -0.096345   -0.377236
      5          6           0       -1.007382    1.335444   -0.037496
      6          6           0        0.480214    1.247136    0.198767
      7          6           0       -0.145410   -0.924272   -0.441797
      8          1           0        2.799774    0.253743    0.195964
      9          1           0       -0.896704   -0.876525    1.652908
     10          1           0       -1.764388   -2.059904    0.564261
     11          1           0       -2.199064   -0.259561   -1.093096
     12          1           0       -1.243325    2.007262   -0.868982
     13          1           0       -1.550475    1.710187    0.835891
     14          1           0        1.080722    2.072657    0.560566
     15          1           0        0.039942   -1.678547   -1.194902
 ---------------------------------------------------------------------

 SCF Done:  E(RHF) =  -308.157445381     A.U. after    2 cycles

 The electronic state is 1-A.
 Alpha  occ. eigenvalues --  -21.10138 -11.47699 -11.45014 -11.42131 -11.39511
 Alpha  occ. eigenvalues --  -11.36562 -11.34842  -1.75536  -1.38019  -1.11628
 Alpha  occ. eigenvalues --   -1.00356  -0.88163  -0.80773  -0.75677  -0.70831
 Alpha  occ. eigenvalues --   -0.62595  -0.57532  -0.56743  -0.55560  -0.50688
 Alpha  occ. eigenvalues --   -0.47883  -0.44849  -0.41472  -0.38187  -0.37159
 Alpha  occ. eigenvalues --   -0.26697
 Alpha virt. eigenvalues --    0.03827   0.05304   0.05439   0.05683   0.06061
 Alpha virt. eigenvalues --    0.06378   0.06683   0.07132   0.10822   0.11548
 Alpha virt. eigenvalues --    0.12568   0.13757   0.14249   0.14684   0.14877

 Mulliken charges:
               1
     1  O   -4.096321
     2  C    5.954991
     3  C   -2.517151
     4  C   -0.710545
     5  C   -4.451587
     6  C   -2.142750
     7  C   -2.065213
     8  H    0.956171
     9  H    1.436129
    10  H    1.179975
    11  H    1.252524
    12  H    1.286488
    13  H    1.168699
    14  H    1.489653
    15  H    1.258937
 Sum of Mulliken charges =   0.00000

 Dipole moment (field-independent basis, Debye):
    X=              0.1662    Y=             -0.0934    Z=             -0.1020  Tot=              0.2162

 Test job not archived.
 1\1\GINC-SE162\SP\RHF\Aug-CC-pVDZ\C6H8O1\OHZDE\09-Apr-2025\0\\#t hf au
 g-cc-pvdz iop(5/13=1,5/36=2,99/5=2) pseudo=read geom=check guess=(read
 ,tcheck) scf=(maxcycle=1)\\title\\0,1\O,0,1.92208777,1.47387818,-0.661
 00951\C,0,0.77331547,0.86616238,-0.28647079\C,0,0.40790246,-1.59877461
 ,0.02421099\C,0,-0.85040333,-0.84873488,-0.27975387\C,0,-1.27972066,0.
 26325803,0.67025502\C,0,-0.13131272,1.24054527,0.61896505\C,0,0.447420
 89,-0.43154451,-0.92567817\H,0,1.99713073,2.31597448,-0.2058828\H,0,0.
 87430379,-1.47392356,0.99414697\H,0,0.50276186,-2.58781,-0.40572006\H,

 Normal termination of Gaussian 16 at Wed Apr  9 19:09:01 2025.
