 Gaussian 16, Revision C.01,

 ----------------------------------------------------------------------
 #t hf aug-cc-pvdz symm=none int=(grid=ultrafine) guess=(read,tcheck) s
 table=(opt,rrhf)
 ----------------------------------------------------------------------
 -----
 title
 -----
 Symbolic Z-matrix:
 Charge =  0 Multiplicity = 1

 SCF Done:  E(RHF) =  -359.673306366     A.U. after   14 cycles
 Normal termination of Gaussian 16 at Wed Apr  9 03:46:30 2025.
 Gaussian 16:  ES64L-G16RevC.01  3-Jul-2019

 ----------------------------------------------------------------------
 #t hf aug-cc-pvdz iop(5/13=1,5/36=2,99/5=2) pseudo=read geom=check gue
 ss=(read,tcheck) scf=(maxcycle=1)
 ----------------------------------------------------------------------
 -----
 title
 -----
 Structure from the checkpoint file:  "Grambow2020_wb97xd3_007895_reverse_mol2.chk"
 Charge =  0 Multiplicity = 1

                         Standard orientation:
 ---------------------------------------------------------------------
 Center     Atomic      Atomic             Coordinates (Angstroms)
 Number     Number       Type             X           Y           Z
 ---------------------------------------------------------------------
      1          6           0        2.165715   -0.389116    0.168009
      2          6           0        0.684335   -0.408904    0.103298
      3          7           0       -0.076193    0.760342    0.463554
      4          8           0        0.071498    1.708008   -0.609993
      5          6           0       -0.161265   -1.341430   -0.320992
      6          6           0       -1.437627    0.254711    0.477852
      7          8           0       -1.468106   -0.962355   -0.273547
      8          1           0        2.511254   -0.191654    1.185176
      9          1           0        2.579614   -1.342753   -0.159557
     10          1           0        2.564300    0.395260   -0.479275
     11          1           0        0.343788    2.507429   -0.153832
     12          1           0        0.031821   -2.335949   -0.693544
     13          1           0       -1.706400    0.011219    1.509738
     14          1           0       -2.125107    0.977267    0.045728
 ---------------------------------------------------------------------

 SCF Done:  E(RHF) =  -361.278702575     A.U. after    2 cycles

 The electronic state is 1-A.
 Alpha  occ. eigenvalues --  -21.08780 -21.06834 -15.76418 -11.45961 -11.43269
 Alpha  occ. eigenvalues --  -11.41135 -11.37663  -1.83391  -1.74563  -1.30388
 Alpha  occ. eigenvalues --   -1.14269  -1.01389  -0.88014  -0.78438  -0.69908
 Alpha  occ. eigenvalues --   -0.68477  -0.59744  -0.57559  -0.56736  -0.52733
 Alpha  occ. eigenvalues --   -0.50747  -0.49527  -0.45706  -0.43058  -0.34801
 Alpha  occ. eigenvalues --   -0.33031  -0.24508
 Alpha virt. eigenvalues --    0.03680   0.05135   0.05813   0.05921   0.06251
 Alpha virt. eigenvalues --    0.06644   0.07517   0.10446   0.10984   0.11673
 Alpha virt. eigenvalues --    0.12606   0.13499   0.14591   0.14962   0.15915

 Mulliken charges:
               1
     1  C   -4.157718
     2  C    3.474327
     3  N   -1.350169
     4  O   -2.192533
     5  C    0.018490
     6  C   -1.385459
     7  O   -3.181389
     8  H    1.139688
     9  H    1.136609
    10  H    1.198302
    11  H    0.765955
    12  H    1.345341
    13  H    1.598378
    14  H    1.590177
 Sum of Mulliken charges =  -0.00000

 Dipole moment (field-independent basis, Debye):
    X=              0.1769    Y=              0.1339    Z=             -0.0713  Tot=              0.2331

 Test job not archived.
 1\1\GINC-SE173\SP\RHF\Aug-CC-pVDZ\C4H7N1O2\OHZDE\09-Apr-2025\0\\#t hf
 aug-cc-pvdz iop(5/13=1,5/36=2,99/5=2) pseudo=read geom=check guess=(re
 ad,tcheck) scf=(maxcycle=1)\\title\\0,1\C,0,-1.52864511,-0.9867983,-0.
 64445903\C,0,-0.2034414,-0.39611279,-0.33787462\N,0,-0.1102277,0.88772
 25,0.30896556\O,0,-0.4694583,0.69269216,1.68929319\C,0,1.02558843,-0.8
 7775103,-0.48678425\C,0,1.30905777,1.18156145,0.21592041\O,0,2.0020983
 ,-0.04532621,-0.03150641\H,0,-2.09750048,-0.34441262,-1.32029984\H,0,-
 1.41693542,-1.96625794,-1.1094486\H,0,-2.11158625,-1.10916149,0.271127

 Normal termination of Gaussian 16 at Wed Apr  9 03:46:35 2025.
