 Gaussian 16, Revision C.01,

 ----------------------------------------------------------------------
 #t hf aug-cc-pvdz symm=none int=(grid=ultrafine) guess=(read,tcheck) s
 table=(opt,rrhf)
 ----------------------------------------------------------------------
 -----
 title
 -----
 Symbolic Z-matrix:
 Charge =  0 Multiplicity = 1

 SCF Done:  E(RHF) =  -359.578640311     A.U. after   15 cycles
 Normal termination of Gaussian 16 at Wed Apr  9 18:07:09 2025.
 Gaussian 16:  ES64L-G16RevC.01  3-Jul-2019

 ----------------------------------------------------------------------
 #t hf aug-cc-pvdz iop(5/13=1,5/36=2,99/5=2) pseudo=read geom=check gue
 ss=(read,tcheck) scf=(maxcycle=1)
 ----------------------------------------------------------------------
 -----
 title
 -----
 Structure from the checkpoint file:  "Grambow2020_wb97xd3_006598_forward_mol1.chk"
 Charge =  0 Multiplicity = 1

                         Standard orientation:
 ---------------------------------------------------------------------
 Center     Atomic      Atomic             Coordinates (Angstroms)
 Number     Number       Type             X           Y           Z
 ---------------------------------------------------------------------
      1          6           0        2.562561   -0.289797    0.020237
      2          7           0        1.505593    0.692239   -0.092140
      3          6           0        0.316308    0.319738   -0.058027
      4          6           0       -0.910412    1.180241   -0.199609
      5          8           0       -1.925950    0.327390   -0.247247
      6          6           0       -1.502974   -0.985237    0.131914
      7          8           0       -0.112384   -0.991961    0.024904
      8          1           0        2.843429   -0.636101   -0.978176
      9          1           0        3.437875    0.184503    0.462333
     10          1           0        2.283700   -1.163350    0.616202
     11          1           0       -0.989854    2.041931    0.813224
     12          1           0       -0.840099    1.567460    1.528808
     13          1           0       -1.944801   -1.707663   -0.553152
     14          1           0       -1.815635   -1.165544    1.167392
 ---------------------------------------------------------------------

 SCF Done:  E(RHF) =  -361.184802600     A.U. after    2 cycles

 The electronic state is 1-A.
 Alpha  occ. eigenvalues --  -21.11809 -21.10325 -15.73140 -11.49970 -11.48360
 Alpha  occ. eigenvalues --  -11.43966 -11.38621  -1.92957  -1.73516  -1.37691
 Alpha  occ. eigenvalues --   -1.10420  -0.99005  -0.91105  -0.78949  -0.72367
 Alpha  occ. eigenvalues --   -0.70244  -0.65115  -0.60228  -0.59074  -0.58228
 Alpha  occ. eigenvalues --   -0.50292  -0.48159  -0.44032  -0.40104  -0.36247
 Alpha  occ. eigenvalues --   -0.32987  -0.31652
 Alpha virt. eigenvalues --    0.03316   0.04959   0.05144   0.05305   0.06398
 Alpha virt. eigenvalues --    0.06608   0.07385   0.09385   0.09900   0.11203
 Alpha virt. eigenvalues --    0.12080   0.12818   0.13180   0.13963   0.15549

 Mulliken charges:
               1
     1  C   -3.554402
     2  N   -3.259132
     3  C    5.529097
     4  C   -0.006591
     5  O   -2.739627
     6  C   -0.477216
     7  O   -3.330350
     8  H    1.318558
     9  H    1.319999
    10  H    1.303964
    11  H    0.536664
    12  H    0.141514
    13  H    1.578073
    14  H    1.639449
 Sum of Mulliken charges =  -0.00000

 Dipole moment (field-independent basis, Debye):
    X=             -1.1615    Y=             -2.8683    Z=              0.7303  Tot=              3.1796

 Test job not archived.
 1\1\GINC-SE226\SP\RHF\Aug-CC-pVDZ\C4H7N1O2\OHZDE\09-Apr-2025\0\\#t hf
 aug-cc-pvdz iop(5/13=1,5/36=2,99/5=2) pseudo=read geom=check guess=(re
 ad,tcheck) scf=(maxcycle=1)\\title\\0,1\C,0,2.31030604,-0.34470523,-0.
 68603215\N,0,1.31311245,0.6998495,-0.59267414\C,0,0.11038286,0.3912024
 2,-0.48087968\C,0,-1.06601529,1.32754775,-0.41233564\O,0,-2.13459026,0
 .54153118,-0.44794318\C,0,-1.76432452,-0.82561017,-0.24922451\O,0,-0.3
 9271467,-0.896423,-0.49193865\H,0,2.47565896,-0.59524543,-1.73747357\H
 ,0,3.25120186,0.03034262,-0.28523464\H,0,2.03134587,-1.26134865,-0.158

 Normal termination of Gaussian 16 at Wed Apr  9 18:07:13 2025.
