 Gaussian 16, Revision C.01,

 ----------------------------------------------------------------------
 #t hf aug-cc-pvdz symm=none int=(grid=ultrafine) guess=(read,tcheck) s
 table=(opt,rrhf)
 ----------------------------------------------------------------------
 -----
 title
 -----
 Symbolic Z-matrix:
 Charge =  0 Multiplicity = 1

 SCF Done:  E(RHF) =  -301.649079708     A.U. after   16 cycles
 Normal termination of Gaussian 16 at Wed Apr  9 19:23:03 2025.
 Gaussian 16:  ES64L-G16RevC.01  3-Jul-2019

 ----------------------------------------------------------------------
 #t hf aug-cc-pvdz iop(5/13=1,5/36=2,99/5=2) pseudo=read geom=check gue
 ss=(read,tcheck) scf=(maxcycle=1)
 ----------------------------------------------------------------------
 -----
 title
 -----
 Structure from the checkpoint file:  "Grambow2020_wb97xd3_008854_reverse_mol2.chk"
 Charge =  0 Multiplicity = 1

                         Standard orientation:
 ---------------------------------------------------------------------
 Center     Atomic      Atomic             Coordinates (Angstroms)
 Number     Number       Type             X           Y           Z
 ---------------------------------------------------------------------
      1          7           0       -2.980242   -0.565500    0.001554
      2          6           0       -2.043682    0.112397   -0.000029
      3          6           0       -0.874048    0.879891   -0.001417
      4          6           0        0.750908   -0.993911   -0.001381
      5          6           0        2.203909   -0.626319    0.001058
      6          6           0        1.660835    0.823334    0.000819
      7          7           0        0.306094    0.243113   -0.001267
      8          1           0       -0.871810    1.955565    0.000031
      9          1           0        0.155256   -1.893813   -0.003737
     10          1           0        2.773053   -0.899228    0.891609
     11          1           0        2.775412   -0.899395   -0.888008
     12          1           0        1.848193    1.409554    0.898856
     13          1           0        1.851404    1.411671   -0.895061
 ---------------------------------------------------------------------

 SCF Done:  E(RHF) =  -303.067797071     A.U. after    2 cycles

 The electronic state is 1-A.
 Alpha  occ. eigenvalues --  -15.86148 -15.72345 -11.50680 -11.46292 -11.42957
 Alpha  occ. eigenvalues --  -11.41166 -11.39442  -1.58461  -1.28573  -1.18519
 Alpha  occ. eigenvalues --   -1.03086  -0.98463  -0.80877  -0.75455  -0.71722
 Alpha  occ. eigenvalues --   -0.70053  -0.57838  -0.56424  -0.54133  -0.52999
 Alpha  occ. eigenvalues --   -0.49337  -0.48258  -0.43635  -0.41522  -0.24697
 Alpha virt. eigenvalues --    0.02615   0.04586   0.04983   0.05324   0.05386
 Alpha virt. eigenvalues --    0.06377   0.08155   0.09545   0.09771   0.11833
 Alpha virt. eigenvalues --    0.12151   0.12382   0.13541   0.14672   0.15261

 Mulliken charges:
               1
     1  N   -2.324558
     2  C    1.693820
     3  C    0.547725
     4  C   -0.100603
     5  C   -3.122084
     6  C   -2.437983
     7  N   -2.879638
     8  H    1.693321
     9  H    1.536527
    10  H    1.144703
    11  H    1.144763
    12  H    1.551925
    13  H    1.552083
 Sum of Mulliken charges =   0.00000

 Dipole moment (field-independent basis, Debye):
    X=              6.3591    Y=              1.3490    Z=             -0.0002  Tot=              6.5007

 Test job not archived.
 1\1\GINC-SE229\SP\RHF\Aug-CC-pVDZ\C5H6N2\OHZDE\09-Apr-2025\0\\#t hf au
 g-cc-pvdz iop(5/13=1,5/36=2,99/5=2) pseudo=read geom=check guess=(read
 ,tcheck) scf=(maxcycle=1)\\title\\0,1\N,0,3.39287916,-0.62671532,-1.06
 772782\C,0,2.50191283,0.05929738,-0.79892066\C,0,1.38950079,0.83698707
 ,-0.46005275\C,0,-0.13907467,-1.0194309,0.1472211\C,0,-1.51883099,-0.6
 3870673,0.59181355\C,0,-1.01279976,0.80422094,0.35032626\N,0,0.2750045
 7,0.21201415,-0.05320351\H,0,1.38051217,1.9114041,-0.51132477\H,0,0.43
 144548,-1.92381,0.00150002\H,0,-2.34108039,-0.94736006,-0.05635645\H,0

 Normal termination of Gaussian 16 at Wed Apr  9 19:23:07 2025.
