 Gaussian 16, Revision C.01,

 ----------------------------------------------------------------------
 #t hf aug-cc-pvdz symm=none int=(grid=ultrafine) guess=(read,tcheck) s
 table=(opt,rrhf)
 ----------------------------------------------------------------------
 -----
 title
 -----
 Symbolic Z-matrix:
 Charge =  0 Multiplicity = 1

 SCF Done:  E(RHF) =  -323.876775235     A.U. after   14 cycles
 Normal termination of Gaussian 16 at Wed Apr  9 18:24:22 2025.
 Gaussian 16:  ES64L-G16RevC.01  3-Jul-2019

 ----------------------------------------------------------------------
 #t hf aug-cc-pvdz iop(5/13=1,5/36=2,99/5=2) pseudo=read geom=check gue
 ss=(read,tcheck) scf=(maxcycle=1)
 ----------------------------------------------------------------------
 -----
 title
 -----
 Structure from the checkpoint file:  "Grambow2020_wb97xd3_006968_reverse_mol2.chk"
 Charge =  0 Multiplicity = 1

                         Standard orientation:
 ---------------------------------------------------------------------
 Center     Atomic      Atomic             Coordinates (Angstroms)
 Number     Number       Type             X           Y           Z
 ---------------------------------------------------------------------
      1          6           0        3.107737    0.818329   -0.537047
      2          6           0        2.351693    0.069004    0.558871
      3          6           0        0.963278   -0.290970    0.125916
      4          8           0        0.498418   -1.401699    0.166480
      5          6           0       -2.932713    1.357509    0.236348
      6          6           0       -2.625508    0.130124   -0.101602
      7          7           0       -2.420319   -1.015397   -0.443094
      8          1           0        2.560903    1.706233   -0.861696
      9          1           0        4.083193    1.143083   -0.175802
     10          1           0        3.267078    0.183509   -1.410040
     11          1           0        2.246479    0.715132    1.438183
     12          1           0        2.870456   -0.838727    0.868476
     13          1           0        0.349896    0.553253   -0.253145
     14          1           0       -1.474841   -1.372474   -0.277481
     15          1           0       -2.810768    2.161470   -0.474655
     16          1           0       -3.324437    1.565915    1.221055
 ---------------------------------------------------------------------

 SCF Done:  E(RHF) =  -325.384824475     A.U. after    2 cycles

 The electronic state is 1-A.
 Alpha  occ. eigenvalues --  -21.07770 -15.75586 -11.49957 -11.46872 -11.42680
 Alpha  occ. eigenvalues --  -11.38584 -11.37979  -1.73096  -1.35199  -1.20986
 Alpha  occ. eigenvalues --   -1.07539  -0.96446  -0.82858  -0.75088  -0.66780
 Alpha  occ. eigenvalues --   -0.62863  -0.62051  -0.61166  -0.58657  -0.53805
 Alpha  occ. eigenvalues --   -0.52030  -0.51216  -0.49658  -0.43731  -0.42700
 Alpha  occ. eigenvalues --   -0.33342  -0.29218
 Alpha virt. eigenvalues --    0.02974   0.04310   0.04932   0.05472   0.05854
 Alpha virt. eigenvalues --    0.06113   0.07144   0.08086   0.08941   0.09680
 Alpha virt. eigenvalues --    0.10601   0.11749   0.12646   0.13092   0.13542

 Mulliken charges:
               1
     1  C   -3.643876
     2  C   -3.694358
     3  C    1.936768
     4  O   -2.930674
     5  C   -2.391908
     6  C    1.663514
     7  N   -2.968016
     8  H    1.300839
     9  H    1.174929
    10  H    1.328126
    11  H    1.398297
    12  H    1.356677
    13  H    1.778027
    14  H    1.024022
    15  H    1.347938
    16  H    1.319695
 Sum of Mulliken charges =   0.00000

 Dipole moment (field-independent basis, Debye):
    X=              2.9665    Y=              1.3316    Z=              0.5643  Tot=              3.3002

 Test job not archived.
 1\1\GINC-SE114\SP\RHF\Aug-CC-pVDZ\C5H9N1O1\OHZDE\09-Apr-2025\0\\#t hf
 aug-cc-pvdz iop(5/13=1,5/36=2,99/5=2) pseudo=read geom=check guess=(re
 ad,tcheck) scf=(maxcycle=1)\\title\\0,1\C,0,2.73751708,0.19508114,0.52
 458233\C,0,1.7495664,-0.9560091,0.34272868\C,0,0.49656211,-0.50607079,
 -0.3444844\O,0,0.03307269,-1.01941882,-1.3309479\C,0,-3.31877264,1.017
 13286,0.67114039\C,0,-2.94423406,0.60761326,-0.51506122\N,0,-2.6680684
 5,0.26324633,-1.64469914\H,0,2.28085548,1.03037588,1.05987769\H,0,3.60
 488515,-0.13172355,1.09759791\H,0,3.09147959,0.56600237,-0.43855369\H,

 Normal termination of Gaussian 16 at Wed Apr  9 18:24:27 2025.
