 Gaussian 16, Revision C.01,

 ----------------------------------------------------------------------
 #t hf aug-cc-pvdz symm=none int=(grid=ultrafine) guess=(read,tcheck) s
 table=(opt,rrhf)
 ----------------------------------------------------------------------
 -----
 title
 -----
 Symbolic Z-matrix:
 Charge =  0 Multiplicity = 1

 SCF Done:  E(RHF) =  -322.646105004     A.U. after   14 cycles
 Normal termination of Gaussian 16 at Wed Apr  9 18:53:40 2025.
 Gaussian 16:  ES64L-G16RevC.01  3-Jul-2019

 ----------------------------------------------------------------------
 #t hf aug-cc-pvdz iop(5/13=1,5/36=2,99/5=2) pseudo=read geom=check gue
 ss=(read,tcheck) scf=(maxcycle=1)
 ----------------------------------------------------------------------
 -----
 title
 -----
 Structure from the checkpoint file:  "Grambow2020_wb97xd3_007749_reverse_mol2.chk"
 Charge =  0 Multiplicity = 1

                         Standard orientation:
 ---------------------------------------------------------------------
 Center     Atomic      Atomic             Coordinates (Angstroms)
 Number     Number       Type             X           Y           Z
 ---------------------------------------------------------------------
      1          6           0       -3.336857   -0.166077   -0.110577
      2          6           0       -2.017643   -0.779324   -0.018342
      3          6           0       -0.941085   -1.301101    0.048482
      4          6           0        3.189545   -1.448277    0.131300
      5          7           0        2.685990   -0.438183   -0.143563
      6          8           0        0.979171    1.732811   -0.422596
      7          6           0        0.199814    1.606060    0.485472
      8          1           0       -3.648456    0.233592    0.855459
      9          1           0       -3.337463    0.646420   -0.838636
     10          1           0       -4.075704   -0.903638   -0.426062
     11          1           0        0.012868   -1.775737    0.094780
     12          1           0        2.201156    0.434083   -0.359648
     13          1           0        0.385450    0.915220    1.323518
     14          1           0       -0.735794    2.187164    0.518285
 ---------------------------------------------------------------------

 SCF Done:  E(RHF) =  -324.109889142     A.U. after    2 cycles

 The electronic state is 1-A.
 Alpha  occ. eigenvalues --  -21.10405 -15.77458 -11.50812 -11.45372 -11.42034
 Alpha  occ. eigenvalues --  -11.40824 -11.40487  -1.75209  -1.34118  -1.18836
 Alpha  occ. eigenvalues --   -1.01783  -0.92869  -0.83060  -0.74314  -0.69548
 Alpha  occ. eigenvalues --   -0.60399  -0.60366  -0.60304  -0.56679  -0.48783
 Alpha  occ. eigenvalues --   -0.47077  -0.46824  -0.46153  -0.38046  -0.37788
 Alpha  occ. eigenvalues --   -0.34394
 Alpha virt. eigenvalues --    0.02226   0.04557   0.05406   0.05506   0.06307
 Alpha virt. eigenvalues --    0.06497   0.07441   0.09139   0.10365   0.10781
 Alpha virt. eigenvalues --    0.11676   0.12373   0.12785   0.12985   0.13851

 Mulliken charges:
               1
     1  C   -5.097990
     2  C    4.355704
     3  C   -3.616751
     4  C   -0.018573
     5  N   -0.877709
     6  O   -2.276006
     7  C   -0.960726
     8  H    1.174704
     9  H    1.146669
    10  H    1.168624
    11  H    0.869611
    12  H    1.104136
    13  H    1.569392
    14  H    1.458917
 Sum of Mulliken charges =   0.00000

 Dipole moment (field-independent basis, Debye):
    X=             -3.9332    Y=              3.3790    Z=              0.1118  Tot=              5.1865

 Test job not archived.
 1\1\GINC-SE108\SP\RHF\Aug-CC-pVDZ\C5H7N1O1\OHZDE\09-Apr-2025\0\\#t hf
 aug-cc-pvdz iop(5/13=1,5/36=2,99/5=2) pseudo=read geom=check guess=(re
 ad,tcheck) scf=(maxcycle=1)\\title\\0,1\C,0,-2.65895575,-0.14190873,-0
 .69101528\C,0,-1.3502766,-0.76961927,-0.55594786\C,0,-0.28020646,-1.30
 004644,-0.45956312\C,0,3.7869089,-1.50446985,0.25276508\N,0,3.29786074
 ,-0.45289839,0.18616249\O,0,1.58089653,1.727422,0.23660923\C,0,0.67170
 343,1.36295735,0.93559773\H,0,-3.13475013,-0.02087149,0.28316427\H,0,-
 2.57246429,0.8397056,-1.1591762\H,0,-3.31116974,-0.75678151,-1.3122794

 Normal termination of Gaussian 16 at Wed Apr  9 18:53:44 2025.
