 Gaussian 16, Revision C.01,

 ----------------------------------------------------------------------
 #t hf aug-cc-pvdz symm=none int=(grid=ultrafine) guess=(read,tcheck) s
 table=(opt,rrhf)
 ----------------------------------------------------------------------
 -----
 title
 -----
 Symbolic Z-matrix:
 Charge =  0 Multiplicity = 1

 SCF Done:  E(RHF) =  -322.501938013     A.U. after   15 cycles
 Normal termination of Gaussian 16 at Wed Apr  9 19:24:07 2025.
 Gaussian 16:  ES64L-G16RevC.01  3-Jul-2019

 ----------------------------------------------------------------------
 #t hf aug-cc-pvdz iop(5/13=1,5/36=2,99/5=2) pseudo=read geom=check gue
 ss=(read,tcheck) scf=(maxcycle=1)
 ----------------------------------------------------------------------
 -----
 title
 -----
 Structure from the checkpoint file:  "Grambow2020_wb97xd3_008894_reverse_mol1.chk"
 Charge =  0 Multiplicity = 1

                         Standard orientation:
 ---------------------------------------------------------------------
 Center     Atomic      Atomic             Coordinates (Angstroms)
 Number     Number       Type             X           Y           Z
 ---------------------------------------------------------------------
      1          8           0       -2.113737   -0.164047   -0.183326
      2          6           0       -0.811924    0.019284   -0.297259
      3          6           0       -0.021401    1.320686   -0.189203
      4          7           0        1.080416    0.634309    0.545332
      5          6           0        0.126598   -0.449796    1.021663
      6          6           0        0.228176   -1.041441   -0.411970
      7          6           0        1.564862   -0.330025   -0.499866
      8          1           0       -0.525217    2.043761    0.449384
      9          1           0        0.287754    1.784729   -1.127248
     10          1           0       -1.395469   -0.175937    0.913317
     11          1           0        0.265517   -1.051983    1.911985
     12          1           0       -0.056338   -2.044802   -0.699311
     13          1           0        2.382660   -0.926598   -0.096169
     14          1           0        1.870210    0.130798   -1.442868
 ---------------------------------------------------------------------

 SCF Done:  E(RHF) =  -324.020409447     A.U. after    2 cycles

 The electronic state is 1-A.
 Alpha  occ. eigenvalues --  -21.01802 -15.73356 -11.56424 -11.47773 -11.46416
 Alpha  occ. eigenvalues --  -11.44192 -11.40032  -1.73549  -1.55246  -1.12898
 Alpha  occ. eigenvalues --   -1.08682  -0.98435  -0.82159  -0.80195  -0.70393
 Alpha  occ. eigenvalues --   -0.67864  -0.63516  -0.61152  -0.55098  -0.52116
 Alpha  occ. eigenvalues --   -0.47303  -0.46107  -0.42480  -0.36670  -0.27725
 Alpha  occ. eigenvalues --   -0.25265
 Alpha virt. eigenvalues --    0.03649   0.04711   0.05164   0.05447   0.06262
 Alpha virt. eigenvalues --    0.06610   0.07916   0.09185   0.09982   0.11856
 Alpha virt. eigenvalues --    0.12037   0.12251   0.13248   0.14197   0.14834

 Mulliken charges:
               1
     1  O   -3.642698
     2  C    4.670825
     3  C   -3.001808
     4  N   -1.663023
     5  C   -0.181865
     6  C   -2.208606
     7  C   -2.114675
     8  H    1.381789
     9  H    1.358829
    10  H    0.209924
    11  H    1.160037
    12  H    1.447221
    13  H    1.296924
    14  H    1.287125
 Sum of Mulliken charges =   0.00000

 Dipole moment (field-independent basis, Debye):
    X=              1.3738    Y=             -0.6374    Z=             -0.7354  Tot=              1.6836

 Test job not archived.
 1\1\GINC-SE083\SP\RHF\Aug-CC-pVDZ\C5H7N1O1\OHZDE\09-Apr-2025\0\\#t hf
 aug-cc-pvdz iop(5/13=1,5/36=2,99/5=2) pseudo=read geom=check guess=(re
 ad,tcheck) scf=(maxcycle=1)\\title\\0,1\O,0,-0.90381748,2.10815726,0.4
 1410611\C,0,-0.58779348,0.83260581,0.29408516\C,0,-1.19951102,-0.21607
 201,-0.63129333\N,0,0.13884682,-0.82007891,-0.89326238\C,0,0.82948489,
 0.49067921,-0.5513878\C,0,0.56193434,0.13752878,0.93836609\C,0,0.50747
 69,-1.30707792,0.47933107\H,0,-1.60769741,0.23501174,-1.5337176\H,0,-1
 .92013318,-0.90270001,-0.18398365\H,0,-0.03485324,1.7770022,-0.5099688

 Normal termination of Gaussian 16 at Wed Apr  9 19:24:12 2025.
