 Gaussian 16, Revision C.01,

 ----------------------------------------------------------------------
 #t hf aug-cc-pvdz symm=none int=(grid=ultrafine) guess=(read,tcheck) s
 table=(opt,rrhf)
 ----------------------------------------------------------------------
 -----
 title
 -----
 Symbolic Z-matrix:
 Charge =  0 Multiplicity = 1

 SCF Done:  E(RHF) =  -234.062787541     A.U. after   14 cycles
 Normal termination of Gaussian 16 at Wed Apr  9 16:30:14 2025.
 Gaussian 16:  ES64L-G16RevC.01  3-Jul-2019

 ----------------------------------------------------------------------
 #t hf aug-cc-pvdz iop(5/13=1,5/36=2,99/5=2) pseudo=read geom=check gue
 ss=(read,tcheck) scf=(maxcycle=1)
 ----------------------------------------------------------------------
 -----
 title
 -----
 Structure from the checkpoint file:  "Grambow2020_b97d3_006826_reverse_mol1.chk"
 Charge =  0 Multiplicity = 1

                         Standard orientation:
 ---------------------------------------------------------------------
 Center     Atomic      Atomic             Coordinates (Angstroms)
 Number     Number       Type             X           Y           Z
 ---------------------------------------------------------------------
      1          6           0       -0.817569    1.452558   -0.229369
      2          6           0       -0.427769   -0.014017    0.054683
      3          6           0       -1.674501   -0.913666   -0.081727
      4          6           0        0.741855   -0.459964   -0.860480
      5          6           0        1.977547   -0.009676   -0.064780
      6          6           0        0.236409   -0.276894    1.419895
      7          1           0       -1.563974    1.799445    0.500754
      8          1           0        0.052687    2.120934   -0.161993
      9          1           0       -1.254221    1.564431   -1.234657
     10          1           0       -2.466083   -0.597022    0.614020
     11          1           0       -1.425532   -1.959534    0.136954
     12          1           0       -2.080664   -0.846379   -1.102515
     13          1           0        0.743229   -1.556527   -0.927886
     14          1           0        0.688377   -0.050417   -1.878888
     15          1           0        2.130295    1.073745   -0.049722
     16          1           0        2.918425   -0.528736   -0.291519
     17          1           0        0.323183    0.704364    1.949414
     18          1           0        1.718443   -0.394361    1.016701
 ---------------------------------------------------------------------

 SCF Done:  E(RHF) =  -235.277596600     A.U. after    2 cycles

 The electronic state is 1-A.
 Alpha  occ. eigenvalues --  -11.45491 -11.41160 -11.39637 -11.38580 -11.38391
 Alpha  occ. eigenvalues --  -11.35074  -1.32197  -1.09794  -0.99972  -0.93583
 Alpha  occ. eigenvalues --   -0.91074  -0.73025  -0.64546  -0.62833  -0.60105
 Alpha  occ. eigenvalues --   -0.57280  -0.54741  -0.53658  -0.49928  -0.49826
 Alpha  occ. eigenvalues --   -0.46036  -0.41677  -0.39709  -0.30776
 Alpha virt. eigenvalues --    0.03986   0.04830   0.05255   0.05480   0.05644
 Alpha virt. eigenvalues --    0.05912   0.06234   0.06649   0.07278   0.08751
 Alpha virt. eigenvalues --    0.09086   0.09166   0.10203   0.12465   0.13011

 Mulliken charges:
               1
     1  C   -4.174754
     2  C    3.446415
     3  C   -4.399700
     4  C   -3.810403
     5  C   -3.678767
     6  C   -2.930293
     7  H    1.184699
     8  H    1.301407
     9  H    1.147632
    10  H    1.216022
    11  H    1.386930
    12  H    1.222716
    13  H    1.400573
    14  H    1.379933
    15  H    1.351935
    16  H    1.074078
    17  H    1.316927
    18  H    1.564649
 Sum of Mulliken charges =   0.00000

 Dipole moment (field-independent basis, Debye):
    X=              0.5724    Y=              1.1454    Z=             -1.6864  Tot=              2.1175

 Test job not archived.
 1\1\GINC-SE173\SP\RHF\Aug-CC-pVDZ\C6H12\OHZDE\09-Apr-2025\0\\#t hf aug
 -cc-pvdz iop(5/13=1,5/36=2,99/5=2) pseudo=read geom=check guess=(read,
 tcheck) scf=(maxcycle=1)\\title\\0,1\C,0,-1.08737925,-1.08191794,0.491
 29049\C,0,-0.37281467,0.09837657,-0.20136723\C,0,-1.4090331,1.17931074
 ,-0.57572876\C,0,0.77549625,0.64421399,0.68624539\C,0,1.95619504,-0.25
 944561,0.29614053\C,0,0.45427094,-0.26098253,-1.45069922\H,0,-1.819907
 64,-1.54002973,-0.18993306\H,0,-0.37513766,-1.86352024,0.79199049\H,0,
 -1.62817319,-0.75092059,1.39227277\H,0,-2.18230834,0.76879365,-1.24239

 Normal termination of Gaussian 16 at Wed Apr  9 16:30:20 2025.
