 Gaussian 16, Revision C.01,

 ----------------------------------------------------------------------
 #t hf aug-cc-pvdz symm=none int=(grid=ultrafine) guess=(read,tcheck) s
 table=(opt,rrhf)
 ----------------------------------------------------------------------
 -----
 title
 -----
 Symbolic Z-matrix:
 Charge =  0 Multiplicity = 1

 SCF Done:  E(RHF) =  -374.454797315     A.U. after   17 cycles
 Normal termination of Gaussian 16 at Wed Apr  9 18:37:14 2025.
 Gaussian 16:  ES64L-G16RevC.01  3-Jul-2019

 ----------------------------------------------------------------------
 #t hf aug-cc-pvdz iop(5/13=1,5/36=2,99/5=2) pseudo=read geom=check gue
 ss=(read,tcheck) scf=(maxcycle=1)
 ----------------------------------------------------------------------
 -----
 title
 -----
 Structure from the checkpoint file:  "Grambow2020_wb97xd3_007333_reverse_mol1.chk"
 Charge =  0 Multiplicity = 1

                         Standard orientation:
 ---------------------------------------------------------------------
 Center     Atomic      Atomic             Coordinates (Angstroms)
 Number     Number       Type             X           Y           Z
 ---------------------------------------------------------------------
      1          7           0       -2.362350   -0.472424    0.045613
      2          6           0       -1.035333   -0.091602   -0.064845
      3          6           0       -0.511416    1.187652   -0.078597
      4          8           0        0.780358    1.173866    0.062821
      5          6           0        1.193720   -0.271124    0.113672
      6          8           0        2.313820   -0.580708   -0.205125
      7          7           0       -0.040654   -0.976106    0.052063
      8          1           0       -2.543072   -1.394026   -0.318753
      9          1           0       -3.026311    0.204358   -0.292005
     10          1           0       -1.021081    2.140616   -0.031008
     11          1           0        0.776249   -0.506049    1.275089
 ---------------------------------------------------------------------

 SCF Done:  E(RHF) =  -376.088839586     A.U. after    2 cycles

 The electronic state is 1-A.
 Alpha  occ. eigenvalues --  -21.14467 -21.00877 -15.82455 -15.79241 -11.53704
 Alpha  occ. eigenvalues --  -11.52329 -11.46553  -1.88998  -1.66804  -1.47736
 Alpha  occ. eigenvalues --   -1.32867  -1.07941  -0.89135  -0.83643  -0.74588
 Alpha  occ. eigenvalues --   -0.69285  -0.68074  -0.62487  -0.54832  -0.50435
 Alpha  occ. eigenvalues --   -0.48958  -0.47574  -0.44489  -0.36536  -0.28963
 Alpha  occ. eigenvalues --   -0.24809
 Alpha virt. eigenvalues --    0.02080   0.03864   0.04154   0.05606   0.06958
 Alpha virt. eigenvalues --    0.10092   0.10611   0.10961   0.11040   0.12237
 Alpha virt. eigenvalues --    0.13098   0.13251   0.14026   0.15321   0.16394

 Mulliken charges:
               1
     1  N   -3.191303
     2  C    3.533941
     3  C    0.874656
     4  O   -3.042191
     5  C    4.137820
     6  O   -3.104620
     7  N   -2.997437
     8  H    0.683004
     9  H    0.554858
    10  H    1.580940
    11  H    0.970333
 Sum of Mulliken charges =   0.00000

 Dipole moment (field-independent basis, Debye):
    X=             -4.8089    Y=              2.4845    Z=             -0.3391  Tot=              5.4234

 Test job not archived.
 1\1\GINC-SE135\SP\RHF\Aug-CC-pVDZ\C3H4N2O2\OHZDE\09-Apr-2025\0\\#t hf
 aug-cc-pvdz iop(5/13=1,5/36=2,99/5=2) pseudo=read geom=check guess=(re
 ad,tcheck) scf=(maxcycle=1)\\title\\0,1\N,0,-1.88732596,-0.38027761,-0
 .14979594\C,0,-0.54152809,-0.05317933,-0.14387273\C,0,0.04915186,1.128
 69766,0.26286204\O,0,1.33765446,1.00214598,0.37516882\C,0,1.67401168,-
 0.39630761,-0.06374287\O,0,2.77787052,-0.63900699,-0.48170297\N,0,0.40
 453019,-0.97593492,-0.34109576\H,0,-2.11448614,-1.11702455,-0.79815992
 \H,0,-2.51293757,0.4035403,-0.2340793\H,0,-0.40981606,2.03610474,0.631

 Normal termination of Gaussian 16 at Wed Apr  9 18:37:18 2025.
