 Gaussian 16, Revision C.01,

 ----------------------------------------------------------------------
 #t hf aug-cc-pvdz symm=none int=(grid=ultrafine) guess=(read,tcheck) s
 table=(opt,rrhf)
 ----------------------------------------------------------------------
 -----
 title
 -----
 Symbolic Z-matrix:
 Charge =  0 Multiplicity = 1

 SCF Done:  E(RHF) =  -339.195043858     A.U. after   19 cycles
 Normal termination of Gaussian 16 at Wed Apr  9 16:28:39 2025.
 Gaussian 16:  ES64L-G16RevC.01  3-Jul-2019

 ----------------------------------------------------------------------
 #t hf aug-cc-pvdz iop(5/13=1,5/36=2,99/5=2) pseudo=read geom=check gue
 ss=(read,tcheck) scf=(maxcycle=1)
 ----------------------------------------------------------------------
 -----
 title
 -----
 Structure from the checkpoint file:  "Grambow2020_b97d3_006812_reverse_mol1.chk"
 Charge =  0 Multiplicity = 1

                         Standard orientation:
 ---------------------------------------------------------------------
 Center     Atomic      Atomic             Coordinates (Angstroms)
 Number     Number       Type             X           Y           Z
 ---------------------------------------------------------------------
      1          8           0       -1.992791   -0.760073   -0.332431
      2          6           0       -0.990985   -0.352178    0.406855
      3          6           0        0.084331    0.592234    0.023402
      4          8           0       -0.158527    1.801611   -0.006412
      5          6           0        1.483875    0.007159   -0.079353
      6          8           0        1.680239   -1.193021    0.008435
      7          1           0       -1.979559   -1.023992    0.829271
      8          1           0        2.284860    0.752566   -0.291427
 ---------------------------------------------------------------------

 SCF Done:  E(RHF) =  -340.591158138     A.U. after    2 cycles

 The electronic state is 1-A.
 Alpha  occ. eigenvalues --  -21.14253 -21.12693 -21.11900 -11.55288 -11.52040
 Alpha  occ. eigenvalues --  -11.49256  -1.80121  -1.75811  -1.72970  -1.08052
 Alpha  occ. eigenvalues --   -0.93436  -0.76541  -0.71631  -0.62188  -0.58891
 Alpha  occ. eigenvalues --   -0.55565  -0.51750  -0.47388  -0.44352  -0.38862
 Alpha  occ. eigenvalues --   -0.34418  -0.27242
 Alpha virt. eigenvalues --    0.03143   0.05230   0.07191   0.09202   0.09919
 Alpha virt. eigenvalues --    0.10577   0.10701   0.11143   0.12110   0.12540
 Alpha virt. eigenvalues --    0.12974   0.13751   0.14518   0.15133   0.18317

 Mulliken charges:
               1
     1  O   -2.035713
     2  C    0.274230
     3  C    3.331904
     4  O   -2.960786
     5  C    1.085047
     6  O   -2.566182
     7  H    1.264769
     8  H    1.606732
 Sum of Mulliken charges =   0.00000

 Dipole moment (field-independent basis, Debye):
    X=             -0.5534    Y=             -0.3961    Z=             -0.8907  Tot=              1.1210

 Test job not archived.
 1\1\GINC-SE163\SP\RHF\Aug-CC-pVDZ\C3H2O3\OHZDE\09-Apr-2025\0\\#t hf au
 g-cc-pvdz iop(5/13=1,5/36=2,99/5=2) pseudo=read geom=check guess=(read
 ,tcheck) scf=(maxcycle=1)\\title\\0,1\O,0,-1.91081478,0.31386385,1.072
 47896\C,0,-0.62225255,0.42685983,0.86420784\C,0,0.08377252,0.40890265,
 -0.43827528\O,0,0.05711401,1.4152143,-1.15177876\C,0,0.99144312,-0.784
 29334,-0.69128147\O,0,1.02126335,-1.73470768,0.07194839\H,0,-1.1981505
 9,0.61930239,1.9770215\H,0,1.57037291,-0.73449399,-1.64235717\\Version
 =ES64L-G16RevC.01\State=1-A\HF=-340.5911581\RMSD=2.316e-01\Dipole=-0.4

 Normal termination of Gaussian 16 at Wed Apr  9 16:28:42 2025.
