 Gaussian 16, Revision C.01,

 ----------------------------------------------------------------------
 #t hf aug-cc-pvdz symm=none int=(grid=ultrafine) guess=(read,tcheck) s
 table=(opt,rrhf)
 ----------------------------------------------------------------------
 -----
 title
 -----
 Symbolic Z-matrix:
 Charge =  0 Multiplicity = 1

 SCF Done:  E(RHF) =  -231.652549621     A.U. after   15 cycles
 Normal termination of Gaussian 16 at Wed Apr  9 16:55:10 2025.
 Gaussian 16:  ES64L-G16RevC.01  3-Jul-2019

 ----------------------------------------------------------------------
 #t hf aug-cc-pvdz iop(5/13=1,5/36=2,99/5=2) pseudo=read geom=check gue
 ss=(read,tcheck) scf=(maxcycle=1)
 ----------------------------------------------------------------------
 -----
 title
 -----
 Structure from the checkpoint file:  "Grambow2020_b97d3_006873_forward_mol1.chk"
 Charge =  0 Multiplicity = 1

                         Standard orientation:
 ---------------------------------------------------------------------
 Center     Atomic      Atomic             Coordinates (Angstroms)
 Number     Number       Type             X           Y           Z
 ---------------------------------------------------------------------
      1          6           0        1.264415   -0.242065   -0.638507
      2          6           0        0.372497    0.989042   -0.456295
      3          6           0       -1.049349    0.541504   -0.095618
      4          6           0       -1.537402   -0.872959   -0.306406
      5          6           0        0.612776   -0.857190    0.628512
      6          6           0        0.010559    0.537756    0.961601
      7          1           0        2.311100    0.009817   -0.417583
      8          1           0        1.220542   -0.810289   -1.578737
      9          1           0        0.591811    1.999667   -0.798341
     10          1           0       -1.820005    1.316237   -0.092800
     11          1           0       -0.326102   -1.548839    0.443230
     12          1           0       -1.275965   -1.184174   -1.348912
     13          1           0        1.231781   -1.432966    1.325938
     14          1           0        0.025864    1.074022    1.907483
 ---------------------------------------------------------------------

 SCF Done:  E(RHF) =  -232.798472802     A.U. after    2 cycles

 The electronic state is 1-A.
 Alpha  occ. eigenvalues --  -11.50101 -11.44826 -11.40950 -11.40676 -11.39684
 Alpha  occ. eigenvalues --  -11.36187  -1.43521  -1.06933  -0.99405  -0.93171
 Alpha  occ. eigenvalues --   -0.77697  -0.75674  -0.71857  -0.63309  -0.57951
 Alpha  occ. eigenvalues --   -0.54418  -0.51725  -0.44853  -0.43993  -0.41275
 Alpha  occ. eigenvalues --   -0.34750  -0.29710
 Alpha virt. eigenvalues --    0.03955   0.04827   0.05171   0.05536   0.05925
 Alpha virt. eigenvalues --    0.06227   0.06394   0.07966   0.09076   0.11598
 Alpha virt. eigenvalues --    0.11925   0.12666   0.12991   0.13600   0.14812

 Mulliken charges:
               1
     1  C   -2.872107
     2  C   -0.843605
     3  C   -0.157967
     4  C   -3.090657
     5  C   -2.720192
     6  C   -0.467061
     7  H    1.237804
     8  H    1.259850
     9  H    1.270896
    10  H    1.464283
    11  H    1.422305
    12  H    1.151023
    13  H    1.234996
    14  H    1.110430
 Sum of Mulliken charges =   0.00000

 Dipole moment (field-independent basis, Debye):
    X=              2.0149    Y=              1.2928    Z=             -0.1875  Tot=              2.4013

 Test job not archived.
 1\1\GINC-SE114\SP\RHF\Aug-CC-pVDZ\C6H8\OHZDE\09-Apr-2025\0\\#t hf aug-
 cc-pvdz iop(5/13=1,5/36=2,99/5=2) pseudo=read geom=check guess=(read,t
 check) scf=(maxcycle=1)\\title\\0,1\C,0,-1.1055734,-0.33137222,0.65667
 887\C,0,-0.41404833,1.00269621,0.36274316\C,0,1.05212973,0.74788337,-0
 .0079546\C,0,1.75271634,-0.55823637,0.28625861\C,0,-0.39227605,-0.9332
 3073,-0.58320918\C,0,-0.01472043,0.5079372,-1.03039644\H,0,-2.18231361
 ,-0.25595311,0.44993179\H,0,-0.95840501,-0.81611546,1.63248723\H,0,-0.
 77744372,1.99141826,0.63992453\H,0,1.69633353,1.62696479,-0.08761954\H

 Normal termination of Gaussian 16 at Wed Apr  9 16:55:14 2025.
