 Gaussian 16, Revision C.01,

 ----------------------------------------------------------------------
 #t hf aug-cc-pvdz symm=none int=(grid=ultrafine) guess=(read,tcheck) s
 table=(opt,rrhf)
 ----------------------------------------------------------------------
 -----
 title
 -----
 Symbolic Z-matrix:
 Charge =  0 Multiplicity = 1

 SCF Done:  E(RHF) =  -301.583346206     A.U. after   17 cycles
 Normal termination of Gaussian 16 at Wed Apr  9 19:23:05 2025.
 Gaussian 16:  ES64L-G16RevC.01  3-Jul-2019

 ----------------------------------------------------------------------
 #t hf aug-cc-pvdz iop(5/13=1,5/36=2,99/5=2) pseudo=read geom=check gue
 ss=(read,tcheck) scf=(maxcycle=1)
 ----------------------------------------------------------------------
 -----
 title
 -----
 Structure from the checkpoint file:  "Grambow2020_wb97xd3_008854_forward_mol1.chk"
 Charge =  0 Multiplicity = 1

                         Standard orientation:
 ---------------------------------------------------------------------
 Center     Atomic      Atomic             Coordinates (Angstroms)
 Number     Number       Type             X           Y           Z
 ---------------------------------------------------------------------
      1          7           0       -2.282081   -0.967035   -0.105353
      2          6           0       -1.618005   -0.021067   -0.020099
      3          6           0       -0.784052    1.109593    0.016576
      4          6           0        0.804732    0.185544    0.991860
      5          6           0        1.378581   -1.001779    0.293070
      6          6           0        1.269982   -0.098468   -0.975858
      7          7           0        0.624855    0.934203   -0.104918
      8          1           0       -1.196538    2.099348   -0.102299
      9          1           0        0.623622    0.497457    2.009185
     10          1           0        2.354796   -1.350848    0.629456
     11          1           0        0.685041   -1.846900    0.249005
     12          1           0        2.216178    0.248524   -1.386552
     13          1           0        0.610060   -0.460688   -1.760201
 ---------------------------------------------------------------------

 SCF Done:  E(RHF) =  -303.002374458     A.U. after    2 cycles

 The electronic state is 1-A.
 Alpha  occ. eigenvalues --  -15.79118 -15.70852 -11.52460 -11.48550 -11.42471
 Alpha  occ. eigenvalues --  -11.42058 -11.38810  -1.57642  -1.27069  -1.16010
 Alpha  occ. eigenvalues --   -1.02222  -0.98149  -0.81808  -0.75430  -0.71206
 Alpha  occ. eigenvalues --   -0.64746  -0.61647  -0.56718  -0.54916  -0.49713
 Alpha  occ. eigenvalues --   -0.48509  -0.46100  -0.40510  -0.39926  -0.25723
 Alpha virt. eigenvalues --    0.02851   0.04023   0.04597   0.05212   0.06363
 Alpha virt. eigenvalues --    0.06557   0.07161   0.09120   0.09867   0.10286
 Alpha virt. eigenvalues --    0.11861   0.13093   0.13158   0.13836   0.14111

 Mulliken charges:
               1
     1  N   -2.591986
     2  C    2.397347
     3  C   -0.657164
     4  C    0.238832
     5  C   -2.787117
     6  C   -2.311891
     7  N   -2.523928
     8  H    1.404783
     9  H    1.369206
    10  H    1.154089
    11  H    1.300597
    12  H    1.409275
    13  H    1.597958
 Sum of Mulliken charges =   0.00000

 Dipole moment (field-independent basis, Debye):
    X=              5.8153    Y=              0.8340    Z=              0.4702  Tot=              5.8936

 Test job not archived.
 1\1\GINC-SE224\SP\RHF\Aug-CC-pVDZ\C5H6N2\OHZDE\09-Apr-2025\0\\#t hf au
 g-cc-pvdz iop(5/13=1,5/36=2,99/5=2) pseudo=read geom=check guess=(read
 ,tcheck) scf=(maxcycle=1)\\title\\0,1\N,0,2.49857876,-0.47658244,1.204
 54197\C,0,1.9724304,0.00584546,0.29155218\C,0,1.29944336,0.63690351,-0
 .76866931\C,0,-0.32916599,-0.65758668,-0.80339848\C,0,-1.09997078,-0.7
 474144,0.47140991\C,0,-0.95752044,0.80746533,0.47246556\N,0,-0.1252172
 5,0.66627432,-0.76384733\H,0,1.83024829,1.28955646,-1.44408173\H,0,-0.
 04126926,-1.31979491,-1.60566792\H,0,-2.08922535,-1.20224747,0.4213760

 Normal termination of Gaussian 16 at Wed Apr  9 19:23:09 2025.
