 Gaussian 16, Revision C.01,

 ----------------------------------------------------------------------
 #t hf aug-cc-pvdz symm=none int=(grid=ultrafine) guess=(read,tcheck) s
 table=(opt,rrhf)
 ----------------------------------------------------------------------
 -----
 title
 -----
 Symbolic Z-matrix:
 Charge =  0 Multiplicity = 1

 SCF Done:  E(RHF) =  -322.605880285     A.U. after   15 cycles
 Normal termination of Gaussian 16 at Wed Apr  9 18:53:44 2025.
 Gaussian 16:  ES64L-G16RevC.01  3-Jul-2019

 ----------------------------------------------------------------------
 #t hf aug-cc-pvdz iop(5/13=1,5/36=2,99/5=2) pseudo=read geom=check gue
 ss=(read,tcheck) scf=(maxcycle=1)
 ----------------------------------------------------------------------
 -----
 title
 -----
 Structure from the checkpoint file:  "Grambow2020_wb97xd3_007757_reverse_mol1.chk"
 Charge =  0 Multiplicity = 1

                         Standard orientation:
 ---------------------------------------------------------------------
 Center     Atomic      Atomic             Coordinates (Angstroms)
 Number     Number       Type             X           Y           Z
 ---------------------------------------------------------------------
      1          6           0       -2.464222   -0.694692   -0.461071
      2          6           0       -1.258677   -0.006651   -0.003597
      3          6           0       -0.108697   -0.171957    0.711568
      4          6           0        1.392137   -0.079521   -0.061832
      5          7           0        1.963771   -1.197344    0.179809
      6          8           0        1.569095    0.968767   -0.668772
      7          6           0       -0.799990    1.239757    0.443252
      8          1           0       -3.359920   -0.107369   -0.257980
      9          1           0       -2.381326   -0.789238   -1.549755
     10          1           0       -2.543159   -1.697740   -0.044708
     11          1           0       -0.031899   -0.855267    1.547967
     12          1           0        2.850534   -1.224034   -0.318791
     13          1           0       -1.438849    1.868451    1.057130
     14          1           0        0.042158    1.714855   -0.112275
 ---------------------------------------------------------------------

 SCF Done:  E(RHF) =  -324.103062981     A.U. after    2 cycles

 The electronic state is 1-A.
 Alpha  occ. eigenvalues --  -21.00261 -15.67520 -11.53546 -11.49147 -11.46690
 Alpha  occ. eigenvalues --  -11.45501 -11.43039  -1.68445  -1.38372  -1.25444
 Alpha  occ. eigenvalues --   -1.13258  -0.92968  -0.83055  -0.72653  -0.70182
 Alpha  occ. eigenvalues --   -0.65650  -0.63855  -0.61183  -0.54019  -0.52573
 Alpha  occ. eigenvalues --   -0.49159  -0.47091  -0.42182  -0.35106  -0.28046
 Alpha  occ. eigenvalues --   -0.25813
 Alpha virt. eigenvalues --    0.01635   0.04095   0.04494   0.05113   0.05536
 Alpha virt. eigenvalues --    0.06271   0.07560   0.07641   0.09079   0.09457
 Alpha virt. eigenvalues --    0.11327   0.12128   0.13716   0.14014   0.14036

 Mulliken charges:
               1
     1  C   -5.288144
     2  C    2.567785
     3  C   -1.986412
     4  C    5.712910
     5  N   -3.189399
     6  O   -3.114502
     7  C   -2.494691
     8  H    1.218392
     9  H    1.143881
    10  H    1.202693
    11  H    0.965115
    12  H    0.683284
    13  H    1.185448
    14  H    1.393641
 Sum of Mulliken charges =  -0.00000

 Dipole moment (field-independent basis, Debye):
    X=             -6.4065    Y=              1.1722    Z=              0.0287  Tot=              6.5130

 Test job not archived.
 1\1\GINC-SE029\SP\RHF\Aug-CC-pVDZ\C5H7N1O1\OHZDE\09-Apr-2025\0\\#t hf
 aug-cc-pvdz iop(5/13=1,5/36=2,99/5=2) pseudo=read geom=check guess=(re
 ad,tcheck) scf=(maxcycle=1)\\title\\0,1\C,0,-1.92203954,-0.27675522,-0
 .77113188\C,0,-0.74470794,0.09593851,0.0105408\C,0,0.40299927,-0.39382
 516,0.56203108\C,0,1.90750835,0.12598585,-0.00844486\N,0,2.51368329,-0
 .93843537,-0.37483677\O,0,2.05541383,1.3405794,0.03010457\C,0,-0.33229
 956,0.93179023,1.05690176\H,0,-2.83879765,0.09527268,-0.31328912\H,0,-
 1.82524773,0.21685893,-1.74479424\H,0,-1.97160224,-1.3504534,-0.945517

 Normal termination of Gaussian 16 at Wed Apr  9 18:53:48 2025.
