 Gaussian 16, Revision C.01,

 ----------------------------------------------------------------------
 #t hf aug-cc-pvdz symm=none int=(grid=ultrafine) guess=(read,tcheck) s
 table=(opt,rrhf)
 ----------------------------------------------------------------------
 -----
 title
 -----
 Symbolic Z-matrix:
 Charge =  0 Multiplicity = 1

 SCF Done:  E(RHF) =  -268.738307106     A.U. after   15 cycles
 Normal termination of Gaussian 16 at Wed Apr  9 03:05:29 2025.
 Gaussian 16:  ES64L-G16RevC.01  3-Jul-2019

 ----------------------------------------------------------------------
 #t hf aug-cc-pvdz iop(5/13=1,5/36=2,99/5=2) pseudo=read geom=check gue
 ss=(read,tcheck) scf=(maxcycle=1)
 ----------------------------------------------------------------------
 -----
 title
 -----
 Structure from the checkpoint file:  "Grambow2020_b97d3_006496_forward_mol1.chk"
 Charge =  0 Multiplicity = 1

                         Standard orientation:
 ---------------------------------------------------------------------
 Center     Atomic      Atomic             Coordinates (Angstroms)
 Number     Number       Type             X           Y           Z
 ---------------------------------------------------------------------
      1          8           0        2.282203   -0.384247   -0.203196
      2          6           0        1.202787   -0.200518    0.197466
      3          6           0       -0.545728   -1.638838    0.128769
      4          6           0       -1.677512   -0.885014   -0.104049
      5          6           0       -1.124349    1.430541   -0.107031
      6          6           0        0.227335    1.606964    0.143948
      7          1           0       -0.057468   -2.163090   -0.693370
      8          1           0       -0.345058   -2.034369    1.124297
      9          1           0       -2.069330   -0.773231   -1.113499
     10          1           0       -2.375284   -0.674072    0.703760
     11          1           0       -1.850793    1.546982    0.692945
     12          1           0       -1.504587    1.506703   -1.123106
     13          1           0        0.889650    1.909743   -0.666744
     14          1           0        0.560045    1.876502    1.146670
 ---------------------------------------------------------------------

 SCF Done:  E(RHF) =  -270.035461242     A.U. after    2 cycles

 The electronic state is 1-A.
 Alpha  occ. eigenvalues --  -21.13083 -11.48175 -11.43416 -11.42022 -11.37371
 Alpha  occ. eigenvalues --  -11.37214  -1.75835  -1.16819  -1.10598  -0.87244
 Alpha  occ. eigenvalues --   -0.81976  -0.71108  -0.65164  -0.63175  -0.56803
 Alpha  occ. eigenvalues --   -0.54775  -0.53545  -0.52468  -0.49670  -0.48300
 Alpha  occ. eigenvalues --   -0.47353  -0.32591  -0.28548
 Alpha virt. eigenvalues --    0.03827   0.05468   0.05518   0.05640   0.05995
 Alpha virt. eigenvalues --    0.06628   0.06926   0.08672   0.09368   0.12067
 Alpha virt. eigenvalues --    0.12924   0.13404   0.13820   0.14261   0.14478

 Mulliken charges:
               1
     1  O   -2.191506
     2  C    2.635202
     3  C   -3.264113
     4  C   -2.540356
     5  C   -2.560397
     6  C   -3.269542
     7  H    1.415584
     8  H    1.375920
     9  H    1.384679
    10  H    1.394328
    11  H    1.405210
    12  H    1.386869
    13  H    1.418252
    14  H    1.409869
 Sum of Mulliken charges =   0.00000

 Dipole moment (field-independent basis, Debye):
    X=              0.8691    Y=             -0.1108    Z=             -0.2823  Tot=              0.9204

 Test job not archived.
 1\1\GINC-SE073\SP\RHF\Aug-CC-pVDZ\C5H8O1\OHZDE\09-Apr-2025\0\\#t hf au
 g-cc-pvdz iop(5/13=1,5/36=2,99/5=2) pseudo=read geom=check guess=(read
 ,tcheck) scf=(maxcycle=1)\\title\\0,1\O,0,-0.47899826,2.67885518,0.586
 81071\C,0,-0.30961089,1.66225078,0.0416056\C,0,-1.72444617,-0.10525363
 ,-0.02881392\C,0,-0.94718491,-1.24433622,0.01295335\C,0,1.3589399,-0.6
 5641803,-0.04977168\C,0,1.5069865,0.71900027,-0.13620139\H,0,-2.202580
 21,0.26578418,0.87830808\H,0,-2.18141345,0.21319894,-0.96559459\H,0,-0
 .77077224,-1.75899329,0.95582787\H,0,-0.77891266,-1.83035035,-0.888274

 Normal termination of Gaussian 16 at Wed Apr  9 03:05:33 2025.
