 Gaussian 16, Revision C.01,

 ----------------------------------------------------------------------
 #t hf aug-cc-pvdz symm=none int=(grid=ultrafine) guess=(read,tcheck) s
 table=(opt,rrhf)
 ----------------------------------------------------------------------
 -----
 title
 -----
 Symbolic Z-matrix:
 Charge =  0 Multiplicity = 1

 SCF Done:  E(RHF) =  -338.504187963     A.U. after   18 cycles
 Normal termination of Gaussian 16 at Wed Apr  9 19:18:02 2025.
 Gaussian 16:  ES64L-G16RevC.01  3-Jul-2019

 ----------------------------------------------------------------------
 #t hf aug-cc-pvdz iop(5/13=1,5/36=2,99/5=2) pseudo=read geom=check gue
 ss=(read,tcheck) scf=(maxcycle=1)
 ----------------------------------------------------------------------
 -----
 title
 -----
 Structure from the checkpoint file:  "Grambow2020_wb97xd3_008561_forward_mol1.chk"
 Charge =  0 Multiplicity = 1

                         Standard orientation:
 ---------------------------------------------------------------------
 Center     Atomic      Atomic             Coordinates (Angstroms)
 Number     Number       Type             X           Y           Z
 ---------------------------------------------------------------------
      1          7           0       -2.277851   -0.190892    0.159304
      2          6           0       -0.936837   -0.016317    0.057578
      3          8           0       -0.264490   -1.120411   -0.264153
      4          6           0        1.165233   -1.058885   -0.141692
      5          6           0        1.656248    0.251526    0.460606
      6          6           0        0.948326    1.335521   -0.308154
      7          7           0       -0.297017    1.263322   -0.305860
      8          1           0       -2.685608    0.739758    0.262928
      9          1           0       -1.286626    0.134206    1.198846
     10          1           0        1.568509   -1.210156   -1.144395
     11          1           0        1.458403   -1.900751    0.485706
     12          1           0        1.344909    0.323254    1.510649
     13          1           0        2.742590    0.298891    0.415366
 ---------------------------------------------------------------------

 SCF Done:  E(RHF) =  -340.031176133     A.U. after    2 cycles

 The electronic state is 1-A.
 Alpha  occ. eigenvalues --  -21.10679 -15.83837 -15.74421 -11.53080 -11.46394
 Alpha  occ. eigenvalues --  -11.40441 -11.37116  -1.85234  -1.43126  -1.35294
 Alpha  occ. eigenvalues --   -1.15241  -0.94586  -0.89119  -0.75803  -0.72964
 Alpha  occ. eigenvalues --   -0.69630  -0.64914  -0.59683  -0.55589  -0.54801
 Alpha  occ. eigenvalues --   -0.48925  -0.45284  -0.42468  -0.40868  -0.36379
 Alpha  occ. eigenvalues --   -0.23709
 Alpha virt. eigenvalues --    0.01672   0.04440   0.04668   0.05187   0.05757
 Alpha virt. eigenvalues --    0.06225   0.07188   0.09681   0.10362   0.11211
 Alpha virt. eigenvalues --    0.12781   0.12990   0.13509   0.14072   0.15326

 Mulliken charges:
               1
     1  N   -2.430234
     2  C    3.976026
     3  O   -3.225008
     4  C   -1.087708
     5  C   -3.047870
     6  C    0.591319
     7  N   -2.215621
     8  H    0.656779
     9  H    1.264364
    10  H    1.498277
    11  H    1.380999
    12  H    1.276496
    13  H    1.362181
 Sum of Mulliken charges =   0.00000

 Dipole moment (field-independent basis, Debye):
    X=             -1.1199    Y=             -3.0150    Z=              2.0493  Tot=              3.8136

 Test job not archived.
 1\1\GINC-SE226\SP\RHF\Aug-CC-pVDZ\C4H6N2O1\OHZDE\09-Apr-2025\0\\#t hf
 aug-cc-pvdz iop(5/13=1,5/36=2,99/5=2) pseudo=read geom=check guess=(re
 ad,tcheck) scf=(maxcycle=1)\\title\\0,1\N,0,-2.14453969,0.86527238,-0.
 78378279\C,0,-0.87976869,0.49214535,-0.46712269\O,0,-0.61379407,-0.792
 09438,-0.70072794\C,0,0.61466811,-1.301318,-0.15808412\C,0,1.35085425,
 -0.28570973,0.70655725\C,0,1.38906121,0.9802849,-0.10768327\N,0,0.2776
 9715,1.40814997,-0.47903018\H,0,-2.17779203,1.88255824,-0.69929854\H,0
 ,-1.48548688,0.78364161,0.53069451\H,0,1.22306891,-1.61295576,-1.00876

 Normal termination of Gaussian 16 at Wed Apr  9 19:18:06 2025.
