 Gaussian 16, Revision C.01,

 ----------------------------------------------------------------------
 #t hf aug-cc-pvdz symm=none int=(grid=ultrafine) guess=(read,tcheck) s
 table=(opt,rrhf)
 ----------------------------------------------------------------------
 -----
 title
 -----
 Symbolic Z-matrix:
 Charge =  0 Multiplicity = 1

 SCF Done:  E(RHF) =  -286.605919832     A.U. after   16 cycles
 Normal termination of Gaussian 16 at Wed Apr  9 19:02:04 2025.
 Gaussian 16:  ES64L-G16RevC.01  3-Jul-2019

 ----------------------------------------------------------------------
 #t hf aug-cc-pvdz iop(5/13=1,5/36=2,99/5=2) pseudo=read geom=check gue
 ss=(read,tcheck) scf=(maxcycle=1)
 ----------------------------------------------------------------------
 -----
 title
 -----
 Structure from the checkpoint file:  "Grambow2020_wb97xd3_007999_forward_mol1.chk"
 Charge =  0 Multiplicity = 1

                         Standard orientation:
 ---------------------------------------------------------------------
 Center     Atomic      Atomic             Coordinates (Angstroms)
 Number     Number       Type             X           Y           Z
 ---------------------------------------------------------------------
      1          6           0        2.646362   -0.310091    0.060306
      2          6           0        1.646895    0.604547    0.105526
      3          6           0        0.407213    0.709077   -0.029474
      4          6           0       -0.906518    1.383620    0.047432
      5          6           0       -1.687859    0.127364   -0.253149
      6          6           0       -0.614757   -0.889510   -0.488104
      7          7           0       -1.441401   -0.937425    0.704333
      8          1           0        3.041154   -0.708807    0.990149
      9          1           0        3.334818   -0.327594   -0.780116
     10          1           0        1.677548   -1.496762   -0.268116
     11          1           0       -1.021568    2.125046   -0.746046
     12          1           0       -1.116312    1.852225    1.010333
     13          1           0       -2.623137    0.137287   -0.800916
     14          1           0        0.795723   -1.497979   -0.346559
     15          1           0       -0.791779   -1.618507   -1.273246
     16          1           0       -2.154659   -1.652977    0.628974
 ---------------------------------------------------------------------

 SCF Done:  E(RHF) =  -288.067320964     A.U. after    2 cycles

 The electronic state is 1-A.
 Alpha  occ. eigenvalues --  -15.73645 -11.51599 -11.45040 -11.44492 -11.42313
 Alpha  occ. eigenvalues --  -11.40449 -11.37588  -1.48607  -1.21255  -1.11826
 Alpha  occ. eigenvalues --   -0.94358  -0.90535  -0.83665  -0.74834  -0.66506
 Alpha  occ. eigenvalues --   -0.66346  -0.61652  -0.60031  -0.56651  -0.50584
 Alpha  occ. eigenvalues --   -0.47079  -0.45007  -0.39918  -0.34352  -0.32252
 Alpha  occ. eigenvalues --   -0.30847
 Alpha virt. eigenvalues --    0.03805   0.05087   0.05286   0.05689   0.05765
 Alpha virt. eigenvalues --    0.06104   0.07043   0.07688   0.09364   0.09710
 Alpha virt. eigenvalues --    0.10152   0.11614   0.12754   0.13388   0.13762

 Mulliken charges:
               1
     1  C   -4.689205
     2  C    1.503231
     3  C    2.983218
     4  C   -3.907650
     5  C   -0.714689
     6  C   -1.732600
     7  N   -2.034512
     8  H    0.997369
     9  H    0.992153
    10  H    1.039214
    11  H    1.041454
    12  H    0.987326
    13  H    1.408009
    14  H    0.451735
    15  H    1.007933
    16  H    0.667015
 Sum of Mulliken charges =  -0.00000

 Dipole moment (field-independent basis, Debye):
    X=             -1.2181    Y=             -0.8401    Z=             -1.0199  Tot=              1.7971

 Test job not archived.
 1\1\GINC-SE108\SP\RHF\Aug-CC-pVDZ\C6H9N1\OHZDE\09-Apr-2025\0\\#t hf au
 g-cc-pvdz iop(5/13=1,5/36=2,99/5=2) pseudo=read geom=check guess=(read
 ,tcheck) scf=(maxcycle=1)\\title\\0,1\C,0,1.97639772,1.24721936,1.1963
 9125\C,0,1.67268093,0.10918385,0.52544232\C,0,0.69732888,-0.53148444,0
 .07356072\C,0,0.02369999,-1.58623631,-0.71417882\C,0,-1.3511737,-0.988
 51404,-0.53677237\C,0,-1.09570943,0.18746327,0.35350758\N,0,-1.4493320
 8,0.37008119,-1.04260948\H,0,2.34185749,2.10668228,0.64213002\H,0,2.28
 326112,1.20344072,2.23778707\H,0,0.48041077,1.70084167,1.30079079\H,0,

 Normal termination of Gaussian 16 at Wed Apr  9 19:02:09 2025.
