 Gaussian 16, Revision C.01,

 ----------------------------------------------------------------------
 #t hf aug-cc-pvdz symm=none int=(grid=ultrafine) guess=(read,tcheck) s
 table=(opt,rrhf)
 ----------------------------------------------------------------------
 -----
 title
 -----
 Symbolic Z-matrix:
 Charge =  0 Multiplicity = 1

 SCF Done:  E(RHF) =  -373.409544280     A.U. after   15 cycles
 Normal termination of Gaussian 16 at Wed Apr  9 04:04:27 2025.
 Gaussian 16:  ES64L-G16RevC.01  3-Jul-2019

 ----------------------------------------------------------------------
 #t hf aug-cc-pvdz iop(5/13=1,5/36=2,99/5=2) pseudo=read geom=check gue
 ss=(read,tcheck) scf=(maxcycle=1)
 ----------------------------------------------------------------------
 -----
 title
 -----
 Structure from the checkpoint file:  "Grambow2020_wb97xd3_009220_forward_mol2.chk"
 Charge =  0 Multiplicity = 1

                         Standard orientation:
 ---------------------------------------------------------------------
 Center     Atomic      Atomic             Coordinates (Angstroms)
 Number     Number       Type             X           Y           Z
 ---------------------------------------------------------------------
      1          7           0       -1.096167    1.642247    0.458440
      2          6           0       -0.534340    0.643860   -0.033470
      3          8           0        0.693503    0.681476   -0.669323
      4          6           0        1.670547   -0.163663   -0.228416
      5          8           0        1.584330   -0.850674    0.733010
      6          6           0       -1.204476   -0.641685   -0.084393
      7          7           0       -1.738569   -1.652154   -0.163404
      8          1           0       -0.503436    2.468534    0.400568
      9          1           0        2.533534   -0.076673   -0.897648
 ---------------------------------------------------------------------

 SCF Done:  E(RHF) =  -374.978337491     A.U. after    2 cycles

 The electronic state is 1-A.
 Alpha  occ. eigenvalues --  -21.16154 -21.10969 -15.80350 -15.79549 -11.56630
 Alpha  occ. eigenvalues --  -11.55722 -11.45950  -1.91637  -1.72996  -1.39857
 Alpha  occ. eigenvalues --   -1.32041  -1.02039  -0.91154  -0.75424  -0.70874
 Alpha  occ. eigenvalues --   -0.66508  -0.60486  -0.57400  -0.54823  -0.51317
 Alpha  occ. eigenvalues --   -0.47049  -0.45109  -0.43494  -0.38037  -0.35149
 Alpha virt. eigenvalues --    0.02860   0.04579   0.07450   0.08554   0.09450
 Alpha virt. eigenvalues --    0.09855   0.10538   0.10884   0.12100   0.12980
 Alpha virt. eigenvalues --    0.13322   0.14546   0.14822   0.16851   0.17072

 Mulliken charges:
               1
     1  N   -3.200482
     2  C    4.860942
     3  O   -3.164903
     4  C    2.126556
     5  O   -2.345825
     6  C    1.920397
     7  N   -2.494018
     8  H    0.722442
     9  H    1.574891
 Sum of Mulliken charges =   0.00000

 Dipole moment (field-independent basis, Debye):
    X=              2.9423    Y=              2.5439    Z=             -0.9196  Tot=              3.9968

 Test job not archived.
 1\1\GINC-SE345\SP\RHF\Aug-CC-pVDZ\C3H2N2O2\OHZDE\09-Apr-2025\0\\#t hf
 aug-cc-pvdz iop(5/13=1,5/36=2,99/5=2) pseudo=read geom=check guess=(re
 ad,tcheck) scf=(maxcycle=1)\\title\\0,1\N,0,-1.68843588,-0.97397771,-0
 .17746741\C,0,-0.7640277,-0.20612863,0.15461593\O,0,0.51755557,-0.6254
 8484,0.46284717\C,0,1.55867009,-0.05586742,-0.21160943\O,0,1.44286811,
 0.69205585,-1.12317842\C,0,-1.00691739,1.20811165,0.36729039\N,0,-1.19
 525783,2.3191145,0.57404118\H,0,-1.36019675,-1.9340139,-0.26701879\H,0
 ,2.49574178,-0.42380949,0.22047938\\Version=ES64L-G16RevC.01\State=1-A

 Normal termination of Gaussian 16 at Wed Apr  9 04:04:30 2025.
