 Gaussian 16, Revision C.01,

 ----------------------------------------------------------------------
 #t hf aug-cc-pvdz symm=none int=(grid=ultrafine) guess=(read,tcheck) s
 table=(opt,rrhf)
 ----------------------------------------------------------------------
 -----
 title
 -----
 Symbolic Z-matrix:
 Charge =  0 Multiplicity = 1

 SCF Done:  E(RHF) =  -394.323685993     A.U. after   17 cycles
 Normal termination of Gaussian 16 at Wed Apr  9 18:30:06 2025.
 Gaussian 16:  ES64L-G16RevC.01  3-Jul-2019

 ----------------------------------------------------------------------
 #t hf aug-cc-pvdz iop(5/13=1,5/36=2,99/5=2) pseudo=read geom=check gue
 ss=(read,tcheck) scf=(maxcycle=1)
 ----------------------------------------------------------------------
 -----
 title
 -----
 Structure from the checkpoint file:  "Grambow2020_wb97xd3_007202_forward_mol1.chk"
 Charge =  0 Multiplicity = 1

                         Standard orientation:
 ---------------------------------------------------------------------
 Center     Atomic      Atomic             Coordinates (Angstroms)
 Number     Number       Type             X           Y           Z
 ---------------------------------------------------------------------
      1          7           0       -0.089104    1.657738   -0.051694
      2          6           0       -0.506126    0.435771    0.275087
      3          8           0        0.238098   -0.435850    0.788276
      4          6           0        1.779951   -0.089668   -0.353641
      5          8           0        2.712865   -0.708665   -0.215129
      6          6           0       -1.871226    0.032735   -0.284873
      7          8           0       -2.326798   -1.063060   -0.154563
      8          1           0        0.601085    1.985524    0.623302
      9          1           0        1.013628    0.945012   -0.625042
     10          1           0       -2.399897    0.852872   -0.804527
 ---------------------------------------------------------------------

 SCF Done:  E(RHF) =  -396.002982103     A.U. after    2 cycles

 The electronic state is 1-A.
 Alpha  occ. eigenvalues --  -21.20573 -21.09590 -21.07915 -15.75168 -11.59051
 Alpha  occ. eigenvalues --  -11.52374 -11.47788  -1.84627  -1.77525  -1.71906
 Alpha  occ. eigenvalues --   -1.33995  -1.00607  -0.87778  -0.77137  -0.68520
 Alpha  occ. eigenvalues --   -0.67657  -0.62816  -0.57582  -0.56980  -0.53445
 Alpha  occ. eigenvalues --   -0.52787  -0.45978  -0.39534  -0.38099  -0.33948
 Alpha  occ. eigenvalues --   -0.30183
 Alpha virt. eigenvalues --    0.03611   0.05355   0.05706   0.07800   0.08693
 Alpha virt. eigenvalues --    0.09262   0.10755   0.11223   0.11617   0.12216
 Alpha virt. eigenvalues --    0.12547   0.13489   0.14377   0.15169   0.15475

 Mulliken charges:
               1
     1  N   -2.999139
     2  C    4.581987
     3  O   -3.039895
     4  C    1.145435
     5  O   -2.223893
     6  C    1.347623
     7  O   -2.676803
     8  H    0.646000
     9  H    1.612452
    10  H    1.606233
 Sum of Mulliken charges =  -0.00000

 Dipole moment (field-independent basis, Debye):
    X=              3.0776    Y=             -0.6616    Z=              0.0160  Tot=              3.1479

 Test job not archived.
 1\1\GINC-SE114\SP\RHF\Aug-CC-pVDZ\C3H3N1O3\OHZDE\09-Apr-2025\0\\#t hf
 aug-cc-pvdz iop(5/13=1,5/36=2,99/5=2) pseudo=read geom=check guess=(re
 ad,tcheck) scf=(maxcycle=1)\\title\\0,1\N,0,-0.24325432,1.00693179,-0.
 81784163\C,0,-0.43001841,0.24609635,0.25925771\O,0,0.46519816,0.018195
 46,1.10990695\C,0,1.90464944,-0.26230113,-0.17478359\O,0,2.93519623,-0
 .5184001,0.20608237\C,0,-1.70805528,-0.59420934,0.25996627\O,0,-1.9579
 7979,-1.39220614,1.11204122\H,0,0.38589544,1.77848155,-0.59805435\H,0,
 0.96167425,0.24173703,-0.94173499\H,0,-2.38208573,-0.38154347,-0.59010

 Normal termination of Gaussian 16 at Wed Apr  9 18:30:10 2025.
