 Gaussian 16, Revision C.01,

 ----------------------------------------------------------------------
 #t hf aug-cc-pvdz symm=none int=(grid=ultrafine) guess=(read,tcheck) s
 table=(opt,rrhf)
 ----------------------------------------------------------------------
 -----
 title
 -----
 Symbolic Z-matrix:
 Charge =  0 Multiplicity = 1

 SCF Done:  E(RHF) =  -268.615927102     A.U. after   17 cycles
 Normal termination of Gaussian 16 at Wed Apr  9 17:55:55 2025.
 Gaussian 16:  ES64L-G16RevC.01  3-Jul-2019

 ----------------------------------------------------------------------
 #t hf aug-cc-pvdz iop(5/13=1,5/36=2,99/5=2) pseudo=read geom=check gue
 ss=(read,tcheck) scf=(maxcycle=1)
 ----------------------------------------------------------------------
 -----
 title
 -----
 Structure from the checkpoint file:  "Grambow2020_wb97xd3_006258_forward_mol1.chk"
 Charge =  0 Multiplicity = 1

                         Standard orientation:
 ---------------------------------------------------------------------
 Center     Atomic      Atomic             Coordinates (Angstroms)
 Number     Number       Type             X           Y           Z
 ---------------------------------------------------------------------
      1          6           0       -1.938184   -0.916233    0.118556
      2          6           0       -1.256699    0.373804   -0.241205
      3          6           0       -0.311051    1.063648    0.663545
      4          6           0        0.225711    0.506323   -0.681428
      5          6           0        1.374220   -0.102949   -0.194050
      6          8           0        2.062075   -0.980809    0.100979
      7          1           0       -1.296164   -1.545735    0.736019
      8          1           0       -2.850651   -0.706174    0.679861
      9          1           0       -2.215058   -1.475799   -0.776532
     10          1           0       -1.810800    0.991031   -0.944939
     11          1           0       -0.071656    0.375807    1.485980
     12          1           0        0.913635    1.823921    0.796075
     13          1           0        0.434521    1.316215   -1.371327
     14          1           0        1.835589    1.519650    0.594516
 ---------------------------------------------------------------------

 SCF Done:  E(RHF) =  -269.919861379     A.U. after    2 cycles

 The electronic state is 1-A.
 Alpha  occ. eigenvalues --  -21.16131 -11.59571 -11.49063 -11.43713 -11.40409
 Alpha  occ. eigenvalues --  -11.38234  -1.80076  -1.37336  -1.10643  -0.96207
 Alpha  occ. eigenvalues --   -0.86006  -0.73610  -0.70734  -0.61620  -0.60692
 Alpha  occ. eigenvalues --   -0.58536  -0.57456  -0.53193  -0.52140  -0.48736
 Alpha  occ. eigenvalues --   -0.44092  -0.34449  -0.27911
 Alpha virt. eigenvalues --    0.03641   0.05102   0.05342   0.05672   0.06799
 Alpha virt. eigenvalues --    0.07019   0.07512   0.08166   0.09112   0.11131
 Alpha virt. eigenvalues --    0.11532   0.11700   0.12956   0.13030   0.13643

 Mulliken charges:
               1
     1  C   -4.365912
     2  C   -1.531660
     3  C   -1.683529
     4  C   -0.981685
     5  C    3.475098
     6  O   -3.003563
     7  H    1.177046
     8  H    1.186279
     9  H    1.181587
    10  H    1.376773
    11  H    1.474569
    12  H   -0.054051
    13  H    1.410501
    14  H    0.338547
 Sum of Mulliken charges =   0.00000

 Dipole moment (field-independent basis, Debye):
    X=             -1.2248    Y=             -2.8732    Z=             -1.3841  Tot=              3.4163

 Test job not archived.
 1\1\GINC-SE454\SP\RHF\Aug-CC-pVDZ\C5H8O1\OHZDE\09-Apr-2025\0\\#t hf au
 g-cc-pvdz iop(5/13=1,5/36=2,99/5=2) pseudo=read geom=check guess=(read
 ,tcheck) scf=(maxcycle=1)\\title\\0,1\C,0,-1.46179679,-1.05930852,-0.6
 0330205\C,0,-0.72165647,0.24835292,-0.61944358\C,0,-0.18558624,0.88449
 203,0.60393732\C,0,0.81619897,0.40405355,-0.47924376\C,0,1.71919532,-0
 .23327668,0.36113058\O,0,2.26901277,-1.12728601,0.83995491\H,0,-1.0773
 0572,-1.72367192,0.17162357\H,0,-2.52019053,-0.88052452,-0.40424905\H,
 0,-1.3815327,-1.56668522,-1.56615347\H,0,-0.99257104,0.90527449,-1.443

 Normal termination of Gaussian 16 at Wed Apr  9 17:55:59 2025.
