 Gaussian 16, Revision C.01,

 ----------------------------------------------------------------------
 #t hf aug-cc-pvdz symm=none int=(grid=ultrafine) guess=(read,tcheck) s
 table=(opt,rrhf)
 ----------------------------------------------------------------------
 -----
 title
 -----
 Symbolic Z-matrix:
 Charge =  0 Multiplicity = 1

 SCF Done:  E(RHF) =  -344.894709189     A.U. after   13 cycles

 1\1\GINC-SE457\Stability\RHF\Aug-CC-pVDZ\C5H10O2\OHZDE\09-Apr-2025\0\\
 #t hf aug-cc-pvdz symm=none int=(grid=ultrafine) guess=(read,tcheck) s
 table=(opt,rrhf)\\title\\0,1\C,0,-2.16288554,-0.50934563,0.35758501\C,
 0,-1.06258889,0.26568871,-0.35171629\O,0,-0.90375109,1.55738204,0.2019
 2985\C,0,0.2570043,-0.48709789,-0.32145186\C,0,1.50053797,0.21465231,-
 0.88057791\C,0,2.06420846,0.0330152,0.5305205\O,0,0.81494618,-0.496628
 52,1.01021709\H,0,-3.08722589,0.06813456,0.35752418\H,0,-2.34900873,-1
 .46638307,-0.13471661\H,0,-1.87857846,-0.71033375,1.39338239\H,0,-1.33

 Normal termination of Gaussian 16 at Wed Apr  9 03:33:33 2025.
 Gaussian 16:  ES64L-G16RevC.01  3-Jul-2019

 ----------------------------------------------------------------------
 #t hf aug-cc-pvdz iop(5/13=1,5/36=2,99/5=2) pseudo=read geom=check gue
 ss=(read,tcheck) scf=(maxcycle=1)
 ----------------------------------------------------------------------
 -----
 title
 -----
 Structure from the checkpoint file:  "Grambow2020_wb97xd3_007046_forward_mol2.chk"
 Charge =  0 Multiplicity = 1

                         Standard orientation:
 ---------------------------------------------------------------------
 Center     Atomic      Atomic             Coordinates (Angstroms)
 Number     Number       Type             X           Y           Z
 ---------------------------------------------------------------------
      1          6           0        2.183085   -0.724027    0.033413
      2          6           0        1.101650    0.283861    0.392719
      3          8           0        1.008573    1.307395   -0.578847
      4          6           0       -0.247373   -0.389940    0.579962
      5          6           0       -1.471826    0.501714    0.818955
      6          6           0       -2.013090   -0.140352   -0.460380
      7          8           0       -0.777366   -0.843306   -0.684277
      8          1           0        3.130580   -0.212361   -0.134930
      9          1           0        2.318700   -1.456072    0.832564
     10          1           0        1.912252   -1.262887   -0.877840
     11          1           0        1.358392    0.787054    1.330721
     12          1           0        0.648430    0.896826   -1.372017
     13          1           0       -0.154810   -1.224728    1.284287
     14          1           0       -2.032587    0.310222    1.731106
     15          1           0       -1.253296    1.563654    0.725807
     16          1           0       -2.249248    0.536320   -1.285059
     17          1           0       -2.842751   -0.838271   -0.317668
 ---------------------------------------------------------------------

 SCF Done:  E(RHF) =  -346.485265024     A.U. after    2 cycles

 The electronic state is 1-A.
 Alpha  occ. eigenvalues --  -21.05851 -21.03598 -11.47759 -11.44966 -11.43235
 Alpha  occ. eigenvalues --  -11.38309 -11.36110  -1.78300  -1.70107  -1.15746
 Alpha  occ. eigenvalues --   -1.10655  -0.99339  -0.87557  -0.77841  -0.69751
 Alpha  occ. eigenvalues --   -0.67082  -0.62879  -0.58190  -0.57116  -0.53548
 Alpha  occ. eigenvalues --   -0.52594  -0.51034  -0.47957  -0.41239  -0.39228
 Alpha  occ. eigenvalues --   -0.35613  -0.31517  -0.29324
 Alpha virt. eigenvalues --    0.04077   0.04940   0.05075   0.05525   0.05677
 Alpha virt. eigenvalues --    0.05990   0.06454   0.07195   0.07433   0.08837
 Alpha virt. eigenvalues --    0.11701   0.12097   0.12845   0.13746   0.14218

 Mulliken charges:
               1
     1  C   -3.981474
     2  C    0.864750
     3  O   -3.326018
     4  C    0.935400
     5  C   -3.253446
     6  C   -1.611099
     7  O   -2.841969
     8  H    1.117692
     9  H    1.256571
    10  H    1.276729
    11  H    1.771126
    12  H    0.734754
    13  H    1.615657
    14  H    1.162044
    15  H    1.358682
    16  H    1.470823
    17  H    1.449779
 Sum of Mulliken charges =   0.00000

 Dipole moment (field-independent basis, Debye):
    X=             -0.5676    Y=             -0.1254    Z=              0.5790  Tot=              0.8204

 Test job not archived.
 1\1\GINC-SE457\SP\RHF\Aug-CC-pVDZ\C5H10O2\OHZDE\09-Apr-2025\0\\#t hf a
 ug-cc-pvdz iop(5/13=1,5/36=2,99/5=2) pseudo=read geom=check guess=(rea
 d,tcheck) scf=(maxcycle=1)\\title\\0,1\C,0,-2.16288554,-0.50934563,0.3
 5758501\C,0,-1.06258889,0.26568871,-0.35171629\O,0,-0.90375109,1.55738
 204,0.20192985\C,0,0.2570043,-0.48709789,-0.32145186\C,0,1.50053797,0.
 21465231,-0.88057791\C,0,2.06420846,0.0330152,0.5305205\O,0,0.81494618
 ,-0.49662852,1.01021709\H,0,-3.08722589,0.06813456,0.35752418\H,0,-2.3
 4900873,-1.46638307,-0.13471661\H,0,-1.87857846,-0.71033375,1.39338239

 Normal termination of Gaussian 16 at Wed Apr  9 03:33:39 2025.
