 Gaussian 16, Revision C.01,

 ----------------------------------------------------------------------
 #t hf aug-cc-pvdz symm=none int=(grid=ultrafine) guess=(read,tcheck) s
 table=(opt,rrhf)
 ----------------------------------------------------------------------
 -----
 title
 -----
 Symbolic Z-matrix:
 Charge =  0 Multiplicity = 1

 SCF Done:  E(RHF) =  -232.740241596     A.U. after   15 cycles
 Normal termination of Gaussian 16 at Wed Apr  9 03:08:02 2025.
 Gaussian 16:  ES64L-G16RevC.01  3-Jul-2019

 ----------------------------------------------------------------------
 #t hf aug-cc-pvdz iop(5/13=1,5/36=2,99/5=2) pseudo=read geom=check gue
 ss=(read,tcheck) scf=(maxcycle=1)
 ----------------------------------------------------------------------
 -----
 title
 -----
 Structure from the checkpoint file:  "Grambow2020_b97d3_006593_reverse_mol1.chk"
 Charge =  0 Multiplicity = 1

                         Standard orientation:
 ---------------------------------------------------------------------
 Center     Atomic      Atomic             Coordinates (Angstroms)
 Number     Number       Type             X           Y           Z
 ---------------------------------------------------------------------
      1          6           0        1.524705   -0.026470    0.863586
      2          6           0        1.716638   -0.218672   -0.629297
      3          6           0        0.339035   -0.047121   -0.060348
      4          6           0       -0.653996    1.188130   -0.256124
      5          6           0       -1.764925    0.182216    0.139389
      6          6           0       -0.894380   -0.943103   -0.093508
      7          1           0        1.826953    0.927008    1.298624
      8          1           0        1.674613   -0.887626    1.514374
      9          1           0        2.008207   -1.205010   -0.993785
     10          1           0        2.141299    0.613211   -1.194056
     11          1           0       -0.636832    1.486233   -1.313585
     12          1           0       -0.482039    2.069156    0.381099
     13          1           0       -2.824046   -0.922711    0.002516
     14          1           0       -2.193005    0.357020    1.122993
     15          1           0       -0.979761   -1.554368   -0.992213
     16          1           0       -2.137845   -1.692796    0.391846
 ---------------------------------------------------------------------

 SCF Done:  E(RHF) =  -233.967536876     A.U. after    2 cycles

 The electronic state is 1-A.
 Alpha  occ. eigenvalues --  -11.47988 -11.43679 -11.42053 -11.41605 -11.38892
 Alpha  occ. eigenvalues --  -11.36775  -1.37906  -1.19976  -0.96783  -0.87234
 Alpha  occ. eigenvalues --   -0.86355  -0.75496  -0.68705  -0.65480  -0.59866
 Alpha  occ. eigenvalues --   -0.55406  -0.53290  -0.51008  -0.46011  -0.40192
 Alpha  occ. eigenvalues --   -0.39560  -0.34939  -0.31710
 Alpha virt. eigenvalues --    0.04010   0.05106   0.05382   0.05554   0.05828
 Alpha virt. eigenvalues --    0.06129   0.06540   0.07076   0.07914   0.08686
 Alpha virt. eigenvalues --    0.09155   0.11298   0.12782   0.13246   0.13793

 Mulliken charges:
               1
     1  C   -2.529407
     2  C   -2.094952
     3  C    1.740625
     4  C   -4.394492
     5  C   -1.360114
     6  C   -2.106995
     7  H    1.244491
     8  H    1.214948
     9  H    1.184060
    10  H    1.186844
    11  H    1.375982
    12  H    1.293807
    13  H    0.403529
    14  H    1.272252
    15  H    1.198694
    16  H    0.370726
 Sum of Mulliken charges =   0.00000

 Dipole moment (field-independent basis, Debye):
    X=              1.6174    Y=              1.0596    Z=             -0.1391  Tot=              1.9386

 Test job not archived.
 1\1\GINC-SE070\SP\RHF\Aug-CC-pVDZ\C6H10\OHZDE\09-Apr-2025\0\\#t hf aug
 -cc-pvdz iop(5/13=1,5/36=2,99/5=2) pseudo=read geom=check guess=(read,
 tcheck) scf=(maxcycle=1)\\title\\0,1\C,0,-1.62157772,0.26491081,0.7786
 8744\C,0,-1.78514889,-0.07607064,-0.69082081\C,0,-0.41810436,-0.022890
 95,-0.07496139\C,0,0.58511282,-1.23735759,0.1875444\C,0,1.68270911,-0.
 14365444,0.22692649\C,0,0.81096048,0.82018468,-0.39717416\H,0,-1.92726
 129,-0.48139156,1.51307276\H,0,-1.78880629,1.29674709,1.08680411\H,0,-
 2.07472049,0.71855578,-1.38034546\H,0,-2.19421586,-1.05733822,-0.93799

 Normal termination of Gaussian 16 at Wed Apr  9 03:08:07 2025.
