 Gaussian 16, Revision C.01,

 ----------------------------------------------------------------------
 #t hf aug-cc-pvdz symm=none int=(grid=ultrafine) guess=(read,tcheck) s
 table=(opt,rrhf)
 ----------------------------------------------------------------------
 -----
 title
 -----
 Symbolic Z-matrix:
 Charge =  0 Multiplicity = 1

 SCF Done:  E(RHF) =  -310.218686479     A.U. after   13 cycles

 1\1\GINC-SE229\Stability\RHF\Aug-CC-pVDZ\C6H14O1\OHZDE\09-Apr-2025\0\\
 #t hf aug-cc-pvdz symm=none int=(grid=ultrafine) guess=(read,tcheck) s
 table=(opt,rrhf)\\title\\0,1\C,0,2.23207282,-1.09131733,-0.74557959\O,
 0,1.04678544,-0.68023349,-0.12147913\C,0,1.11020114,0.6465416,0.343915
 83\C,0,-0.18346021,1.00970716,1.01504779\C,0,-0.81253043,2.13653286,0.
 70889015\C,0,-1.83111277,-1.04223027,-1.86175205\C,0,-0.68200999,0.046
 64569,2.04926675\H,0,3.08698389,-1.04370849,-0.05752394\H,0,2.45959604
 ,-0.47238675,-1.62366768\H,0,2.09271507,-2.12269477,-1.06671505\H,0,1.

 Normal termination of Gaussian 16 at Wed Apr  9 19:21:31 2025.
 Gaussian 16:  ES64L-G16RevC.01  3-Jul-2019

 ----------------------------------------------------------------------
 #t hf aug-cc-pvdz iop(5/13=1,5/36=2,99/5=2) pseudo=read geom=check gue
 ss=(read,tcheck) scf=(maxcycle=1)
 ----------------------------------------------------------------------
 -----
 title
 -----
 Structure from the checkpoint file:  "Grambow2020_wb97xd3_008661_reverse_mol2.chk"
 Charge =  0 Multiplicity = 1

                         Standard orientation:
 ---------------------------------------------------------------------
 Center     Atomic      Atomic             Coordinates (Angstroms)
 Number     Number       Type             X           Y           Z
 ---------------------------------------------------------------------
      1          6           0       -2.284799   -1.162503   -0.041409
      2          8           0       -1.063708   -0.539911    0.249646
      3          6           0        0.007728   -1.073258   -0.490970
      4          6           0        1.281683   -0.372665   -0.114042
      5          6           0        2.096755    0.099900   -1.047603
      6          6           0       -0.938568    2.830525   -0.008014
      7          6           0        1.571052   -0.276120    1.353130
      8          1           0       -2.253597   -2.236607    0.186379
      9          1           0       -2.556286   -1.040592   -1.098440
     10          1           0       -3.048295   -0.691364    0.576159
     11          1           0       -0.178311   -0.970170   -1.568488
     12          1           0        0.104819   -2.150258   -0.273202
     13          1           0        0.011883    2.397393   -0.316224
     14          1           0        3.040552    0.567172   -0.791001
     15          1           0        1.852332    0.033071   -2.101723
     16          1           0       -1.203459    2.442527    0.973892
     17          1           0       -1.707983    2.544867   -0.723879
     18          1           0       -0.857224    3.916301    0.030133
     19          1           0        0.793977    0.304563    1.853291
     20          1           0        2.536651    0.194893    1.534976
     21          1           0        1.571495   -1.267786    1.814413
 ---------------------------------------------------------------------

 SCF Done:  E(RHF) =  -311.753390019     A.U. after    2 cycles

 The electronic state is 1-A.
 Alpha  occ. eigenvalues --  -21.04287 -11.43786 -11.40658 -11.40093 -11.37918
 Alpha  occ. eigenvalues --  -11.35622 -11.34218  -1.76054  -1.22972  -1.02027
 Alpha  occ. eigenvalues --   -1.01359  -0.99650  -0.91689  -0.75857  -0.65537
 Alpha  occ. eigenvalues --   -0.63839  -0.60295  -0.58925  -0.57746  -0.54289
 Alpha  occ. eigenvalues --   -0.52780  -0.52269  -0.52069  -0.51994  -0.48111
 Alpha  occ. eigenvalues --   -0.43873  -0.39185  -0.33572  -0.29912
 Alpha virt. eigenvalues --    0.03649   0.04941   0.05034   0.05319   0.05683
 Alpha virt. eigenvalues --    0.05903   0.06045   0.06370   0.06661   0.08456
 Alpha virt. eigenvalues --    0.08666   0.09263   0.09411   0.10234   0.12599

 Mulliken charges:
               1
     1  C   -3.062176
     2  O   -2.782204
     3  C   -2.284096
     4  C    2.855592
     5  C   -4.833718
     6  C   -5.495463
     7  C   -4.413437
     8  H    1.359765
     9  H    1.448896
    10  H    1.459123
    11  H    1.723810
    12  H    1.334852
    13  H    1.600285
    14  H    1.662995
    15  H    1.579731
    16  H    1.386207
    17  H    1.342494
    18  H    1.212615
    19  H    1.303646
    20  H    1.401242
    21  H    1.199841
 Sum of Mulliken charges =   0.00000

 Dipole moment (field-independent basis, Debye):
    X=             -0.3160    Y=             -0.5455    Z=              0.1410  Tot=              0.6460

 Test job not archived.
 1\1\GINC-SE229\SP\RHF\Aug-CC-pVDZ\C6H14O1\OHZDE\09-Apr-2025\0\\#t hf a
 ug-cc-pvdz iop(5/13=1,5/36=2,99/5=2) pseudo=read geom=check guess=(rea
 d,tcheck) scf=(maxcycle=1)\\title\\0,1\C,0,2.23207282,-1.09131733,-0.7
 4557959\O,0,1.04678544,-0.68023349,-0.12147913\C,0,1.11020114,0.646541
 6,0.34391583\C,0,-0.18346021,1.00970716,1.01504779\C,0,-0.81253043,2.1
 3653286,0.70889015\C,0,-1.83111277,-1.04223027,-1.86175205\C,0,-0.6820
 0999,0.04664569,2.04926675\H,0,3.08698389,-1.04370849,-0.05752394\H,0,
 2.45959604,-0.47238675,-1.62366768\H,0,2.09271507,-2.12269477,-1.06671

 Normal termination of Gaussian 16 at Wed Apr  9 19:21:40 2025.
