 Gaussian 16, Revision C.01,

 ----------------------------------------------------------------------
 #t hf aug-cc-pvdz symm=none int=(grid=ultrafine) guess=(read,tcheck) s
 table=(opt,rrhf)
 ----------------------------------------------------------------------
 -----
 title
 -----
 Symbolic Z-matrix:
 Charge =  0 Multiplicity = 1

 SCF Done:  E(RHF) =  -360.799472703     A.U. after   14 cycles
 Normal termination of Gaussian 16 at Wed Apr  9 18:08:18 2025.
 Gaussian 16:  ES64L-G16RevC.01  3-Jul-2019

 ----------------------------------------------------------------------
 #t hf aug-cc-pvdz iop(5/13=1,5/36=2,99/5=2) pseudo=read geom=check gue
 ss=(read,tcheck) scf=(maxcycle=1)
 ----------------------------------------------------------------------
 -----
 title
 -----
 Structure from the checkpoint file:  "Grambow2020_wb97xd3_006609_forward_mol1.chk"
 Charge =  0 Multiplicity = 1

                         Standard orientation:
 ---------------------------------------------------------------------
 Center     Atomic      Atomic             Coordinates (Angstroms)
 Number     Number       Type             X           Y           Z
 ---------------------------------------------------------------------
      1          6           0        2.525353   -0.068234    0.029623
      2          6           0        1.040065    0.077595    0.059419
      3          8           0        0.609977    1.293188    0.168366
      4          6           0        0.123942   -0.918545   -0.606926
      5          7           0       -1.035621   -1.152213    0.231018
      6          6           0       -1.932042   -0.171733    0.243416
      7          8           0       -1.846192    0.936590   -0.331560
      8          1           0        2.830830   -1.089090    0.247462
      9          1           0        2.985893    0.624751    0.730986
     10          1           0        2.863279    0.192556   -0.977942
     11          1           0        0.716164   -0.623665    1.532018
     12          1           0       -0.390278    1.314393   -0.085291
     13          1           0       -0.150045   -0.502933   -1.581882
     14          1           0        0.650969   -1.860865   -0.758958
     15          1           0       -0.095396   -0.958167    1.370796
     16          1           0       -2.816250   -0.384211    0.858044
 ---------------------------------------------------------------------

 SCF Done:  E(RHF) =  -362.474556386     A.U. after    2 cycles

 The electronic state is 1-A.
 Alpha  occ. eigenvalues --  -21.11661 -21.01792 -15.69899 -11.56798 -11.45564
 Alpha  occ. eigenvalues --  -11.44025 -11.41699  -1.81434  -1.69587  -1.37094
 Alpha  occ. eigenvalues --   -1.17030  -1.04389  -0.86083  -0.80962  -0.73327
 Alpha  occ. eigenvalues --   -0.71042  -0.63886  -0.61861  -0.58188  -0.55936
 Alpha  occ. eigenvalues --   -0.54496  -0.51660  -0.47915  -0.47005  -0.43691
 Alpha  occ. eigenvalues --   -0.35907  -0.28324  -0.26811
 Alpha virt. eigenvalues --    0.03268   0.04821   0.05057   0.05491   0.05874
 Alpha virt. eigenvalues --    0.06318   0.07342   0.08163   0.09501   0.10544
 Alpha virt. eigenvalues --    0.11227   0.11875   0.12687   0.13266   0.13843

 Mulliken charges:
               1
     1  C   -4.269780
     2  C    4.058436
     3  O   -3.732499
     4  C   -2.445386
     5  N   -2.334167
     6  C    2.126175
     7  O   -2.939967
     8  H    1.311852
     9  H    1.265057
    10  H    1.160175
    11  H    0.026414
    12  H    1.458365
    13  H    1.189203
    14  H    1.370780
    15  H    0.098782
    16  H    1.656560
 Sum of Mulliken charges =  -0.00000

 Dipole moment (field-independent basis, Debye):
    X=              3.5867    Y=              0.6267    Z=             -0.6383  Tot=              3.6965

 Test job not archived.
 1\1\GINC-SE174\SP\RHF\Aug-CC-pVDZ\C4H9N1O2\OHZDE\09-Apr-2025\0\\#t hf
 aug-cc-pvdz iop(5/13=1,5/36=2,99/5=2) pseudo=read geom=check guess=(re
 ad,tcheck) scf=(maxcycle=1)\\title\\0,1\C,0,-1.95366995,-0.8426707,-0.
 35886939\C,0,-0.66792225,-0.08874065,-0.27715042\O,0,-0.56979181,0.918
 10472,-1.08408436\C,0,0.15173629,-0.03793166,0.98822346\N,0,1.56081861
 ,-0.13322968,0.66150961\C,0,2.09683908,0.96522806,0.14080212\O,0,1.504
 89961,2.02880113,-0.1503479\H,0,-1.86809566,-1.82825012,0.09304347\H,0
 ,-2.27631208,-0.92567967,-1.39484585\H,0,-2.70865894,-0.26948122,0.187

 Normal termination of Gaussian 16 at Wed Apr  9 18:08:23 2025.
