 Gaussian 16, Revision C.01,

 ----------------------------------------------------------------------
 #t hf aug-cc-pvdz symm=none int=(grid=ultrafine) guess=(read,tcheck) s
 table=(opt,rrhf)
 ----------------------------------------------------------------------
 -----
 title
 -----
 Symbolic Z-matrix:
 Charge =  0 Multiplicity = 1

 SCF Done:  E(RHF) =  -320.297014925     A.U. after   15 cycles
 Normal termination of Gaussian 16 at Wed Apr  9 18:47:20 2025.
 Gaussian 16:  ES64L-G16RevC.01  3-Jul-2019

 ----------------------------------------------------------------------
 #t hf aug-cc-pvdz iop(5/13=1,5/36=2,99/5=2) pseudo=read geom=check gue
 ss=(read,tcheck) scf=(maxcycle=1)
 ----------------------------------------------------------------------
 -----
 title
 -----
 Structure from the checkpoint file:  "Grambow2020_wb97xd3_007657_forward_mol1.chk"
 Charge =  0 Multiplicity = 1

                         Standard orientation:
 ---------------------------------------------------------------------
 Center     Atomic      Atomic             Coordinates (Angstroms)
 Number     Number       Type             X           Y           Z
 ---------------------------------------------------------------------
      1          7           0       -2.107889   -0.077484    0.596274
      2          6           0       -2.001938    0.147029   -0.566570
      3          6           0       -0.472067    0.047109   -0.154394
      4          6           0        0.287076   -1.075439   -0.089524
      5          8           0        1.580120   -0.741088    0.040338
      6          6           0        1.646582    0.614473    0.079971
      7          6           0        0.419493    1.159306   -0.023031
      8          1           0        0.044174   -2.123164   -0.127496
      9          1           0        2.632841    1.034560    0.181557
     10          1           0        0.162374    2.204829   -0.029396
 ---------------------------------------------------------------------

 SCF Done:  E(RHF) =  -321.728960810     A.U. after    2 cycles

 The electronic state is 1-A.
 Alpha  occ. eigenvalues --  -21.14461 -15.81385 -11.51510 -11.46779 -11.46592
 Alpha  occ. eigenvalues --  -11.42532 -11.40560  -1.88396  -1.43403  -1.19671
 Alpha  occ. eigenvalues --   -1.08265  -0.83729  -0.82480  -0.76662  -0.66894
 Alpha  occ. eigenvalues --   -0.60035  -0.58991  -0.57535  -0.53333  -0.48697
 Alpha  occ. eigenvalues --   -0.47419  -0.43306  -0.35414  -0.33236
 Alpha virt. eigenvalues --    0.03249   0.04920   0.06263   0.08271   0.09202
 Alpha virt. eigenvalues --    0.09448   0.09819   0.10495   0.12220   0.12640
 Alpha virt. eigenvalues --    0.13074   0.13377   0.14017   0.14540   0.15252

 Mulliken charges:
               1
     1  N   -0.728657
     2  C    0.273855
     3  C    3.379957
     4  C   -0.794689
     5  O   -3.783094
     6  C    0.354893
     7  C   -2.769130
     8  H    1.426860
     9  H    1.419816
    10  H    1.220188
 Sum of Mulliken charges =   0.00000

 Dipole moment (field-independent basis, Debye):
    X=              2.8254    Y=             -0.2314    Z=              0.5617  Tot=              2.8900

 Test job not archived.
 1\1\GINC-SE232\SP\RHF\Aug-CC-pVDZ\C5H3N1O1\OHZDE\09-Apr-2025\0\\#t hf
 aug-cc-pvdz iop(5/13=1,5/36=2,99/5=2) pseudo=read geom=check guess=(re
 ad,tcheck) scf=(maxcycle=1)\\title\\0,1\N,0,2.33006505,-0.17722552,0.6
 0849404\C,0,2.19900772,-0.30983205,-0.56584795\C,0,0.69707734,-0.01852
 56,-0.14191005\C,0,0.10595805,1.19464603,-0.00257708\O,0,-1.22225498,1
 .04112153,0.11099662\C,0,-1.48209901,-0.29073909,0.06447747\C,0,-0.345
 03394,-0.99783039,-0.07802021\H,0,0.4963919,2.1971215,0.02527261\H,0,-
 2.5188013,-0.57102759,0.14312046\H,0,-0.24005382,-2.06683681,-0.152014

 Normal termination of Gaussian 16 at Wed Apr  9 18:47:24 2025.
