 Gaussian 16, Revision C.01,

 ----------------------------------------------------------------------
 #t hf aug-cc-pvdz symm=none int=(grid=ultrafine) guess=(read,tcheck) s
 table=(opt,rrhf)
 ----------------------------------------------------------------------
 -----
 title
 -----
 Symbolic Z-matrix:
 Charge =  0 Multiplicity = 1

 SCF Done:  E(RHF) =  -268.718367684     A.U. after   16 cycles
 Normal termination of Gaussian 16 at Wed Apr  9 17:15:25 2025.
 Gaussian 16:  ES64L-G16RevC.01  3-Jul-2019

 ----------------------------------------------------------------------
 #t hf aug-cc-pvdz iop(5/13=1,5/36=2,99/5=2) pseudo=read geom=check gue
 ss=(read,tcheck) scf=(maxcycle=1)
 ----------------------------------------------------------------------
 -----
 title
 -----
 Structure from the checkpoint file:  "Grambow2020_b97d3_007081_forward_mol1.chk"
 Charge =  0 Multiplicity = 1

                         Standard orientation:
 ---------------------------------------------------------------------
 Center     Atomic      Atomic             Coordinates (Angstroms)
 Number     Number       Type             X           Y           Z
 ---------------------------------------------------------------------
      1          6           0        2.217562    0.045016   -0.022079
      2          6           0        0.719436    0.093524   -0.004897
      3          6           0       -0.084363    1.184442    0.026107
      4          6           0       -1.518019    1.009762    0.112388
      5          8           0       -1.494091   -0.818997   -0.120232
      6          6           0       -0.081089   -1.185669    0.028442
      7          1           0        2.623223   -0.454105    0.875172
      8          1           0        2.645103    1.055051   -0.063610
      9          1           0        2.593138   -0.518781   -0.893401
     10          1           0        0.315387    2.201916    0.026451
     11          1           0       -2.088468    1.339678   -0.768582
     12          1           0       -1.846072   -0.340703    0.754990
     13          1           0        0.162313   -1.881006   -0.791768
     14          1           0        0.026937   -1.732528    0.982835
 ---------------------------------------------------------------------

 SCF Done:  E(RHF) =  -269.992552810     A.U. after    2 cycles

 The electronic state is 1-A.
 Alpha  occ. eigenvalues --  -21.08679 -11.45370 -11.43688 -11.40744 -11.39722
 Alpha  occ. eigenvalues --  -11.36641  -1.75128  -1.23092  -1.07239  -1.00063
 Alpha  occ. eigenvalues --   -0.84605  -0.76118  -0.66826  -0.63979  -0.58808
 Alpha  occ. eigenvalues --   -0.57144  -0.55484  -0.49166  -0.48396  -0.43266
 Alpha  occ. eigenvalues --   -0.38722  -0.37388  -0.24971
 Alpha virt. eigenvalues --    0.03397   0.04980   0.05343   0.05882   0.06414
 Alpha virt. eigenvalues --    0.06565   0.07404   0.08030   0.09773   0.10901
 Alpha virt. eigenvalues --    0.12756   0.12927   0.13582   0.13687   0.14324

 Mulliken charges:
               1
     1  C   -4.087954
     2  C    2.709508
     3  C   -0.685510
     4  C   -3.139219
     5  O   -2.457806
     6  C   -1.827923
     7  H    1.149929
     8  H    1.218823
     9  H    1.152911
    10  H    1.621407
    11  H    1.093867
    12  H    1.065408
    13  H    1.090217
    14  H    1.096342
 Sum of Mulliken charges =   0.00000

 Dipole moment (field-independent basis, Debye):
    X=              1.3182    Y=             -1.4863    Z=             -0.9354  Tot=              2.1958

 Test job not archived.
 1\1\GINC-SE174\SP\RHF\Aug-CC-pVDZ\C5H8O1\OHZDE\09-Apr-2025\0\\#t hf au
 g-cc-pvdz iop(5/13=1,5/36=2,99/5=2) pseudo=read geom=check guess=(read
 ,tcheck) scf=(maxcycle=1)\\title\\0,1\C,0,-1.83344446,0.30260717,-0.48
 589866\C,0,-0.38729596,0.14052744,-0.12615714\C,0,0.6389841,0.9909017,
 -0.37267123\C,0,1.98443279,0.60860193,-0.0026169\O,0,1.4961188,-0.9124
 2251,0.91775133\C,0,0.08785198,-1.11714527,0.55997814\H,0,-2.17354372,
 -0.48077348,-1.18546122\H,0,-2.01589209,1.27532183,-0.96047798\H,0,-2.
 48123407,0.23258973,0.40494018\H,0,0.49242999,1.94821814,-0.87974275\H

 Normal termination of Gaussian 16 at Wed Apr  9 17:15:29 2025.
