 Gaussian 16, Revision C.01,

 ----------------------------------------------------------------------
 #t hf aug-cc-pvdz symm=none int=(grid=ultrafine) guess=(read,tcheck) s
 table=(opt,rrhf)
 ----------------------------------------------------------------------
 -----
 title
 -----
 Symbolic Z-matrix:
 Charge =  0 Multiplicity = 1

 SCF Done:  E(RHF) =  -338.549839767     A.U. after   16 cycles
 Normal termination of Gaussian 16 at Wed Apr  9 18:58:45 2025.
 Gaussian 16:  ES64L-G16RevC.01  3-Jul-2019

 ----------------------------------------------------------------------
 #t hf aug-cc-pvdz iop(5/13=1,5/36=2,99/5=2) pseudo=read geom=check gue
 ss=(read,tcheck) scf=(maxcycle=1)
 ----------------------------------------------------------------------
 -----
 title
 -----
 Structure from the checkpoint file:  "Grambow2020_wb97xd3_007962_forward_mol1.chk"
 Charge =  0 Multiplicity = 1

                         Standard orientation:
 ---------------------------------------------------------------------
 Center     Atomic      Atomic             Coordinates (Angstroms)
 Number     Number       Type             X           Y           Z
 ---------------------------------------------------------------------
      1          7           0       -1.798759   -0.973161    0.237818
      2          6           0       -0.842436   -0.188033    0.030826
      3          8           0       -0.876394    1.126658   -0.311807
      4          6           0        0.471872    1.463075    0.023135
      5          6           0        0.755283    0.167181    0.748811
      6          6           0        1.734751   -0.692271    0.094600
      7          7           0        0.470828   -0.942056   -0.636365
      8          1           0       -2.680202   -0.477207    0.289285
      9          1           0        1.042518    1.682608   -0.886368
     10          1           0        0.499851    2.311960    0.708612
     11          1           0        2.109826   -1.553977    0.638992
     12          1           0        2.480808   -0.222180   -0.541212
     13          1           0        0.137049   -1.847660   -0.309266
 ---------------------------------------------------------------------

 SCF Done:  E(RHF) =  -340.100746944     A.U. after    2 cycles

 The electronic state is 1-A.
 Alpha  occ. eigenvalues --  -21.09234 -15.79397 -15.70864 -11.53907 -11.47693
 Alpha  occ. eigenvalues --  -11.46017 -11.41162  -1.85068  -1.47342  -1.30714
 Alpha  occ. eigenvalues --   -1.07736  -0.99649  -0.91954  -0.73995  -0.72854
 Alpha  occ. eigenvalues --   -0.66562  -0.62939  -0.60953  -0.59279  -0.55470
 Alpha  occ. eigenvalues --   -0.48984  -0.42232  -0.40770  -0.36237  -0.34214
 Alpha  occ. eigenvalues --   -0.30191
 Alpha virt. eigenvalues --    0.03743   0.05062   0.05239   0.06007   0.06517
 Alpha virt. eigenvalues --    0.06757   0.08695   0.09277   0.10964   0.12477
 Alpha virt. eigenvalues --    0.12698   0.13933   0.14194   0.14793   0.15427

 Mulliken charges:
               1
     1  N   -3.812520
     2  C    6.503266
     3  O   -3.147025
     4  C   -1.415307
     5  C   -1.321375
     6  C   -2.276745
     7  N   -1.742522
     8  H    0.636741
     9  H    1.563735
    10  H    1.540462
    11  H    1.459810
    12  H    1.440166
    13  H    0.571313
 Sum of Mulliken charges =  -0.00000

 Dipole moment (field-independent basis, Debye):
    X=              2.5334    Y=              1.2107    Z=             -0.8113  Tot=              2.9227

 Test job not archived.
 1\1\GINC-SE029\SP\RHF\Aug-CC-pVDZ\C4H6N2O1\OHZDE\09-Apr-2025\0\\#t hf
 aug-cc-pvdz iop(5/13=1,5/36=2,99/5=2) pseudo=read geom=check guess=(re
 ad,tcheck) scf=(maxcycle=1)\\title\\0,1\N,0,1.66153361,-1.34586298,-0.
 97349781\C,0,0.99894856,-0.46957555,-0.36775312\O,0,1.44082095,0.51692
 113,0.45598096\C,0,0.27371713,1.34193876,0.43603779\C,0,-0.3924477,0.6
 0139798,-0.70154454\C,0,-1.60408808,-0.11901087,-0.32878994\N,0,-0.496
 24544,-1.00568371,0.09629521\H,0,2.65525553,-1.15632932,-0.92705954\H,
 0,-0.21345829,1.32933104,1.41763271\H,0,0.52685183,2.36318146,0.145772

 Normal termination of Gaussian 16 at Wed Apr  9 18:58:49 2025.
