 Gaussian 16, Revision C.01,

 ----------------------------------------------------------------------
 #t hf aug-cc-pvdz symm=none int=(grid=ultrafine) guess=(read,tcheck) s
 table=(opt,rrhf)
 ----------------------------------------------------------------------
 -----
 title
 -----
 Symbolic Z-matrix:
 Charge =  0 Multiplicity = 1

 SCF Done:  E(RHF) =  -307.895666111     A.U. after   12 cycles

 1\1\GINC-SE232\Stability\RHF\Aug-CC-pVDZ\C6H10O1\OHZDE\09-Apr-2025\0\\
 #t hf aug-cc-pvdz symm=none int=(grid=ultrafine) guess=(read,tcheck) s
 table=(opt,rrhf)\\title\\0,1\O,0,1.75169054,-0.36808863,0.84656423\C,0
 ,1.28245304,-0.69404146,-0.45212073\C,0,-0.03481243,-1.41996585,-0.524
 33191\C,0,-1.10538985,-0.76189978,0.34209395\C,0,-1.18890079,0.7322134
 4,0.04970879\C,0,0.10889841,1.459358,0.40494013\C,0,1.35030318,0.69987
 756,-0.00688765\H,0,0.16690399,1.6258589,1.4848924\H,0,2.05919183,-1.0
 5764002,-1.1229058\H,0,0.11558755,-2.46342893,-0.23333962\H,0,-0.35672

 Normal termination of Gaussian 16 at Wed Apr  9 19:13:09 2025.
 Gaussian 16:  ES64L-G16RevC.01  3-Jul-2019

 ----------------------------------------------------------------------
 #t hf aug-cc-pvdz iop(5/13=1,5/36=2,99/5=2) pseudo=read geom=check gue
 ss=(read,tcheck) scf=(maxcycle=1)
 ----------------------------------------------------------------------
 -----
 title
 -----
 Structure from the checkpoint file:  "Grambow2020_wb97xd3_008427_reverse_mol2.chk"
 Charge =  0 Multiplicity = 1

                         Standard orientation:
 ---------------------------------------------------------------------
 Center     Atomic      Atomic             Coordinates (Angstroms)
 Number     Number       Type             X           Y           Z
 ---------------------------------------------------------------------
      1          8           0        1.510951    0.033213    0.770544
      2          6           0        1.086623   -0.629137   -0.410240
      3          6           0       -0.133962   -1.502018   -0.285260
      4          6           0       -1.277346   -0.796158    0.438837
      5          6           0       -1.538851    0.573570   -0.177845
      6          6           0       -0.338271    1.508992   -0.026836
      7          6           0        0.986013    0.827288   -0.289611
      8          1           0       -0.302677    1.919699    0.986790
      9          1           0        1.902613   -1.040615   -1.002122
     10          1           0        0.139918   -2.428299    0.227676
     11          1           0       -0.450560   -1.783506   -1.295823
     12          1           0       -1.024848   -0.683749    1.496694
     13          1           0       -2.177310   -1.413110    0.389981
     14          1           0       -1.761100    0.442367   -1.242871
     15          1           0       -2.423057    1.034271    0.268341
     16          1           0       -0.439828    2.359655   -0.704859
     17          1           0        1.744013    1.432365   -0.782422
 ---------------------------------------------------------------------

 SCF Done:  E(RHF) =  -309.368752733     A.U. after    2 cycles

 The electronic state is 1-A.
 Alpha  occ. eigenvalues --  -21.04606 -11.52458 -11.43953 -11.42831 -11.39829
 Alpha  occ. eigenvalues --  -11.39500 -11.34983  -1.78211  -1.26450  -1.11666
 Alpha  occ. eigenvalues --   -1.01912  -0.88966  -0.87758  -0.75945  -0.71616
 Alpha  occ. eigenvalues --   -0.62711  -0.60955  -0.58914  -0.54606  -0.54051
 Alpha  occ. eigenvalues --   -0.51280  -0.46816  -0.43026  -0.41781  -0.40285
 Alpha  occ. eigenvalues --   -0.34402  -0.29659
 Alpha virt. eigenvalues --    0.04074   0.04660   0.05136   0.05352   0.05602
 Alpha virt. eigenvalues --    0.05878   0.06537   0.07044   0.07955   0.08345
 Alpha virt. eigenvalues --    0.12082   0.13031   0.13523   0.13852   0.14299

 Mulliken charges:
               1
     1  O   -2.835711
     2  C    0.820137
     3  C   -3.194066
     4  C   -2.847285
     5  C   -2.944974
     6  C   -3.012592
     7  C    0.600403
     8  H    1.183019
     9  H    1.529746
    10  H    1.210305
    11  H    1.337485
    12  H    1.483829
    13  H    1.226384
    14  H    1.419900
    15  H    1.280650
    16  H    1.261387
    17  H    1.481383
 Sum of Mulliken charges =  -0.00000

 Dipole moment (field-independent basis, Debye):
    X=             -0.4960    Y=             -0.0018    Z=             -0.3085  Tot=              0.5842

 Test job not archived.
 1\1\GINC-SE232\SP\RHF\Aug-CC-pVDZ\C6H10O1\OHZDE\09-Apr-2025\0\\#t hf a
 ug-cc-pvdz iop(5/13=1,5/36=2,99/5=2) pseudo=read geom=check guess=(rea
 d,tcheck) scf=(maxcycle=1)\\title\\0,1\O,0,1.75169054,-0.36808863,0.84
 656423\C,0,1.28245304,-0.69404146,-0.45212073\C,0,-0.03481243,-1.41996
 585,-0.52433191\C,0,-1.10538985,-0.76189978,0.34209395\C,0,-1.18890079
 ,0.73221344,0.04970879\C,0,0.10889841,1.459358,0.40494013\C,0,1.350303
 18,0.69987756,-0.00688765\H,0,0.16690399,1.6258589,1.4848924\H,0,2.059
 19183,-1.05764002,-1.1229058\H,0,0.11558755,-2.46342893,-0.23333962\H,

 Normal termination of Gaussian 16 at Wed Apr  9 19:13:15 2025.
