 Gaussian 16, Revision C.01,

 ----------------------------------------------------------------------
 #t hf aug-cc-pvdz symm=none int=(grid=ultrafine) guess=(read,tcheck) s
 table=(opt,rrhf)
 ----------------------------------------------------------------------
 -----
 title
 -----
 Symbolic Z-matrix:
 Charge =  0 Multiplicity = 1

 SCF Done:  E(RHF) =  -344.740007553     A.U. after   15 cycles

 1\1\GINC-SE247\Stability\RHF\Aug-CC-pVDZ\C5H10O2\OHZDE\09-Apr-2025\0\\
 #t hf aug-cc-pvdz symm=none int=(grid=ultrafine) guess=(read,tcheck) s
 table=(opt,rrhf)\\title\\0,1\C,0,2.01577742,1.22240283,-0.37199485\O,0
 ,0.65645134,0.94254557,-0.16054213\C,0,0.33450405,-0.40253907,-0.43875
 332\C,0,0.76092357,-1.42660634,0.58476105\O,0,-0.99094983,-1.35220215,
 1.11551758\C,0,-1.14657145,-0.66432487,-0.16701765\C,0,-2.05636258,0.5
 1994927,-0.0018813\H,0,2.66327195,0.6183783,0.27641941\H,0,2.30114738,
 1.03729171,-1.41602801\H,0,2.1744165,2.27427161,-0.14020293\H,0,0.6603

 Normal termination of Gaussian 16 at Wed Apr  9 03:27:32 2025.
 Gaussian 16:  ES64L-G16RevC.01  3-Jul-2019

 ----------------------------------------------------------------------
 #t hf aug-cc-pvdz iop(5/13=1,5/36=2,99/5=2) pseudo=read geom=check gue
 ss=(read,tcheck) scf=(maxcycle=1)
 ----------------------------------------------------------------------
 -----
 title
 -----
 Structure from the checkpoint file:  "Grambow2020_wb97xd3_006656_forward_mol1.chk"
 Charge =  0 Multiplicity = 1

                         Standard orientation:
 ---------------------------------------------------------------------
 Center     Atomic      Atomic             Coordinates (Angstroms)
 Number     Number       Type             X           Y           Z
 ---------------------------------------------------------------------
      1          6           0        2.488197   -0.249161   -0.130359
      2          8           0        1.130962   -0.600092   -0.204916
      3          6           0        0.313684    0.242379    0.577774
      4          6           0        0.043305    1.622726    0.030357
      5          8           0       -1.565426    0.905150   -0.473002
      6          6           0       -1.154222   -0.160960    0.441663
      7          6           0       -1.467507   -1.499767   -0.164096
      8          1           0        2.667959    0.769312   -0.497694
      9          1           0        2.859163   -0.316151    0.900953
     10          1           0        3.042765   -0.947654   -0.754766
     11          1           0        0.689217    0.251671    1.609668
     12          1           0        0.532373    1.815173   -0.926847
     13          1           0       -1.330511    1.795603    0.099913
     14          1           0       -1.683219   -0.032346    1.389997
     15          1           0       -1.130383   -2.297605    0.499046
     16          1           0       -2.545234   -1.593688   -0.305552
     17          1           0       -0.967156   -1.616077   -1.123415
 ---------------------------------------------------------------------

 SCF Done:  E(RHF) =  -346.332621594     A.U. after    2 cycles

 The electronic state is 1-A.
 Alpha  occ. eigenvalues --  -21.06454 -21.04806 -11.49516 -11.44313 -11.40975
 Alpha  occ. eigenvalues --  -11.40533 -11.37084  -1.79616  -1.72588  -1.15763
 Alpha  occ. eigenvalues --   -1.08060  -0.97520  -0.90354  -0.77489  -0.70957
 Alpha  occ. eigenvalues --   -0.67591  -0.61831  -0.60762  -0.58226  -0.55260
 Alpha  occ. eigenvalues --   -0.53894  -0.50527  -0.46490  -0.42143  -0.40590
 Alpha  occ. eigenvalues --   -0.33912  -0.31548  -0.26798
 Alpha virt. eigenvalues --    0.03915   0.05054   0.05233   0.05462   0.05793
 Alpha virt. eigenvalues --    0.06208   0.06602   0.07010   0.08111   0.08706
 Alpha virt. eigenvalues --    0.09930   0.11827   0.13251   0.13848   0.14551

 Mulliken charges:
               1
     1  C   -3.023669
     2  O   -3.639012
     3  C    0.665627
     4  C   -1.925256
     5  O   -2.925984
     6  C    0.742941
     7  C   -3.777128
     8  H    1.345523
     9  H    1.296396
    10  H    1.341678
    11  H    1.867206
    12  H    1.434335
    13  H    1.475607
    14  H    1.471853
    15  H    1.231205
    16  H    1.152481
    17  H    1.266198
 Sum of Mulliken charges =   0.00000

 Dipole moment (field-independent basis, Debye):
    X=             -0.4043    Y=             -1.9689    Z=             -0.3642  Tot=              2.0428

 Test job not archived.
 1\1\GINC-SE247\SP\RHF\Aug-CC-pVDZ\C5H10O2\OHZDE\09-Apr-2025\0\\#t hf a
 ug-cc-pvdz iop(5/13=1,5/36=2,99/5=2) pseudo=read geom=check guess=(rea
 d,tcheck) scf=(maxcycle=1)\\title\\0,1\C,0,2.01577742,1.22240283,-0.37
 199485\O,0,0.65645134,0.94254557,-0.16054213\C,0,0.33450405,-0.4025390
 7,-0.43875332\C,0,0.76092357,-1.42660634,0.58476105\O,0,-0.99094983,-1
 .35220215,1.11551758\C,0,-1.14657145,-0.66432487,-0.16701765\C,0,-2.05
 636258,0.51994927,-0.0018813\H,0,2.66327195,0.6183783,0.27641941\H,0,2
 .30114738,1.03729171,-1.41602801\H,0,2.1744165,2.27427161,-0.14020293\

 Normal termination of Gaussian 16 at Wed Apr  9 03:27:38 2025.
