 Gaussian 16, Revision C.01,

 ----------------------------------------------------------------------
 #t hf aug-cc-pvdz symm=none int=(grid=ultrafine) guess=(read,tcheck) s
 table=(opt,rrhf)
 ----------------------------------------------------------------------
 -----
 title
 -----
 Symbolic Z-matrix:
 Charge =  0 Multiplicity = 1

 SCF Done:  E(RHF) =  -343.566217628     A.U. after   15 cycles
 Normal termination of Gaussian 16 at Wed Apr  9 19:07:59 2025.
 Gaussian 16:  ES64L-G16RevC.01  3-Jul-2019

 ----------------------------------------------------------------------
 #t hf aug-cc-pvdz iop(5/13=1,5/36=2,99/5=2) pseudo=read geom=check gue
 ss=(read,tcheck) scf=(maxcycle=1)
 ----------------------------------------------------------------------
 -----
 title
 -----
 Structure from the checkpoint file:  "Grambow2020_wb97xd3_008130_reverse_mol2.chk"
 Charge =  0 Multiplicity = 1

                         Standard orientation:
 ---------------------------------------------------------------------
 Center     Atomic      Atomic             Coordinates (Angstroms)
 Number     Number       Type             X           Y           Z
 ---------------------------------------------------------------------
      1          6           0       -1.626096   -0.794724    0.784937
      2          8           0       -1.467121   -0.439557   -0.501348
      3          6           0       -0.735261    0.496101   -0.942578
      4          6           0        1.803004   -0.892680   -0.667439
      5          6           0        1.353715   -0.544665    0.531168
      6          6           0        0.855020    0.830734    0.836674
      7          8           0       -0.100270    1.345039   -0.153387
      8          1           0       -2.397773   -1.541238    0.884962
      9          1           0       -1.535746    0.002617    1.508538
     10          1           0       -0.729897    0.647643   -2.010735
     11          1           0        1.889102   -0.173742   -1.475136
     12          1           0        2.105266   -1.909629   -0.881932
     13          1           0        1.273967   -1.272084    1.330663
     14          1           0        0.376076    0.864336    1.813433
     15          1           0        1.655840    1.569641    0.811520
 ---------------------------------------------------------------------

 SCF Done:  E(RHF) =  -345.153367257     A.U. after    2 cycles

 The electronic state is 1-A.
 Alpha  occ. eigenvalues --  -21.17317 -21.10105 -11.49653 -11.46357 -11.41773
 Alpha  occ. eigenvalues --  -11.37862 -11.34836  -1.90873  -1.76285  -1.19691
 Alpha  occ. eigenvalues --   -1.04478  -0.96827  -0.82864  -0.78633  -0.72398
 Alpha  occ. eigenvalues --   -0.68441  -0.62751  -0.62383  -0.58397  -0.56057
 Alpha  occ. eigenvalues --   -0.53569  -0.51376  -0.44594  -0.41601  -0.36124
 Alpha  occ. eigenvalues --   -0.35383  -0.24367
 Alpha virt. eigenvalues --    0.03485   0.04883   0.05146   0.05538   0.06063
 Alpha virt. eigenvalues --    0.06526   0.06652   0.08048   0.10210   0.11112
 Alpha virt. eigenvalues --    0.11903   0.12298   0.12688   0.13572   0.14078

 Mulliken charges:
               1
     1  C   -2.233158
     2  O   -3.025497
     3  C    2.580256
     4  C   -2.913499
     5  C   -1.160099
     6  C   -2.031044
     7  O   -3.161521
     8  H    1.397292
     9  H    1.530278
    10  H    1.892430
    11  H    1.535353
    12  H    1.354659
    13  H    1.437381
    14  H    1.559162
    15  H    1.238008
 Sum of Mulliken charges =   0.00000

 Dipole moment (field-independent basis, Debye):
    X=              0.7167    Y=              0.6766    Z=             -0.4723  Tot=              1.0929

 Test job not archived.
 1\1\GINC-SE035\SP\RHF\Aug-CC-pVDZ\C5H8O2\OHZDE\09-Apr-2025\0\\#t hf au
 g-cc-pvdz iop(5/13=1,5/36=2,99/5=2) pseudo=read geom=check guess=(read
 ,tcheck) scf=(maxcycle=1)\\title\\0,1\C,0,-1.55327317,1.27593811,0.321
 33909\O,0,-0.96424466,1.22218719,-0.88535127\C,0,0.26555975,1.02461612
 ,-1.11838495\C,0,0.25321383,-1.84029226,-0.62915024\C,0,0.14305821,-1.
 19148045,0.52260626\C,0,1.03654862,-0.05258556,0.89455471\O,0,1.176341
 26,0.95697187,-0.16306579\H,0,-2.58476796,1.57740855,0.23241006\H,0,-0
 .93963417,1.64819738,1.12904171\H,0,0.57008024,1.01785491,-2.15336092\

 Normal termination of Gaussian 16 at Wed Apr  9 19:08:04 2025.
