 Gaussian 16, Revision C.01,

 ----------------------------------------------------------------------
 #t hf aug-cc-pvdz symm=none int=(grid=ultrafine) guess=(read,tcheck) s
 table=(opt,rrhf)
 ----------------------------------------------------------------------
 -----
 title
 -----
 Symbolic Z-matrix:
 Charge =  0 Multiplicity = 1

 SCF Done:  E(RHF) =  -323.913686035     A.U. after   14 cycles
 Normal termination of Gaussian 16 at Wed Apr  9 18:33:30 2025.
 Gaussian 16:  ES64L-G16RevC.01  3-Jul-2019

 ----------------------------------------------------------------------
 #t hf aug-cc-pvdz iop(5/13=1,5/36=2,99/5=2) pseudo=read geom=check gue
 ss=(read,tcheck) scf=(maxcycle=1)
 ----------------------------------------------------------------------
 -----
 title
 -----
 Structure from the checkpoint file:  "Grambow2020_wb97xd3_007256_reverse_mol2.chk"
 Charge =  0 Multiplicity = 1

                         Standard orientation:
 ---------------------------------------------------------------------
 Center     Atomic      Atomic             Coordinates (Angstroms)
 Number     Number       Type             X           Y           Z
 ---------------------------------------------------------------------
      1          6           0        0.491090   -1.269100   -0.461913
      2          6           0        1.577313   -0.209163   -0.392559
      3          6           0        2.622570   -0.492879    0.691605
      4          6           0        1.030879    1.177189   -0.185816
      5          8           0       -0.131447    1.461956   -0.054157
      6          6           0       -2.897165    0.083299    0.151851
      7          7           0       -3.876992   -0.504027    0.223631
      8          1           0       -0.049479   -1.337400    0.484244
      9          1           0        0.927544   -2.246659   -0.670342
     10          1           0       -0.234519   -1.048419   -1.245314
     11          1           0        3.124964   -1.439732    0.492662
     12          1           0        3.384690    0.288026    0.734953
     13          1           0        2.150810   -0.562338    1.674314
     14          1           0        1.795728    1.980012   -0.148579
     15          1           0        2.106806   -0.157389   -1.354420
     16          1           0       -1.964141    0.620360    0.081312
 ---------------------------------------------------------------------

 SCF Done:  E(RHF) =  -325.421433955     A.U. after    2 cycles

 The electronic state is 1-A.
 Alpha  occ. eigenvalues --  -21.08619 -15.75730 -11.50853 -11.44350 -11.41698
 Alpha  occ. eigenvalues --  -11.41057 -11.38166  -1.74216  -1.29194  -1.26338
 Alpha  occ. eigenvalues --   -1.03093  -0.95565  -0.81228  -0.78492  -0.69502
 Alpha  occ. eigenvalues --   -0.63776  -0.60225  -0.56407  -0.55177  -0.52405
 Alpha  occ. eigenvalues --   -0.51246  -0.50157  -0.47787  -0.44707  -0.44609
 Alpha  occ. eigenvalues --   -0.44137  -0.31902
 Alpha virt. eigenvalues --    0.02796   0.04494   0.04693   0.04945   0.05447
 Alpha virt. eigenvalues --    0.06159   0.07189   0.07339   0.08164   0.10389
 Alpha virt. eigenvalues --    0.11492   0.11690   0.12219   0.13420   0.13952

 Mulliken charges:
               1
     1  C   -3.749662
     2  C   -2.700285
     3  C   -3.559823
     4  C    2.137210
     5  O   -3.455603
     6  C    0.562559
     7  N   -2.613470
     8  H    1.383604
     9  H    1.158685
    10  H    1.299028
    11  H    1.297911
    12  H    1.250007
    13  H    1.370447
    14  H    1.678667
    15  H    1.646048
    16  H    2.294675
 Sum of Mulliken charges =   0.00000

 Dipole moment (field-independent basis, Debye):
    X=              4.8102    Y=              0.6186    Z=             -0.4577  Tot=              4.8713

 Test job not archived.
 1\1\GINC-SE113\SP\RHF\Aug-CC-pVDZ\C5H9N1O1\OHZDE\09-Apr-2025\0\\#t hf
 aug-cc-pvdz iop(5/13=1,5/36=2,99/5=2) pseudo=read geom=check guess=(re
 ad,tcheck) scf=(maxcycle=1)\\title\\0,1\C,0,0.64642769,0.89447404,0.31
 205705\C,0,0.48167895,-0.55507119,0.73612563\C,0,1.53407036,-1.4827757
 7,0.1194362\C,0,-0.88516412,-1.1036275,0.42931938\O,0,-1.77530467,-0.5
 0630465,-0.1186607\C,0,-2.31137875,2.23236536,-1.46203154\N,0,-2.42444
 885,3.26463041,-1.94349732\H,0,0.55841229,0.99727405,-0.77135346\H,0,1
 .62874207,1.26646446,0.60571724\H,0,-0.1085227,1.53413478,0.77010671\H

 Normal termination of Gaussian 16 at Wed Apr  9 18:33:35 2025.
