 Gaussian 16, Revision C.01,

 ----------------------------------------------------------------------
 #t hf aug-cc-pvdz symm=none int=(grid=ultrafine) guess=(read,tcheck) s
 table=(opt,rrhf)
 ----------------------------------------------------------------------
 -----
 title
 -----
 Symbolic Z-matrix:
 Charge =  0 Multiplicity = 1

 SCF Done:  E(RHF) =  -343.646873991     A.U. after   16 cycles
 Normal termination of Gaussian 16 at Wed Apr  9 03:28:21 2025.
 Gaussian 16:  ES64L-G16RevC.01  3-Jul-2019

 ----------------------------------------------------------------------
 #t hf aug-cc-pvdz iop(5/13=1,5/36=2,99/5=2) pseudo=read geom=check gue
 ss=(read,tcheck) scf=(maxcycle=1)
 ----------------------------------------------------------------------
 -----
 title
 -----
 Structure from the checkpoint file:  "Grambow2020_wb97xd3_006714_reverse_mol2.chk"
 Charge =  0 Multiplicity = 1

                         Standard orientation:
 ---------------------------------------------------------------------
 Center     Atomic      Atomic             Coordinates (Angstroms)
 Number     Number       Type             X           Y           Z
 ---------------------------------------------------------------------
      1          8           0        2.505408   -0.349345   -0.047118
      2          6           0        1.165191   -0.776190   -0.114468
      3          6           0        0.234251    0.187338    0.576576
      4          8           0        0.101827    1.426689   -0.189254
      5          6           0       -1.198718    1.312197   -0.413686
      6          6           0       -1.907833   -1.189895   -0.228140
      7          6           0       -1.287821    0.032269    0.421022
      8          1           0        2.588476    0.469116   -0.542068
      9          1           0        0.847081   -0.925226   -1.153056
     10          1           0        1.113251   -1.741790    0.394023
     11          1           0        0.608960    0.413492    1.577106
     12          1           0       -1.450190   -1.420224   -1.191042
     13          1           0       -1.816737   -2.069665    0.411280
     14          1           0       -2.968668   -1.009187   -0.405726
     15          1           0       -1.810469    0.270414    1.352643
 ---------------------------------------------------------------------

 SCF Done:  E(RHF) =  -345.197640209     A.U. after    2 cycles

 The electronic state is 1-A.
 Alpha  occ. eigenvalues --  -21.10897 -21.08306 -11.50487 -11.44795 -11.43478
 Alpha  occ. eigenvalues --  -11.40952 -11.38208  -1.84974  -1.72291  -1.20923
 Alpha  occ. eigenvalues --   -1.08353  -0.97344  -0.89414  -0.72474  -0.71208
 Alpha  occ. eigenvalues --   -0.63783  -0.61940  -0.61441  -0.57610  -0.55284
 Alpha  occ. eigenvalues --   -0.50785  -0.49379  -0.44370  -0.41161  -0.38803
 Alpha  occ. eigenvalues --   -0.34061  -0.29826
 Alpha virt. eigenvalues --    0.03502   0.04854   0.05298   0.05379   0.06104
 Alpha virt. eigenvalues --    0.06251   0.06630   0.08667   0.09316   0.10014
 Alpha virt. eigenvalues --    0.11536   0.12457   0.13144   0.13961   0.14436

 Mulliken charges:
               1
     1  O   -2.735704
     2  C   -0.597844
     3  C    0.442889
     4  O   -2.374336
     5  C    0.350763
     6  C   -3.950524
     7  C   -1.263131
     8  H    0.683612
     9  H    1.442972
    10  H    1.377846
    11  H    1.584581
    12  H    1.303045
    13  H    1.272751
    14  H    1.124028
    15  H    1.339054
 Sum of Mulliken charges =   0.00000

 Dipole moment (field-independent basis, Debye):
    X=              1.2919    Y=             -2.0192    Z=              1.4128  Tot=              2.7825

 Test job not archived.
 1\1\GINC-SE341\SP\RHF\Aug-CC-pVDZ\C5H8O2\OHZDE\09-Apr-2025\0\\#t hf au
 g-cc-pvdz iop(5/13=1,5/36=2,99/5=2) pseudo=read geom=check guess=(read
 ,tcheck) scf=(maxcycle=1)\\title\\0,1\O,0,2.55355733,0.72313433,0.6088
 4781\C,0,1.34395633,0.54659016,-0.09015933\C,0,0.47679586,-0.50910891,
 0.54710853\O,0,-0.07727872,-0.03506981,1.81530058\C,0,-1.34772339,-0.1
 0907401,1.44734692\C,0,-1.51990166,0.00019568,-1.1519129\C,0,-0.977382
 19,-0.69409023,0.08224748\H,0,2.35189167,1.06639244,1.48249477\H,0,0.7
 8960354,1.48914041,-0.16992542\H,0,1.60510938,0.22455022,-1.10096762\H

 Normal termination of Gaussian 16 at Wed Apr  9 03:28:26 2025.
