 Gaussian 16, Revision C.01,

 ----------------------------------------------------------------------
 #t hf aug-cc-pvdz symm=none int=(grid=ultrafine) guess=(read,tcheck) s
 table=(opt,rrhf)
 ----------------------------------------------------------------------
 -----
 title
 -----
 Symbolic Z-matrix:
 Charge =  0 Multiplicity = 1

 SCF Done:  E(RHF) =  -306.614194181     A.U. after   15 cycles
 Normal termination of Gaussian 16 at Wed Apr  9 19:08:59 2025.
 Gaussian 16:  ES64L-G16RevC.01  3-Jul-2019

 ----------------------------------------------------------------------
 #t hf aug-cc-pvdz iop(5/13=1,5/36=2,99/5=2) pseudo=read geom=check gue
 ss=(read,tcheck) scf=(maxcycle=1)
 ----------------------------------------------------------------------
 -----
 title
 -----
 Structure from the checkpoint file:  "Grambow2020_wb97xd3_008154_reverse_mol2.chk"
 Charge =  0 Multiplicity = 1

                         Standard orientation:
 ---------------------------------------------------------------------
 Center     Atomic      Atomic             Coordinates (Angstroms)
 Number     Number       Type             X           Y           Z
 ---------------------------------------------------------------------
      1          8           0       -2.077578    0.131882   -0.008043
      2          6           0       -0.698416    0.108877   -0.006368
      3          6           0        0.088654   -0.769090   -1.045236
      4          6           0        1.203407   -0.677128    0.008032
      5          6           0        1.451780    0.834885   -0.022415
      6          6           0        0.046056    1.364734   -0.005571
      7          6           0        0.099105   -0.719091    1.076594
      8          1           0       -2.339645    1.057104    0.011718
      9          1           0        0.268359   -0.352959   -2.037610
     10          1           0       -0.380761   -1.750225   -1.113085
     11          1           0        2.046427   -1.363285    0.018321
     12          1           0        2.008354    1.237290    0.830592
     13          1           0        1.962086    1.206827   -0.918235
     14          1           0        0.288882   -0.256728    2.046332
     15          1           0       -0.376598   -1.692201    1.196093
 ---------------------------------------------------------------------

 SCF Done:  E(RHF) =  -308.051530967     A.U. after    2 cycles

 The electronic state is 1-A.
 Alpha  occ. eigenvalues --  -21.07327 -11.47554 -11.45838 -11.43180 -11.41313
 Alpha  occ. eigenvalues --  -11.40106 -11.35772  -1.73525  -1.43052  -1.06430
 Alpha  occ. eigenvalues --   -0.98006  -0.97784  -0.81431  -0.73486  -0.68111
 Alpha  occ. eigenvalues --   -0.64411  -0.62636  -0.55765  -0.54430  -0.51556
 Alpha  occ. eigenvalues --   -0.46695  -0.44033  -0.43121  -0.38007  -0.32270
 Alpha  occ. eigenvalues --   -0.31163
 Alpha virt. eigenvalues --    0.03968   0.04808   0.05312   0.05371   0.06009
 Alpha virt. eigenvalues --    0.06269   0.06857   0.07439   0.08936   0.09181
 Alpha virt. eigenvalues --    0.12091   0.12130   0.12574   0.13953   0.14610

 Mulliken charges:
               1
     1  O   -3.735709
     2  C    4.814998
     3  C   -2.354998
     4  C   -2.358807
     5  C   -2.457105
     6  C   -1.879468
     7  C   -2.353036
     8  H    0.687308
     9  H    1.358848
    10  H    1.165243
    11  H    1.665041
    12  H    1.447294
    13  H    1.459337
    14  H    1.374104
    15  H    1.166950
 Sum of Mulliken charges =  -0.00000

 Dipole moment (field-independent basis, Debye):
    X=              1.4562    Y=             -1.9397    Z=             -0.0116  Tot=              2.4255

 Test job not archived.
 1\1\GINC-SE108\SP\RHF\Aug-CC-pVDZ\C6H8O1\OHZDE\09-Apr-2025\0\\#t hf au
 g-cc-pvdz iop(5/13=1,5/36=2,99/5=2) pseudo=read geom=check guess=(read
 ,tcheck) scf=(maxcycle=1)\\title\\0,1\O,0,2.09219726,0.87122901,-0.373
 67353\C,0,0.82080299,0.40862661,-0.10501858\C,0,0.55019406,-1.12871696
 ,0.07635317\C,0,-0.8843471,-0.7269836,-0.29941861\C,0,-1.20747934,0.18
 581068,0.88851704\C,0,0.04601303,1.00924524,0.97681946\C,0,-0.2681248,
 0.31644885,-1.24524437\H,0,2.26188702,1.58997031,0.24254237\H,0,0.7319
 415,-1.56991556,1.05746355\H,0,1.07749443,-1.67925215,-0.70239331\H,0,

 Normal termination of Gaussian 16 at Wed Apr  9 19:09:04 2025.
