 Gaussian 16, Revision C.01,

 ----------------------------------------------------------------------
 #t hf aug-cc-pvdz symm=none int=(grid=ultrafine) guess=(read,tcheck) s
 table=(opt,rrhf)
 ----------------------------------------------------------------------
 -----
 title
 -----
 Symbolic Z-matrix:
 Charge =  0 Multiplicity = 1

 SCF Done:  E(RHF) =  -231.741124448     A.U. after   14 cycles
 Normal termination of Gaussian 16 at Wed Apr  9 16:54:06 2025.
 Gaussian 16:  ES64L-G16RevC.01  3-Jul-2019

 ----------------------------------------------------------------------
 #t hf aug-cc-pvdz iop(5/13=1,5/36=2,99/5=2) pseudo=read geom=check gue
 ss=(read,tcheck) scf=(maxcycle=1)
 ----------------------------------------------------------------------
 -----
 title
 -----
 Structure from the checkpoint file:  "Grambow2020_b97d3_006869_reverse_mol2.chk"
 Charge =  0 Multiplicity = 1

                         Standard orientation:
 ---------------------------------------------------------------------
 Center     Atomic      Atomic             Coordinates (Angstroms)
 Number     Number       Type             X           Y           Z
 ---------------------------------------------------------------------
      1          6           0        0.746551    1.183605   -0.027829
      2          6           0       -0.668095    0.759711   -0.431978
      3          6           0       -0.667793   -0.758228   -0.433875
      4          6           0        0.746497   -1.183765   -0.028454
      5          6           0        1.576553    0.000069    0.373250
      6          6           0       -1.435785   -0.000943    0.621865
      7          1           0        0.797318    1.977823    0.737097
      8          1           0        1.318919    1.606425   -0.881806
      9          1           0       -1.223502    1.330375   -1.176232
     10          1           0       -1.220886   -1.327466   -1.181015
     11          1           0        0.793612   -1.973357    0.741832
     12          1           0        1.318485   -1.613686   -0.878543
     13          1           0       -1.048004   -0.002149    1.644333
     14          1           0       -2.523514   -0.000659    0.556462
 ---------------------------------------------------------------------

 SCF Done:  E(RHF) =  -232.873740564     A.U. after    2 cycles

 The electronic state is 1-A.
 Alpha  occ. eigenvalues --  -11.44221 -11.43745 -11.41661 -11.38375 -11.37817
 Alpha  occ. eigenvalues --  -11.35550  -1.38555  -1.11795  -1.04104  -0.85908
 Alpha  occ. eigenvalues --   -0.80292  -0.74444  -0.69453  -0.60746  -0.56921
 Alpha  occ. eigenvalues --   -0.56409  -0.52095  -0.48552  -0.44601  -0.38062
 Alpha  occ. eigenvalues --   -0.37271  -0.31437
 Alpha virt. eigenvalues --    0.03745   0.05034   0.05378   0.05784   0.06026
 Alpha virt. eigenvalues --    0.06390   0.06626   0.06942   0.08327   0.09463
 Alpha virt. eigenvalues --    0.12212   0.13069   0.14193   0.14327   0.14670

 Mulliken charges:
               1
     1  C   -3.162173
     2  C   -0.759235
     3  C   -0.761369
     4  C   -3.165706
     5  C   -0.685292
     6  C   -2.384239
     7  H    1.393471
     8  H    1.495748
     9  H    1.264396
    10  H    1.264703
    11  H    1.394174
    12  H    1.493755
    13  H    1.364692
    14  H    1.247072
 Sum of Mulliken charges =   0.00000

 Dipole moment (field-independent basis, Debye):
    X=             -2.0679    Y=              0.0006    Z=             -1.1617  Tot=              2.3719

 Test job not archived.
 1\1\GINC-SE114\SP\RHF\Aug-CC-pVDZ\C6H8\OHZDE\09-Apr-2025\0\\#t hf aug-
 cc-pvdz iop(5/13=1,5/36=2,99/5=2) pseudo=read geom=check guess=(read,t
 check) scf=(maxcycle=1)\\title\\0,1\C,0,-1.16781204,-0.33778777,0.7949
 4096\C,0,-0.52413113,0.88061008,0.12753786\C,0,0.89933661,0.47352559,-
 0.20736749\C,0,1.05146986,-0.97358262,0.27054195\C,0,-0.25865582,-1.53
 006715,0.74563855\C,0,-0.10999488,0.68069593,-1.31018602\H,0,-2.176067
 12,-0.59567081,0.42698831\H,0,-1.31812687,-0.18899236,1.88623568\H,0,-
 0.76338277,1.88752175,0.46949875\H,0,1.72938108,1.17393026,-0.11451198

 Normal termination of Gaussian 16 at Wed Apr  9 16:54:10 2025.
