 Gaussian 16, Revision C.01,

 ----------------------------------------------------------------------
 #t hf aug-cc-pvdz symm=none int=(grid=ultrafine) guess=(read,tcheck) s
 table=(opt,rrhf)
 ----------------------------------------------------------------------
 -----
 title
 -----
 Symbolic Z-matrix:
 Charge =  0 Multiplicity = 1

 SCF Done:  E(RHF) =  -359.570370268     A.U. after   14 cycles
 Normal termination of Gaussian 16 at Wed Apr  9 19:33:49 2025.
 Gaussian 16:  ES64L-G16RevC.01  3-Jul-2019

 ----------------------------------------------------------------------
 #t hf aug-cc-pvdz iop(5/13=1,5/36=2,99/5=2) pseudo=read geom=check gue
 ss=(read,tcheck) scf=(maxcycle=1)
 ----------------------------------------------------------------------
 -----
 title
 -----
 Structure from the checkpoint file:  "Grambow2020_wb97xd3_009399_forward_mol1.chk"
 Charge =  0 Multiplicity = 1

                         Standard orientation:
 ---------------------------------------------------------------------
 Center     Atomic      Atomic             Coordinates (Angstroms)
 Number     Number       Type             X           Y           Z
 ---------------------------------------------------------------------
      1          8           0       -1.708484   -0.295466   -0.959779
      2          6           0       -1.281320   -0.041281    0.260576
      3          6           0        0.164147   -1.324921    0.569483
      4          8           0        1.312543   -0.943725   -0.141175
      5          6           0        1.501716    0.378078   -0.385641
      6          7           0        0.780529    1.366053   -0.116751
      7          6           0       -0.501972    1.226827    0.539425
      8          1           0       -0.849466   -1.122085   -0.333760
      9          1           0       -1.922727   -0.345191    1.105932
     10          1           0        0.233297   -1.130376    1.639220
     11          1           0        0.027229   -2.399998    0.412342
     12          1           0        2.451228    0.512174   -0.895472
     13          1           0       -0.375098    1.377419    1.615550
     14          1           0       -1.156064    2.027000    0.178024
 ---------------------------------------------------------------------

 SCF Done:  E(RHF) =  -361.200331223     A.U. after    2 cycles

 The electronic state is 1-A.
 Alpha  occ. eigenvalues --  -21.11026 -21.00290 -15.73359 -11.52299 -11.47374
 Alpha  occ. eigenvalues --  -11.45119 -11.42639  -1.83364  -1.69517  -1.37990
 Alpha  occ. eigenvalues --   -1.14201  -1.01518  -0.91753  -0.77628  -0.72836
 Alpha  occ. eigenvalues --   -0.70386  -0.67520  -0.62481  -0.59200  -0.57365
 Alpha  occ. eigenvalues --   -0.52457  -0.47252  -0.44822  -0.38417  -0.33663
 Alpha  occ. eigenvalues --   -0.28138  -0.25513
 Alpha virt. eigenvalues --    0.02980   0.04635   0.04953   0.05299   0.05685
 Alpha virt. eigenvalues --    0.06617   0.08334   0.09738   0.10482   0.11926
 Alpha virt. eigenvalues --    0.12250   0.12818   0.13093   0.14240   0.14580

 Mulliken charges:
               1
     1  O   -2.991703
     2  C    0.901013
     3  C   -2.183211
     4  O   -3.177995
     5  C    2.266823
     6  N   -2.868204
     7  C   -2.095499
     8  H    1.841906
     9  H    1.400621
    10  H    1.577072
    11  H    0.793689
    12  H    1.831515
    13  H    1.444519
    14  H    1.259455
 Sum of Mulliken charges =  -0.00000

 Dipole moment (field-independent basis, Debye):
    X=              0.4025    Y=             -1.4503    Z=              2.0585  Tot=              2.5501

 Test job not archived.
 1\1\GINC-SE112\SP\RHF\Aug-CC-pVDZ\C4H7N1O2\OHZDE\09-Apr-2025\0\\#t hf
 aug-cc-pvdz iop(5/13=1,5/36=2,99/5=2) pseudo=read geom=check guess=(re
 ad,tcheck) scf=(maxcycle=1)\\title\\0,1\O,0,-1.22798488,-0.89853106,1.
 34038352\C,0,-1.12018394,-0.36005059,0.14256787\C,0,-0.07992221,1.2760
 3201,0.41388988\O,0,1.27104347,0.96284334,0.62827716\C,0,1.76021175,-0
 .17066336,0.0638385\N,0,1.18661887,-1.05542995,-0.61194758\C,0,-0.2310
 9102,-1.00635027,-0.89908877\H,0,-0.745244,0.34759002,1.17529885\H,0,-
 2.01687444,0.11372345,-0.29317875\H,0,-0.27831514,1.67732696,-0.579372

 Normal termination of Gaussian 16 at Wed Apr  9 19:33:53 2025.
