 Gaussian 16, Revision C.01,

 ----------------------------------------------------------------------
 #t hf aug-cc-pvdz symm=none int=(grid=ultrafine) guess=(read,tcheck) s
 table=(opt,rrhf)
 ----------------------------------------------------------------------
 -----
 title
 -----
 Symbolic Z-matrix:
 Charge =  0 Multiplicity = 1

 SCF Done:  E(RHF) =  -323.835834996     A.U. after   14 cycles
 Normal termination of Gaussian 16 at Wed Apr  9 18:16:22 2025.
 Gaussian 16:  ES64L-G16RevC.01  3-Jul-2019

 ----------------------------------------------------------------------
 #t hf aug-cc-pvdz iop(5/13=1,5/36=2,99/5=2) pseudo=read geom=check gue
 ss=(read,tcheck) scf=(maxcycle=1)
 ----------------------------------------------------------------------
 -----
 title
 -----
 Structure from the checkpoint file:  "Grambow2020_wb97xd3_006819_reverse_mol2.chk"
 Charge =  0 Multiplicity = 1

                         Standard orientation:
 ---------------------------------------------------------------------
 Center     Atomic      Atomic             Coordinates (Angstroms)
 Number     Number       Type             X           Y           Z
 ---------------------------------------------------------------------
      1          6           0       -2.092147   -1.170239   -0.192394
      2          6           0       -1.526218    0.180681   -0.546713
      3          6           0       -1.336481    1.237208    0.486563
      4          6           0       -0.124930    0.600771   -0.152706
      5          6           0        0.723214   -0.292324    0.650444
      6          7           0        1.955850   -0.543821    0.485554
      7          8           0        2.497654    0.129067   -0.603061
      8          1           0       -3.178803   -1.164306   -0.297605
      9          1           0       -1.866662   -1.450572    0.837518
     10          1           0       -1.694038   -1.949833   -0.845204
     11          1           0       -1.816458    0.535495   -1.529641
     12          1           0       -1.548151    2.269241    0.241460
     13          1           0       -1.546903    0.968966    1.515521
     14          1           0        0.291905   -0.816134    1.498474
     15          1           0        0.411334    1.193824   -0.878867
     16          1           0        3.414964   -0.149044   -0.587206
 ---------------------------------------------------------------------

 SCF Done:  E(RHF) =  -325.354399045     A.U. after    2 cycles

 The electronic state is 1-A.
 Alpha  occ. eigenvalues --  -21.08881 -15.76834 -11.45968 -11.43032 -11.41155
 Alpha  occ. eigenvalues --  -11.38744 -11.36531  -1.78800  -1.35385  -1.23146
 Alpha  occ. eigenvalues --   -1.05516  -0.91452  -0.83996  -0.77733  -0.68781
 Alpha  occ. eigenvalues --   -0.65382  -0.58461  -0.57387  -0.55426  -0.54649
 Alpha  occ. eigenvalues --   -0.52927  -0.51340  -0.47960  -0.40537  -0.39087
 Alpha  occ. eigenvalues --   -0.33847  -0.28023
 Alpha virt. eigenvalues --    0.03969   0.05363   0.05492   0.05760   0.06054
 Alpha virt. eigenvalues --    0.06186   0.06398   0.06817   0.08308   0.11085
 Alpha virt. eigenvalues --    0.13143   0.13283   0.13824   0.14530   0.14773

 Mulliken charges:
               1
     1  C   -4.515111
     2  C   -0.192454
     3  C   -2.384755
     4  C   -0.680457
     5  C   -0.222923
     6  N   -1.051338
     7  O   -2.368098
     8  H    1.117871
     9  H    1.364762
    10  H    1.261277
    11  H    1.167608
    12  H    1.153074
    13  H    1.472250
    14  H    1.584485
    15  H    1.384805
    16  H    0.909005
 Sum of Mulliken charges =   0.00000

 Dipole moment (field-independent basis, Debye):
    X=             -1.2331    Y=              0.6880    Z=             -0.7121  Tot=              1.5814

 Test job not archived.
 1\1\GINC-SE108\SP\RHF\Aug-CC-pVDZ\C5H9N1O1\OHZDE\09-Apr-2025\0\\#t hf
 aug-cc-pvdz iop(5/13=1,5/36=2,99/5=2) pseudo=read geom=check guess=(re
 ad,tcheck) scf=(maxcycle=1)\\title\\0,1\C,0,-1.70210052,-1.06109854,-0
 .32487042\C,0,-0.80032729,-0.00457638,-0.90913801\C,0,-0.72935453,1.36
 409765,-0.32467125\C,0,0.46862866,0.4503361,-0.21766957\C,0,0.83849509
 ,-0.09556155,1.09656566\N,0,1.98777679,-0.46831251,1.48391494\O,0,2.95
 665155,-0.32483222,0.49795996\H,0,-2.68162621,-1.0303273,-0.80602337\H
 ,0,-1.86058663,-0.91730651,0.74487576\H,0,-1.28632967,-2.06045476,-0.4

 Normal termination of Gaussian 16 at Wed Apr  9 18:16:27 2025.
