 Gaussian 16, Revision C.01,

 ----------------------------------------------------------------------
 #t hf aug-cc-pvdz symm=none int=(grid=ultrafine) guess=(read,tcheck) s
 table=(opt,rrhf)
 ----------------------------------------------------------------------
 -----
 title
 -----
 Symbolic Z-matrix:
 Charge =  0 Multiplicity = 1

 SCF Done:  E(RHF) =  -339.738996031     A.U. after   16 cycles
 Normal termination of Gaussian 16 at Wed Apr  9 18:00:45 2025.
 Gaussian 16:  ES64L-G16RevC.01  3-Jul-2019

 ----------------------------------------------------------------------
 #t hf aug-cc-pvdz iop(5/13=1,5/36=2,99/5=2) pseudo=read geom=check gue
 ss=(read,tcheck) scf=(maxcycle=1)
 ----------------------------------------------------------------------
 -----
 title
 -----
 Structure from the checkpoint file:  "Grambow2020_wb97xd3_006548_forward_mol1.chk"
 Charge =  0 Multiplicity = 1

                         Standard orientation:
 ---------------------------------------------------------------------
 Center     Atomic      Atomic             Coordinates (Angstroms)
 Number     Number       Type             X           Y           Z
 ---------------------------------------------------------------------
      1          6           0       -0.216018    1.922503    0.106260
      2          7           0       -0.237646    0.516043   -0.285461
      3          6           0        0.605467   -0.419292    0.472067
      4          6           0       -1.357410   -1.070305   -0.050865
      5          8           0       -2.570095   -0.483271    0.022137
      6          6           0        1.975414   -0.433921    0.104860
      7          7           0        3.066662   -0.494834   -0.276966
      8          1           0        0.818777    2.276175    0.180488
      9          1           0       -0.763285    2.532799   -0.615110
     10          1           0       -0.688161    2.027445    1.083122
     11          1           0       -0.029362    0.413361   -1.269727
     12          1           0        0.422209   -0.352038    1.537684
     13          1           0       -1.250248   -1.712358    0.809087
     14          1           0       -1.061737   -1.510413   -0.996856
     15          1           0       -2.735265    0.048827   -0.762714
 ---------------------------------------------------------------------

 SCF Done:  E(RHF) =  -341.324802677     A.U. after    2 cycles

 The electronic state is 1-A.
 Alpha  occ. eigenvalues --  -21.14896 -15.77714 -15.70137 -11.54747 -11.40818
 Alpha  occ. eigenvalues --  -11.40620 -11.35786  -1.80480  -1.43422  -1.25115
 Alpha  occ. eigenvalues --   -1.07369  -0.98446  -0.93353  -0.74685  -0.72700
 Alpha  occ. eigenvalues --   -0.64468  -0.64002  -0.61109  -0.58821  -0.54060
 Alpha  occ. eigenvalues --   -0.53245  -0.48144  -0.46780  -0.43766  -0.39355
 Alpha  occ. eigenvalues --   -0.34640  -0.24277
 Alpha virt. eigenvalues --    0.02270   0.04165   0.04434   0.05240   0.05433
 Alpha virt. eigenvalues --    0.05821   0.07265   0.07929   0.09869   0.10293
 Alpha virt. eigenvalues --    0.11288   0.11977   0.12626   0.13474   0.14344

 Mulliken charges:
               1
     1  C   -3.475660
     2  N   -1.807979
     3  C   -0.752735
     4  C   -0.346732
     5  O   -2.680312
     6  C    1.834549
     7  N   -2.360806
     8  H    1.415682
     9  H    1.308060
    10  H    1.436545
    11  H    0.675172
    12  H    1.426803
    13  H    1.187416
    14  H    1.388902
    15  H    0.751093
 Sum of Mulliken charges =   0.00000

 Dipole moment (field-independent basis, Debye):
    X=             -7.6151    Y=              1.3362    Z=             -0.7894  Tot=              7.7717

 Test job not archived.
 1\1\GINC-SE174\SP\RHF\Aug-CC-pVDZ\C4H8N2O1\OHZDE\09-Apr-2025\0\\#t hf
 aug-cc-pvdz iop(5/13=1,5/36=2,99/5=2) pseudo=read geom=check guess=(re
 ad,tcheck) scf=(maxcycle=1)\\title\\0,1\C,0,-1.41028899,0.75484398,0.6
 6836369\N,0,-0.2349902,-0.0714506,0.40768359\C,0,-0.03031882,-0.5586,-
 0.96356915\C,0,1.68446951,0.13868909,0.0963607\O,0,1.9174316,1.2352213
 7,0.84728567\C,0,-0.79588463,-1.69734039,-1.32271993\N,0,-1.35951228,-
 2.68058419,-1.55910715\H,0,-2.30815155,0.26719457,0.27158294\H,0,-1.52
 906693,0.93046577,1.73952372\H,0,-1.2885749,1.7153361,0.16753179\H,0,-

 Normal termination of Gaussian 16 at Wed Apr  9 18:00:50 2025.
