 Gaussian 16, Revision C.01,

 ----------------------------------------------------------------------
 #t hf aug-cc-pvdz symm=none int=(grid=ultrafine) guess=(read,tcheck) s
 table=(opt,rrhf)
 ----------------------------------------------------------------------
 -----
 title
 -----
 Symbolic Z-matrix:
 Charge =  0 Multiplicity = 1

 SCF Done:  E(RHF) =  -338.708380525     A.U. after   15 cycles
 Normal termination of Gaussian 16 at Wed Apr  9 19:22:00 2025.
 Gaussian 16:  ES64L-G16RevC.01  3-Jul-2019

 ----------------------------------------------------------------------
 #t hf aug-cc-pvdz iop(5/13=1,5/36=2,99/5=2) pseudo=read geom=check gue
 ss=(read,tcheck) scf=(maxcycle=1)
 ----------------------------------------------------------------------
 -----
 title
 -----
 Structure from the checkpoint file:  "Grambow2020_wb97xd3_008826_reverse_mol2.chk"
 Charge =  0 Multiplicity = 1

                         Standard orientation:
 ---------------------------------------------------------------------
 Center     Atomic      Atomic             Coordinates (Angstroms)
 Number     Number       Type             X           Y           Z
 ---------------------------------------------------------------------
      1          6           0       -2.297605   -0.376256    0.464694
      2          6           0       -1.103168   -0.090555   -0.438668
      3          6           0        0.067778   -0.998679   -0.314465
      4          6           0        1.089130   -0.200309   -0.009680
      5          8           0        2.377917   -0.464417    0.215347
      6          7           0        0.664972    1.156490    0.079307
      7          7           0       -0.553372    1.240624   -0.148336
      8          1           0       -3.055399    0.397183    0.342778
      9          1           0       -1.986675   -0.402751    1.509700
     10          1           0       -2.737471   -1.340960    0.210698
     11          1           0        0.071233   -2.067558   -0.448207
     12          1           0        2.818046    0.369072    0.412741
     13          1           0       -1.451075   -0.024656   -1.478569
 ---------------------------------------------------------------------

 SCF Done:  E(RHF) =  -340.242953437     A.U. after    2 cycles

 The electronic state is 1-A.
 Alpha  occ. eigenvalues --  -21.12197 -15.79457 -15.78781 -11.48917 -11.45437
 Alpha  occ. eigenvalues --  -11.40750 -11.37677  -1.79107  -1.59192  -1.20942
 Alpha  occ. eigenvalues --   -1.12163  -0.99941  -0.83619  -0.79148  -0.71103
 Alpha  occ. eigenvalues --   -0.64549  -0.62035  -0.57629  -0.55030  -0.51057
 Alpha  occ. eigenvalues --   -0.50411  -0.47076  -0.45660  -0.43733  -0.35378
 Alpha  occ. eigenvalues --   -0.29479
 Alpha virt. eigenvalues --    0.03375   0.05422   0.05653   0.05868   0.06390
 Alpha virt. eigenvalues --    0.06668   0.09751   0.10734   0.11327   0.11754
 Alpha virt. eigenvalues --    0.11883   0.13632   0.14528   0.14725   0.15337

 Mulliken charges:
               1
     1  C   -3.381566
     2  C   -1.218598
     3  C   -1.112143
     4  C    4.315905
     5  O   -3.602879
     6  N   -1.590573
     7  N   -0.993478
     8  H    1.218446
     9  H    1.258187
    10  H    1.156857
    11  H    1.388519
    12  H    0.967813
    13  H    1.593509
 Sum of Mulliken charges =  -0.00000

 Dipole moment (field-independent basis, Debye):
    X=             -0.1548    Y=             -1.6459    Z=             -0.1702  Tot=              1.6619

 Test job not archived.
 1\1\GINC-SE135\SP\RHF\Aug-CC-pVDZ\C4H6N2O1\OHZDE\09-Apr-2025\0\\#t hf
 aug-cc-pvdz iop(5/13=1,5/36=2,99/5=2) pseudo=read geom=check guess=(re
 ad,tcheck) scf=(maxcycle=1)\\title\\0,1\C,0,-1.86992608,-0.16781853,0.
 19648586\C,0,-0.55176159,0.57751939,0.01961673\C,0,0.44024487,-0.02033
 731,-0.91297113\C,0,1.53384486,-0.2061766,-0.17611827\O,0,2.73153994,-
 0.70666853,-0.48659558\N,0,1.32127428,0.22074948,1.16599892\N,0,0.1646
 5826,0.65379672,1.30005888\H,0,-2.47802475,0.31837411,0.95882148\H,0,-
 1.68617726,-1.19966518,0.49805642\H,0,-2.42487593,-0.17589388,-0.74192

 Normal termination of Gaussian 16 at Wed Apr  9 19:22:03 2025.
