 Gaussian 16, Revision C.01,

 ----------------------------------------------------------------------
 #t hf aug-cc-pvdz symm=none int=(grid=ultrafine) guess=(read,tcheck) s
 table=(opt,rrhf)
 ----------------------------------------------------------------------
 -----
 title
 -----
 Symbolic Z-matrix:
 Charge =  0 Multiplicity = 1

 SCF Done:  E(RHF) =  -283.473362481     A.U. after   17 cycles
 Normal termination of Gaussian 16 at Wed Apr  9 17:33:13 2025.
 Gaussian 16:  ES64L-G16RevC.01  3-Jul-2019

 ----------------------------------------------------------------------
 #t hf aug-cc-pvdz iop(5/13=1,5/36=2,99/5=2) pseudo=read geom=check gue
 ss=(read,tcheck) scf=(maxcycle=1)
 ----------------------------------------------------------------------
 -----
 title
 -----
 Structure from the checkpoint file:  "Grambow2020_b97d3_007177_forward_mol1.chk"
 Charge =  0 Multiplicity = 1

                         Standard orientation:
 ---------------------------------------------------------------------
 Center     Atomic      Atomic             Coordinates (Angstroms)
 Number     Number       Type             X           Y           Z
 ---------------------------------------------------------------------
      1          6           0       -1.491962   -0.876881   -0.469922
      2          7           0       -1.019304   -0.740002    0.803447
      3          6           0       -0.036521    0.668504   -0.117642
      4          8           0       -0.417177    1.793692    0.089025
      5          6           0        1.205852   -0.025968   -0.067483
      6          6           0        2.313072   -0.533476   -0.068635
      7          1           0       -1.395966   -1.815045   -1.044209
      8          1           0       -0.620864    0.000462   -1.185626
      9          1           0       -2.390029   -0.292308   -0.703865
     10          1           0       -0.356828   -1.493207    1.022370
     11          1           0        3.293588   -0.962498   -0.082904
 ---------------------------------------------------------------------

 SCF Done:  E(RHF) =  -284.797320053     A.U. after    2 cycles

 The electronic state is 1-A.
 Alpha  occ. eigenvalues --  -21.06958 -15.72891 -11.59275 -11.47884 -11.46361
 Alpha  occ. eigenvalues --  -11.45890  -1.72533  -1.36871  -1.15482  -0.96333
 Alpha  occ. eigenvalues --   -0.94083  -0.75608  -0.70236  -0.65898  -0.58278
 Alpha  occ. eigenvalues --   -0.56893  -0.56118  -0.42568  -0.41502  -0.38240
 Alpha  occ. eigenvalues --   -0.33950  -0.28002
 Alpha virt. eigenvalues --    0.02710   0.04142   0.05678   0.05972   0.06548
 Alpha virt. eigenvalues --    0.08514   0.09378   0.09747   0.11062   0.11975
 Alpha virt. eigenvalues --    0.12740   0.13323   0.14155   0.14547   0.15186

 Mulliken charges:
               1
     1  C   -1.882776
     2  N   -2.028149
     3  C    3.314480
     4  O   -3.242651
     5  C    3.503551
     6  C   -4.432636
     7  H    1.333399
     8  H    0.730095
     9  H    1.303285
    10  H    0.770565
    11  H    0.630837
 Sum of Mulliken charges =  -0.00000

 Dipole moment (field-independent basis, Debye):
    X=              1.2070    Y=             -1.7367    Z=             -1.5273  Tot=              2.6087

 Test job not archived.
 1\1\GINC-SE226\SP\RHF\Aug-CC-pVDZ\C4H5N1O1\OHZDE\09-Apr-2025\0\\#t hf
 aug-cc-pvdz iop(5/13=1,5/36=2,99/5=2) pseudo=read geom=check guess=(re
 ad,tcheck) scf=(maxcycle=1)\\title\\0,1\C,0,-1.40328037,-0.11262816,-0
 .57160346\N,0,-0.66450193,-1.20059172,-0.20533643\C,0,0.02283858,0.151
 87289,1.01800298\O,0,-0.35232792,0.06364177,2.16042365\C,0,1.27499814,
 0.26589652,0.34913049\C,0,2.37565978,0.43089956,-0.1456619\H,0,-1.3959
 1588,0.29546379,-1.59755587\H,0,-0.75478706,0.92485129,0.16587064\H,0,
 -2.35635486,0.00872098,-0.04254511\H,0,0.06344313,-1.39074795,-0.90394

 Normal termination of Gaussian 16 at Wed Apr  9 17:33:16 2025.
