 Gaussian 16, Revision C.01,

 ----------------------------------------------------------------------
 #t hf aug-cc-pvdz symm=none int=(grid=ultrafine) guess=(read,tcheck) s
 table=(opt,rrhf)
 ----------------------------------------------------------------------
 -----
 title
 -----
 Symbolic Z-matrix:
 Charge =  0 Multiplicity = 1

 SCF Done:  E(RHF) =  -322.570872350     A.U. after   17 cycles
 Normal termination of Gaussian 16 at Wed Apr  9 18:09:45 2025.
 Gaussian 16:  ES64L-G16RevC.01  3-Jul-2019

 ----------------------------------------------------------------------
 #t hf aug-cc-pvdz iop(5/13=1,5/36=2,99/5=2) pseudo=read geom=check gue
 ss=(read,tcheck) scf=(maxcycle=1)
 ----------------------------------------------------------------------
 -----
 title
 -----
 Structure from the checkpoint file:  "Grambow2020_wb97xd3_006622_forward_mol1.chk"
 Charge =  0 Multiplicity = 1

                         Standard orientation:
 ---------------------------------------------------------------------
 Center     Atomic      Atomic             Coordinates (Angstroms)
 Number     Number       Type             X           Y           Z
 ---------------------------------------------------------------------
      1          8           0        1.499465    0.744769   -0.570080
      2          6           0        1.505083   -0.452202   -0.280668
      3          6           0        0.395233   -0.719874    0.717792
      4          6           0        0.032408    0.767719    0.816774
      5          6           0       -1.170640    1.022551    0.029349
      6          6           0       -1.350514   -0.326625   -0.710699
      7          7           0       -0.764036   -1.297458    0.164737
      8          1           0        2.146088   -1.162614   -0.815578
      9          1           0        0.732458   -1.223359    1.629887
     10          1           0        0.391688    1.456226    1.577703
     11          1           0       -1.088826    1.951129   -0.546393
     12          1           0       -2.013425    1.144774    0.718626
     13          1           0       -0.882609   -0.228678   -1.708190
     14          1           0       -2.402264   -0.562840   -0.883858
 ---------------------------------------------------------------------

 SCF Done:  E(RHF) =  -324.060378534     A.U. after    2 cycles

 The electronic state is 1-A.
 Alpha  occ. eigenvalues --  -21.10464 -15.62141 -11.57154 -11.50691 -11.44586
 Alpha  occ. eigenvalues --  -11.43589 -11.36398  -1.78233  -1.40382  -1.12783
 Alpha  occ. eigenvalues --   -1.08339  -0.91770  -0.83693  -0.79408  -0.72918
 Alpha  occ. eigenvalues --   -0.66930  -0.63625  -0.54393  -0.53614  -0.51125
 Alpha  occ. eigenvalues --   -0.49826  -0.46479  -0.44001  -0.37180  -0.29585
 Alpha  occ. eigenvalues --   -0.23352
 Alpha virt. eigenvalues --    0.03218   0.04359   0.04941   0.05682   0.06146
 Alpha virt. eigenvalues --    0.06354   0.07170   0.07768   0.09465   0.10268
 Alpha virt. eigenvalues --    0.12320   0.12524   0.12942   0.13386   0.14193

 Mulliken charges:
               1
     1  O   -2.382109
     2  C    1.717842
     3  C   -1.810054
     4  C    0.017357
     5  C   -3.224438
     6  C   -2.046951
     7  N   -2.348921
     8  H    1.586181
     9  H    1.526980
    10  H    1.456575
    11  H    1.406764
    12  H    1.317381
    13  H    1.514510
    14  H    1.268883
 Sum of Mulliken charges =  -0.00000

 Dipole moment (field-independent basis, Debye):
    X=              2.4873    Y=              3.6880    Z=              0.7348  Tot=              4.5086

 Test job not archived.
 1\1\GINC-SE030\SP\RHF\Aug-CC-pVDZ\C5H7N1O1\OHZDE\09-Apr-2025\0\\#t hf
 aug-cc-pvdz iop(5/13=1,5/36=2,99/5=2) pseudo=read geom=check guess=(re
 ad,tcheck) scf=(maxcycle=1)\\title\\0,1\O,0,1.79025595,0.2944029,0.644
 76377\C,0,1.25862674,1.30585706,0.18556716\C,0,0.19922327,0.89015008,-
 0.81702365\C,0,0.56636093,-0.59445938,-0.69245338\C,0,-0.42086625,-1.2
 6483856,0.14913946\C,0,-1.23623597,-0.06379172,0.69039634\N,0,-1.12077
 787,0.9370236,-0.32837667\H,0,1.47469482,2.29809427,0.59846172\H,0,0.3
 1034903,1.36131306,-1.79926212\H,0,1.23797956,-1.13666381,-1.35357395\

 Normal termination of Gaussian 16 at Wed Apr  9 18:09:50 2025.
