 Gaussian 16, Revision C.01,

 ----------------------------------------------------------------------
 #t hf aug-cc-pvdz symm=none int=(grid=ultrafine) guess=(read,tcheck) s
 table=(opt,rrhf)
 ----------------------------------------------------------------------
 -----
 title
 -----
 Symbolic Z-matrix:
 Charge =  0 Multiplicity = 1

 SCF Done:  E(RHF) =  -374.474901340     A.U. after   17 cycles
 Normal termination of Gaussian 16 at Wed Apr  9 18:37:13 2025.
 Gaussian 16:  ES64L-G16RevC.01  3-Jul-2019

 ----------------------------------------------------------------------
 #t hf aug-cc-pvdz iop(5/13=1,5/36=2,99/5=2) pseudo=read geom=check gue
 ss=(read,tcheck) scf=(maxcycle=1)
 ----------------------------------------------------------------------
 -----
 title
 -----
 Structure from the checkpoint file:  "Grambow2020_wb97xd3_007332_forward_mol1.chk"
 Charge =  0 Multiplicity = 1

                         Standard orientation:
 ---------------------------------------------------------------------
 Center     Atomic      Atomic             Coordinates (Angstroms)
 Number     Number       Type             X           Y           Z
 ---------------------------------------------------------------------
      1          7           0       -1.782269   -0.883299   -0.168558
      2          6           0       -0.774491    0.051238    0.041242
      3          6           0       -1.479413    1.353211    0.173828
      4          8           0        0.280420    0.269196   -0.976826
      5          6           0        1.219349   -0.056839   -0.025278
      6          8           0        2.400126   -0.011006   -0.080687
      7          7           0        0.284418   -0.434532    0.925497
      8          1           0       -1.502924   -1.849842   -0.111178
      9          1           0       -2.418971   -0.657970   -0.914478
     10          1           0       -1.198893    1.809515    1.140898
     11          1           0        0.368711   -0.228060    1.907536
 ---------------------------------------------------------------------

 SCF Done:  E(RHF) =  -376.058861808     A.U. after    2 cycles

 The electronic state is 1-A.
 Alpha  occ. eigenvalues --  -21.10081 -21.06403 -15.78553 -15.78396 -11.56467
 Alpha  occ. eigenvalues --  -11.52512 -11.44926  -1.89612  -1.70152  -1.41975
 Alpha  occ. eigenvalues --   -1.33794  -1.06870  -0.86132  -0.82812  -0.74408
 Alpha  occ. eigenvalues --   -0.69149  -0.67077  -0.62752  -0.53364  -0.52090
 Alpha  occ. eigenvalues --   -0.49473  -0.43491  -0.37304  -0.36472  -0.33224
 Alpha  occ. eigenvalues --   -0.30873
 Alpha virt. eigenvalues --    0.02956   0.03970   0.04843   0.05495   0.05959
 Alpha virt. eigenvalues --    0.09565   0.09752   0.11427   0.11804   0.12471
 Alpha virt. eigenvalues --    0.13598   0.14610   0.15000   0.15572   0.16372

 Mulliken charges:
               1
     1  N   -2.967620
     2  C    5.596632
     3  C   -2.091662
     4  O   -2.674342
     5  C    5.146971
     6  O   -3.241045
     7  N   -2.926713
     8  H    0.513187
     9  H    0.703093
    10  H    1.299730
    11  H    0.641769
 Sum of Mulliken charges =  -0.00000

 Dipole moment (field-independent basis, Debye):
    X=             -1.5667    Y=             -1.2172    Z=              1.4396  Tot=              2.4512

 Test job not archived.
 1\1\GINC-SE041\SP\RHF\Aug-CC-pVDZ\C3H4N2O2\OHZDE\09-Apr-2025\0\\#t hf
 aug-cc-pvdz iop(5/13=1,5/36=2,99/5=2) pseudo=read geom=check guess=(re
 ad,tcheck) scf=(maxcycle=1)\\title\\0,1\N,0,-1.5181841,-0.26057318,-0.
 40548006\C,0,-0.28236356,0.23716713,-0.00799392\C,0,-0.58769598,1.5189
 5205,0.68006513\O,0,0.76212311,0.55926654,-1.00904634\C,0,1.59747365,-
 0.33134378,-0.37474973\O,0,2.7412462,-0.56427164,-0.56693394\N,0,0.621
 13503,-0.79942297,0.49034279\H,0,-1.52110376,-1.21117368,-0.73996786\H
 ,0,-2.08628575,0.38588878,-0.92692643\H,0,-0.16283217,1.48191441,1.699

 Normal termination of Gaussian 16 at Wed Apr  9 18:37:17 2025.
