 Gaussian 16, Revision C.01,

 ----------------------------------------------------------------------
 #t hf aug-cc-pvdz symm=none int=(grid=ultrafine) guess=(read,tcheck) s
 table=(opt,rrhf)
 ----------------------------------------------------------------------
 -----
 title
 -----
 Symbolic Z-matrix:
 Charge =  0 Multiplicity = 1

 SCF Done:  E(RHF) =  -245.629533348     A.U. after   15 cycles
 Normal termination of Gaussian 16 at Wed Apr  9 17:42:11 2025.
 Gaussian 16:  ES64L-G16RevC.01  3-Jul-2019

 ----------------------------------------------------------------------
 #t hf aug-cc-pvdz iop(5/13=1,5/36=2,99/5=2) pseudo=read geom=check gue
 ss=(read,tcheck) scf=(maxcycle=1)
 ----------------------------------------------------------------------
 -----
 title
 -----
 Structure from the checkpoint file:  "Grambow2020_wb97xd3_006123_forward_mol1.chk"
 Charge =  0 Multiplicity = 1

                         Standard orientation:
 ---------------------------------------------------------------------
 Center     Atomic      Atomic             Coordinates (Angstroms)
 Number     Number       Type             X           Y           Z
 ---------------------------------------------------------------------
      1          6           0        1.196030    0.529653    0.051573
      2          6           0       -0.727556    0.887439    0.035914
      3          7           0       -1.460031   -0.405597   -0.357233
      4          6           0       -0.486495   -0.626288    0.389225
      5          8           0        1.162656   -0.729663   -0.254639
      6          1           0        1.552733    1.234157   -0.704411
      7          1           0        1.445540    0.832511    1.078191
      8          1           0       -1.164356    1.478350    0.831091
      9          1           0       -0.550633    1.402356   -0.897427
     10          1           0       -0.256189   -1.015717    1.370029
 ---------------------------------------------------------------------

 SCF Done:  E(RHF) =  -246.765916897     A.U. after    2 cycles

 The electronic state is 1-A.
 Alpha  occ. eigenvalues --  -21.03644 -15.74114 -11.53667 -11.48624 -11.43330
 Alpha  occ. eigenvalues --   -1.74244  -1.44360  -1.01105  -0.88533  -0.88034
 Alpha  occ. eigenvalues --   -0.69776  -0.66968  -0.63159  -0.54873  -0.49909
 Alpha  occ. eigenvalues --   -0.47711  -0.37102  -0.30214  -0.28889
 Alpha virt. eigenvalues --    0.03266   0.05049   0.05232   0.05280   0.06383
 Alpha virt. eigenvalues --    0.09308   0.10217   0.11283   0.11567   0.13427
 Alpha virt. eigenvalues --    0.14141   0.14634   0.15297   0.16565   0.17377

 Mulliken charges:
               1
     1  C   -0.560681
     2  C   -2.471652
     3  N   -2.282810
     4  C    1.287763
     5  O   -2.269129
     6  H    1.137390
     7  H    1.358805
     8  H    1.198125
     9  H    1.187350
    10  H    1.414838
 Sum of Mulliken charges =  -0.00000

 Dipole moment (field-independent basis, Debye):
    X=              1.3744    Y=              1.3329    Z=              1.7014  Tot=              2.5613

 Test job not archived.
 1\1\GINC-SE226\SP\RHF\Aug-CC-pVDZ\C3H5N1O1\OHZDE\09-Apr-2025\0\\#t hf
 aug-cc-pvdz iop(5/13=1,5/36=2,99/5=2) pseudo=read geom=check guess=(re
 ad,tcheck) scf=(maxcycle=1)\\title\\0,1\C,0,-0.4900596,-1.03129826,0.0
 3651182\C,0,-0.27963919,0.91023246,0.15742888\N,0,1.15812757,1.2170324
 2,0.60656863\C,0,1.10987152,0.26073564,-0.19145608\O,0,0.71670229,-1.3
 7868285,0.3587014\H,0,-1.28791435,-1.20754083,0.76276245\H,0,-0.823534
 14,-1.12989733,-1.00607931\H,0,-0.6978074,1.53911459,-0.6184064\H,0,-0
 .84915658,0.84205335,1.07316236\H,0,1.44341088,-0.02174919,-1.17919377

 Normal termination of Gaussian 16 at Wed Apr  9 17:42:14 2025.
