 Gaussian 16, Revision C.01,

 ----------------------------------------------------------------------
 #t hf aug-cc-pvdz symm=none int=(grid=ultrafine) guess=(read,tcheck) s
 table=(opt,rrhf)
 ----------------------------------------------------------------------
 -----
 title
 -----
 Symbolic Z-matrix:
 Charge =  0 Multiplicity = 1

 SCF Done:  E(RHF) =  -308.972611220     A.U. after   15 cycles

 1\1\GINC-SE340\Stability\RHF\Aug-CC-pVDZ\C6H12O1\OHZDE\09-Apr-2025\0\\
 #t hf aug-cc-pvdz symm=none int=(grid=ultrafine) guess=(read,tcheck) s
 table=(opt,rrhf)\\title\\0,1\C,0,1.83029202,-1.03338473,-0.65812061\C,
 0,1.09600574,0.2255999,-0.53896953\O,0,-0.27673095,2.58040815,-0.26499
 189\C,0,-0.56972092,1.57638264,0.66380382\C,0,-0.2192274,0.1692274,0.1
 2997237\C,0,-0.44299511,-0.87398504,1.2251532\C,0,-1.11997873,-0.13958
 823,-1.10185924\H,0,2.53097255,-1.04816763,-1.49266807\H,0,2.46007636,
 -0.96104247,0.24905676\H,0,1.27629508,-1.97672587,-0.58659908\H,0,0.55

 Normal termination of Gaussian 16 at Wed Apr  9 18:04:21 2025.
 Gaussian 16:  ES64L-G16RevC.01  3-Jul-2019

 ----------------------------------------------------------------------
 #t hf aug-cc-pvdz iop(5/13=1,5/36=2,99/5=2) pseudo=read geom=check gue
 ss=(read,tcheck) scf=(maxcycle=1)
 ----------------------------------------------------------------------
 -----
 title
 -----
 Structure from the checkpoint file:  "Grambow2020_wb97xd3_006572_reverse_mol2.chk"
 Charge =  0 Multiplicity = 1

                         Standard orientation:
 ---------------------------------------------------------------------
 Center     Atomic      Atomic             Coordinates (Angstroms)
 Number     Number       Type             X           Y           Z
 ---------------------------------------------------------------------
      1          6           0        2.116532   -0.982620   -0.191212
      2          6           0        0.654643   -0.977073   -0.155608
      3          8           0       -2.084436   -0.938852   -0.131621
      4          6           0       -1.448219    0.236551   -0.544210
      5          6           0       -0.003314    0.336344   -0.005509
      6          6           0        0.684048    1.573455   -0.584192
      7          6           0       -0.051224    0.422632    1.548321
      8          1           0        2.553539   -1.926821    0.133056
      9          1           0        2.270055   -0.952228   -1.286813
     10          1           0        2.658349   -0.127648    0.229949
     11          1           0       -1.389455   -1.617350   -0.169986
     12          1           0       -2.039167    1.084105   -0.183036
     13          1           0       -1.411122    0.305663   -1.641934
     14          1           0        0.837201    1.469525   -1.660841
     15          1           0        1.651212    1.769297   -0.120266
     16          1           0        0.060550    2.456510   -0.424011
     17          1           0        0.946463    0.522118    1.978209
     18          1           0       -0.547942   -0.440729    1.988586
     19          1           0       -0.628991    1.312647    1.804523
 ---------------------------------------------------------------------

 SCF Done:  E(RHF) =  -310.472987516     A.U. after    2 cycles

 The electronic state is 1-A.
 Alpha  occ. eigenvalues --  -21.04034 -11.44017 -11.42773 -11.41244 -11.40012
 Alpha  occ. eigenvalues --  -11.39354 -11.36450  -1.69882  -1.29928  -1.10627
 Alpha  occ. eigenvalues --   -1.02313  -0.96719  -0.88661  -0.71175  -0.65528
 Alpha  occ. eigenvalues --   -0.63914  -0.61424  -0.59099  -0.56340  -0.55724
 Alpha  occ. eigenvalues --   -0.54242  -0.52133  -0.51449  -0.46229  -0.43718
 Alpha  occ. eigenvalues --   -0.37427  -0.30994  -0.29505
 Alpha virt. eigenvalues --    0.03652   0.04876   0.04918   0.05261   0.05367
 Alpha virt. eigenvalues --    0.05572   0.06320   0.06888   0.07554   0.08506
 Alpha virt. eigenvalues --    0.08790   0.08996   0.09240   0.11780   0.12384

 Mulliken charges:
               1
     1  C   -3.717024
     2  C   -1.142202
     3  O   -3.037042
     4  C   -0.830176
     5  C    2.674853
     6  C   -4.640371
     7  C   -4.551615
     8  H    1.258005
     9  H    1.277608
    10  H    1.471152
    11  H    0.986153
    12  H    1.338512
    13  H    1.351705
    14  H    1.258664
    15  H    1.282554
    16  H    1.150864
    17  H    1.291175
    18  H    1.310228
    19  H    1.266958
 Sum of Mulliken charges =   0.00000

 Dipole moment (field-independent basis, Debye):
    X=              2.0809    Y=              1.7181    Z=              0.2896  Tot=              2.7140

 Test job not archived.
 1\1\GINC-SE340\SP\RHF\Aug-CC-pVDZ\C6H12O1\OHZDE\09-Apr-2025\0\\#t hf a
 ug-cc-pvdz iop(5/13=1,5/36=2,99/5=2) pseudo=read geom=check guess=(rea
 d,tcheck) scf=(maxcycle=1)\\title\\0,1\C,0,1.83029202,-1.03338473,-0.6
 5812061\C,0,1.09600574,0.2255999,-0.53896953\O,0,-0.27673095,2.5804081
 5,-0.26499189\C,0,-0.56972092,1.57638264,0.66380382\C,0,-0.2192274,0.1
 692274,0.12997237\C,0,-0.44299511,-0.87398504,1.2251532\C,0,-1.1199787
 3,-0.13958823,-1.10185924\H,0,2.53097255,-1.04816763,-1.49266807\H,0,2
 .46007636,-0.96104247,0.24905676\H,0,1.27629508,-1.97672587,-0.5865990

 Normal termination of Gaussian 16 at Wed Apr  9 18:04:27 2025.
