 Gaussian 16, Revision C.01,

 ----------------------------------------------------------------------
 #t hf aug-cc-pvdz symm=none int=(grid=ultrafine) guess=(read,tcheck) s
 table=(opt,rrhf)
 ----------------------------------------------------------------------
 -----
 title
 -----
 Symbolic Z-matrix:
 Charge =  0 Multiplicity = 1

 SCF Done:  E(RHF) =  -305.839306874     A.U. after   13 cycles
 Normal termination of Gaussian 16 at Wed Apr  9 03:05:49 2025.
 Gaussian 16:  ES64L-G16RevC.01  3-Jul-2019

 ----------------------------------------------------------------------
 #t hf aug-cc-pvdz iop(5/13=1,5/36=2,99/5=2) pseudo=read geom=check gue
 ss=(read,tcheck) scf=(maxcycle=1)
 ----------------------------------------------------------------------
 -----
 title
 -----
 Structure from the checkpoint file:  "Grambow2020_b97d3_006523_reverse_mol2.chk"
 Charge =  0 Multiplicity = 1

                         Standard orientation:
 ---------------------------------------------------------------------
 Center     Atomic      Atomic             Coordinates (Angstroms)
 Number     Number       Type             X           Y           Z
 ---------------------------------------------------------------------
      1          8           0        0.616975   -1.382436   -0.593227
      2          6           0        1.306579   -0.819765    0.502517
      3          6           0        1.475416    0.682474    0.448783
      4          6           0        1.111088    1.450282   -0.588989
      5          6           0       -2.251171    0.635842    0.267266
      6          8           0       -2.103329   -0.522960   -0.080621
      7          1           0       -0.325616   -1.118779   -0.504714
      8          1           0        0.839954   -1.086886    1.473720
      9          1           0        2.307072   -1.283488    0.512958
     10          1           0        1.937004    1.135420    1.333012
     11          1           0        1.262576    2.529802   -0.588544
     12          1           0        0.673356    1.000171   -1.480965
     13          1           0       -1.400353    1.347056    0.319696
     14          1           0       -3.254626    1.026868    0.548163
 ---------------------------------------------------------------------

 SCF Done:  E(RHF) =  -307.213581454     A.U. after    2 cycles

 The electronic state is 1-A.
 Alpha  occ. eigenvalues --  -21.09801 -21.04342 -11.49564 -11.43533 -11.40346
 Alpha  occ. eigenvalues --  -11.37040  -1.73124  -1.68814  -1.16296  -0.96399
 Alpha  occ. eigenvalues --   -0.91754  -0.77774  -0.68662  -0.65242  -0.63469
 Alpha  occ. eigenvalues --   -0.56671  -0.54966  -0.51189  -0.49457  -0.46755
 Alpha  occ. eigenvalues --   -0.40202  -0.35132  -0.32226  -0.30295
 Alpha virt. eigenvalues --    0.03081   0.04516   0.05156   0.05865   0.06315
 Alpha virt. eigenvalues --    0.07161   0.07465   0.08427   0.09163   0.11552
 Alpha virt. eigenvalues --    0.12179   0.12863   0.13928   0.14541   0.14626

 Mulliken charges:
               1
     1  O   -2.765152
     2  C   -1.574029
     3  C   -1.159450
     4  C   -2.727916
     5  C   -0.809072
     6  O   -2.308320
     7  H    1.197995
     8  H    1.360711
     9  H    1.211145
    10  H    1.396528
    11  H    1.403742
    12  H    1.603558
    13  H    1.728066
    14  H    1.442195
 Sum of Mulliken charges =  -0.00000

 Dipole moment (field-independent basis, Debye):
    X=             -0.9367    Y=              1.3300    Z=              0.9179  Tot=              1.8678

 Test job not archived.
 1\1\GINC-SE456\SP\RHF\Aug-CC-pVDZ\C4H8O2\OHZDE\09-Apr-2025\0\\#t hf au
 g-cc-pvdz iop(5/13=1,5/36=2,99/5=2) pseudo=read geom=check guess=(read
 ,tcheck) scf=(maxcycle=1)\\title\\0,1\O,0,-1.70374197,0.50130204,-0.50
 121904\C,0,-1.444385,-0.73861771,0.12179059\C,0,-0.13951666,-1.3930167
 2,-0.27468994\C,0,0.68809177,-0.92369609,-1.22022522\C,0,1.3178742,1.8
 0097802,0.98902674\O,0,0.19094544,2.23971053,0.83654536\H,0,-1.0803362
 8,1.15369463,-0.11189083\H,0,-1.48007198,-0.66727505,1.22902342\H,0,-2
 .27208748,-1.40970607,-0.16225657\H,0,0.1070555,-2.31424327,0.26440892

 Normal termination of Gaussian 16 at Wed Apr  9 03:05:53 2025.
