 Gaussian 16, Revision C.01,

 ----------------------------------------------------------------------
 #t hf aug-cc-pvdz symm=none int=(grid=ultrafine) guess=(read,tcheck) s
 table=(opt,rrhf)
 ----------------------------------------------------------------------
 -----
 title
 -----
 Symbolic Z-matrix:
 Charge =  0 Multiplicity = 1

 SCF Done:  E(RHF) =  -336.216045534     A.U. after   16 cycles
 Normal termination of Gaussian 16 at Wed Apr  9 03:46:11 2025.
 Gaussian 16:  ES64L-G16RevC.01  3-Jul-2019

 ----------------------------------------------------------------------
 #t hf aug-cc-pvdz iop(5/13=1,5/36=2,99/5=2) pseudo=read geom=check gue
 ss=(read,tcheck) scf=(maxcycle=1)
 ----------------------------------------------------------------------
 -----
 title
 -----
 Structure from the checkpoint file:  "Grambow2020_wb97xd3_007921_reverse_mol1.chk"
 Charge =  0 Multiplicity = 1

                         Standard orientation:
 ---------------------------------------------------------------------
 Center     Atomic      Atomic             Coordinates (Angstroms)
 Number     Number       Type             X           Y           Z
 ---------------------------------------------------------------------
      1          7           0       -0.569265    1.170632    0.001190
      2          6           0       -1.314418    0.083335    0.000245
      3          8           0       -2.481796   -0.216597   -0.001233
      4          6           0       -0.160271   -0.943414    0.001193
      5          6           0        1.003701   -1.384083    0.000133
      6          6           0        1.803677   -0.312174   -0.000282
      7          7           0        2.239433    0.786250   -0.000904
      8          1           0        1.324370    1.372426   -0.000032
      9          1           0       -1.157316    2.000193    0.000168
 ---------------------------------------------------------------------

 SCF Done:  E(RHF) =  -337.703108106     A.U. after    2 cycles

 The electronic state is 1-A.
 Alpha  occ. eigenvalues --  -21.03178 -15.84522 -15.72455 -11.59933 -11.55843
 Alpha  occ. eigenvalues --  -11.52080 -11.49175  -1.70904  -1.47895  -1.33258
 Alpha  occ. eigenvalues --   -1.24567  -0.95805  -0.84094  -0.73952  -0.64567
 Alpha  occ. eigenvalues --   -0.62732  -0.62489  -0.56619  -0.54656  -0.48154
 Alpha  occ. eigenvalues --   -0.42514  -0.41912  -0.30491  -0.29696
 Alpha virt. eigenvalues --    0.03592   0.04476   0.05547   0.05729   0.06513
 Alpha virt. eigenvalues --    0.07442   0.09343   0.10385   0.11330   0.12241
 Alpha virt. eigenvalues --    0.12261   0.12963   0.13126   0.14345   0.15026

 Mulliken charges:
               1
     1  N   -2.412803
     2  C    4.788165
     3  O   -3.010363
     4  C    0.655635
     5  C   -0.930367
     6  C    2.351922
     7  N   -2.936454
     8  H    0.804833
     9  H    0.689431
 Sum of Mulliken charges =   0.00000

 Dipole moment (field-independent basis, Debye):
    X=              3.1871    Y=             -0.1945    Z=             -0.0004  Tot=              3.1931

 Test job not archived.
 1\1\GINC-SE339\SP\RHF\Aug-CC-pVDZ\C4H2N2O1\OHZDE\09-Apr-2025\0\\#t hf
 aug-cc-pvdz iop(5/13=1,5/36=2,99/5=2) pseudo=read geom=check guess=(re
 ad,tcheck) scf=(maxcycle=1)\\title\\0,1\N,0,-0.92952936,0.45837599,0.6
 1794464\C,0,-1.04507834,-0.85455447,0.63609279\O,0,-1.91488106,-1.6886
 291,0.65837469\C,0,0.46428834,-1.18288462,0.6193507\C,0,1.69455345,-0.
 99578331,0.59784344\C,0,1.86539436,0.33061887,0.5773486\N,0,1.70592519
 ,1.50142925,0.56353328\H,0,0.62108771,1.56322071,0.57942926\H,0,-1.848
 95929,0.89263369,0.62459261\\Version=ES64L-G16RevC.01\State=1-A\HF=-33

 Normal termination of Gaussian 16 at Wed Apr  9 03:46:15 2025.
