 Gaussian 16, Revision C.01,

 ----------------------------------------------------------------------
 #t hf aug-cc-pvdz symm=none int=(grid=ultrafine) guess=(read,tcheck) s
 table=(opt,rrhf)
 ----------------------------------------------------------------------
 -----
 title
 -----
 Symbolic Z-matrix:
 Charge =  0 Multiplicity = 1

 SCF Done:  E(RHF) =  -306.552332601     A.U. after   16 cycles
 Normal termination of Gaussian 16 at Wed Apr  9 19:10:02 2025.
 Gaussian 16:  ES64L-G16RevC.01  3-Jul-2019

 ----------------------------------------------------------------------
 #t hf aug-cc-pvdz iop(5/13=1,5/36=2,99/5=2) pseudo=read geom=check gue
 ss=(read,tcheck) scf=(maxcycle=1)
 ----------------------------------------------------------------------
 -----
 title
 -----
 Structure from the checkpoint file:  "Grambow2020_wb97xd3_008176_forward_mol1.chk"
 Charge =  0 Multiplicity = 1

                         Standard orientation:
 ---------------------------------------------------------------------
 Center     Atomic      Atomic             Coordinates (Angstroms)
 Number     Number       Type             X           Y           Z
 ---------------------------------------------------------------------
      1          6           0       -1.494218   -0.602847    0.210011
      2          6           0       -1.007933    0.553106   -0.638223
      3          8           0       -0.228920    1.352294    0.151719
      4          6           0        0.651967    0.421530    0.788942
      5          6           0        1.658620   -0.010498   -0.284714
      6          6           0        0.618106   -0.951424   -0.859256
      7          6           0       -0.065304   -0.942659    0.560575
      8          1           0       -2.160922   -0.307268    1.023560
      9          1           0       -1.948893   -1.387152   -0.395603
     10          1           0       -1.640990    1.130408   -1.309130
     11          1           0        0.947653    0.815493    1.760941
     12          1           0        2.157803    0.732085   -0.907739
     13          1           0        2.402312   -0.659542    0.189012
     14          1           0       -0.259253   -0.174795   -1.463404
     15          1           0        0.166215   -1.770825    1.224601
 ---------------------------------------------------------------------

 SCF Done:  E(RHF) =  -308.016134003     A.U. after    2 cycles

 The electronic state is 1-A.
 Alpha  occ. eigenvalues --  -21.07037 -11.53456 -11.47216 -11.43139 -11.41120
 Alpha  occ. eigenvalues --  -11.39839 -11.35812  -1.82725  -1.33179  -1.14984
 Alpha  occ. eigenvalues --   -0.98678  -0.89872  -0.82224  -0.78440  -0.71466
 Alpha  occ. eigenvalues --   -0.65484  -0.62278  -0.59495  -0.53089  -0.48613
 Alpha  occ. eigenvalues --   -0.48225  -0.46995  -0.40281  -0.39620  -0.32804
 Alpha  occ. eigenvalues --   -0.27236
 Alpha virt. eigenvalues --    0.03826   0.04759   0.04833   0.05244   0.05947
 Alpha virt. eigenvalues --    0.06311   0.06711   0.08121   0.09174   0.11832
 Alpha virt. eigenvalues --    0.12047   0.12848   0.13099   0.13365   0.14276

 Mulliken charges:
               1
     1  C   -3.272826
     2  C   -0.102393
     3  O   -3.522572
     4  C    1.001932
     5  C   -3.159732
     6  C   -0.958682
     7  C   -1.577555
     8  H    1.273690
     9  H    1.284793
    10  H    1.429649
    11  H    1.684670
    12  H    1.329566
    13  H    1.443966
    14  H    1.610803
    15  H    1.534689
 Sum of Mulliken charges =   0.00000

 Dipole moment (field-independent basis, Debye):
    X=             -1.0945    Y=              1.5367    Z=              1.8550  Tot=              2.6458

 Test job not archived.
 1\1\GINC-SE045\SP\RHF\Aug-CC-pVDZ\C6H8O1\OHZDE\09-Apr-2025\0\\#t hf au
 g-cc-pvdz iop(5/13=1,5/36=2,99/5=2) pseudo=read geom=check guess=(read
 ,tcheck) scf=(maxcycle=1)\\title\\0,1\C,0,-1.5250708,-0.1008463,-0.443
 87874\C,0,-0.92246622,-0.58025514,0.85966869\O,0,0.09549874,-1.4416766
 6,0.55755963\C,0,0.84009663,-0.73056795,-0.43654065\C,0,1.59561855,0.3
 7483717,0.31179125\C,0,0.32161917,1.19536694,0.3538163\C,0,-0.16337017
 ,0.36881223,-0.89703928\H,0,-2.01076337,-0.88835318,-1.02496234\H,0,-2
 .20212125,0.74019826,-0.29261594\H,0,-1.5028003,-0.91469218,1.71729227

 Normal termination of Gaussian 16 at Wed Apr  9 19:10:07 2025.
