 Gaussian 16, Revision C.01,

 ----------------------------------------------------------------------
 #t hf aug-cc-pvdz symm=none int=(grid=ultrafine) guess=(read,tcheck) s
 table=(opt,rrhf)
 ----------------------------------------------------------------------
 -----
 title
 -----
 Symbolic Z-matrix:
 Charge =  0 Multiplicity = 1

 SCF Done:  E(RHF) =  -245.685192840     A.U. after   15 cycles
 Normal termination of Gaussian 16 at Wed Apr  9 17:36:22 2025.
 Gaussian 16:  ES64L-G16RevC.01  3-Jul-2019

 ----------------------------------------------------------------------
 #t hf aug-cc-pvdz iop(5/13=1,5/36=2,99/5=2) pseudo=read geom=check gue
 ss=(read,tcheck) scf=(maxcycle=1)
 ----------------------------------------------------------------------
 -----
 title
 -----
 Structure from the checkpoint file:  "Grambow2020_b97d3_007202_forward_mol1.chk"
 Charge =  0 Multiplicity = 1

                         Standard orientation:
 ---------------------------------------------------------------------
 Center     Atomic      Atomic             Coordinates (Angstroms)
 Number     Number       Type             X           Y           Z
 ---------------------------------------------------------------------
      1          8           0       -1.734280   -0.616150    0.180756
      2          6           0       -1.218446    0.471204    0.008763
      3          6           0        0.268137    0.680554   -0.180574
      4          6           0        1.752601   -0.207470    0.585508
      5          7           0        0.987007   -0.545010   -0.573362
      6          1           0       -1.809132    1.413866   -0.024808
      7          1           0        0.537645    1.566746   -0.761684
      8          1           0        2.470341    0.573690    0.226555
      9          1           0        0.603160    0.839631    0.970848
     10          1           0        0.349426   -1.315392   -0.325606
 ---------------------------------------------------------------------

 SCF Done:  E(RHF) =  -246.785954630     A.U. after    2 cycles

 The electronic state is 1-A.
 Alpha  occ. eigenvalues --  -21.09378 -15.76197 -11.52714 -11.46739 -11.42582
 Alpha  occ. eigenvalues --   -1.73588  -1.45794  -1.06491  -0.90993  -0.82427
 Alpha  occ. eigenvalues --   -0.71855  -0.63085  -0.60761  -0.52626  -0.52290
 Alpha  occ. eigenvalues --   -0.48846  -0.41523  -0.34221  -0.31898
 Alpha virt. eigenvalues --    0.03234   0.04879   0.05630   0.06489   0.07471
 Alpha virt. eigenvalues --    0.08503   0.10240   0.10908   0.11747   0.12671
 Alpha virt. eigenvalues --    0.13379   0.14114   0.14936   0.15516   0.16767

 Mulliken charges:
               1
     1  O   -2.710571
     2  C    1.731239
     3  C   -2.267596
     4  C   -1.215871
     5  N   -1.881093
     6  H    1.465428
     7  H    1.312639
     8  H    1.143216
     9  H    1.613748
    10  H    0.808861
 Sum of Mulliken charges =  -0.00000

 Dipole moment (field-independent basis, Debye):
    X=             -1.0774    Y=              1.7957    Z=             -1.1786  Tot=              2.4030

 Test job not archived.
 1\1\GINC-SE174\SP\RHF\Aug-CC-pVDZ\C3H5N1O1\OHZDE\09-Apr-2025\0\\#t hf
 aug-cc-pvdz iop(5/13=1,5/36=2,99/5=2) pseudo=read geom=check guess=(re
 ad,tcheck) scf=(maxcycle=1)\\title\\0,1\O,0,1.29284676,-0.02769422,1.7
 3498501\C,0,1.3069628,-0.33461161,0.55871611\C,0,0.18873127,-0.0183054
 9,-0.41036224\C,0,-1.6863648,0.03516572,-0.16488999\N,0,-0.70824516,1.
 05297458,0.05959166\H,0,2.15835028,-0.8804005,0.09406415\H,0,0.4985726
 8,0.07924886,-1.45446\H,0,-1.88112018,0.07516417,-1.26701503\H,0,-0.48
 345214,-1.01602634,-0.28371086\H,0,-0.53506453,1.11596783,1.07321018\\

 Normal termination of Gaussian 16 at Wed Apr  9 17:36:25 2025.
