 Gaussian 16, Revision C.01,

 ----------------------------------------------------------------------
 #t hf aug-cc-pvdz symm=none int=(grid=ultrafine) guess=(read,tcheck) s
 table=(opt,rrhf)
 ----------------------------------------------------------------------
 -----
 title
 -----
 Symbolic Z-matrix:
 Charge =  0 Multiplicity = 1

 SCF Done:  E(RHF) =  -302.081782387     A.U. after   13 cycles
 Normal termination of Gaussian 16 at Wed Apr  9 17:06:19 2025.
 Gaussian 16:  ES64L-G16RevC.01  3-Jul-2019

 ----------------------------------------------------------------------
 #t hf aug-cc-pvdz iop(5/13=1,5/36=2,99/5=2) pseudo=read geom=check gue
 ss=(read,tcheck) scf=(maxcycle=1)
 ----------------------------------------------------------------------
 -----
 title
 -----
 Structure from the checkpoint file:  "Grambow2020_b97d3_007040_forward_mol2.chk"
 Charge =  0 Multiplicity = 1

                         Standard orientation:
 ---------------------------------------------------------------------
 Center     Atomic      Atomic             Coordinates (Angstroms)
 Number     Number       Type             X           Y           Z
 ---------------------------------------------------------------------
      1          6           0       -1.517003   -1.080426    0.087172
      2          7           0       -0.595930    0.038629   -0.029373
      3          6           0       -1.161186    1.375738   -0.072308
      4          6           0        0.766586   -0.212987   -0.016432
      5          8           0        1.250316   -1.345184   -0.074832
      6          7           0        1.575922    0.935479    0.000886
      7          1           0       -0.928078   -2.001099    0.070547
      8          1           0       -2.091669   -1.028500    1.026742
      9          1           0       -2.226354   -1.085568   -0.755231
     10          1           0       -0.518642    2.037167   -0.665780
     11          1           0       -2.143448    1.333516   -0.562063
     12          1           0       -1.306908    1.816618    0.931520
     13          1           0        2.544274    0.674148    0.163467
     14          1           0        1.277966    1.702474    0.598267
 ---------------------------------------------------------------------

 SCF Done:  E(RHF) =  -303.478461674     A.U. after    2 cycles

 The electronic state is 1-A.
 Alpha  occ. eigenvalues --  -21.00760 -15.76711 -15.74147 -11.49366 -11.40906
 Alpha  occ. eigenvalues --  -11.39026  -1.69977  -1.43470  -1.31202  -1.05140
 Alpha  occ. eigenvalues --   -0.98039  -0.76531  -0.71383  -0.65600  -0.65438
 Alpha  occ. eigenvalues --   -0.60020  -0.56065  -0.53671  -0.52750  -0.52112
 Alpha  occ. eigenvalues --   -0.46843  -0.36826  -0.29027  -0.28488
 Alpha virt. eigenvalues --    0.03114   0.04855   0.05251   0.05495   0.06529
 Alpha virt. eigenvalues --    0.06650   0.07897   0.08541   0.09942   0.12759
 Alpha virt. eigenvalues --    0.13374   0.13704   0.13977   0.15256   0.15854

 Mulliken charges:
               1
     1  C   -3.372194
     2  N   -2.577281
     3  C   -3.278899
     4  C    5.266170
     5  O   -2.818331
     6  N   -2.565942
     7  H    1.340680
     8  H    1.364459
     9  H    1.324380
    10  H    1.360154
    11  H    1.441929
    12  H    1.345130
    13  H    0.482271
    14  H    0.687474
 Sum of Mulliken charges =   0.00000

 Dipole moment (field-independent basis, Debye):
    X=             -1.3952    Y=              2.2359    Z=              0.8782  Tot=              2.7779

 Test job not archived.
 1\1\GINC-SE232\SP\RHF\Aug-CC-pVDZ\C3H8N2O1\OHZDE\09-Apr-2025\0\\#t hf
 aug-cc-pvdz iop(5/13=1,5/36=2,99/5=2) pseudo=read geom=check guess=(re
 ad,tcheck) scf=(maxcycle=1)\\title\\0,1\C,0,-1.34614098,-1.03885888,0.
 38608752\N,0,-0.27158791,-0.14730245,-0.01975043\C,0,-0.59562256,1.255
 12209,-0.21320696\C,0,1.0132878,-0.65471884,-0.12722908\O,0,1.27873373
 ,-1.85632466,-0.05683298\N,0,2.00378506,0.30564385,-0.39353293\H,0,-0.
 9353244,-2.04971952,0.45041944\H,0,-1.75890345,-0.74670626,1.36588483\
 H,0,-2.16131323,-1.02253448,-0.35423396\H,0,0.05813139,1.69041694,-0.9

 Normal termination of Gaussian 16 at Wed Apr  9 17:06:25 2025.
