 Gaussian 16, Revision C.01,

 ----------------------------------------------------------------------
 #t hf aug-cc-pvdz symm=none int=(grid=ultrafine) guess=(read,tcheck) s
 table=(opt,rrhf)
 ----------------------------------------------------------------------
 -----
 title
 -----
 Symbolic Z-matrix:
 Charge =  0 Multiplicity = 1

 SCF Done:  E(RHF) =  -337.442057816     A.U. after   17 cycles
 Normal termination of Gaussian 16 at Wed Apr  9 04:04:29 2025.
 Gaussian 16:  ES64L-G16RevC.01  3-Jul-2019

 ----------------------------------------------------------------------
 #t hf aug-cc-pvdz iop(5/13=1,5/36=2,99/5=2) pseudo=read geom=check gue
 ss=(read,tcheck) scf=(maxcycle=1)
 ----------------------------------------------------------------------
 -----
 title
 -----
 Structure from the checkpoint file:  "Grambow2020_wb97xd3_009182_forward_mol1.chk"
 Charge =  0 Multiplicity = 1

                         Standard orientation:
 ---------------------------------------------------------------------
 Center     Atomic      Atomic             Coordinates (Angstroms)
 Number     Number       Type             X           Y           Z
 ---------------------------------------------------------------------
      1          8           0       -2.135003   -0.262392   -0.457142
      2          6           0       -1.060784   -0.422434   -0.018576
      3          6           0       -0.428304    1.442435    0.458666
      4          6           0        0.677539    1.664665   -0.026898
      5          7           0        1.652842   -0.178435   -0.555117
      6          6           0        1.152777   -1.051967    0.247190
      7          7           0       -0.169535   -1.231034    0.373122
      8          1           0       -1.312554    1.815413    0.931387
      9          1           0        1.540059    2.167248   -0.399857
     10          1           0        2.662733   -0.128004   -0.457635
     11          1           0        1.759276   -1.685436    0.894909
 ---------------------------------------------------------------------

 SCF Done:  E(RHF) =  -338.976992397     A.U. after    2 cycles

 The electronic state is 1-A.
 Alpha  occ. eigenvalues --  -21.09808 -15.75155 -15.75019 -11.56402 -11.47268
 Alpha  occ. eigenvalues --  -11.46546 -11.41164  -1.76002  -1.46587  -1.27950
 Alpha  occ. eigenvalues --   -1.13681  -0.93268  -0.82907  -0.72890  -0.68509
 Alpha  occ. eigenvalues --   -0.67347  -0.63376  -0.59456  -0.54583  -0.48269
 Alpha  occ. eigenvalues --   -0.46103  -0.40359  -0.37933  -0.33382  -0.30253
 Alpha virt. eigenvalues --    0.03113   0.04537   0.05356   0.05716   0.09529
 Alpha virt. eigenvalues --    0.09916   0.09982   0.11234   0.11676   0.12691
 Alpha virt. eigenvalues --    0.13117   0.13626   0.13977   0.14622   0.14774

 Mulliken charges:
               1
     1  O   -2.795890
     2  C    4.169454
     3  C   -1.020003
     4  C   -0.748432
     5  N   -2.298979
     6  C    1.629216
     7  N   -2.822114
     8  H    0.830372
     9  H    0.646158
    10  H    0.747185
    11  H    1.663032
 Sum of Mulliken charges =   0.00000

 Dipole moment (field-independent basis, Debye):
    X=              1.8720    Y=              1.5659    Z=              0.4698  Tot=              2.4853

 Test job not archived.
 1\1\GINC-SE396\SP\RHF\Aug-CC-pVDZ\C4H4N2O1\OHZDE\09-Apr-2025\0\\#t hf
 aug-cc-pvdz iop(5/13=1,5/36=2,99/5=2) pseudo=read geom=check guess=(re
 ad,tcheck) scf=(maxcycle=1)\\title\\0,1\O,0,2.2385406,-1.15611621,0.74
 626768\C,0,1.19254178,-1.01492369,0.23847698\C,0,1.17997231,0.9209096,
 -0.359788\C,0,0.16719984,1.49210683,0.03527311\N,0,-1.34674868,0.05970
 451,0.56765586\C,0,-1.08917891,-0.97052399,-0.15974147\N,0,0.12240813,
 -1.54320924,-0.18260953\H,0,2.1606667,0.98354179,-0.7826232\H,0,-0.523
 08398,2.25088699,0.32404582\H,0,-2.28722139,0.40302343,0.39569972\H,0,

 Normal termination of Gaussian 16 at Wed Apr  9 04:04:33 2025.
