 Gaussian 16, Revision C.01,

 ----------------------------------------------------------------------
 #t hf aug-cc-pvdz symm=none int=(grid=ultrafine) guess=(read,tcheck) s
 table=(opt,rrhf)
 ----------------------------------------------------------------------
 -----
 title
 -----
 Symbolic Z-matrix:
 Charge =  0 Multiplicity = 1

 SCF Done:  E(RHF) =  -321.815149346     A.U. after   14 cycles
 Normal termination of Gaussian 16 at Wed Apr  9 16:01:54 2025.
 Gaussian 16:  ES64L-G16RevC.01  3-Jul-2019

 ----------------------------------------------------------------------
 #t hf aug-cc-pvdz iop(5/13=1,5/36=2,99/5=2) pseudo=read geom=check gue
 ss=(read,tcheck) scf=(maxcycle=1)
 ----------------------------------------------------------------------
 -----
 title
 -----
 Structure from the checkpoint file:  "Grambow2020_b97d3_006703_forward_mol1.chk"
 Charge =  0 Multiplicity = 1

                         Standard orientation:
 ---------------------------------------------------------------------
 Center     Atomic      Atomic             Coordinates (Angstroms)
 Number     Number       Type             X           Y           Z
 ---------------------------------------------------------------------
      1          6           0        2.218634   -0.690833   -0.001055
      2          7           0        1.290970    0.429182   -0.002269
      3          6           0       -0.017440    0.338096    0.002480
      4          8           0       -0.531480    1.536113    0.001150
      5          8           0       -0.717945   -0.795889    0.006665
      6          6           0       -2.152494   -0.623224   -0.004145
      7          1           0        2.771619   -0.755957    0.949927
      8          1           0        2.955244   -0.588016   -0.811786
      9          1           0        1.684071   -1.642371   -0.146954
     10          1           0        0.760707    1.701094   -0.001706
     11          1           0       -2.473606   -0.065540    0.883236
     12          1           0       -2.568120   -1.634374    0.004170
     13          1           0       -2.463509   -0.085136   -0.907204
 ---------------------------------------------------------------------

 SCF Done:  E(RHF) =  -323.269747249     A.U. after    2 cycles

 The electronic state is 1-A.
 Alpha  occ. eigenvalues --  -21.11199 -21.04752 -15.71469 -11.51595 -11.42946
 Alpha  occ. eigenvalues --  -11.39268  -1.85809  -1.69956  -1.34034  -1.03900
 Alpha  occ. eigenvalues --   -0.99053  -0.76725  -0.67655  -0.65192  -0.64063
 Alpha  occ. eigenvalues --   -0.59850  -0.57817  -0.55123  -0.52832  -0.45636
 Alpha  occ. eigenvalues --   -0.41275  -0.35465  -0.33923  -0.29106
 Alpha virt. eigenvalues --    0.03545   0.04784   0.05848   0.05956   0.06770
 Alpha virt. eigenvalues --    0.06992   0.07267   0.10213   0.12325   0.13520
 Alpha virt. eigenvalues --    0.13773   0.13978   0.14588   0.15266   0.16750

 Mulliken charges:
               1
     1  C   -3.311560
     2  N   -2.718646
     3  C    6.159040
     4  O   -2.377190
     5  O   -2.953152
     6  C   -3.103845
     7  H    1.345595
     8  H    1.327850
     9  H    1.390789
    10  H    0.384107
    11  H    1.250817
    12  H    1.348241
    13  H    1.257955
 Sum of Mulliken charges =  -0.00000

 Dipole moment (field-independent basis, Debye):
    X=             -1.4029    Y=             -1.6366    Z=             -0.0119  Tot=              2.1556

 Test job not archived.
 1\1\GINC-SE162\SP\RHF\Aug-CC-pVDZ\C3H7N1O2\OHZDE\09-Apr-2025\0\\#t hf
 aug-cc-pvdz iop(5/13=1,5/36=2,99/5=2) pseudo=read geom=check guess=(re
 ad,tcheck) scf=(maxcycle=1)\\title\\0,1\C,0,-2.14271154,-0.05032112,-0
 .6959606\N,0,-1.24646244,-0.06445705,0.44926094\C,0,0.06343637,-0.0254
 8232,0.39538219\O,0,0.54420288,-0.05210051,1.60684394\O,0,0.79454797,0
 .03109571,-0.71768637\C,0,2.22363096,0.04926694,-0.5049562\H,0,-2.7171
 4825,0.88870586,-0.74744945\H,0,-2.86150355,-0.88130775,-0.63895545\H,
 0,-1.57871725,-0.15341616,-1.63604146\H,0,-0.75156282,-0.09111327,1.73

 Normal termination of Gaussian 16 at Wed Apr  9 16:01:58 2025.
