 Gaussian 16, Revision C.01,

 ----------------------------------------------------------------------
 #t hf aug-cc-pvdz symm=none int=(grid=ultrafine) guess=(read,tcheck) s
 table=(opt,rrhf)
 ----------------------------------------------------------------------
 -----
 title
 -----
 Symbolic Z-matrix:
 Charge =  0 Multiplicity = 1

 SCF Done:  E(RHF) =  -322.627186372     A.U. after   16 cycles
 Normal termination of Gaussian 16 at Wed Apr  9 03:33:21 2025.
 Gaussian 16:  ES64L-G16RevC.01  3-Jul-2019

 ----------------------------------------------------------------------
 #t hf aug-cc-pvdz iop(5/13=1,5/36=2,99/5=2) pseudo=read geom=check gue
 ss=(read,tcheck) scf=(maxcycle=1)
 ----------------------------------------------------------------------
 -----
 title
 -----
 Structure from the checkpoint file:  "Grambow2020_wb97xd3_007014_forward_mol1.chk"
 Charge =  0 Multiplicity = 1

                         Standard orientation:
 ---------------------------------------------------------------------
 Center     Atomic      Atomic             Coordinates (Angstroms)
 Number     Number       Type             X           Y           Z
 ---------------------------------------------------------------------
      1          6           0       -2.115448   -0.607068    0.060517
      2          6           0       -0.632977   -0.445558    0.051691
      3          6           0        0.345371   -1.433694   -0.129955
      4          6           0        1.601140   -0.874133   -0.115057
      5          7           0        1.440948    0.455778    0.134909
      6          6           0       -0.024874    0.850395    0.000144
      7          8           0       -0.382273    1.998089   -0.180004
      8          1           0       -2.402743   -1.617762    0.350610
      9          1           0       -2.532868   -0.401794   -0.928798
     10          1           0       -2.574598    0.098960    0.752849
     11          1           0        0.577463    0.484135    1.210171
     12          1           0        0.147982   -2.493951   -0.182946
     13          1           0        2.562559   -1.352460   -0.022216
     14          1           0        2.154481    1.168060    0.111946
 ---------------------------------------------------------------------

 SCF Done:  E(RHF) =  -324.140411664     A.U. after    2 cycles

 The electronic state is 1-A.
 Alpha  occ. eigenvalues --  -21.00428 -15.83092 -11.51729 -11.46915 -11.42950
 Alpha  occ. eigenvalues --  -11.40539 -11.37537  -1.69594  -1.50240  -1.20295
 Alpha  occ. eigenvalues --   -1.07342  -1.00487  -0.84574  -0.77198  -0.71508
 Alpha  occ. eigenvalues --   -0.67743  -0.60060  -0.57440  -0.56517  -0.52334
 Alpha  occ. eigenvalues --   -0.49957  -0.47292  -0.43460  -0.36936  -0.27934
 Alpha  occ. eigenvalues --   -0.24116
 Alpha virt. eigenvalues --    0.03013   0.04586   0.04969   0.05685   0.05882
 Alpha virt. eigenvalues --    0.06973   0.07505   0.10049   0.10719   0.11277
 Alpha virt. eigenvalues --    0.11838   0.12861   0.12998   0.13341   0.14247

 Mulliken charges:
               1
     1  C   -4.466834
     2  C    2.229763
     3  C   -1.805349
     4  C   -0.980203
     5  N   -2.945539
     6  C    3.915962
     7  O   -3.806695
     8  H    1.161147
     9  H    1.117896
    10  H    1.148369
    11  H    0.987227
    12  H    1.462835
    13  H    1.203796
    14  H    0.777627
 Sum of Mulliken charges =   0.00000

 Dipole moment (field-independent basis, Debye):
    X=              2.2222    Y=             -1.8565    Z=              0.3518  Tot=              2.9169

 Test job not archived.
 1\1\GINC-SE412\SP\RHF\Aug-CC-pVDZ\C5H7N1O1\OHZDE\09-Apr-2025\0\\#t hf
 aug-cc-pvdz iop(5/13=1,5/36=2,99/5=2) pseudo=read geom=check guess=(re
 ad,tcheck) scf=(maxcycle=1)\\title\\0,1\C,0,-1.97748376,0.26354776,0.2
 0271712\C,0,-0.49711104,0.12835755,0.08395212\C,0,0.49091825,1.0426963
 2,0.47683384\C,0,1.74326423,0.52807329,0.23792024\N,0,1.56779551,-0.68
 347334,-0.3605547\C,0,0.11186852,-1.12212199,-0.25866076\O,0,-0.235495
 23,-2.28024046,-0.38312189\H,0,-2.28020066,1.31057546,0.21974616\H,0,-
 2.33726484,-0.21308268,1.11841427\H,0,-2.47642795,-0.23086742,-0.63108

 Normal termination of Gaussian 16 at Wed Apr  9 03:33:25 2025.
