 Gaussian 16, Revision C.01,

 ----------------------------------------------------------------------
 #t hf aug-cc-pvdz symm=none int=(grid=ultrafine) guess=(read,tcheck) s
 table=(opt,rrhf)
 ----------------------------------------------------------------------
 -----
 title
 -----
 Symbolic Z-matrix:
 Charge =  0 Multiplicity = 1

 SCF Done:  E(RHF) =  -232.854273051     A.U. after   14 cycles
 Normal termination of Gaussian 16 at Wed Apr  9 03:08:03 2025.
 Gaussian 16:  ES64L-G16RevC.01  3-Jul-2019

 ----------------------------------------------------------------------
 #t hf aug-cc-pvdz iop(5/13=1,5/36=2,99/5=2) pseudo=read geom=check gue
 ss=(read,tcheck) scf=(maxcycle=1)
 ----------------------------------------------------------------------
 -----
 title
 -----
 Structure from the checkpoint file:  "Grambow2020_b97d3_006586_forward_mol1.chk"
 Charge =  0 Multiplicity = 1

                         Standard orientation:
 ---------------------------------------------------------------------
 Center     Atomic      Atomic             Coordinates (Angstroms)
 Number     Number       Type             X           Y           Z
 ---------------------------------------------------------------------
      1          6           0        1.315844   -0.220398    0.895190
      2          6           0        1.669568   -0.097137   -0.572987
      3          6           0        0.237894    0.032988   -0.125941
      4          6           0       -0.507348    1.370852   -0.136339
      5          6           0       -2.051236   -0.252155    0.265132
      6          6           0       -0.859551   -0.985237   -0.386644
      7          1           0        1.599624    0.599685    1.556513
      8          1           0        1.362769   -1.207645    1.355764
      9          1           0        1.953152   -1.002338   -1.111225
     10          1           0        2.190172    0.805406   -0.898493
     11          1           0       -0.546893    1.841261   -1.129652
     12          1           0       -0.223655    2.094492    0.636570
     13          1           0       -1.686565    1.113480   -0.012341
     14          1           0       -1.796129   -0.237246    1.353894
     15          1           0       -1.022248   -1.140432   -1.465037
     16          1           0       -0.661250   -1.960139    0.083547
 ---------------------------------------------------------------------

 SCF Done:  E(RHF) =  -234.033250912     A.U. after    2 cycles

 The electronic state is 1-A.
 Alpha  occ. eigenvalues --  -11.45686 -11.43462 -11.41431 -11.40453 -11.38227
 Alpha  occ. eigenvalues --  -11.36592  -1.36256  -1.15201  -1.00913  -0.86976
 Alpha  occ. eigenvalues --   -0.85343  -0.76673  -0.66375  -0.64292  -0.60032
 Alpha  occ. eigenvalues --   -0.57268  -0.53668  -0.50963  -0.49483  -0.44858
 Alpha  occ. eigenvalues --   -0.40907  -0.37387  -0.29116
 Alpha virt. eigenvalues --    0.03887   0.05065   0.05251   0.05415   0.05745
 Alpha virt. eigenvalues --    0.06149   0.06369   0.06544   0.07810   0.08889
 Alpha virt. eigenvalues --    0.10125   0.12404   0.12435   0.13301   0.13499

 Mulliken charges:
               1
     1  C   -2.318139
     2  C   -2.070867
     3  C    2.376594
     4  C   -4.725668
     5  C   -2.143808
     6  C   -4.345706
     7  H    1.319046
     8  H    1.322981
     9  H    1.312963
    10  H    1.332048
    11  H    1.132541
    12  H    1.206758
    13  H    1.754759
    14  H    1.191966
    15  H    1.333420
    16  H    1.321112
 Sum of Mulliken charges =   0.00000

 Dipole moment (field-independent basis, Debye):
    X=              2.5198    Y=              0.4234    Z=              0.2027  Tot=              2.5632

 Test job not archived.
 1\1\GINC-SE273\SP\RHF\Aug-CC-pVDZ\C6H10\OHZDE\09-Apr-2025\0\\#t hf aug
 -cc-pvdz iop(5/13=1,5/36=2,99/5=2) pseudo=read geom=check guess=(read,
 tcheck) scf=(maxcycle=1)\\title\\0,1\C,0,-1.31032159,0.25936768,0.8092
 0058\C,0,-1.60426996,-0.04750879,-0.64519837\C,0,-0.18320803,-0.025281
 5,-0.14865075\C,0,0.65174547,-1.29942205,0.00880855\C,0,2.06630105,0.4
 6415258,0.26911293\C,0,0.85028282,1.0347718,-0.49116815\H,0,-1.5598162
 1,-0.50236979,1.54942003\H,0,-1.44043867,1.28482509,1.15632311\H,0,-1.
 93051682,0.77125699,-1.28761032\H,0,-2.0504411,-1.0150605,-0.88256697\

 Normal termination of Gaussian 16 at Wed Apr  9 03:08:09 2025.
