 Gaussian 16, Revision C.01,

 ----------------------------------------------------------------------
 #t hf aug-cc-pvdz symm=none int=(grid=ultrafine) guess=(read,tcheck) s
 table=(opt,rrhf)
 ----------------------------------------------------------------------
 -----
 title
 -----
 Symbolic Z-matrix:
 Charge =  0 Multiplicity = 1

 SCF Done:  E(RHF) =  -323.797188395     A.U. after   15 cycles
 Normal termination of Gaussian 16 at Wed Apr  9 19:25:15 2025.
 Gaussian 16:  ES64L-G16RevC.01  3-Jul-2019

 ----------------------------------------------------------------------
 #t hf aug-cc-pvdz iop(5/13=1,5/36=2,99/5=2) pseudo=read geom=check gue
 ss=(read,tcheck) scf=(maxcycle=1)
 ----------------------------------------------------------------------
 -----
 title
 -----
 Structure from the checkpoint file:  "Grambow2020_wb97xd3_008941_reverse_mol2.chk"
 Charge =  0 Multiplicity = 1

                         Standard orientation:
 ---------------------------------------------------------------------
 Center     Atomic      Atomic             Coordinates (Angstroms)
 Number     Number       Type             X           Y           Z
 ---------------------------------------------------------------------
      1          6           0       -2.457289   -0.201697   -0.052706
      2          6           0       -0.977966   -0.207315   -0.108968
      3          6           0        0.009851   -1.342237   -0.212368
      4          7           0        1.048325   -0.298736   -0.161939
      5          6           0        2.309088   -0.306821   -0.134349
      6          6           0       -0.030919    0.796419   -0.077831
      7          8           0        0.201979    1.980640   -0.009997
      8          1           0       -2.903226   -0.641204   -0.951235
      9          1           0       -2.820693    0.822152    0.035601
     10          1           0       -2.835492   -0.768337    0.804762
     11          1           0        0.117335   -0.333124    2.566685
     12          1           0        0.094982   -2.036744    0.634050
     13          1           0        0.051971   -1.912127   -1.149246
     14          1           0        0.546998   -0.728205    3.033384
     15          1           0        2.863353   -1.238044   -0.174700
     16          1           0        2.814081    0.651575   -0.068421
 ---------------------------------------------------------------------

 SCF Done:  E(RHF) =  -325.334564281     A.U. after    2 cycles

 The electronic state is 1-A.
 Alpha  occ. eigenvalues --  -20.99391 -15.82740 -11.50461 -11.48757 -11.46334
 Alpha  occ. eigenvalues --  -11.39185 -11.35438  -1.67596  -1.51161  -1.20853
 Alpha  occ. eigenvalues --   -1.06420  -0.95820  -0.86817  -0.71998  -0.69626
 Alpha  occ. eigenvalues --   -0.67455  -0.63013  -0.61040  -0.57750  -0.55197
 Alpha  occ. eigenvalues --   -0.51635  -0.50266  -0.48363  -0.43329  -0.42586
 Alpha  occ. eigenvalues --   -0.27251  -0.21538
 Alpha virt. eigenvalues --    0.02596   0.04559   0.04784   0.04965   0.05905
 Alpha virt. eigenvalues --    0.06329   0.07048   0.07837   0.08208   0.09898
 Alpha virt. eigenvalues --    0.10900   0.11080   0.11881   0.13037   0.13774

 Mulliken charges:
               1
     1  C   -4.725136
     2  C    2.087842
     3  C   -3.150718
     4  N   -2.620604
     5  C   -1.615617
     6  C    4.333909
     7  O   -3.729827
     8  H    1.147778
     9  H    1.304856
    10  H    1.170650
    11  H   -0.237470
    12  H    1.371194
    13  H    1.322667
    14  H    0.111297
    15  H    1.606621
    16  H    1.622559
 Sum of Mulliken charges =  -0.00000

 Dipole moment (field-independent basis, Debye):
    X=              3.1018    Y=             -3.5905    Z=             -0.2893  Tot=              4.7535

 Test job not archived.
 1\1\GINC-SE037\SP\RHF\Aug-CC-pVDZ\C5H9N1O1\OHZDE\09-Apr-2025\0\\#t hf
 aug-cc-pvdz iop(5/13=1,5/36=2,99/5=2) pseudo=read geom=check guess=(re
 ad,tcheck) scf=(maxcycle=1)\\title\\0,1\C,0,2.36032863,-0.11113979,0.1
 7281639\C,0,0.88190669,-0.18768678,0.17440815\C,0,-0.10115216,-0.47354
 11,-0.93302366\N,0,-1.14322788,-0.28127554,0.09019527\C,0,-2.4042174,-
 0.27233023,0.07696056\C,0,-0.06837905,-0.01921581,1.16128417\O,0,-0.30
 559299,0.22229917,2.32172509\H,0,2.81944187,-1.05928666,-0.12653742\H,
 0,2.71955415,0.13465763,1.17215021\H,0,2.72874292,0.65669512,-0.515711

 Normal termination of Gaussian 16 at Wed Apr  9 19:25:20 2025.
