 Gaussian 16, Revision C.01,

 ----------------------------------------------------------------------
 #t hf aug-cc-pvdz symm=none int=(grid=ultrafine) guess=(read,tcheck) s
 table=(opt,rrhf)
 ----------------------------------------------------------------------
 -----
 title
 -----
 Symbolic Z-matrix:
 Charge =  0 Multiplicity = 1

 SCF Done:  E(RHF) =  -342.475348277     A.U. after   16 cycles
 Normal termination of Gaussian 16 at Wed Apr  9 19:30:09 2025.
 Gaussian 16:  ES64L-G16RevC.01  3-Jul-2019

 ----------------------------------------------------------------------
 #t hf aug-cc-pvdz iop(5/13=1,5/36=2,99/5=2) pseudo=read geom=check gue
 ss=(read,tcheck) scf=(maxcycle=1)
 ----------------------------------------------------------------------
 -----
 title
 -----
 Structure from the checkpoint file:  "Grambow2020_wb97xd3_009063_forward_mol1.chk"
 Charge =  0 Multiplicity = 1

                         Standard orientation:
 ---------------------------------------------------------------------
 Center     Atomic      Atomic             Coordinates (Angstroms)
 Number     Number       Type             X           Y           Z
 ---------------------------------------------------------------------
      1          8           0       -2.315521   -0.667696   -0.057667
      2          6           0       -1.179888   -0.271996   -0.022841
      3          6           0       -0.784433    1.212387   -0.173867
      4          6           0        0.708668    1.318323    0.209718
      5          6           0        1.129930   -0.109890    0.137182
      6          8           0        2.229408   -0.612228   -0.243749
      7          6           0        0.059891   -1.037960    0.188868
      8          1           0       -1.437318    1.828045    0.443101
      9          1           0       -0.950717    1.504031   -1.213326
     10          1           0        0.822429    1.662633    1.241145
     11          1           0        1.306837    1.958767   -0.435915
     12          1           0        0.090695   -1.898642    0.849440
     13          1           0        1.251973   -1.480629   -0.507473
 ---------------------------------------------------------------------

 SCF Done:  E(RHF) =  -344.025118339     A.U. after    2 cycles

 The electronic state is 1-A.
 Alpha  occ. eigenvalues --  -21.08838 -21.04636 -11.53489 -11.51226 -11.45959
 Alpha  occ. eigenvalues --  -11.40452 -11.38799  -1.78065  -1.70213  -1.30862
 Alpha  occ. eigenvalues --   -1.09448  -1.00024  -0.81425  -0.78864  -0.68460
 Alpha  occ. eigenvalues --   -0.65328  -0.61896  -0.57237  -0.55755  -0.51200
 Alpha  occ. eigenvalues --   -0.50131  -0.48391  -0.43201  -0.37807  -0.29900
 Alpha  occ. eigenvalues --   -0.26639
 Alpha virt. eigenvalues --    0.02723   0.04748   0.05519   0.05614   0.06323
 Alpha virt. eigenvalues --    0.06718   0.08282   0.09565   0.10313   0.11617
 Alpha virt. eigenvalues --    0.12712   0.13785   0.14111   0.14188   0.14575

 Mulliken charges:
               1
     1  O   -3.415719
     2  C    4.166853
     3  C   -3.258619
     4  C   -3.685708
     5  C    4.950117
     6  O   -3.301469
     7  C   -3.287040
     8  H    1.263076
     9  H    1.405457
    10  H    1.437128
    11  H    1.247136
    12  H    1.258671
    13  H    1.220116
 Sum of Mulliken charges =  -0.00000

 Dipole moment (field-independent basis, Debye):
    X=              1.9789    Y=              1.8497    Z=              0.5131  Tot=              2.7569

 Test job not archived.
 1\1\GINC-SE054\SP\RHF\Aug-CC-pVDZ\C5H6O2\OHZDE\09-Apr-2025\0\\#t hf au
 g-cc-pvdz iop(5/13=1,5/36=2,99/5=2) pseudo=read geom=check guess=(read
 ,tcheck) scf=(maxcycle=1)\\title\\0,1\O,0,0.49882082,-2.45225276,-0.53
 596426\C,0,0.30560749,-1.28990815,-0.2929067\C,0,-1.0990952,-0.6630584
 5,-0.16462481\C,0,-0.90468201,0.752665,0.42328713\C,0,0.55242724,0.966
 4972,0.19171545\O,0,1.17772801,2.02594829,-0.11302425\C,0,1.28813792,-
 0.22292979,-0.03841801\H,0,-1.7304698,-1.3057431,0.44714735\H,0,-1.545
 44214,-0.62326419,-1.16080332\H,0,-1.08983985,0.7558328,1.50080282\H,0

 Normal termination of Gaussian 16 at Wed Apr  9 19:30:13 2025.
