 Gaussian 16, Revision C.01,

 ----------------------------------------------------------------------
 #t hf aug-cc-pvdz symm=none int=(grid=ultrafine) guess=(read,tcheck) s
 table=(opt,rrhf)
 ----------------------------------------------------------------------
 -----
 title
 -----
 Symbolic Z-matrix:
 Charge =  0 Multiplicity = 1

 SCF Done:  E(RHF) =  -380.580996518     A.U. after   16 cycles
 Normal termination of Gaussian 16 at Wed Apr  9 03:41:05 2025.
 Gaussian 16:  ES64L-G16RevC.01  3-Jul-2019

 ----------------------------------------------------------------------
 #t hf aug-cc-pvdz iop(5/13=1,5/36=2,99/5=2) pseudo=read geom=check gue
 ss=(read,tcheck) scf=(maxcycle=1)
 ----------------------------------------------------------------------
 -----
 title
 -----
 Structure from the checkpoint file:  "Grambow2020_wb97xd3_007513_forward_mol1.chk"
 Charge =  0 Multiplicity = 1

                         Standard orientation:
 ---------------------------------------------------------------------
 Center     Atomic      Atomic             Coordinates (Angstroms)
 Number     Number       Type             X           Y           Z
 ---------------------------------------------------------------------
      1          8           0        1.724676   -1.215728   -0.390335
      2          6           0        2.013924    0.132367   -0.057663
      3          6           0        0.894994    0.623349    0.844402
      4          6           0       -0.416995    0.635320    0.084888
      5          8           0       -0.656058    1.420846   -0.784857
      6          6           0       -1.475672   -0.425482    0.485768
      7          8           0       -2.541633   -0.624365   -0.239194
      8          1           0        2.298061   -1.499799   -1.103164
      9          1           0        2.051778    0.759794   -0.954297
     10          1           0        2.973732    0.207152    0.464850
     11          1           0        1.107643    1.644882    1.164415
     12          1           0        0.836597   -0.013586    1.731244
     13          1           0       -0.593801   -1.506074    0.367554
     14          1           0       -1.546991   -0.485202    1.592688
     15          1           0       -1.440412   -1.546507   -0.092575
 ---------------------------------------------------------------------

 SCF Done:  E(RHF) =  -382.276262404     A.U. after    2 cycles

 The electronic state is 1-A.
 Alpha  occ. eigenvalues --  -21.09810 -21.07572 -20.99598 -11.53575 -11.48528
 Alpha  occ. eigenvalues --  -11.46838 -11.40895  -1.75577  -1.72930  -1.66896
 Alpha  occ. eigenvalues --   -1.19405  -1.04406  -0.92071  -0.79940  -0.73709
 Alpha  occ. eigenvalues --   -0.70557  -0.68124  -0.60551  -0.58486  -0.54338
 Alpha  occ. eigenvalues --   -0.50722  -0.48442  -0.44333  -0.43319  -0.35393
 Alpha  occ. eigenvalues --   -0.32331  -0.29173  -0.26130
 Alpha virt. eigenvalues --    0.02994   0.04324   0.04585   0.04844   0.05477
 Alpha virt. eigenvalues --    0.06024   0.06765   0.08267   0.10175   0.11323
 Alpha virt. eigenvalues --    0.12278   0.13045   0.13632   0.13865   0.14288

 Mulliken charges:
               1
     1  O   -2.660568
     2  C   -1.066886
     3  C   -3.446766
     4  C    4.637381
     5  O   -3.537536
     6  C    0.169513
     7  O   -2.736622
     8  H    0.850852
     9  H    1.436377
    10  H    1.292010
    11  H    1.295648
    12  H    1.648647
    13  H    0.153859
    14  H    1.315216
    15  H    0.648875
 Sum of Mulliken charges =  -0.00000

 Dipole moment (field-independent basis, Debye):
    X=              3.0533    Y=             -0.2972    Z=              0.7709  Tot=              3.1631

 Test job not archived.
 1\1\GINC-SE060\SP\RHF\Aug-CC-pVDZ\C4H8O3\OHZDE\09-Apr-2025\0\\#t hf au
 g-cc-pvdz iop(5/13=1,5/36=2,99/5=2) pseudo=read geom=check guess=(read
 ,tcheck) scf=(maxcycle=1)\\title\\0,1\O,0,-0.9056434,1.60354589,0.0300
 4639\C,0,-1.52922201,0.38616134,-0.34521242\C,0,-0.83797693,-0.7283833
 9,0.42079036\C,0,0.61199538,-0.83247274,-0.00940316\O,0,0.94249295,-1.
 24660697,-1.08174793\C,0,1.68721969,-0.38207773,1.01423742\O,0,2.93637
 355,-0.24281639,0.66549921\H,0,-1.18025097,2.30113885,-0.5662305\H,0,-
 1.42045271,0.20275465,-1.41926088\H,0,-2.59606247,0.4025805,-0.0973683

 Normal termination of Gaussian 16 at Wed Apr  9 03:41:10 2025.
