 Gaussian 16, Revision C.01,

 ----------------------------------------------------------------------
 #t hf aug-cc-pvdz symm=none int=(grid=ultrafine) guess=(read,tcheck) s
 table=(opt,rrhf)
 ----------------------------------------------------------------------
 -----
 title
 -----
 Symbolic Z-matrix:
 Charge =  0 Multiplicity = 1

 SCF Done:  E(RHF) =  -337.539583283     A.U. after   16 cycles
 Normal termination of Gaussian 16 at Wed Apr  9 03:58:27 2025.
 Gaussian 16:  ES64L-G16RevC.01  3-Jul-2019

 ----------------------------------------------------------------------
 #t hf aug-cc-pvdz iop(5/13=1,5/36=2,99/5=2) pseudo=read geom=check gue
 ss=(read,tcheck) scf=(maxcycle=1)
 ----------------------------------------------------------------------
 -----
 title
 -----
 Structure from the checkpoint file:  "Grambow2020_wb97xd3_008692_reverse_mol2.chk"
 Charge =  0 Multiplicity = 1

                         Standard orientation:
 ---------------------------------------------------------------------
 Center     Atomic      Atomic             Coordinates (Angstroms)
 Number     Number       Type             X           Y           Z
 ---------------------------------------------------------------------
      1          8           0       -2.824686   -0.012423    0.009022
      2          6           0       -1.660054   -0.030610   -0.012264
      3          6           0       -0.354840   -0.009448    0.011454
      4          6           0        0.561122    1.215282    0.005144
      5          7           0        1.904363    0.634804    0.019265
      6          6           0        1.783918   -0.624409    0.000102
      7          7           0        0.501894   -1.151004   -0.097279
      8          1           0        0.425478    1.865071    0.873065
      9          1           0        0.429934    1.824476   -0.892488
     10          1           0        2.625700   -1.308082    0.020887
     11          1           0        0.291707   -1.973575    0.445843
 ---------------------------------------------------------------------

 SCF Done:  E(RHF) =  -339.035591217     A.U. after    2 cycles

 The electronic state is 1-A.
 Alpha  occ. eigenvalues --  -21.13388 -15.78221 -15.72631 -11.53701 -11.47322
 Alpha  occ. eigenvalues --  -11.44931 -11.41314  -1.76824  -1.54198  -1.28323
 Alpha  occ. eigenvalues --   -1.14518  -0.96380  -0.83144  -0.79340  -0.66392
 Alpha  occ. eigenvalues --   -0.65293  -0.59342  -0.56876  -0.55700  -0.54465
 Alpha  occ. eigenvalues --   -0.51468  -0.47414  -0.38304  -0.37947  -0.24168
 Alpha virt. eigenvalues --    0.02977   0.05221   0.05765   0.06667   0.08063
 Alpha virt. eigenvalues --    0.09493   0.10250   0.10575   0.11878   0.12561
 Alpha virt. eigenvalues --    0.12856   0.13306   0.14153   0.15198   0.15621

 Mulliken charges:
               1
     1  O   -2.774274
     2  C    2.502016
     3  C    2.244643
     4  C   -2.458392
     5  N   -2.616117
     6  C    1.504002
     7  N   -3.187864
     8  H    1.248641
     9  H    1.262614
    10  H    1.634072
    11  H    0.640658
 Sum of Mulliken charges =   0.00000

 Dipole moment (field-independent basis, Debye):
    X=             -0.8986    Y=             -1.6992    Z=              0.5966  Tot=              2.0127

 Test job not archived.
 1\1\GINC-SE045\SP\RHF\Aug-CC-pVDZ\C4H4N2O1\OHZDE\09-Apr-2025\0\\#t hf
 aug-cc-pvdz iop(5/13=1,5/36=2,99/5=2) pseudo=read geom=check guess=(re
 ad,tcheck) scf=(maxcycle=1)\\title\\0,1\O,0,-2.89053661,-1.20133224,-0
 .10514468\C,0,-1.80114442,-0.78863816,-0.09737451\C,0,-0.5960945,-0.28
 951587,-0.03970114\C,0,-0.19640169,1.18551187,0.01968363\N,0,1.2659933
 2,1.14019271,0.04792971\C,0,1.61867987,-0.07297554,-0.01783304\N,0,0.6
 2240206,-1.02997685,-0.16599172\H,0,-0.57161453,1.70309064,0.9058208\H
 ,0,-0.5332048,1.74036323,-0.85939269\H,0,2.65298732,-0.3990128,0.00072

 Normal termination of Gaussian 16 at Wed Apr  9 03:58:31 2025.
