 Gaussian 16, Revision C.01,

 ----------------------------------------------------------------------
 #t hf aug-cc-pvdz symm=none int=(grid=ultrafine) guess=(read,tcheck) s
 table=(opt,rrhf)
 ----------------------------------------------------------------------
 -----
 title
 -----
 Symbolic Z-matrix:
 Charge =  0 Multiplicity = 1

 SCF Done:  E(RHF) =  -343.619536676     A.U. after   14 cycles
 Normal termination of Gaussian 16 at Wed Apr  9 18:31:29 2025.
 Gaussian 16:  ES64L-G16RevC.01  3-Jul-2019

 ----------------------------------------------------------------------
 #t hf aug-cc-pvdz iop(5/13=1,5/36=2,99/5=2) pseudo=read geom=check gue
 ss=(read,tcheck) scf=(maxcycle=1)
 ----------------------------------------------------------------------
 -----
 title
 -----
 Structure from the checkpoint file:  "Grambow2020_wb97xd3_007211_forward_mol1.chk"
 Charge =  0 Multiplicity = 1

                         Standard orientation:
 ---------------------------------------------------------------------
 Center     Atomic      Atomic             Coordinates (Angstroms)
 Number     Number       Type             X           Y           Z
 ---------------------------------------------------------------------
      1          8           0        1.103081    0.304677   -0.858114
      2          6           0        0.788219    1.413270    0.028339
      3          6           0       -0.307626    0.686624    0.774963
      4          6           0       -1.641047    0.519277   -0.006363
      5          6           0       -1.241679   -0.917391   -0.443803
      6          6           0        0.122805   -0.672726    0.155785
      7          8           0        1.091595   -1.465696    0.463400
      8          1           0        1.670377   -0.578121   -0.217749
      9          1           0        0.473166    2.277141   -0.557554
     10          1           0        1.653496    1.682729    0.637292
     11          1           0       -0.376571    0.803425    1.853888
     12          1           0       -2.534845    0.576614    0.611441
     13          1           0       -1.744199    1.215160   -0.838822
     14          1           0       -1.267963   -1.163543   -1.503801
     15          1           0       -1.754910   -1.699574    0.119479
 ---------------------------------------------------------------------

 SCF Done:  E(RHF) =  -345.217278385     A.U. after    2 cycles

 The electronic state is 1-A.
 Alpha  occ. eigenvalues --  -21.04369 -21.02180 -11.55807 -11.47349 -11.44723
 Alpha  occ. eigenvalues --  -11.40970 -11.37459  -1.83120  -1.62844  -1.31040
 Alpha  occ. eigenvalues --   -1.06257  -0.93359  -0.91943  -0.74897  -0.69417
 Alpha  occ. eigenvalues --   -0.67332  -0.63132  -0.60697  -0.58709  -0.52592
 Alpha  occ. eigenvalues --   -0.52163  -0.45179  -0.41663  -0.41126  -0.35839
 Alpha  occ. eigenvalues --   -0.28076  -0.25817
 Alpha virt. eigenvalues --    0.03838   0.04709   0.04814   0.05273   0.05732
 Alpha virt. eigenvalues --    0.06321   0.07342   0.08172   0.09788   0.11290
 Alpha virt. eigenvalues --    0.12353   0.12937   0.13400   0.14168   0.14671

 Mulliken charges:
               1
     1  O   -2.473053
     2  C   -1.308602
     3  C   -2.813919
     4  C   -2.915921
     5  C   -3.205084
     6  C    6.277277
     7  O   -3.590839
     8  H    0.446501
     9  H    1.410373
    10  H    1.380549
    11  H    1.394347
    12  H    1.310618
    13  H    1.390125
    14  H    1.363807
    15  H    1.333820
 Sum of Mulliken charges =  -0.00000

 Dipole moment (field-independent basis, Debye):
    X=             -1.2467    Y=              1.7538    Z=             -0.2493  Tot=              2.1661

 Test job not archived.
 1\1\GINC-SE045\SP\RHF\Aug-CC-pVDZ\C5H8O2\OHZDE\09-Apr-2025\0\\#t hf au
 g-cc-pvdz iop(5/13=1,5/36=2,99/5=2) pseudo=read geom=check guess=(read
 ,tcheck) scf=(maxcycle=1)\\title\\0,1\O,0,0.89059681,-1.08807739,-0.83
 824561\C,0,1.5096313,0.15070051,-0.39536734\C,0,0.32337525,0.61473092,
 0.41937952\C,0,-0.88140423,1.14293544,-0.40886777\C,0,-1.59188702,-0.2
 3590846,-0.31471315\C,0,-0.33830524,-0.78848692,0.32119095\O,0,-0.1008
 6136,-1.87561782,0.97215225\H,0,0.81770463,-1.86672439,0.11023713\H,0,
 1.76425466,0.7660218,-1.25870333\H,0,2.41138568,-0.05089917,0.18629673

 Normal termination of Gaussian 16 at Wed Apr  9 18:31:34 2025.
