 Gaussian 16, Revision C.01,

 ----------------------------------------------------------------------
 #t hf aug-cc-pvdz symm=none int=(grid=ultrafine) guess=(read,tcheck) s
 table=(opt,rrhf)
 ----------------------------------------------------------------------
 -----
 title
 -----
 Symbolic Z-matrix:
 Charge =  0 Multiplicity = 1

 SCF Done:  E(RHF) =  -355.960759730     A.U. after   14 cycles
 Normal termination of Gaussian 16 at Wed Apr  9 03:58:41 2025.
 Gaussian 16:  ES64L-G16RevC.01  3-Jul-2019

 ----------------------------------------------------------------------
 #t hf aug-cc-pvdz iop(5/13=1,5/36=2,99/5=2) pseudo=read geom=check gue
 ss=(read,tcheck) scf=(maxcycle=1)
 ----------------------------------------------------------------------
 -----
 title
 -----
 Structure from the checkpoint file:  "Grambow2020_wb97xd3_008714_forward_mol2.chk"
 Charge =  0 Multiplicity = 1

                         Standard orientation:
 ---------------------------------------------------------------------
 Center     Atomic      Atomic             Coordinates (Angstroms)
 Number     Number       Type             X           Y           Z
 ---------------------------------------------------------------------
      1          6           0        2.491750   -0.437131    0.006808
      2          7           0        1.083270   -0.755197    0.015512
      3          6           0        0.264534    0.218407   -0.004284
      4          7           0        0.524451    1.545819   -0.047294
      5          6           0       -1.230677   -0.075936    0.001890
      6          8           0       -2.042611    0.829433    0.025328
      7          7           0       -1.521411   -1.382967   -0.017063
      8          1           0        2.785796    0.146616    0.889972
      9          1           0        2.775183    0.139021   -0.884119
     10          1           0        3.076455   -1.355540    0.009683
     11          1           0       -0.268774    2.160480    0.029184
     12          1           0        1.448812    1.904308    0.093166
     13          1           0       -0.755327   -2.036058   -0.021847
     14          1           0       -2.479063   -1.679926   -0.003237
 ---------------------------------------------------------------------

 SCF Done:  E(RHF) =  -357.577156484     A.U. after    2 cycles

 The electronic state is 1-A.
 Alpha  occ. eigenvalues --  -21.03269 -15.77667 -15.77583 -15.71343 -11.52316
 Alpha  occ. eigenvalues --  -11.45524 -11.38793  -1.71946  -1.46020  -1.34884
 Alpha  occ. eigenvalues --   -1.28231  -1.04183  -0.89288  -0.77483  -0.74830
 Alpha  occ. eigenvalues --   -0.70012  -0.62255  -0.61393  -0.59554  -0.56231
 Alpha  occ. eigenvalues --   -0.55701  -0.48141  -0.47587  -0.38463  -0.33367
 Alpha  occ. eigenvalues --   -0.31730  -0.29610
 Alpha virt. eigenvalues --    0.03447   0.04931   0.05442   0.06285   0.06515
 Alpha virt. eigenvalues --    0.07627   0.07852   0.10567   0.11523   0.12658
 Alpha virt. eigenvalues --    0.13423   0.13658   0.14054   0.14950   0.15707

 Mulliken charges:
               1
     1  C   -3.385668
     2  N   -3.049541
     3  C    3.080206
     4  N   -3.163089
     5  C    6.052467
     6  O   -3.432532
     7  N   -3.088043
     8  H    1.268376
     9  H    1.270687
    10  H    1.418014
    11  H    0.732563
    12  H    0.725197
    13  H    0.728180
    14  H    0.843183
 Sum of Mulliken charges =   0.00000

 Dipole moment (field-independent basis, Debye):
    X=              1.0467    Y=              0.2671    Z=              0.2039  Tot=              1.0993

 Test job not archived.
 1\1\GINC-SE253\SP\RHF\Aug-CC-pVDZ\C3H7N3O1\OHZDE\09-Apr-2025\0\\#t hf
 aug-cc-pvdz iop(5/13=1,5/36=2,99/5=2) pseudo=read geom=check guess=(re
 ad,tcheck) scf=(maxcycle=1)\\title\\0,1\C,0,1.8942072,0.72047204,-0.48
 740641\N,0,0.45276455,0.72574186,-0.40212022\C,0,-0.1020962,-0.2661836
 6,0.16957711\N,0,0.47472352,-1.35032185,0.73821993\C,0,-1.62158979,-0.
 29680814,0.28152973\O,0,-2.18905019,-1.24795568,0.78430884\N,0,-2.2195
 6028,0.79213975,-0.21830882\H,0,2.26758682,-0.1350466,-1.06695669\H,0,
 2.36226367,0.68144704,0.50528534\H,0,2.23692303,1.62782266,-0.98200136

 Normal termination of Gaussian 16 at Wed Apr  9 03:58:45 2025.
