 Gaussian 16, Revision C.01,

 ----------------------------------------------------------------------
 #t hf aug-cc-pvdz symm=none int=(grid=ultrafine) guess=(read,tcheck) s
 table=(opt,rrhf)
 ----------------------------------------------------------------------
 -----
 title
 -----
 Symbolic Z-matrix:
 Charge =  0 Multiplicity = 1

 SCF Done:  E(RHF) =  -286.824956760     A.U. after   14 cycles
 Normal termination of Gaussian 16 at Wed Apr  9 19:19:09 2025.
 Gaussian 16:  ES64L-G16RevC.01  3-Jul-2019

 ----------------------------------------------------------------------
 #t hf aug-cc-pvdz iop(5/13=1,5/36=2,99/5=2) pseudo=read geom=check gue
 ss=(read,tcheck) scf=(maxcycle=1)
 ----------------------------------------------------------------------
 -----
 title
 -----
 Structure from the checkpoint file:  "Grambow2020_wb97xd3_008598_reverse_mol2.chk"
 Charge =  0 Multiplicity = 1

                         Standard orientation:
 ---------------------------------------------------------------------
 Center     Atomic      Atomic             Coordinates (Angstroms)
 Number     Number       Type             X           Y           Z
 ---------------------------------------------------------------------
      1          6           0        0.422336    1.584432    0.536456
      2          6           0        0.777303    0.703319   -0.617323
      3          6           0        1.434009   -0.615292   -0.421179
      4          6           0       -1.849262   -1.098273   -0.297577
      5          6           0       -1.524636    0.067679    0.248566
      6          6           0        1.318145   -1.425488    0.621197
      7          7           0       -0.608882    0.985476   -0.260518
      8          1           0        0.535743    2.659792    0.448555
      9          1           0        0.609330    1.176915    1.526303
     10          1           0        1.070651    1.200621   -1.535662
     11          1           0        2.063591   -0.925239   -1.249848
     12          1           0       -1.349890   -1.473724   -1.181170
     13          1           0       -2.636241   -1.699158    0.135900
     14          1           0       -2.041298    0.427581    1.134095
     15          1           0        1.847334   -2.369647    0.647934
     16          1           0        0.695579   -1.193732    1.476686
 ---------------------------------------------------------------------

 SCF Done:  E(RHF) =  -288.222584078     A.U. after    2 cycles

 The electronic state is 1-A.
 Alpha  occ. eigenvalues --  -15.73308 -11.48513 -11.42562 -11.41806 -11.40658
 Alpha  occ. eigenvalues --  -11.37802 -11.35740  -1.49976  -1.17773  -1.12894
 Alpha  occ. eigenvalues --   -0.95516  -0.91770  -0.81968  -0.73904  -0.70761
 Alpha  occ. eigenvalues --   -0.65753  -0.60327  -0.59916  -0.53176  -0.52212
 Alpha  occ. eigenvalues --   -0.49315  -0.47315  -0.43556  -0.42602  -0.33542
 Alpha  occ. eigenvalues --   -0.28186
 Alpha virt. eigenvalues --    0.03886   0.05244   0.05366   0.05513   0.05941
 Alpha virt. eigenvalues --    0.06091   0.06225   0.07619   0.08566   0.10656
 Alpha virt. eigenvalues --    0.11396   0.12029   0.12552   0.13331   0.14175

 Mulliken charges:
               1
     1  C   -2.268899
     2  C   -1.204792
     3  C   -1.027986
     4  C   -2.678155
     5  C    0.017853
     6  C   -3.441532
     7  N   -2.623214
     8  H    1.296286
     9  H    1.581882
    10  H    1.393693
    11  H    1.368173
    12  H    1.588129
    13  H    1.346001
    14  H    1.572826
    15  H    1.387849
    16  H    1.691885
 Sum of Mulliken charges =  -0.00000

 Dipole moment (field-independent basis, Debye):
    X=              0.9308    Y=              0.2500    Z=              0.5099  Tot=              1.0904

 Test job not archived.
 1\1\GINC-SE168\SP\RHF\Aug-CC-pVDZ\C6H9N1\OHZDE\09-Apr-2025\0\\#t hf au
 g-cc-pvdz iop(5/13=1,5/36=2,99/5=2) pseudo=read geom=check guess=(read
 ,tcheck) scf=(maxcycle=1)\\title\\0,1\C,0,1.59474538,0.73574359,-0.432
 45683\C,0,1.11279247,-0.1747651,0.65025413\C,0,-0.01839843,0.19757145,
 1.53921064\C,0,-1.29057593,-1.32588302,-1.12331952\C,0,-0.2376859,-0.5
 9055576,-1.46068253\C,0,-1.04910782,0.97774658,1.24705259\N,0,0.964519
 44,-0.50989663,-0.76188402\H,0,2.65657208,0.80882324,-0.64262416\H,0,1
 .028651,1.65218911,-0.57563336\H,0,1.86254319,-0.78863585,1.13784523\H

 Normal termination of Gaussian 16 at Wed Apr  9 19:19:15 2025.
