 Gaussian 16, Revision C.01,

 ----------------------------------------------------------------------
 #t hf aug-cc-pvdz symm=none int=(grid=ultrafine) guess=(read,tcheck) s
 table=(opt,rrhf)
 ----------------------------------------------------------------------
 -----
 title
 -----
 Symbolic Z-matrix:
 Charge =  0 Multiplicity = 1

 SCF Done:  E(RHF) =  -273.135878400     A.U. after   14 cycles
 Normal termination of Gaussian 16 at Wed Apr  9 18:56:24 2025.
 Gaussian 16:  ES64L-G16RevC.01  3-Jul-2019

 ----------------------------------------------------------------------
 #t hf aug-cc-pvdz iop(5/13=1,5/36=2,99/5=2) pseudo=read geom=check gue
 ss=(read,tcheck) scf=(maxcycle=1)
 ----------------------------------------------------------------------
 -----
 title
 -----
 Structure from the checkpoint file:  "Grambow2020_wb97xd3_007784_reverse_mol2.chk"
 Charge =  0 Multiplicity = 1

                         Standard orientation:
 ---------------------------------------------------------------------
 Center     Atomic      Atomic             Coordinates (Angstroms)
 Number     Number       Type             X           Y           Z
 ---------------------------------------------------------------------
      1          6           0       -1.732891   -0.857714   -0.932035
      2          6           0       -0.776866   -0.069158   -0.034099
      3          6           0       -0.590706   -0.806769    1.298229
      4          6           0       -1.382919    1.342135    0.233526
      5          6           0        0.415194    0.382384   -0.794158
      6          6           0        2.519253   -0.519955   -0.167991
      7          6           0        1.612095    0.721012    0.002346
      8          1           0       -1.914097   -0.316364   -1.860861
      9          1           0       -1.301579   -1.826837   -1.191926
     10          1           0       -2.688408   -1.037865   -0.430341
     11          1           0       -1.555373   -0.924973    1.797279
     12          1           0       -0.186952   -1.807813    1.132099
     13          1           0        0.072180   -0.281662    1.986619
     14          1           0       -1.425924    1.945927   -0.675023
     15          1           0       -2.403881    1.196670    0.591588
     16          1           0       -0.821653    1.886487    0.993821
     17          1           0        2.734331   -0.702509   -1.220267
     18          1           0        2.057242   -1.416493    0.247724
     19          1           0        3.457491   -0.351577    0.360346
     20          1           0        2.132859    1.573179   -0.439690
     21          1           0        1.464801    0.912221    1.073722
 ---------------------------------------------------------------------

 SCF Done:  E(RHF) =  -274.551701911     A.U. after    2 cycles

 The electronic state is 1-A.
 Alpha  occ. eigenvalues --  -11.43839 -11.40675 -11.40070 -11.39065 -11.38354
 Alpha  occ. eigenvalues --  -11.36917 -11.34775  -1.31815  -1.16624  -1.01521
 Alpha  occ. eigenvalues --   -1.00056  -0.94839  -0.84971  -0.70869  -0.64628
 Alpha  occ. eigenvalues --   -0.62032  -0.60327  -0.59563  -0.55059  -0.53672
 Alpha  occ. eigenvalues --   -0.52909  -0.51679  -0.49567  -0.48998  -0.45301
 Alpha  occ. eigenvalues --   -0.43791  -0.39604  -0.29319
 Alpha virt. eigenvalues --    0.03947   0.04882   0.05208   0.05380   0.05406
 Alpha virt. eigenvalues --    0.05744   0.06002   0.06281   0.07059   0.08187
 Alpha virt. eigenvalues --    0.08483   0.09053   0.09216   0.09415   0.10558

 Mulliken charges:
               1
     1  C   -4.742184
     2  C    3.942916
     3  C   -5.030967
     4  C   -4.601030
     5  C   -0.995795
     6  C   -3.698138
     7  C   -3.410383
     8  H    1.384905
     9  H    1.275812
    10  H    1.201413
    11  H    0.956543
    12  H    1.455666
    13  H    1.346845
    14  H    1.204149
    15  H    1.274554
    16  H    1.342016
    17  H    1.277282
    18  H    1.541492
    19  H    1.132758
    20  H    1.353218
    21  H    1.788928
 Sum of Mulliken charges =   0.00000

 Dipole moment (field-independent basis, Debye):
    X=              0.1014    Y=             -0.0442    Z=              1.9802  Tot=              1.9833

 Test job not archived.
 1\1\GINC-SE108\SP\RHF\Aug-CC-pVDZ\C7H14\OHZDE\09-Apr-2025\0\\#t hf aug
 -cc-pvdz iop(5/13=1,5/36=2,99/5=2) pseudo=read geom=check guess=(read,
 tcheck) scf=(maxcycle=1)\\title\\0,1\C,0,-1.085297,1.65436679,0.850727
 83\C,0,-0.62449835,0.29897494,0.30973616\C,0,-0.96112676,0.19572527,-1
 .18352995\C,0,-1.36151282,-0.83314734,1.08805422\C,0,0.74826392,-0.019
 97747,0.77490319\C,0,2.45632443,-0.15775537,-0.86732375\C,0,1.49403187
 ,-1.01938913,-0.01671845\H,0,-0.89890364,1.717938,1.9230288\H,0,-0.534
 236,2.46543907,0.3698261\H,0,-2.15133805,1.81346363,0.66255644\H,0,-2.

 Normal termination of Gaussian 16 at Wed Apr  9 18:56:33 2025.
