 Gaussian 16, Revision C.01,

 ----------------------------------------------------------------------
 #t hf aug-cc-pvdz symm=none int=(grid=ultrafine) guess=(read,tcheck) s
 table=(opt,rrhf)
 ----------------------------------------------------------------------
 -----
 title
 -----
 Symbolic Z-matrix:
 Charge =  0 Multiplicity = 1

 SCF Done:  E(RHF) =  -354.629415520     A.U. after   16 cycles
 Normal termination of Gaussian 16 at Wed Apr  9 18:36:15 2025.
 Gaussian 16:  ES64L-G16RevC.01  3-Jul-2019

 ----------------------------------------------------------------------
 #t hf aug-cc-pvdz iop(5/13=1,5/36=2,99/5=2) pseudo=read geom=check gue
 ss=(read,tcheck) scf=(maxcycle=1)
 ----------------------------------------------------------------------
 -----
 title
 -----
 Structure from the checkpoint file:  "Grambow2020_wb97xd3_007315_reverse_mol2.chk"
 Charge =  0 Multiplicity = 1

                         Standard orientation:
 ---------------------------------------------------------------------
 Center     Atomic      Atomic             Coordinates (Angstroms)
 Number     Number       Type             X           Y           Z
 ---------------------------------------------------------------------
      1          8           0       -1.902281    0.222792    0.688372
      2          6           0       -1.673380   -0.673252   -0.359464
      3          6           0       -0.291732   -1.200491   -0.433336
      4          7           0        0.804087   -1.194961   -0.032533
      5          7           0        2.028897   -1.091275    0.216831
      6          6           0        1.200088    1.776586   -0.125277
      7          7           0        0.181789    2.297720   -0.156410
      8          1           0       -1.427712    1.043846    0.506192
      9          1           0       -1.898591   -0.238401   -1.339863
     10          1           0       -2.349706   -1.517687   -0.221380
     11          1           0        2.274016   -1.764842    0.938512
     12          1           0        2.106963    1.197304   -0.077188
 ---------------------------------------------------------------------

 SCF Done:  E(RHF) =  -356.223725861     A.U. after    2 cycles

 The electronic state is 1-A.
 Alpha  occ. eigenvalues --  -21.08464 -15.89160 -15.78351 -15.75748 -11.49484
 Alpha  occ. eigenvalues --  -11.46841 -11.45080  -1.73746  -1.55241  -1.32588
 Alpha  occ. eigenvalues --   -1.20615  -1.04244  -0.82637  -0.75703  -0.70653
 Alpha  occ. eigenvalues --   -0.66975  -0.62124  -0.60393  -0.57817  -0.54623
 Alpha  occ. eigenvalues --   -0.48525  -0.47888  -0.44178  -0.39104  -0.35717
 Alpha  occ. eigenvalues --   -0.30241
 Alpha virt. eigenvalues --    0.03364   0.05234   0.05583   0.06022   0.07936
 Alpha virt. eigenvalues --    0.08102   0.10166   0.10885   0.11564   0.11823
 Alpha virt. eigenvalues --    0.12131   0.13524   0.13998   0.14335   0.15975

 Mulliken charges:
               1
     1  O   -2.734926
     2  C   -1.018608
     3  C    2.082431
     4  N   -0.524062
     5  N   -1.857014
     6  C    0.662195
     7  N   -2.357059
     8  H    1.027918
     9  H    1.315860
    10  H    1.141747
    11  H    0.641415
    12  H    1.620102
 Sum of Mulliken charges =   0.00000

 Dipole moment (field-independent basis, Debye):
    X=              0.0779    Y=             -1.2797    Z=              0.3881  Tot=              1.3395

 Test job not archived.
 1\1\GINC-SE028\SP\RHF\Aug-CC-pVDZ\C3H5N3O1\OHZDE\09-Apr-2025\0\\#t hf
 aug-cc-pvdz iop(5/13=1,5/36=2,99/5=2) pseudo=read geom=check guess=(re
 ad,tcheck) scf=(maxcycle=1)\\title\\0,1\O,0,-1.75051458,0.04904048,-1.
 12437167\C,0,-1.67912485,0.33631539,0.24150783\C,0,-0.35579661,0.81041
 29,0.706722\N,0,0.76472065,1.03697236,0.47304427\N,0,2.00965237,1.1090
 924,0.33874637\C,0,1.39643067,-1.59534345,-0.81821998\N,0,0.42537159,-
 2.10205576,-1.1495356\H,0,-1.22543906,-0.74102868,-1.304985\H,0,-1.943
 64876,-0.52484099,0.86555497\H,0,-2.41002886,1.11856591,0.44987798\H,0

 Normal termination of Gaussian 16 at Wed Apr  9 18:36:19 2025.
