 Gaussian 16, Revision C.01,

 ----------------------------------------------------------------------
 #t hf aug-cc-pvdz symm=none int=(grid=ultrafine) guess=(read,tcheck) s
 table=(opt,rrhf)
 ----------------------------------------------------------------------
 -----
 title
 -----
 Symbolic Z-matrix:
 Charge =  0 Multiplicity = 1

 SCF Done:  E(RHF) =  -306.909867219     A.U. after   15 cycles

 1\1\GINC-SE112\Stability\RHF\Aug-CC-pVDZ\C4H10O2\OHZDE\09-Apr-2025\0\\
 #t hf aug-cc-pvdz symm=none int=(grid=ultrafine) guess=(read,tcheck) s
 table=(opt,rrhf)\\title\\0,1\C,0,-1.50443312,-0.93251982,0.48847615\C,
 0,-0.70243623,0.02894264,-0.38161837\C,0,0.29817375,-0.52390849,-1.215
 6081\O,0,2.21056375,0.06083958,-0.68944677\C,0,0.14185861,1.22465035,0
 .88636271\O,0,1.03127745,1.95956362,0.31672226\H,0,-2.25997654,-1.4733
 3394,-0.10172287\H,0,-0.84904503,-1.68485793,0.95188308\H,0,-2.0332434
 5,-0.40483478,1.29534316\H,0,-1.29790127,0.79712907,-0.88301633\H,0,0.

 Normal termination of Gaussian 16 at Wed Apr  9 17:20:29 2025.
 Gaussian 16:  ES64L-G16RevC.01  3-Jul-2019

 ----------------------------------------------------------------------
 #t hf aug-cc-pvdz iop(5/13=1,5/36=2,99/5=2) pseudo=read geom=check gue
 ss=(read,tcheck) scf=(maxcycle=1)
 ----------------------------------------------------------------------
 -----
 title
 -----
 Structure from the checkpoint file:  "Grambow2020_b97d3_007103_reverse_mol1.chk"
 Charge =  0 Multiplicity = 1

                         Standard orientation:
 ---------------------------------------------------------------------
 Center     Atomic      Atomic             Coordinates (Angstroms)
 Number     Number       Type             X           Y           Z
 ---------------------------------------------------------------------
      1          6           0       -2.187534    0.023058    0.363868
      2          6           0       -0.928539   -0.072413   -0.490820
      3          6           0       -0.208840   -1.290414   -0.460645
      4          8           0        1.673516   -1.102839    0.374555
      5          6           0        0.213614    1.336619    0.187740
      6          8           0        1.406069    1.242336   -0.286407
      7          1           0       -3.029072   -0.514570   -0.099199
      8          1           0       -2.023176   -0.417785    1.358321
      9          1           0       -2.502790    1.066743    0.506912
     10          1           0       -1.028359    0.338163   -1.499558
     11          1           0        0.307383   -1.650325   -1.346257
     12          1           0       -0.474378   -2.066115    0.259144
     13          1           0        1.437235   -1.067543    1.321498
     14          1           0       -0.411397    2.184356   -0.150109
     15          1           0        0.020034    1.080851    1.253644
     16          1           0        1.735632   -0.050846    0.089556
 ---------------------------------------------------------------------

 SCF Done:  E(RHF) =  -308.366238340     A.U. after    2 cycles

 The electronic state is 1-A.
 Alpha  occ. eigenvalues --  -21.06180 -20.98763 -11.50196 -11.44684 -11.41204
 Alpha  occ. eigenvalues --  -11.37244  -1.68613  -1.61627  -1.22431  -1.01286
 Alpha  occ. eigenvalues --   -0.91561  -0.82080  -0.68287  -0.66847  -0.59897
 Alpha  occ. eigenvalues --   -0.58629  -0.57571  -0.52621  -0.50943  -0.49583
 Alpha  occ. eigenvalues --   -0.46333  -0.43822  -0.35998  -0.25403  -0.24014
 Alpha virt. eigenvalues --    0.03294   0.04409   0.04810   0.05202   0.05432
 Alpha virt. eigenvalues --    0.05517   0.06757   0.07427   0.08246   0.09722
 Alpha virt. eigenvalues --    0.10082   0.12068   0.13687   0.14246   0.14395

 Mulliken charges:
               1
     1  C   -3.857913
     2  C   -1.740017
     3  C   -2.383694
     4  O   -1.976469
     5  C   -0.142539
     6  O   -2.963684
     7  H    1.227088
     8  H    1.285424
     9  H    1.263267
    10  H    1.500266
    11  H    1.266330
    12  H    1.353114
    13  H    0.803874
    14  H    1.273070
    15  H    1.353151
    16  H    1.738732
 Sum of Mulliken charges =  -0.00000

 Dipole moment (field-independent basis, Debye):
    X=             -1.4560    Y=             -2.1820    Z=              0.3454  Tot=              2.6458

 Test job not archived.
 1\1\GINC-SE112\SP\RHF\Aug-CC-pVDZ\C4H10O2\OHZDE\09-Apr-2025\0\\#t hf a
 ug-cc-pvdz iop(5/13=1,5/36=2,99/5=2) pseudo=read geom=check guess=(rea
 d,tcheck) scf=(maxcycle=1)\\title\\0,1\C,0,-1.50443312,-0.93251982,0.4
 8847615\C,0,-0.70243623,0.02894264,-0.38161837\C,0,0.29817375,-0.52390
 849,-1.2156081\O,0,2.21056375,0.06083958,-0.68944677\C,0,0.14185861,1.
 22465035,0.88636271\O,0,1.03127745,1.95956362,0.31672226\H,0,-2.259976
 54,-1.47333394,-0.10172287\H,0,-0.84904503,-1.68485793,0.95188308\H,0,
 -2.03324345,-0.40483478,1.29534316\H,0,-1.29790127,0.79712907,-0.88301

 Normal termination of Gaussian 16 at Wed Apr  9 17:20:34 2025.
