 Gaussian 16, Revision C.01,

 ----------------------------------------------------------------------
 #t hf aug-cc-pvdz symm=none int=(grid=ultrafine) guess=(read,tcheck) s
 table=(opt,rrhf)
 ----------------------------------------------------------------------
 -----
 title
 -----
 Symbolic Z-matrix:
 Charge =  0 Multiplicity = 1

 SCF Done:  E(RHF) =  -271.942953505     A.U. after   15 cycles
 Normal termination of Gaussian 16 at Wed Apr  9 03:39:45 2025.
 Gaussian 16:  ES64L-G16RevC.01  3-Jul-2019

 ----------------------------------------------------------------------
 #t hf aug-cc-pvdz iop(5/13=1,5/36=2,99/5=2) pseudo=read geom=check gue
 ss=(read,tcheck) scf=(maxcycle=1)
 ----------------------------------------------------------------------
 -----
 title
 -----
 Structure from the checkpoint file:  "Grambow2020_wb97xd3_007440_reverse_mol2.chk"
 Charge =  0 Multiplicity = 1

                         Standard orientation:
 ---------------------------------------------------------------------
 Center     Atomic      Atomic             Coordinates (Angstroms)
 Number     Number       Type             X           Y           Z
 ---------------------------------------------------------------------
      1          6           0       -3.071250    0.411596    0.180885
      2          6           0       -1.834797   -0.456866   -0.008740
      3          6           0       -0.581514    0.365966   -0.293538
      4          6           0        2.259455    1.265401    0.354436
      5          6           0        2.067796    0.059714   -0.348093
      6          6           0        1.406090   -1.005417    0.616832
      7          6           0        0.627747   -0.507798   -0.501353
      8          1           0       -3.956087   -0.192887    0.387864
      9          1           0       -3.274480    1.006299   -0.712990
     10          1           0       -2.937993    1.105594    1.014112
     11          1           0       -1.669990   -1.065308    0.886550
     12          1           0       -2.005429   -1.163602   -0.828342
     13          1           0       -0.737524    0.980266   -1.186257
     14          1           0       -0.382981    1.056963    0.527646
     15          1           0        3.280239    1.629878    0.135708
     16          1           0        2.789048   -0.379989   -1.035139
     17          1           0        1.893609   -1.969264    0.565243
     18          1           0        1.180791   -0.641073    1.609248
     19          1           0        0.579637   -1.162453   -1.366215
 ---------------------------------------------------------------------

 SCF Done:  E(RHF) =  -273.315618077     A.U. after    2 cycles

 The electronic state is 1-A.
 Alpha  occ. eigenvalues --  -11.45363 -11.44412 -11.41456 -11.39121 -11.38153
 Alpha  occ. eigenvalues --  -11.36864 -11.34889  -1.35766  -1.19176  -1.02665
 Alpha  occ. eigenvalues --   -0.97446  -0.86747  -0.82514  -0.74416  -0.70057
 Alpha  occ. eigenvalues --   -0.63205  -0.59273  -0.56725  -0.55333  -0.52115
 Alpha  occ. eigenvalues --   -0.50779  -0.47183  -0.45991  -0.45167  -0.40450
 Alpha  occ. eigenvalues --   -0.38109  -0.31485
 Alpha virt. eigenvalues --    0.04040   0.04969   0.04998   0.05402   0.05560
 Alpha virt. eigenvalues --    0.05671   0.06270   0.06738   0.07164   0.08028
 Alpha virt. eigenvalues --    0.08465   0.09691   0.09983   0.11939   0.13071

 Mulliken charges:
               1
     1  C   -4.107102
     2  C   -2.880795
     3  C   -3.978598
     4  C   -2.989252
     5  C    0.060871
     6  C   -2.494222
     7  C    0.239046
     8  H    1.061196
     9  H    1.262792
    10  H    1.321945
    11  H    1.439422
    12  H    1.458263
    13  H    1.423118
    14  H    1.709845
    15  H    1.213272
    16  H    1.125808
    17  H    1.215753
    18  H    1.505231
    19  H    1.413404
 Sum of Mulliken charges =  -0.00000

 Dipole moment (field-independent basis, Debye):
    X=              0.0308    Y=             -2.2898    Z=             -1.1005  Tot=              2.5407

 Test job not archived.
 1\1\GINC-SE340\SP\RHF\Aug-CC-pVDZ\C7H12\OHZDE\09-Apr-2025\0\\#t hf aug
 -cc-pvdz iop(5/13=1,5/36=2,99/5=2) pseudo=read geom=check guess=(read,
 tcheck) scf=(maxcycle=1)\\title\\0,1\C,0,2.68000198,0.01708699,-1.0902
 8904\C,0,1.30570371,-0.59737366,-0.86063341\C,0,0.54350466,0.08396812,
 0.2723752\C,0,-1.85469446,1.61329533,1.37226273\C,0,-1.93530428,0.2124
 4894,1.24941579\C,0,-1.96309284,-0.17480204,-0.28443609\C,0,-0.8036386
 1,-0.54948983,0.50236595\H,0,3.20823684,-0.4792856,-1.90623015\H,0,3.3
 0019,-0.06142885,-0.19408084\H,0,2.59770463,1.07723775,-1.34121525\H,0

 Normal termination of Gaussian 16 at Wed Apr  9 03:39:51 2025.
