 Gaussian 16, Revision C.01,

 ----------------------------------------------------------------------
 #t hf aug-cc-pvdz symm=none int=(grid=ultrafine) guess=(read,tcheck) s
 table=(opt,rrhf)
 ----------------------------------------------------------------------
 -----
 title
 -----
 Symbolic Z-matrix:
 Charge =  0 Multiplicity = 1

 SCF Done:  E(RHF) =  -322.623706627     A.U. after   15 cycles
 Normal termination of Gaussian 16 at Wed Apr  9 04:04:47 2025.
 Gaussian 16:  ES64L-G16RevC.01  3-Jul-2019

 ----------------------------------------------------------------------
 #t hf aug-cc-pvdz iop(5/13=1,5/36=2,99/5=2) pseudo=read geom=check gue
 ss=(read,tcheck) scf=(maxcycle=1)
 ----------------------------------------------------------------------
 -----
 title
 -----
 Structure from the checkpoint file:  "Grambow2020_wb97xd3_009165_reverse_mol2.chk"
 Charge =  0 Multiplicity = 1

                         Standard orientation:
 ---------------------------------------------------------------------
 Center     Atomic      Atomic             Coordinates (Angstroms)
 Number     Number       Type             X           Y           Z
 ---------------------------------------------------------------------
      1          6           0       -0.885121    1.666137    0.414209
      2          7           0       -0.137750    0.688070   -0.402879
      3          6           0        1.411385    0.937398   -0.285044
      4          6           0        1.818012   -0.292235    0.100234
      5          6           0        0.746053   -1.285530    0.246085
      6          6           0       -0.402723   -0.693921   -0.060624
      7          8           0       -1.702092   -1.064874   -0.134025
      8          1           0       -0.579999    1.531684    1.449816
      9          1           0       -1.956532    1.501370    0.308353
     10          1           0       -0.600094    2.661626    0.085109
     11          1           0       -0.338092    0.851289   -1.388571
     12          1           0        2.856801   -0.527979    0.287968
     13          1           0        0.857439   -2.318844    0.545244
     14          1           0       -1.784176   -1.987747    0.115262
 ---------------------------------------------------------------------

 SCF Done:  E(RHF) =  -324.121141227     A.U. after    2 cycles

 The electronic state is 1-A.
 Alpha  occ. eigenvalues --  -21.13283 -15.82211 -11.49177 -11.42130 -11.41386
 Alpha  occ. eigenvalues --  -11.35857 -11.32690  -1.79284  -1.50630  -1.19318
 Alpha  occ. eigenvalues --   -1.01167  -1.00246  -0.82567  -0.78092  -0.69478
 Alpha  occ. eigenvalues --   -0.66936  -0.60943  -0.59938  -0.58067  -0.51525
 Alpha  occ. eigenvalues --   -0.50326  -0.45891  -0.45574  -0.38767  -0.30391
 Alpha  occ. eigenvalues --   -0.25296
 Alpha virt. eigenvalues --    0.02961   0.04620   0.05224   0.06040   0.06397
 Alpha virt. eigenvalues --    0.06470   0.07159   0.10597   0.11408   0.11616
 Alpha virt. eigenvalues --    0.12244   0.12817   0.13584   0.14355   0.14436

 Mulliken charges:
               1
     1  C   -3.760799
     2  N   -1.259049
     3  C   -2.886361
     4  C    1.331372
     5  C   -1.698427
     6  C    3.529884
     7  O   -3.684454
     8  H    1.348049
     9  H    1.379555
    10  H    1.314491
    11  H    0.573515
    12  H    1.595020
    13  H    1.389722
    14  H    0.827483
 Sum of Mulliken charges =   0.00000

 Dipole moment (field-independent basis, Debye):
    X=             -4.8654    Y=             -2.3131    Z=              0.3223  Tot=              5.3969

 Test job not archived.
 1\1\GINC-SE049\SP\RHF\Aug-CC-pVDZ\C5H7N1O1\OHZDE\09-Apr-2025\0\\#t hf
 aug-cc-pvdz iop(5/13=1,5/36=2,99/5=2) pseudo=read geom=check guess=(re
 ad,tcheck) scf=(maxcycle=1)\\title\\0,1\C,0,-1.76925118,-0.06580045,0.
 24831701\N,0,-0.35799688,-0.38983269,0.5418724\C,0,0.09084352,-1.67429
 306,-0.24842681\C,0,1.17922237,-1.18909959,-0.88545287\C,0,1.48284886,
 0.22184552,-0.6133323\C,0,0.57025043,0.67893829,0.23636695\O,0,0.32101
 281,1.85261511,0.86224033\H,0,-1.84769723,0.12692654,-0.81955969\H,0,-
 2.07838468,0.81006939,0.81714411\H,0,-2.36955672,-0.93623036,0.4983770

 Normal termination of Gaussian 16 at Wed Apr  9 04:04:51 2025.
