 Gaussian 16, Revision C.01,

 ----------------------------------------------------------------------
 #t hf aug-cc-pvdz symm=none int=(grid=ultrafine) guess=(read,tcheck) s
 table=(opt,rrhf)
 ----------------------------------------------------------------------
 -----
 title
 -----
 Symbolic Z-matrix:
 Charge =  0 Multiplicity = 1

 SCF Done:  E(RHF) =  -343.529376906     A.U. after   15 cycles
 Normal termination of Gaussian 16 at Wed Apr  9 19:21:08 2025.
 Gaussian 16:  ES64L-G16RevC.01  3-Jul-2019

 ----------------------------------------------------------------------
 #t hf aug-cc-pvdz iop(5/13=1,5/36=2,99/5=2) pseudo=read geom=check gue
 ss=(read,tcheck) scf=(maxcycle=1)
 ----------------------------------------------------------------------
 -----
 title
 -----
 Structure from the checkpoint file:  "Grambow2020_wb97xd3_008655_reverse_mol1.chk"
 Charge =  0 Multiplicity = 1

                         Standard orientation:
 ---------------------------------------------------------------------
 Center     Atomic      Atomic             Coordinates (Angstroms)
 Number     Number       Type             X           Y           Z
 ---------------------------------------------------------------------
      1          6           0        2.322091    0.717544   -0.231501
      2          6           0        1.344989   -0.396543   -0.436562
      3          8           0        0.841223   -1.051109    0.746352
      4          6           0       -0.041516   -0.311913    0.008133
      5          6           0       -1.996195   -0.702452   -0.513327
      6          8           0       -2.010498    0.670297   -0.267509
      7          6           0       -0.882804    0.831629    0.557463
      8          1           0        2.382062    1.331463   -1.131973
      9          1           0        2.024820    1.350158    0.604987
     10          1           0        3.315903    0.317714   -0.024533
     11          1           0        1.565364   -1.092348   -1.242635
     12          1           0       -0.780084   -0.921328   -0.866699
     13          1           0       -2.062966   -1.234304    0.459421
     14          1           0       -1.111830    0.630861    1.612889
     15          1           0       -0.458454    1.834695    0.452566
 ---------------------------------------------------------------------

 SCF Done:  E(RHF) =  -345.090591686     A.U. after    2 cycles

 The electronic state is 1-A.
 Alpha  occ. eigenvalues --  -21.10130 -21.06513 -11.56825 -11.48370 -11.45881
 Alpha  occ. eigenvalues --  -11.41910 -11.40773  -1.84978  -1.78365  -1.14929
 Alpha  occ. eigenvalues --   -1.07768  -1.00225  -0.91544  -0.78997  -0.71125
 Alpha  occ. eigenvalues --   -0.66151  -0.64592  -0.60314  -0.57965  -0.56576
 Alpha  occ. eigenvalues --   -0.53854  -0.50618  -0.41632  -0.40252  -0.37036
 Alpha  occ. eigenvalues --   -0.32525  -0.27829
 Alpha virt. eigenvalues --    0.03300   0.04599   0.05153   0.05293   0.06105
 Alpha virt. eigenvalues --    0.06381   0.07235   0.08310   0.10131   0.10802
 Alpha virt. eigenvalues --    0.11639   0.12528   0.12949   0.13414   0.13734

 Mulliken charges:
               1
     1  C   -4.109126
     2  C   -0.446176
     3  O   -3.095894
     4  C    3.099064
     5  C   -1.733164
     6  O   -2.632140
     7  C   -1.549687
     8  H    1.261096
     9  H    1.300429
    10  H    1.159146
    11  H    1.416760
    12  H    1.868829
    13  H    1.159033
    14  H    1.039869
    15  H    1.261960
 Sum of Mulliken charges =   0.00000

 Dipole moment (field-independent basis, Debye):
    X=              3.6579    Y=              1.1085    Z=              1.4377  Tot=              4.0836

 Test job not archived.
 1\1\GINC-SE100\SP\RHF\Aug-CC-pVDZ\C5H8O2\OHZDE\09-Apr-2025\0\\#t hf au
 g-cc-pvdz iop(5/13=1,5/36=2,99/5=2) pseudo=read geom=check guess=(read
 ,tcheck) scf=(maxcycle=1)\\title\\0,1\C,0,2.00099877,-0.41262587,0.569
 88952\C,0,0.96577975,0.65886626,0.4350105\O,0,0.59924014,1.04970238,-0
 .90454831\C,0,-0.34593058,0.40896715,-0.15174235\C,0,-2.36515589,0.770
 68991,0.04086417\O,0,-2.29729175,-0.62211924,0.06425477\C,0,-1.0654911
 3,-0.86577121,-0.56946611\H,0,1.96372879,-0.84314593,1.57219052\H,0,1.
 83978386,-1.20691158,-0.15908503\H,0,2.99833701,0.00108783,0.41330039\

 Normal termination of Gaussian 16 at Wed Apr  9 19:21:13 2025.
