 Gaussian 16, Revision C.01,

 ----------------------------------------------------------------------
 #t hf aug-cc-pvdz symm=none int=(grid=ultrafine) guess=(read,tcheck) s
 table=(opt,rrhf)
 ----------------------------------------------------------------------
 -----
 title
 -----
 Symbolic Z-matrix:
 Charge =  0 Multiplicity = 1

 SCF Done:  E(RHF) =  -357.274649131     A.U. after   18 cycles
 Normal termination of Gaussian 16 at Wed Apr  9 03:58:54 2025.
 Gaussian 16:  ES64L-G16RevC.01  3-Jul-2019

 ----------------------------------------------------------------------
 #t hf aug-cc-pvdz iop(5/13=1,5/36=2,99/5=2) pseudo=read geom=check gue
 ss=(read,tcheck) scf=(maxcycle=1)
 ----------------------------------------------------------------------
 -----
 title
 -----
 Structure from the checkpoint file:  "Grambow2020_wb97xd3_008755_reverse_mol2.chk"
 Charge =  0 Multiplicity = 1

                         Standard orientation:
 ---------------------------------------------------------------------
 Center     Atomic      Atomic             Coordinates (Angstroms)
 Number     Number       Type             X           Y           Z
 ---------------------------------------------------------------------
      1          8           0       -2.429336   -0.044747   -0.000269
      2          6           0       -1.457213   -0.747703    0.000098
      3          6           0       -0.057586   -0.253632   -0.000960
      4          7           0        0.932072   -1.317552    0.001330
      5          8           0        2.075239   -0.974311   -0.000713
      6          6           0        0.625846    2.256937    0.000460
      7          6           0        0.270038    1.019172   -0.000686
      8          1           0       -1.527516   -1.852191    0.001594
      9          1           0        0.775930    2.791148   -0.930763
     10          1           0        0.773348    2.787735    0.934238
 ---------------------------------------------------------------------

 SCF Done:  E(RHF) =  -358.813377454     A.U. after    2 cycles

 The electronic state is 1-A.
 Alpha  occ. eigenvalues --  -21.13495 -21.07439 -15.88126 -11.50784 -11.49167
 Alpha  occ. eigenvalues --  -11.46960 -11.44055  -1.88234  -1.72393  -1.28030
 Alpha  occ. eigenvalues --   -1.14523  -0.95543  -0.90490  -0.72918  -0.68864
 Alpha  occ. eigenvalues --   -0.65856  -0.62729  -0.57793  -0.56832  -0.51274
 Alpha  occ. eigenvalues --   -0.48500  -0.41696  -0.35468  -0.33118  -0.27516
 Alpha virt. eigenvalues --    0.02801   0.05242   0.05262   0.05664   0.07800
 Alpha virt. eigenvalues --    0.08981   0.10738   0.10829   0.11875   0.12465
 Alpha virt. eigenvalues --    0.13168   0.13748   0.14936   0.16354   0.16650

 Mulliken charges:
               1
     1  O   -2.919313
     2  C    1.467408
     3  C    1.047605
     4  N    0.343153
     5  O   -2.419715
     6  C   -3.855874
     7  C    2.450631
     8  H    1.422067
     9  H    1.233078
    10  H    1.230960
 Sum of Mulliken charges =   0.00000

 Dipole moment (field-independent basis, Debye):
    X=              1.1262    Y=              2.4418    Z=             -0.0001  Tot=              2.6890

 Test job not archived.
 1\1\GINC-SE026\SP\RHF\Aug-CC-pVDZ\C4H3N1O2\OHZDE\09-Apr-2025\0\\#t hf
 aug-cc-pvdz iop(5/13=1,5/36=2,99/5=2) pseudo=read geom=check guess=(re
 ad,tcheck) scf=(maxcycle=1)\\title\\0,1\O,0,-2.10250477,1.05967232,-0.
 68823441\C,0,-1.53167238,0.0471653,-0.98513509\C,0,-0.2319494,-0.38789
 798,-0.41548318\N,0,0.23793092,-1.65591265,-0.94718419\O,0,1.28096874,
 -2.0515985,-0.52273728\C,0,1.12059552,0.93845766,1.36817543\C,0,0.4385
 7739,0.2951392,0.48519442\H,0,-1.93965132,-0.6642428,-1.72829664\H,0,1
 .86193705,1.67097698,1.06999335\H,0,0.95833524,0.76342147,2.42575659\\

 Normal termination of Gaussian 16 at Wed Apr  9 03:58:58 2025.
