 Gaussian 16, Revision C.01,

 ----------------------------------------------------------------------
 #t hf aug-cc-pvdz symm=none int=(grid=ultrafine) guess=(read,tcheck) s
 table=(opt,rrhf)
 ----------------------------------------------------------------------
 -----
 title
 -----
 Symbolic Z-matrix:
 Charge =  0 Multiplicity = 1

 SCF Done:  E(RHF) =  -322.696691437     A.U. after   15 cycles
 Normal termination of Gaussian 16 at Wed Apr  9 19:10:55 2025.
 Gaussian 16:  ES64L-G16RevC.01  3-Jul-2019

 ----------------------------------------------------------------------
 #t hf aug-cc-pvdz iop(5/13=1,5/36=2,99/5=2) pseudo=read geom=check gue
 ss=(read,tcheck) scf=(maxcycle=1)
 ----------------------------------------------------------------------
 -----
 title
 -----
 Structure from the checkpoint file:  "Grambow2020_wb97xd3_008245_forward_mol2.chk"
 Charge =  0 Multiplicity = 1

                         Standard orientation:
 ---------------------------------------------------------------------
 Center     Atomic      Atomic             Coordinates (Angstroms)
 Number     Number       Type             X           Y           Z
 ---------------------------------------------------------------------
      1          6           0        1.815284    0.917427   -0.295858
      2          6           0        0.618825    0.089556    0.027616
      3          7           0        0.749943   -1.132556    0.821421
      4          6           0        0.108153   -1.248706   -0.458701
      5          6           0       -1.357176   -0.832550   -0.346348
      6          6           0       -0.815970    0.544182    0.094031
      7          8           0       -1.327872    1.614737    0.225166
      8          1           0        1.624678    1.552403   -1.162139
      9          1           0        2.670627    0.274964   -0.503496
     10          1           0        2.068321    1.562625    0.547165
     11          1           0        0.100881   -1.187917    1.599015
     12          1           0        0.551674   -1.880553   -1.215374
     13          1           0       -1.969529   -1.404065    0.353153
     14          1           0       -1.887973   -0.726920   -1.294043
 ---------------------------------------------------------------------

 SCF Done:  E(RHF) =  -324.181522443     A.U. after    2 cycles

 The electronic state is 1-A.
 Alpha  occ. eigenvalues --  -21.06357 -15.75835 -11.53950 -11.49765 -11.45173
 Alpha  occ. eigenvalues --  -11.40897 -11.39207  -1.72038  -1.52516  -1.14208
 Alpha  occ. eigenvalues --   -1.10415  -0.92419  -0.89889  -0.73003  -0.66517
 Alpha  occ. eigenvalues --   -0.65233  -0.61624  -0.58374  -0.56117  -0.52737
 Alpha  occ. eigenvalues --   -0.49373  -0.46139  -0.42477  -0.41740  -0.35973
 Alpha  occ. eigenvalues --   -0.27582
 Alpha virt. eigenvalues --    0.03544   0.04965   0.05389   0.05532   0.05980
 Alpha virt. eigenvalues --    0.06937   0.07051   0.09474   0.10223   0.11898
 Alpha virt. eigenvalues --    0.12172   0.13331   0.13512   0.14193   0.14875

 Mulliken charges:
               1
     1  C   -4.531422
     2  C    1.557409
     3  N   -2.547123
     4  C    0.085943
     5  C   -3.691519
     6  C    4.730575
     7  O   -3.465036
     8  H    1.192904
     9  H    1.041076
    10  H    1.166005
    11  H    0.681766
    12  H    1.287044
    13  H    1.168473
    14  H    1.323906
 Sum of Mulliken charges =   0.00000

 Dipole moment (field-independent basis, Debye):
    X=              0.0893    Y=             -1.0156    Z=             -0.5206  Tot=              1.1447

 Test job not archived.
 1\1\GINC-SE028\SP\RHF\Aug-CC-pVDZ\C5H7N1O1\OHZDE\09-Apr-2025\0\\#t hf
 aug-cc-pvdz iop(5/13=1,5/36=2,99/5=2) pseudo=read geom=check guess=(re
 ad,tcheck) scf=(maxcycle=1)\\title\\0,1\C,0,-1.92446524,-0.0120517,0.0
 801123\C,0,-0.44582315,-0.19176906,0.02681782\N,0,0.23104836,-1.086746
 32,0.96582598\C,0,0.69800817,0.27045453,0.90216561\C,0,1.65307976,0.43
 78291,-0.27801369\C,0,0.45792909,0.0185448,-1.16008262\O,0,0.26366873,
 0.05691989,-2.33741831\H,0,-2.21949597,0.91959566,-0.40461306\H,0,-2.2
 635587,-0.000454,1.11566329\H,0,-2.42450606,-0.83417371,-0.43473718\H,

 Normal termination of Gaussian 16 at Wed Apr  9 19:11:00 2025.
