 Gaussian 16, Revision C.01,

 ----------------------------------------------------------------------
 #t hf aug-cc-pvdz symm=none int=(grid=ultrafine) guess=(read,tcheck) s
 table=(opt,rrhf)
 ----------------------------------------------------------------------
 -----
 title
 -----
 Symbolic Z-matrix:
 Charge =  0 Multiplicity = 1

 SCF Done:  E(RHF) =  -354.483200697     A.U. after   21 cycles
 Normal termination of Gaussian 16 at Wed Apr  9 18:36:16 2025.
 Gaussian 16:  ES64L-G16RevC.01  3-Jul-2019

 ----------------------------------------------------------------------
 #t hf aug-cc-pvdz iop(5/13=1,5/36=2,99/5=2) pseudo=read geom=check gue
 ss=(read,tcheck) scf=(maxcycle=1)
 ----------------------------------------------------------------------
 -----
 title
 -----
 Structure from the checkpoint file:  "Grambow2020_wb97xd3_007318_forward_mol1.chk"
 Charge =  0 Multiplicity = 1

                         Standard orientation:
 ---------------------------------------------------------------------
 Center     Atomic      Atomic             Coordinates (Angstroms)
 Number     Number       Type             X           Y           Z
 ---------------------------------------------------------------------
      1          8           0        2.128583   -0.936198   -0.313329
      2          6           0        1.845924    0.415359   -0.112641
      3          6           0        0.362922    0.607228    0.090702
      4          7           0       -0.407655   -0.387755    0.716068
      5          7           0       -1.566686   -0.727425    0.070730
      6          6           0       -2.452926    0.052584   -0.432204
      7          7           0       -0.433915    1.540265    0.056170
      8          1           0        1.649114   -1.437812    0.355475
      9          1           0        2.166983    0.972129   -0.992383
     10          1           0        2.361485    0.827096    0.763438
     11          1           0       -1.666474   -1.738190    0.138718
     12          1           0       -3.217498   -0.560259   -0.934540
 ---------------------------------------------------------------------

 SCF Done:  E(RHF) =  -356.045784206     A.U. after    2 cycles

 The electronic state is 1-A.
 Alpha  occ. eigenvalues --  -21.09980 -15.84318 -15.83081 -15.77434 -11.50991
 Alpha  occ. eigenvalues --  -11.45165 -11.38055  -1.75474  -1.57984  -1.37872
 Alpha  occ. eigenvalues --   -1.13400  -1.05626  -0.87946  -0.78624  -0.69652
 Alpha  occ. eigenvalues --   -0.67418  -0.62551  -0.60236  -0.59632  -0.56072
 Alpha  occ. eigenvalues --   -0.48044  -0.43981  -0.41828  -0.35363  -0.33270
 Alpha  occ. eigenvalues --   -0.30412
 Alpha virt. eigenvalues --    0.03198   0.04490   0.05472   0.05706   0.06605
 Alpha virt. eigenvalues --    0.07129   0.09578   0.10660   0.10935   0.12227
 Alpha virt. eigenvalues --    0.12404   0.13150   0.13319   0.14668   0.15550

 Mulliken charges:
               1
     1  O   -2.575209
     2  C   -0.327739
     3  C    3.660661
     4  N   -1.343548
     5  N   -1.141164
     6  C   -1.454782
     7  N   -2.375883
     8  H    0.812394
     9  H    1.298175
    10  H    1.221387
    11  H    0.808489
    12  H    1.417219
 Sum of Mulliken charges =   0.00000

 Dipole moment (field-independent basis, Debye):
    X=              2.4859    Y=             -2.1160    Z=             -0.3069  Tot=              3.2789

 Test job not archived.
 1\1\GINC-SE112\SP\RHF\Aug-CC-pVDZ\C3H5N3O1\OHZDE\09-Apr-2025\0\\#t hf
 aug-cc-pvdz iop(5/13=1,5/36=2,99/5=2) pseudo=read geom=check guess=(re
 ad,tcheck) scf=(maxcycle=1)\\title\\0,1\O,0,-1.80260676,0.9455045,-1.1
 2378312\C,0,-1.84860882,-0.16363565,-0.2784602\C,0,-0.46415905,-0.4808
 9141,0.23154528\N,0,0.47202649,0.54534314,0.44429357\N,0,1.71618075,0.
 32627746,-0.08417365\C,0,2.4311426,-0.73722848,-0.01661363\N,0,0.09961
 225,-1.43277445,0.76331705\H,0,-1.2644506,1.61925907,-0.69337848\H,0,-
 2.23215588,-1.01407021,-0.84119442\H,0,-2.49846512,-0.00337581,0.59035

 Normal termination of Gaussian 16 at Wed Apr  9 18:36:20 2025.
