 Gaussian 16, Revision C.01,

 ----------------------------------------------------------------------
 #t hf aug-cc-pvdz symm=none int=(grid=ultrafine) guess=(read,tcheck) s
 table=(opt,rrhf)
 ----------------------------------------------------------------------
 -----
 title
 -----
 Symbolic Z-matrix:
 Charge =  0 Multiplicity = 1

 SCF Done:  E(RHF) =  -308.974321641     A.U. after   15 cycles

 1\1\GINC-SE396\Stability\RHF\Aug-CC-pVDZ\C6H12O1\OHZDE\09-Apr-2025\0\\
 #t hf aug-cc-pvdz symm=none int=(grid=ultrafine) guess=(read,tcheck) s
 table=(opt,rrhf)\\title\\0,1\C,0,1.53407439,1.24667086,0.32530766\C,0,
 0.8945139,-0.16073129,0.1750509\C,0,1.90938384,-1.14240784,-0.39876249
 \C,0,-0.21318168,0.14477353,-0.74205779\C,0,-2.3769651,-0.76640853,-0.
 50387988\C,0,-1.50704429,0.43978051,-0.10781275\O,0,-1.61238137,0.5509
 7961,1.31484125\H,0,0.84883844,1.9877778,0.74184978\H,0,2.38378435,1.1
 5971949,1.00348505\H,0,1.89099058,1.61636544,-0.63629398\H,0,0.5685706

 Normal termination of Gaussian 16 at Wed Apr  9 03:52:27 2025.
 Gaussian 16:  ES64L-G16RevC.01  3-Jul-2019

 ----------------------------------------------------------------------
 #t hf aug-cc-pvdz iop(5/13=1,5/36=2,99/5=2) pseudo=read geom=check gue
 ss=(read,tcheck) scf=(maxcycle=1)
 ----------------------------------------------------------------------
 -----
 title
 -----
 Structure from the checkpoint file:  "Grambow2020_wb97xd3_008289_reverse_mol2.chk"
 Charge =  0 Multiplicity = 1

                         Standard orientation:
 ---------------------------------------------------------------------
 Center     Atomic      Atomic             Coordinates (Angstroms)
 Number     Number       Type             X           Y           Z
 ---------------------------------------------------------------------
      1          6           0       -1.693823    1.202428    0.377575
      2          6           0       -1.071260   -0.075770   -0.247741
      3          6           0       -2.115650   -1.182370   -0.334906
      4          6           0        0.000830   -0.352439    0.719465
      5          6           0        2.165651   -1.046051    0.085912
      6          6           0        1.321333    0.204541    0.388679
      7          8           0        1.484701    1.072013   -0.737469
      8          1           0       -0.986904    2.031030    0.454909
      9          1           0       -2.516150    1.524197   -0.262530
     10          1           0       -2.086433    0.996510    1.373665
     11          1           0       -0.707746    0.192859   -1.248252
     12          1           0       -2.947080   -0.882334   -0.978279
     13          1           0       -2.502577   -1.420800    0.657268
     14          1           0       -1.680905   -2.092184   -0.751712
     15          1           0        2.250511   -1.685711    0.960652
     16          1           0        3.152704   -0.710328   -0.230597
     17          1           0        1.724505   -1.616841   -0.733596
     18          1           0        1.739253    0.682724    1.284431
     19          1           0        1.040724    1.902739   -0.560111
 ---------------------------------------------------------------------

 SCF Done:  E(RHF) =  -310.467313131     A.U. after    2 cycles

 The electronic state is 1-A.
 Alpha  occ. eigenvalues --  -21.06652 -11.46831 -11.42043 -11.40718 -11.39093
 Alpha  occ. eigenvalues --  -11.38046 -11.35649  -1.71584  -1.27236  -1.13852
 Alpha  occ. eigenvalues --   -1.00818  -0.96120  -0.85934  -0.73556  -0.66496
 Alpha  occ. eigenvalues --   -0.65828  -0.60606  -0.56896  -0.54148  -0.53646
 Alpha  occ. eigenvalues --   -0.53331  -0.50531  -0.49209  -0.46021  -0.44433
 Alpha  occ. eigenvalues --   -0.41362  -0.32592  -0.29548
 Alpha virt. eigenvalues --    0.03936   0.04756   0.05178   0.05339   0.05763
 Alpha virt. eigenvalues --    0.05921   0.06277   0.06646   0.07034   0.08259
 Alpha virt. eigenvalues --    0.08589   0.09083   0.09952   0.12077   0.12661

 Mulliken charges:
               1
     1  C   -3.708120
     2  C   -1.545335
     3  C   -3.998812
     4  C   -0.426250
     5  C   -3.940042
     6  C    0.916406
     7  O   -3.318733
     8  H    1.380760
     9  H    1.273957
    10  H    1.310422
    11  H    1.933165
    12  H    1.120049
    13  H    1.354153
    14  H    1.305378
    15  H    1.274101
    16  H    1.166277
    17  H    1.336891
    18  H    1.751802
    19  H    0.813932
 Sum of Mulliken charges =  -0.00000

 Dipole moment (field-independent basis, Debye):
    X=              0.0382    Y=              1.1768    Z=             -1.0771  Tot=              1.5958

 Test job not archived.
 1\1\GINC-SE396\SP\RHF\Aug-CC-pVDZ\C6H12O1\OHZDE\09-Apr-2025\0\\#t hf a
 ug-cc-pvdz iop(5/13=1,5/36=2,99/5=2) pseudo=read geom=check guess=(rea
 d,tcheck) scf=(maxcycle=1)\\title\\0,1\C,0,1.53407439,1.24667086,0.325
 30766\C,0,0.8945139,-0.16073129,0.1750509\C,0,1.90938384,-1.14240784,-
 0.39876249\C,0,-0.21318168,0.14477353,-0.74205779\C,0,-2.3769651,-0.76
 640853,-0.50387988\C,0,-1.50704429,0.43978051,-0.10781275\O,0,-1.61238
 137,0.55097961,1.31484125\H,0,0.84883844,1.9877778,0.74184978\H,0,2.38
 378435,1.15971949,1.00348505\H,0,1.89099058,1.61636544,-0.63629398\H,0

 Normal termination of Gaussian 16 at Wed Apr  9 03:52:34 2025.
