 Gaussian 16, Revision C.01,

 ----------------------------------------------------------------------
 #t hf aug-cc-pvdz symm=none int=(grid=ultrafine) guess=(read,tcheck) s
 table=(opt,rrhf)
 ----------------------------------------------------------------------
 -----
 title
 -----
 Symbolic Z-matrix:
 Charge =  0 Multiplicity = 1

 SCF Done:  E(RHF) =  -343.582427991     A.U. after   15 cycles
 Normal termination of Gaussian 16 at Wed Apr  9 03:28:21 2025.
 Gaussian 16:  ES64L-G16RevC.01  3-Jul-2019

 ----------------------------------------------------------------------
 #t hf aug-cc-pvdz iop(5/13=1,5/36=2,99/5=2) pseudo=read geom=check gue
 ss=(read,tcheck) scf=(maxcycle=1)
 ----------------------------------------------------------------------
 -----
 title
 -----
 Structure from the checkpoint file:  "Grambow2020_wb97xd3_006723_reverse_mol2.chk"
 Charge =  0 Multiplicity = 1

                         Standard orientation:
 ---------------------------------------------------------------------
 Center     Atomic      Atomic             Coordinates (Angstroms)
 Number     Number       Type             X           Y           Z
 ---------------------------------------------------------------------
      1          8           0        2.528802    0.127601   -0.152991
      2          6           0        1.392070   -0.697566   -0.041436
      3          6           0        0.242918    0.041114    0.596546
      4          8           0       -0.189552    1.165293   -0.201840
      5          6           0       -1.555426    0.805165   -0.114070
      6          6           0       -1.801931   -1.120767   -0.569497
      7          6           0       -1.167359   -0.585637    0.587824
      8          1           0        2.293444    0.880068   -0.701599
      9          1           0        1.090507   -1.090640   -1.019069
     10          1           0        1.670368   -1.542502    0.592920
     11          1           0        0.532323    0.394091    1.591376
     12          1           0       -2.146264    1.408392    0.575959
     13          1           0       -1.106527   -1.067049   -1.424088
     14          1           0       -2.071191    0.783675   -1.084133
     15          1           0       -1.638295   -0.763045    1.551082
 ---------------------------------------------------------------------

 SCF Done:  E(RHF) =  -345.128083530     A.U. after    2 cycles

 The electronic state is 1-A.
 Alpha  occ. eigenvalues --  -21.07534 -21.06632 -11.49626 -11.47837 -11.45003
 Alpha  occ. eigenvalues --  -11.41923 -11.39479  -1.81457  -1.71288  -1.23466
 Alpha  occ. eigenvalues --   -1.09868  -0.94199  -0.88855  -0.78868  -0.71380
 Alpha  occ. eigenvalues --   -0.66930  -0.63410  -0.61097  -0.57466  -0.54127
 Alpha  occ. eigenvalues --   -0.50597  -0.48115  -0.40963  -0.38786  -0.34366
 Alpha  occ. eigenvalues --   -0.33166  -0.29820
 Alpha virt. eigenvalues --    0.03931   0.05001   0.05149   0.05310   0.05842
 Alpha virt. eigenvalues --    0.06315   0.06721   0.07963   0.10220   0.10321
 Alpha virt. eigenvalues --    0.11596   0.12721   0.13537   0.13960   0.14329

 Mulliken charges:
               1
     1  O   -2.689246
     2  C   -1.145238
     3  C    0.510802
     4  O   -3.022551
     5  C   -0.572879
     6  C   -2.376249
     7  C   -0.726570
     8  H    0.766400
     9  H    1.342392
    10  H    1.309380
    11  H    1.493425
    12  H    1.453541
    13  H    1.096307
    14  H    1.242041
    15  H    1.318445
 Sum of Mulliken charges =   0.00000

 Dipole moment (field-independent basis, Debye):
    X=              0.9797    Y=              1.5168    Z=              0.8390  Tot=              1.9911

 Test job not archived.
 1\1\GINC-SE462\SP\RHF\Aug-CC-pVDZ\C5H8O2\OHZDE\09-Apr-2025\0\\#t hf au
 g-cc-pvdz iop(5/13=1,5/36=2,99/5=2) pseudo=read geom=check guess=(read
 ,tcheck) scf=(maxcycle=1)\\title\\0,1\O,0,2.41471076,0.7742488,0.85101
 227\C,0,1.62136185,0.15768804,-0.13689305\C,0,0.35860765,-0.41375552,0
 .45650532\O,0,-0.48555335,0.61154848,1.02604247\C,0,-1.64733551,0.1274
 8559,0.37877538\C,0,-1.29812352,-0.15902102,-1.56373832\C,0,-0.7675742
 7,-0.90890366,-0.47533081\H,0,1.89933468,1.48472043,1.24112609\H,0,1.3
 7493668,0.85944547,-0.94189295\H,0,2.21495239,-0.65402897,-0.56413975\

 Normal termination of Gaussian 16 at Wed Apr  9 03:28:25 2025.
