 Gaussian 16, Revision C.01,

 ----------------------------------------------------------------------
 #t hf aug-cc-pvdz symm=none int=(grid=ultrafine) guess=(read,tcheck) s
 table=(opt,rrhf)
 ----------------------------------------------------------------------
 -----
 title
 -----
 Symbolic Z-matrix:
 Charge =  0 Multiplicity = 1

 SCF Done:  E(RHF) =  -224.669359648     A.U. after   20 cycles
 Normal termination of Gaussian 16 at Wed Apr  9 16:57:52 2025.
 Gaussian 16:  ES64L-G16RevC.01  3-Jul-2019

 ----------------------------------------------------------------------
 #t hf aug-cc-pvdz iop(5/13=1,5/36=2,99/5=2) pseudo=read geom=check gue
 ss=(read,tcheck) scf=(maxcycle=1)
 ----------------------------------------------------------------------
 -----
 title
 -----
 Structure from the checkpoint file:  "Grambow2020_b97d3_006887_reverse_mol1.chk"
 Charge =  0 Multiplicity = 1

                         Standard orientation:
 ---------------------------------------------------------------------
 Center     Atomic      Atomic             Coordinates (Angstroms)
 Number     Number       Type             X           Y           Z
 ---------------------------------------------------------------------
      1          7           0        1.456507   -0.749929    0.025323
      2          6           0        1.092604    0.498266   -0.025101
      3          6           0       -0.230952    0.984683    0.078279
      4          6           0       -1.416110    0.129984   -0.193856
      5          7           0       -1.183125   -1.050325    0.149788
      6          1           0        2.407670   -0.870550   -0.358765
      7          1           0        1.818669    1.316527   -0.195124
      8          1           0       -0.416485    1.914433    0.625960
      9          1           0       -2.396780    0.563774   -0.453777
 ---------------------------------------------------------------------

 SCF Done:  E(RHF) =  -225.673939010     A.U. after    2 cycles

 The electronic state is 1-A.
 Alpha  occ. eigenvalues --  -15.81069 -15.73743 -11.47148 -11.45509 -11.41328
 Alpha  occ. eigenvalues --   -1.38725  -1.29498  -1.06279  -0.86591  -0.75506
 Alpha  occ. eigenvalues --   -0.69778  -0.61407  -0.55580  -0.52569  -0.47450
 Alpha  occ. eigenvalues --   -0.43479  -0.37235  -0.28242
 Alpha virt. eigenvalues --    0.02637   0.03981   0.04969   0.05712   0.06417
 Alpha virt. eigenvalues --    0.10380   0.11097   0.11215   0.12061   0.13174
 Alpha virt. eigenvalues --    0.14097   0.14758   0.15361   0.16014   0.17349

 Mulliken charges:
               1
     1  N   -2.752376
     2  C    0.208071
     3  C   -0.519175
     4  C   -0.001265
     5  N   -1.958761
     6  H    0.671402
     7  H    1.514875
     8  H    1.395454
     9  H    1.441776
 Sum of Mulliken charges =   0.00000

 Dipole moment (field-independent basis, Debye):
    X=             -0.4758    Y=              2.5375    Z=             -0.7773  Tot=              2.6962

 Test job not archived.
 1\1\GINC-SE454\SP\RHF\Aug-CC-pVDZ\C3H4N2\OHZDE\09-Apr-2025\0\\#t hf au
 g-cc-pvdz iop(5/13=1,5/36=2,99/5=2) pseudo=read geom=check guess=(read
 ,tcheck) scf=(maxcycle=1)\\title\\0,1\N,0,-1.58544419,-0.58717172,-0.1
 6816684\C,0,-0.86079828,0.47821104,0.01296005\C,0,0.55027519,0.5454782
 2,-0.04565691\C,0,1.41168397,-0.65342679,0.12687977\N,0,0.84027505,-1.
 66419798,-0.33931294\H,0,-2.53827517,-0.4507894,0.20639493\H,0,-1.3080
 5084,1.45684062,0.27349558\H,0,1.02441965,1.42562432,-0.49213597\H,0,2
 .47041162,-0.5688823,0.42586834\\Version=ES64L-G16RevC.01\State=1-A\HF

 Normal termination of Gaussian 16 at Wed Apr  9 16:57:55 2025.
