 Gaussian 16, Revision C.01,

 ----------------------------------------------------------------------
 #t hf aug-cc-pvdz symm=none int=(grid=ultrafine) guess=(read,tcheck) s
 table=(opt,rrhf)
 ----------------------------------------------------------------------
 -----
 title
 -----
 Symbolic Z-matrix:
 Charge =  0 Multiplicity = 1

 SCF Done:  E(RHF) =  -269.806315802     A.U. after   14 cycles

 1\1\GINC-SE045\Stability\RHF\Aug-CC-pVDZ\C5H10O1\OHZDE\09-Apr-2025\0\\
 #t hf aug-cc-pvdz symm=none int=(grid=ultrafine) guess=(read,tcheck) s
 table=(opt,rrhf)\\title\\0,1\C,0,2.31388811,0.11812062,0.31735856\O,0,
 1.23403981,-0.8028627,0.36250451\C,0,0.07725982,-0.31777431,-0.0378929
 6\C,0,-0.55202337,0.9690766,0.0432802\C,0,-1.93263299,0.34375272,0.181
 81381\C,0,-1.23475834,-1.04612304,0.08762136\H,0,2.09058476,1.00224684
 ,0.91856702\H,0,2.48933834,0.40197233,-0.72600759\H,0,3.18261367,-0.39
 768409,0.71661609\H,0,0.42742336,-0.42237743,-1.737978\H,0,-0.14670354

 Normal termination of Gaussian 16 at Wed Apr  9 17:50:42 2025.
 Gaussian 16:  ES64L-G16RevC.01  3-Jul-2019

 ----------------------------------------------------------------------
 #t hf aug-cc-pvdz iop(5/13=1,5/36=2,99/5=2) pseudo=read geom=check gue
 ss=(read,tcheck) scf=(maxcycle=1)
 ----------------------------------------------------------------------
 -----
 title
 -----
 Structure from the checkpoint file:  "Grambow2020_wb97xd3_006203_reverse_mol1.chk"
 Charge =  0 Multiplicity = 1

                         Standard orientation:
 ---------------------------------------------------------------------
 Center     Atomic      Atomic             Coordinates (Angstroms)
 Number     Number       Type             X           Y           Z
 ---------------------------------------------------------------------
      1          6           0       -2.272087    0.292440   -0.093311
      2          8           0       -1.223385   -0.661508   -0.174106
      3          6           0       -0.034009   -0.204271    0.157691
      4          6           0        0.627761    1.061188    0.018959
      5          6           0        1.980615    0.391856   -0.176197
      6          6           0        1.248016   -0.974241   -0.018931
      7          1           0       -2.053864    1.157996   -0.722744
      8          1           0       -2.385813    0.600943    0.951610
      9          1           0       -3.174747   -0.204197   -0.437842
     10          1           0       -0.300104   -0.266400    1.875008
     11          1           0        0.241214    2.047544   -0.188367
     12          1           0        0.246056    0.607300    1.280355
     13          1           0        2.728202    0.591549    0.594890
     14          1           0        2.448728    0.525144   -1.153664
     15          1           0        1.198066   -1.550944   -0.942471
     16          1           0        1.537573   -1.618690    0.806815
 ---------------------------------------------------------------------

 SCF Done:  E(RHF) =  -271.142742676     A.U. after    2 cycles

 The electronic state is 1-A.
 Alpha  occ. eigenvalues --  -21.10112 -11.57212 -11.46584 -11.42577 -11.40307
 Alpha  occ. eigenvalues --  -11.35969  -1.82688  -1.34514  -1.03409  -0.99012
 Alpha  occ. eigenvalues --   -0.91953  -0.74318  -0.71235  -0.69401  -0.63279
 Alpha  occ. eigenvalues --   -0.62072  -0.58311  -0.52519  -0.51637  -0.45854
 Alpha  occ. eigenvalues --   -0.44643  -0.42609  -0.34334  -0.26438
 Alpha virt. eigenvalues --    0.04026   0.05036   0.05110   0.05716   0.05941
 Alpha virt. eigenvalues --    0.06039   0.06940   0.07273   0.07834   0.09807
 Alpha virt. eigenvalues --    0.11628   0.12352   0.13007   0.13684   0.14350

 Mulliken charges:
               1
     1  C   -3.271081
     2  O   -3.679697
     3  C    3.566043
     4  C   -1.368031
     5  C   -3.059980
     6  C   -3.561070
     7  H    1.372004
     8  H    1.408733
     9  H    1.270767
    10  H   -0.627196
    11  H    1.275882
    12  H    1.687006
    13  H    1.188537
    14  H    1.290262
    15  H    1.242088
    16  H    1.265732
 Sum of Mulliken charges =   0.00000

 Dipole moment (field-independent basis, Debye):
    X=             -0.5217    Y=              0.1563    Z=             -2.5716  Tot=              2.6287

 Test job not archived.
 1\1\GINC-SE045\SP\RHF\Aug-CC-pVDZ\C5H10O1\OHZDE\09-Apr-2025\0\\#t hf a
 ug-cc-pvdz iop(5/13=1,5/36=2,99/5=2) pseudo=read geom=check guess=(rea
 d,tcheck) scf=(maxcycle=1)\\title\\0,1\C,0,2.31388811,0.11812062,0.317
 35856\O,0,1.23403981,-0.8028627,0.36250451\C,0,0.07725982,-0.31777431,
 -0.03789296\C,0,-0.55202337,0.9690766,0.0432802\C,0,-1.93263299,0.3437
 5272,0.18181381\C,0,-1.23475834,-1.04612304,0.08762136\H,0,2.09058476,
 1.00224684,0.91856702\H,0,2.48933834,0.40197233,-0.72600759\H,0,3.1826
 1367,-0.39768409,0.71661609\H,0,0.42742336,-0.42237743,-1.737978\H,0,-

 Normal termination of Gaussian 16 at Wed Apr  9 17:50:49 2025.
