 Gaussian 16, Revision C.01,

 ----------------------------------------------------------------------
 #t hf aug-cc-pvdz symm=none int=(grid=ultrafine) guess=(read,tcheck) s
 table=(opt,rrhf)
 ----------------------------------------------------------------------
 -----
 title
 -----
 Symbolic Z-matrix:
 Charge =  0 Multiplicity = 1

 SCF Done:  E(RHF) =  -268.700793061     A.U. after   16 cycles
 Normal termination of Gaussian 16 at Wed Apr  9 17:13:22 2025.
 Gaussian 16:  ES64L-G16RevC.01  3-Jul-2019

 ----------------------------------------------------------------------
 #t hf aug-cc-pvdz iop(5/13=1,5/36=2,99/5=2) pseudo=read geom=check gue
 ss=(read,tcheck) scf=(maxcycle=1)
 ----------------------------------------------------------------------
 -----
 title
 -----
 Structure from the checkpoint file:  "Grambow2020_b97d3_007070_forward_mol1.chk"
 Charge =  0 Multiplicity = 1

                         Standard orientation:
 ---------------------------------------------------------------------
 Center     Atomic      Atomic             Coordinates (Angstroms)
 Number     Number       Type             X           Y           Z
 ---------------------------------------------------------------------
      1          6           0        2.203408   -0.134118   -0.049234
      2          6           0        0.704750   -0.131677   -0.042645
      3          6           0       -0.154564   -1.174117    0.080435
      4          6           0       -1.552638   -0.650882    0.080021
      5          8           0       -1.391709    0.784422   -0.139035
      6          6           0       -0.085778    1.092400   -0.228676
      7          1           0        2.587968    0.310354   -0.978181
      8          1           0        2.606186   -1.149675    0.046484
      9          1           0        2.582365    0.475927    0.783851
     10          1           0        0.097263   -2.227245    0.177503
     11          1           0       -2.094309   -0.816701    1.026510
     12          1           0       -2.177629   -1.014150   -0.748701
     13          1           0        0.546662    2.053163    1.404603
     14          1           0        0.294099    2.083316    0.360799
 ---------------------------------------------------------------------

 SCF Done:  E(RHF) =  -269.976631114     A.U. after    2 cycles

 The electronic state is 1-A.
 Alpha  occ. eigenvalues --  -21.10035 -11.49002 -11.45219 -11.44492 -11.41118
 Alpha  occ. eigenvalues --  -11.38459  -1.81480  -1.24464  -1.09709  -1.00408
 Alpha  occ. eigenvalues --   -0.85606  -0.77711  -0.68671  -0.65774  -0.59324
 Alpha  occ. eigenvalues --   -0.58650  -0.56899  -0.50950  -0.48883  -0.44524
 Alpha  occ. eigenvalues --   -0.40410  -0.35566  -0.27671
 Alpha virt. eigenvalues --    0.02964   0.04599   0.04916   0.05261   0.06177
 Alpha virt. eigenvalues --    0.06876   0.07563   0.07790   0.09829   0.10212
 Alpha virt. eigenvalues --    0.11579   0.12126   0.12744   0.13282   0.13815

 Mulliken charges:
               1
     1  C   -4.288671
     2  C    4.044095
     3  C   -3.047643
     4  C   -1.993072
     5  O   -3.075668
     6  C   -0.171072
     7  H    1.210280
     8  H    1.216097
     9  H    1.232401
    10  H    1.435250
    11  H    1.371508
    12  H    1.297069
    13  H    0.011082
    14  H    0.758343
 Sum of Mulliken charges =  -0.00000

 Dipole moment (field-independent basis, Debye):
    X=             -1.0705    Y=             -3.5088    Z=             -1.2963  Tot=              3.8908

 Test job not archived.
 1\1\GINC-SE232\SP\RHF\Aug-CC-pVDZ\C5H8O1\OHZDE\09-Apr-2025\0\\#t hf au
 g-cc-pvdz iop(5/13=1,5/36=2,99/5=2) pseudo=read geom=check guess=(read
 ,tcheck) scf=(maxcycle=1)\\title\\0,1\C,0,-1.80536709,0.25678368,-0.59
 669424\C,0,-0.35528861,0.06584257,-0.26983329\C,0,0.66688752,0.9539864
 8,-0.35111902\C,0,1.91659878,0.29875908,0.13599937\O,0,1.50665241,-1.0
 7404881,0.42117538\C,0,0.19358555,-1.22305597,0.17219003\H,0,-2.128737
 37,-0.46354579,-1.36150929\H,0,-2.00691418,1.27080747,-0.96259315\H,0,
 -2.41783866,0.07642073,0.29892989\H,0,0.61884774,1.98349412,-0.6971310

 Normal termination of Gaussian 16 at Wed Apr  9 17:13:26 2025.
