 Gaussian 16, Revision C.01,

 ----------------------------------------------------------------------
 #t hf aug-cc-pvdz symm=none int=(grid=ultrafine) guess=(read,tcheck) s
 table=(opt,rrhf)
 ----------------------------------------------------------------------
 -----
 title
 -----
 Symbolic Z-matrix:
 Charge =  0 Multiplicity = 1

 SCF Done:  E(RHF) =  -337.581747437     A.U. after   15 cycles
 Normal termination of Gaussian 16 at Wed Apr  9 04:04:28 2025.
 Gaussian 16:  ES64L-G16RevC.01  3-Jul-2019

 ----------------------------------------------------------------------
 #t hf aug-cc-pvdz iop(5/13=1,5/36=2,99/5=2) pseudo=read geom=check gue
 ss=(read,tcheck) scf=(maxcycle=1)
 ----------------------------------------------------------------------
 -----
 title
 -----
 Structure from the checkpoint file:  "Grambow2020_wb97xd3_009183_reverse_mol2.chk"
 Charge =  0 Multiplicity = 1

                         Standard orientation:
 ---------------------------------------------------------------------
 Center     Atomic      Atomic             Coordinates (Angstroms)
 Number     Number       Type             X           Y           Z
 ---------------------------------------------------------------------
      1          8           0        2.180129   -0.033321   -0.303422
      2          6           0        1.029732   -0.042261    0.029819
      3          6           0        0.241591    1.215013    0.312833
      4          6           0       -1.178633    1.054854   -0.123338
      5          7           0       -1.744738   -0.074811   -0.262030
      6          6           0       -0.947984   -1.192364    0.068162
      7          7           0        0.316882   -1.247002    0.202582
      8          1           0        0.722552    2.076179   -0.149205
      9          1           0       -1.766033    1.947340   -0.335710
     10          1           0        0.249576    1.390915    1.397311
     11          1           0       -1.520369   -2.106629    0.206268
 ---------------------------------------------------------------------

 SCF Done:  E(RHF) =  -339.066241860     A.U. after    2 cycles

 The electronic state is 1-A.
 Alpha  occ. eigenvalues --  -21.05994 -15.76943 -15.75029 -11.51581 -11.49526
 Alpha  occ. eigenvalues --  -11.47200 -11.42535  -1.73296  -1.50615  -1.31962
 Alpha  occ. eigenvalues --   -1.17213  -0.96105  -0.88744  -0.71952  -0.68707
 Alpha  occ. eigenvalues --   -0.67579  -0.65490  -0.59735  -0.53907  -0.52028
 Alpha  occ. eigenvalues --   -0.48211  -0.44273  -0.37619  -0.35690  -0.29507
 Alpha virt. eigenvalues --    0.02551   0.04716   0.05392   0.05840   0.05952
 Alpha virt. eigenvalues --    0.09097   0.09928   0.10571   0.10933   0.11772
 Alpha virt. eigenvalues --    0.12539   0.12983   0.13977   0.14288   0.15148

 Mulliken charges:
               1
     1  O   -3.236492
     2  C    4.918045
     3  C   -3.381584
     4  C    0.546949
     5  N   -3.089690
     6  C    1.122904
     7  N   -2.854745
     8  H    1.331378
     9  H    1.597592
    10  H    1.339454
    11  H    1.706189
 Sum of Mulliken charges =  -0.00000

 Dipole moment (field-independent basis, Debye):
    X=             -1.5653    Y=              2.3285    Z=              0.6301  Tot=              2.8757

 Test job not archived.
 1\1\GINC-SE398\SP\RHF\Aug-CC-pVDZ\C4H4N2O1\OHZDE\09-Apr-2025\0\\#t hf
 aug-cc-pvdz iop(5/13=1,5/36=2,99/5=2) pseudo=read geom=check guess=(re
 ad,tcheck) scf=(maxcycle=1)\\title\\0,1\O,0,2.27086608,-0.94365606,-0.
 05020042\C,0,1.12749977,-0.63043718,0.1205384\C,0,0.67408059,0.8048970
 1,0.24792198\C,0,-0.67170237,0.98860291,-0.37501559\N,0,-1.49657178,0.
 03767807,-0.55161544\C,0,-1.07401313,-1.22237688,-0.07572282\N,0,0.103
 60052,-1.59379214,0.23446712\H,0,1.42079002,1.47723321,-0.17255224\H,0
 ,-0.96881881,1.9857986,-0.69749664\H,0,0.59360129,1.04818624,1.3163002

 Normal termination of Gaussian 16 at Wed Apr  9 04:04:32 2025.
