 Gaussian 16, Revision C.01,

 ----------------------------------------------------------------------
 #t hf aug-cc-pvdz symm=none int=(grid=ultrafine) guess=(read,tcheck) s
 table=(opt,rrhf)
 ----------------------------------------------------------------------
 -----
 title
 -----
 Symbolic Z-matrix:
 Charge =  0 Multiplicity = 1

 SCF Done:  E(RHF) =  -289.048925133     A.U. after   15 cycles

 1\1\GINC-SE116\Stability\RHF\Aug-CC-pVDZ\C6H13N1\OHZDE\09-Apr-2025\0\\
 #t hf aug-cc-pvdz symm=none int=(grid=ultrafine) guess=(read,tcheck) s
 table=(opt,rrhf)\\title\\0,1\C,0,-1.29993105,1.74912399,0.54711996\C,0
 ,-0.75262992,0.33988134,0.52396809\N,0,-1.18709919,-0.43030684,-0.5722
 0941\C,0,-1.05662568,-1.79316199,-0.3849982\C,0,0.70398334,0.1872359,0
 .09844147\C,0,1.37049533,-1.00819047,0.53749071\C,0,1.24549444,0.86743
 267,-1.13717662\H,0,-2.35446743,1.72058787,0.82511139\H,0,-0.76435712,
 2.37175364,1.26792947\H,0,-1.235524,2.20622253,-0.44035105\H,0,-0.8871

 Normal termination of Gaussian 16 at Wed Apr  9 19:31:46 2025.
 Gaussian 16:  ES64L-G16RevC.01  3-Jul-2019

 ----------------------------------------------------------------------
 #t hf aug-cc-pvdz iop(5/13=1,5/36=2,99/5=2) pseudo=read geom=check gue
 ss=(read,tcheck) scf=(maxcycle=1)
 ----------------------------------------------------------------------
 -----
 title
 -----
 Structure from the checkpoint file:  "Grambow2020_wb97xd3_009130_forward_mol1.chk"
 Charge =  0 Multiplicity = 1

                         Standard orientation:
 ---------------------------------------------------------------------
 Center     Atomic      Atomic             Coordinates (Angstroms)
 Number     Number       Type             X           Y           Z
 ---------------------------------------------------------------------
      1          6           0       -2.179688   -0.190596    0.305612
      2          6           0       -0.693816   -0.436676    0.438533
      3          7           0       -0.111473   -1.070168   -0.676422
      4          6           0        1.102245   -1.673050   -0.406484
      5          6           0        0.210974    0.778691    0.264362
      6          6           0        1.515040    0.688771    0.862169
      7          6           0        0.046182    1.731154   -0.896806
      8          1           0       -2.711427   -1.137583    0.408612
      9          1           0       -2.538838    0.498222    1.074126
     10          1           0       -2.419344    0.212309   -0.678471
     11          1           0       -0.477833   -0.906752    1.416315
     12          1           0        1.520906   -2.166152   -1.284610
     13          1           0        1.885755   -0.857223   -0.087656
     14          1           0        1.123776   -2.354380    0.461993
     15          1           0        0.399744    1.426554    1.301407
     16          1           0        1.651619    0.127007    1.777871
     17          1           0        2.321126    1.329593    0.525328
     18          1           0       -0.969925    1.706551   -1.283344
     19          1           0        0.719560    1.468604   -1.713164
     20          1           0        0.269572    2.754661   -0.587772
 ---------------------------------------------------------------------

 SCF Done:  E(RHF) =  -290.539999457     A.U. after    2 cycles

 The electronic state is 1-A.
 Alpha  occ. eigenvalues --  -15.64498 -11.50221 -11.45989 -11.42501 -11.39194
 Alpha  occ. eigenvalues --  -11.36358 -11.36029  -1.41427  -1.22043  -1.10036
 Alpha  occ. eigenvalues --   -1.03603  -0.94231  -0.83062  -0.77382  -0.68671
 Alpha  occ. eigenvalues --   -0.65685  -0.63313  -0.58500  -0.56801  -0.55274
 Alpha  occ. eigenvalues --   -0.53607  -0.52837  -0.48311  -0.46846  -0.44699
 Alpha  occ. eigenvalues --   -0.41478  -0.32029  -0.23242
 Alpha virt. eigenvalues --    0.03575   0.04738   0.04845   0.05122   0.05394
 Alpha virt. eigenvalues --    0.05852   0.06101   0.06552   0.07107   0.08329
 Alpha virt. eigenvalues --    0.08762   0.08970   0.09751   0.10972   0.12987

 Mulliken charges:
               1
     1  C   -4.011331
     2  C   -0.941700
     3  N   -2.528280
     4  C   -3.431070
     5  C    0.572371
     6  C   -3.378075
     7  C   -4.361395
     8  H    1.073325
     9  H    1.224878
    10  H    1.346835
    11  H    1.755993
    12  H    1.245811
    13  H    1.947400
    14  H    1.182550
    15  H    1.512766
    16  H    1.401420
    17  H    1.587936
    18  H    1.442454
    19  H    1.255432
    20  H    1.102679
 Sum of Mulliken charges =  -0.00000

 Dipole moment (field-independent basis, Debye):
    X=              1.2003    Y=              2.3513    Z=              1.8704  Tot=              3.2354

 Test job not archived.
 1\1\GINC-SE116\SP\RHF\Aug-CC-pVDZ\C6H13N1\OHZDE\09-Apr-2025\0\\#t hf a
 ug-cc-pvdz iop(5/13=1,5/36=2,99/5=2) pseudo=read geom=check guess=(rea
 d,tcheck) scf=(maxcycle=1)\\title\\0,1\C,0,-1.29993105,1.74912399,0.54
 711996\C,0,-0.75262992,0.33988134,0.52396809\N,0,-1.18709919,-0.430306
 84,-0.57220941\C,0,-1.05662568,-1.79316199,-0.3849982\C,0,0.70398334,0
 .1872359,0.09844147\C,0,1.37049533,-1.00819047,0.53749071\C,0,1.245494
 44,0.86743267,-1.13717662\H,0,-2.35446743,1.72058787,0.82511139\H,0,-0
 .76435712,2.37175364,1.26792947\H,0,-1.235524,2.20622253,-0.44035105\H

 Normal termination of Gaussian 16 at Wed Apr  9 19:31:54 2025.
