 Gaussian 16, Revision C.01,

 ----------------------------------------------------------------------
 #t hf aug-cc-pvdz symm=none int=(grid=ultrafine) guess=(read,tcheck) s
 table=(opt,rrhf)
 ----------------------------------------------------------------------
 -----
 title
 -----
 Symbolic Z-matrix:
 Charge =  0 Multiplicity = 1

 SCF Done:  E(RHF) =  -343.759814524     A.U. after   14 cycles
 Normal termination of Gaussian 16 at Wed Apr  9 18:27:18 2025.
 Gaussian 16:  ES64L-G16RevC.01  3-Jul-2019

 ----------------------------------------------------------------------
 #t hf aug-cc-pvdz iop(5/13=1,5/36=2,99/5=2) pseudo=read geom=check gue
 ss=(read,tcheck) scf=(maxcycle=1)
 ----------------------------------------------------------------------
 -----
 title
 -----
 Structure from the checkpoint file:  "Grambow2020_wb97xd3_007157_reverse_mol2.chk"
 Charge =  0 Multiplicity = 1

                         Standard orientation:
 ---------------------------------------------------------------------
 Center     Atomic      Atomic             Coordinates (Angstroms)
 Number     Number       Type             X           Y           Z
 ---------------------------------------------------------------------
      1          8           0        0.259698   -0.678727    1.305901
      2          6           0        0.727419   -0.766296    0.030858
      3          6           0        0.223934   -1.590543   -0.883490
      4          6           0       -2.318780    0.902640   -0.616216
      5          8           0       -2.741079    0.275769    0.216085
      6          6           0        1.853904    0.192427   -0.198355
      7          6           0        1.421933    1.650824   -0.054344
      8          1           0       -0.480700   -1.280003    1.418643
      9          1           0        0.634586   -1.616517   -1.881897
     10          1           0       -0.600462   -2.258253   -0.659332
     11          1           0        0.647209    1.898495   -0.782707
     12          1           0        2.265103    0.013460   -1.192453
     13          1           0        2.643085   -0.030581    0.525964
     14          1           0        1.024106    1.842405    0.942623
     15          1           0        2.267663    2.320351   -0.217455
 ---------------------------------------------------------------------

 SCF Done:  E(RHF) =  -345.313957123     A.U. after    2 cycles

 The electronic state is 1-A.
 Alpha  occ. eigenvalues --  -21.17493 -21.09754 -11.50697 -11.46591 -11.40478
 Alpha  occ. eigenvalues --  -11.37113 -11.35427  -1.80474  -1.75696  -1.20304
 Alpha  occ. eigenvalues --   -1.06567  -0.91481  -0.77809  -0.72024  -0.65493
 Alpha  occ. eigenvalues --   -0.62990  -0.58565  -0.56821  -0.53158  -0.52720
 Alpha  occ. eigenvalues --   -0.52106  -0.50809  -0.48564  -0.45469  -0.43845
 Alpha  occ. eigenvalues --   -0.43034  -0.28523
 Alpha virt. eigenvalues --    0.03982   0.05347   0.05626   0.06140   0.06290
 Alpha virt. eigenvalues --    0.06901   0.07190   0.08066   0.08942   0.10722
 Alpha virt. eigenvalues --    0.12125   0.12394   0.13502   0.13733   0.14235

 Mulliken charges:
               1
     1  O   -4.062258
     2  C    4.995456
     3  C   -4.699614
     4  C    0.868143
     5  O   -0.889726
     6  C   -3.072934
     7  C   -3.928420
     8  H    1.041391
     9  H    1.455753
    10  H    1.572556
    11  H    1.444352
    12  H    1.420264
    13  H    1.316709
    14  H    1.396568
    15  H    1.141760
 Sum of Mulliken charges =  -0.00000

 Dipole moment (field-independent basis, Debye):
    X=             -0.5091    Y=             -0.6698    Z=              1.6451  Tot=              1.8477

 Test job not archived.
 1\1\GINC-SE362\SP\RHF\Aug-CC-pVDZ\C5H8O2\OHZDE\09-Apr-2025\0\\#t hf au
 g-cc-pvdz iop(5/13=1,5/36=2,99/5=2) pseudo=read geom=check guess=(read
 ,tcheck) scf=(maxcycle=1)\\title\\0,1\O,0,0.17425944,-0.65829242,-1.42
 298728\C,0,-0.10229894,-0.83470093,-0.10216835\C,0,0.641831,-1.5760814
 5,0.71363656\C,0,2.69627725,1.30012224,0.20423176\O,0,3.10056386,0.759
 40702,-0.69477249\C,0,-1.32762205,-0.07445867,0.29941741\C,0,-1.156870
 11,1.43625592,0.14826424\H,0,0.97997703,-1.12991433,-1.64842847\H,0,0.
 37501902,-1.67941028,1.75491465\H,0,1.52574939,-2.09837261,0.36490578\

 Normal termination of Gaussian 16 at Wed Apr  9 18:27:22 2025.
