 Gaussian 16, Revision C.01,

 ----------------------------------------------------------------------
 #t hf aug-cc-pvdz symm=none int=(grid=ultrafine) guess=(read,tcheck) s
 table=(opt,rrhf)
 ----------------------------------------------------------------------
 -----
 title
 -----
 Symbolic Z-matrix:
 Charge =  0 Multiplicity = 1

 SCF Done:  E(RHF) =  -299.544874972     A.U. after   16 cycles
 Normal termination of Gaussian 16 at Wed Apr  9 03:07:40 2025.
 Gaussian 16:  ES64L-G16RevC.01  3-Jul-2019

 ----------------------------------------------------------------------
 #t hf aug-cc-pvdz iop(5/13=1,5/36=2,99/5=2) pseudo=read geom=check gue
 ss=(read,tcheck) scf=(maxcycle=1)
 ----------------------------------------------------------------------
 -----
 title
 -----
 Structure from the checkpoint file:  "Grambow2020_b97d3_006598_forward_mol1.chk"
 Charge =  0 Multiplicity = 1

                         Standard orientation:
 ---------------------------------------------------------------------
 Center     Atomic      Atomic             Coordinates (Angstroms)
 Number     Number       Type             X           Y           Z
 ---------------------------------------------------------------------
      1          6           0       -2.179743   -0.272889   -0.000755
      2          6           0       -0.952319    0.523975    0.000631
      3          7           0       -0.149221    1.399248    0.000661
      4          6           0        1.701112    0.623323   -0.000013
      5          7           0        1.485390   -0.578757   -0.000550
      6          8           0        0.522919   -1.356056    0.000720
      7          1           0       -3.065626    0.377946   -0.015805
      8          1           0       -2.211749   -0.908424    0.892662
      9          1           0       -2.195870   -0.928994   -0.879416
     10          1           0        2.522409    1.318029   -0.003145
 ---------------------------------------------------------------------

 SCF Done:  E(RHF) =  -300.906001624     A.U. after    2 cycles

 The electronic state is 1-A.
 Alpha  occ. eigenvalues --  -21.04900 -15.85656 -15.77421 -11.48736 -11.47870
 Alpha  occ. eigenvalues --  -11.43146  -1.80206  -1.34155  -1.23358  -1.11802
 Alpha  occ. eigenvalues --   -0.81469  -0.71655  -0.67586  -0.62050  -0.60188
 Alpha  occ. eigenvalues --   -0.57365  -0.57170  -0.53507  -0.44449  -0.41536
 Alpha  occ. eigenvalues --   -0.28807  -0.27593
 Alpha virt. eigenvalues --    0.03014   0.04588   0.06162   0.06674   0.08611
 Alpha virt. eigenvalues --    0.10374   0.10702   0.11718   0.11881   0.13618
 Alpha virt. eigenvalues --    0.13986   0.14448   0.15351   0.15776   0.16668

 Mulliken charges:
               1
     1  C   -3.808673
     2  C    2.398544
     3  N   -2.438651
     4  C    0.500456
     5  N    0.373764
     6  O   -2.312205
     7  H    1.233934
     8  H    1.295253
     9  H    1.295618
    10  H    1.461960
 Sum of Mulliken charges =   0.00000

 Dipole moment (field-independent basis, Debye):
    X=             -2.0623    Y=             -0.5566    Z=             -0.0054  Tot=              2.1361

 Test job not archived.
 1\1\GINC-SE460\SP\RHF\Aug-CC-pVDZ\C3H4N2O1\OHZDE\09-Apr-2025\0\\#t hf
 aug-cc-pvdz iop(5/13=1,5/36=2,99/5=2) pseudo=read geom=check guess=(re
 ad,tcheck) scf=(maxcycle=1)\\title\\0,1\C,0,-1.74948475,0.07266152,0.0
 6178475\C,0,-0.37786681,0.33515654,0.4991891\N,0,0.59684798,0.69699579
 ,1.07370908\C,0,2.23295237,0.03706071,0.1179674\N,0,1.76003945,-0.5770
 9618,-0.82579911\O,0,0.65118388,-0.86646623,-1.29189951\H,0,-2.4715867
 6,0.55091568,0.73887053\H,0,-1.9329023,-1.00856484,0.04101146\H,0,-1.8
 9523607,0.45682984,-0.95504854\H,0,3.186053,0.30250717,0.54021484\\Ver

 Normal termination of Gaussian 16 at Wed Apr  9 03:07:44 2025.
