 Gaussian 16, Revision C.01,

 ----------------------------------------------------------------------
 #t hf aug-cc-pvdz symm=none int=(grid=ultrafine) guess=(read,tcheck) s
 table=(opt,rrhf)
 ----------------------------------------------------------------------
 -----
 title
 -----
 Symbolic Z-matrix:
 Charge =  0 Multiplicity = 1

 SCF Done:  E(RHF) =  -323.914807105     A.U. after   14 cycles
 Normal termination of Gaussian 16 at Wed Apr  9 18:41:42 2025.
 Gaussian 16:  ES64L-G16RevC.01  3-Jul-2019

 ----------------------------------------------------------------------
 #t hf aug-cc-pvdz iop(5/13=1,5/36=2,99/5=2) pseudo=read geom=check gue
 ss=(read,tcheck) scf=(maxcycle=1)
 ----------------------------------------------------------------------
 -----
 title
 -----
 Structure from the checkpoint file:  "Grambow2020_wb97xd3_007533_forward_mol2.chk"
 Charge =  0 Multiplicity = 1

                         Standard orientation:
 ---------------------------------------------------------------------
 Center     Atomic      Atomic             Coordinates (Angstroms)
 Number     Number       Type             X           Y           Z
 ---------------------------------------------------------------------
      1          6           0       -2.837181   -0.440643    0.139965
      2          8           0       -1.653358    0.181415   -0.291685
      3          6           0       -0.501356   -0.497020    0.122946
      4          6           0        0.708908    0.287725   -0.383580
      5          6           0        0.785790    1.695242    0.209688
      6          6           0        1.927181   -0.473063   -0.093696
      7          7           0        2.875511   -1.069421    0.153943
      8          1           0       -3.670449    0.155768   -0.227496
      9          1           0       -2.885937   -0.490426    1.234979
     10          1           0       -2.923146   -1.458612   -0.260502
     11          1           0       -0.482893   -1.518291   -0.281641
     12          1           0       -0.463757   -0.572380    1.219925
     13          1           0        0.624618    0.357473   -1.472028
     14          1           0        1.635933    2.242790   -0.196237
     15          1           0       -0.129231    2.235061   -0.027741
     16          1           0        0.893093    1.649792    1.294681
 ---------------------------------------------------------------------

 SCF Done:  E(RHF) =  -325.426684586     A.U. after    2 cycles

 The electronic state is 1-A.
 Alpha  occ. eigenvalues --  -21.06248 -15.75536 -11.48255 -11.45040 -11.42506
 Alpha  occ. eigenvalues --  -11.41472 -11.38876  -1.78117  -1.33117  -1.21488
 Alpha  occ. eigenvalues --   -1.03747  -0.97458  -0.88991  -0.71969  -0.68831
 Alpha  occ. eigenvalues --   -0.64551  -0.61109  -0.58581  -0.56639  -0.56109
 Alpha  occ. eigenvalues --   -0.52317  -0.51351  -0.48485  -0.42684  -0.41760
 Alpha  occ. eigenvalues --   -0.40677  -0.31838
 Alpha virt. eigenvalues --    0.03449   0.04707   0.04986   0.05570   0.06106
 Alpha virt. eigenvalues --    0.06303   0.06667   0.07323   0.07899   0.10487
 Alpha virt. eigenvalues --    0.11205   0.12259   0.12638   0.13629   0.14270

 Mulliken charges:
               1
     1  C   -3.120338
     2  O   -3.197924
     3  C   -0.379383
     4  C   -3.128849
     5  C   -3.676000
     6  C    3.162261
     7  N   -2.742153
     8  H    1.352158
     9  H    1.344582
    10  H    1.334704
    11  H    1.609581
    12  H    1.727253
    13  H    1.762046
    14  H    1.256060
    15  H    1.360212
    16  H    1.335790
 Sum of Mulliken charges =   0.00000

 Dipole moment (field-independent basis, Debye):
    X=             -3.4453    Y=              1.5862    Z=             -0.4326  Tot=              3.8175

 Test job not archived.
 1\1\GINC-SE192\SP\RHF\Aug-CC-pVDZ\C5H9N1O1\OHZDE\09-Apr-2025\0\\#t hf
 aug-cc-pvdz iop(5/13=1,5/36=2,99/5=2) pseudo=read geom=check guess=(re
 ad,tcheck) scf=(maxcycle=1)\\title\\0,1\C,0,2.49269025,0.388926,0.0502
 0372\O,0,1.1199426,0.6818285,0.11718918\C,0,0.32705253,-0.46278729,0.2
 6031005\C,0,-1.13444901,-0.01558862,0.29431704\C,0,-1.56997782,0.66577
 197,-1.003776\C,0,-1.98176423,-1.17361857,0.59103923\N,0,-2.63661757,-
 2.09065708,0.80668737\H,0,3.02168523,1.3338814,-0.06067481\H,0,2.72240
 663,-0.25464215,-0.80826167\H,0,2.84042372,-0.10949965,0.96381035\H,0,

 Normal termination of Gaussian 16 at Wed Apr  9 18:41:48 2025.
