 Gaussian 16, Revision C.01,

 ----------------------------------------------------------------------
 #t hf aug-cc-pvdz symm=none int=(grid=ultrafine) guess=(read,tcheck) s
 table=(opt,rrhf)
 ----------------------------------------------------------------------
 -----
 title
 -----
 Symbolic Z-matrix:
 Charge =  0 Multiplicity = 1

 SCF Done:  E(RHF) =  -358.442567400     A.U. after   16 cycles
 Normal termination of Gaussian 16 at Wed Apr  9 03:52:22 2025.
 Gaussian 16:  ES64L-G16RevC.01  3-Jul-2019

 ----------------------------------------------------------------------
 #t hf aug-cc-pvdz iop(5/13=1,5/36=2,99/5=2) pseudo=read geom=check gue
 ss=(read,tcheck) scf=(maxcycle=1)
 ----------------------------------------------------------------------
 -----
 title
 -----
 Structure from the checkpoint file:  "Grambow2020_wb97xd3_008316_forward_mol1.chk"
 Charge =  0 Multiplicity = 1

                         Standard orientation:
 ---------------------------------------------------------------------
 Center     Atomic      Atomic             Coordinates (Angstroms)
 Number     Number       Type             X           Y           Z
 ---------------------------------------------------------------------
      1          6           0        1.910933    0.885185    0.123613
      2          6           0        0.678696    0.111648   -0.119559
      3          6           0       -0.673433    0.384303   -0.148860
      4          8           0       -1.203710    1.584944    0.022747
      5          7           0       -1.455723   -0.761950   -0.125306
      6          6           0       -0.351426   -1.316638    0.395586
      7          8           0        0.773355   -1.339331   -0.354410
      8          1           0        2.468762    0.511962    0.985055
      9          1           0        2.570905    0.847389   -0.747399
     10          1           0        1.645027    1.926060    0.308891
     11          1           0       -2.158000    1.460567    0.087290
     12          1           0       -0.282402   -1.764221    1.391931
 ---------------------------------------------------------------------

 SCF Done:  E(RHF) =  -360.017121906     A.U. after    2 cycles

 The electronic state is 1-A.
 Alpha  occ. eigenvalues --  -21.13682 -21.09710 -15.69776 -11.56479 -11.52824
 Alpha  occ. eigenvalues --  -11.44513 -11.40514  -1.87066  -1.78965  -1.38903
 Alpha  occ. eigenvalues --   -1.14801  -0.99423  -0.89027  -0.75987  -0.70016
 Alpha  occ. eigenvalues --   -0.67707  -0.60744  -0.58844  -0.56275  -0.52973
 Alpha  occ. eigenvalues --   -0.49563  -0.46638  -0.42983  -0.39636  -0.32432
 Alpha  occ. eigenvalues --   -0.24300
 Alpha virt. eigenvalues --    0.03510   0.05135   0.05404   0.06056   0.06507
 Alpha virt. eigenvalues --    0.08247   0.10166   0.10964   0.11750   0.12212
 Alpha virt. eigenvalues --    0.13434   0.14178   0.14583   0.14724   0.16020

 Mulliken charges:
               1
     1  C   -4.237911
     2  C    2.937617
     3  C    3.809737
     4  O   -3.555435
     5  N   -2.716492
     6  C    1.369784
     7  O   -3.303171
     8  H    1.047684
     9  H    1.166286
    10  H    1.119464
    11  H    0.766728
    12  H    1.595709
 Sum of Mulliken charges =  -0.00000

 Dipole moment (field-independent basis, Debye):
    X=              1.2069    Y=              0.9033    Z=              1.0860  Tot=              1.8579

 Test job not archived.
 1\1\GINC-SE329\SP\RHF\Aug-CC-pVDZ\C4H5N1O2\OHZDE\09-Apr-2025\0\\#t hf
 aug-cc-pvdz iop(5/13=1,5/36=2,99/5=2) pseudo=read geom=check guess=(re
 ad,tcheck) scf=(maxcycle=1)\\title\\0,1\C,0,-1.58651393,-0.66777126,0.
 05548733\C,0,-0.1860552,-0.30487896,0.34345222\C,0,0.55723268,0.857435
 09,0.34213386\O,0,0.07270527,2.06118444,0.08059535\N,0,1.92438157,0.62
 377916,0.39444442\C,0,1.57825228,-0.5832957,-0.07634582\O,0,0.77801875
 ,-1.36557712,0.68247124\H,0,-1.66719194,-1.37531116,-0.77241941\H,0,-2
 .05826782,-1.11975487,0.93230691\H,0,-2.13965504,0.23448743,-0.2060833

 Normal termination of Gaussian 16 at Wed Apr  9 03:52:26 2025.
