 Gaussian 16, Revision C.01,

 ----------------------------------------------------------------------
 #t hf aug-cc-pvdz symm=none int=(grid=ultrafine) guess=(read,tcheck) s
 table=(opt,rrhf)
 ----------------------------------------------------------------------
 -----
 title
 -----
 Symbolic Z-matrix:
 Charge =  0 Multiplicity = 1

 SCF Done:  E(RHF) =  -338.660052132     A.U. after   14 cycles
 Normal termination of Gaussian 16 at Wed Apr  9 03:52:35 2025.
 Gaussian 16:  ES64L-G16RevC.01  3-Jul-2019

 ----------------------------------------------------------------------
 #t hf aug-cc-pvdz iop(5/13=1,5/36=2,99/5=2) pseudo=read geom=check gue
 ss=(read,tcheck) scf=(maxcycle=1)
 ----------------------------------------------------------------------
 -----
 title
 -----
 Structure from the checkpoint file:  "Grambow2020_wb97xd3_008305_forward_mol1.chk"
 Charge =  0 Multiplicity = 1

                         Standard orientation:
 ---------------------------------------------------------------------
 Center     Atomic      Atomic             Coordinates (Angstroms)
 Number     Number       Type             X           Y           Z
 ---------------------------------------------------------------------
      1          6           0        2.439684   -0.343858    0.019527
      2          8           0        1.454450    0.682039   -0.012069
      3          6           0        0.188753    0.273526   -0.015331
      4          6           0       -0.918740    1.120682   -0.017270
      5          7           0       -2.085737    0.244361   -0.063615
      6          6           0       -1.524285   -0.969850   -0.014488
      7          7           0       -0.191919   -1.004274   -0.016466
      8          1           0        2.337367   -0.950271    0.920850
      9          1           0        3.398410    0.168516    0.014021
     10          1           0        2.350751   -0.992017   -0.853375
     11          1           0       -1.008222    2.169192   -0.248627
     12          1           0       -1.753164    0.847788    0.946331
     13          1           0       -2.129614   -1.863128    0.043294
 ---------------------------------------------------------------------

 SCF Done:  E(RHF) =  -340.194022975     A.U. after    2 cycles

 The electronic state is 1-A.
 Alpha  occ. eigenvalues --  -21.08916 -15.76059 -15.73534 -11.50313 -11.42871
 Alpha  occ. eigenvalues --  -11.41531 -11.40848  -1.81712  -1.55581  -1.27640
 Alpha  occ. eigenvalues --   -1.08938  -0.99198  -0.83377  -0.79416  -0.71869
 Alpha  occ. eigenvalues --   -0.67977  -0.62062  -0.59667  -0.57568  -0.55145
 Alpha  occ. eigenvalues --   -0.46568  -0.44733  -0.40757  -0.39595  -0.39051
 Alpha  occ. eigenvalues --   -0.26804
 Alpha virt. eigenvalues --    0.03580   0.05223   0.05505   0.06072   0.06393
 Alpha virt. eigenvalues --    0.06936   0.09303   0.10405   0.11539   0.12312
 Alpha virt. eigenvalues --    0.12678   0.13306   0.14656   0.14919   0.15412

 Mulliken charges:
               1
     1  C   -3.087263
     2  O   -3.760959
     3  C    6.015523
     4  C   -2.611608
     5  N   -2.769210
     6  C    1.682363
     7  N   -3.406071
     8  H    1.317372
     9  H    1.357683
    10  H    1.332477
    11  H    1.311266
    12  H    0.977777
    13  H    1.640649
 Sum of Mulliken charges =   0.00000

 Dipole moment (field-independent basis, Debye):
    X=              0.9913    Y=              0.8245    Z=              0.3402  Tot=              1.3335

 Test job not archived.
 1\1\GINC-SE084\SP\RHF\Aug-CC-pVDZ\C4H6N2O1\OHZDE\09-Apr-2025\0\\#t hf
 aug-cc-pvdz iop(5/13=1,5/36=2,99/5=2) pseudo=read geom=check guess=(re
 ad,tcheck) scf=(maxcycle=1)\\title\\0,1\C,0,2.21447465,0.24959914,-0.4
 4442445\O,0,1.24216754,-0.75840549,-0.19403357\C,0,0.00331824,-0.32931
 639,0.02961159\C,0,-1.09284645,-1.15767858,0.26722355\N,0,-2.22204996,
 -0.26129293,0.49822479\C,0,-1.66748842,0.94126297,0.30259513\N,0,-0.35
 775313,0.95388971,0.05597377\H,0,1.9522557,0.82746354,-1.33206257\H,0,
 3.15232927,-0.27795883,-0.59878248\H,0,2.29599568,0.92764467,0.4062133

 Normal termination of Gaussian 16 at Wed Apr  9 03:52:41 2025.
