 Gaussian 16, Revision C.01,

 ----------------------------------------------------------------------
 #t hf aug-cc-pvdz symm=none int=(grid=ultrafine) guess=(read,tcheck) s
 table=(opt,rrhf)
 ----------------------------------------------------------------------
 -----
 title
 -----
 Symbolic Z-matrix:
 Charge =  0 Multiplicity = 1

 SCF Done:  E(RHF) =  -286.642213818     A.U. after   16 cycles
 Normal termination of Gaussian 16 at Wed Apr  9 19:01:00 2025.
 Gaussian 16:  ES64L-G16RevC.01  3-Jul-2019

 ----------------------------------------------------------------------
 #t hf aug-cc-pvdz iop(5/13=1,5/36=2,99/5=2) pseudo=read geom=check gue
 ss=(read,tcheck) scf=(maxcycle=1)
 ----------------------------------------------------------------------
 -----
 title
 -----
 Structure from the checkpoint file:  "Grambow2020_wb97xd3_007997_forward_mol1.chk"
 Charge =  0 Multiplicity = 1

                         Standard orientation:
 ---------------------------------------------------------------------
 Center     Atomic      Atomic             Coordinates (Angstroms)
 Number     Number       Type             X           Y           Z
 ---------------------------------------------------------------------
      1          6           0        2.268222   -1.325287   -0.001191
      2          6           0        1.381104   -0.159575   -0.068078
      3          6           0        1.075952    1.035575    0.045568
      4          6           0        0.264525    2.122170    0.016934
      5          6           0       -1.111844   -0.048701   -0.502637
      6          6           0       -1.508470   -0.460929    0.830754
      7          7           0       -2.279230   -0.714136   -0.400994
      8          1           0        1.872140   -2.081059    0.681445
      9          1           0        3.265223   -1.047881    0.351647
     10          1           0        2.376376   -1.794943   -0.980711
     11          1           0        0.293080    2.806657   -0.823100
     12          1           0       -0.171406    2.501372    0.933922
     13          1           0       -0.509856    0.322983   -1.295214
     14          1           0       -1.980023    0.231982    1.517670
     15          1           0       -0.972421   -1.286967    1.285810
     16          1           0       -2.435437   -1.632710   -0.792613
 ---------------------------------------------------------------------

 SCF Done:  E(RHF) =  -288.049877266     A.U. after    2 cycles

 The electronic state is 1-A.
 Alpha  occ. eigenvalues --  -15.78776 -11.51283 -11.45288 -11.42163 -11.39199
 Alpha  occ. eigenvalues --  -11.37147 -11.36034  -1.49942  -1.18372  -1.06174
 Alpha  occ. eigenvalues --   -0.97324  -0.89755  -0.88186  -0.73891  -0.66661
 Alpha  occ. eigenvalues --   -0.64073  -0.58066  -0.57019  -0.55592  -0.53175
 Alpha  occ. eigenvalues --   -0.51989  -0.49303  -0.43162  -0.36072  -0.31978
 Alpha  occ. eigenvalues --   -0.22811
 Alpha virt. eigenvalues --    0.03257   0.04581   0.05220   0.05584   0.06028
 Alpha virt. eigenvalues --    0.06638   0.06931   0.07483   0.07824   0.09700
 Alpha virt. eigenvalues --    0.10407   0.11470   0.12597   0.13022   0.13272

 Mulliken charges:
               1
     1  C   -5.255807
     2  C    1.811385
     3  C    2.805752
     4  C   -4.494658
     5  C    0.918096
     6  C   -2.610849
     7  N   -2.712908
     8  H    0.934132
     9  H    0.878020
    10  H    0.962425
    11  H    0.870133
    12  H    0.973399
    13  H    1.326130
    14  H    1.389135
    15  H    1.494303
    16  H    0.711313
 Sum of Mulliken charges =  -0.00000

 Dipole moment (field-independent basis, Debye):
    X=             -1.9382    Y=             -2.9462    Z=             -0.0549  Tot=              3.5270

 Test job not archived.
 1\1\GINC-SE118\SP\RHF\Aug-CC-pVDZ\C6H9N1\OHZDE\09-Apr-2025\0\\#t hf au
 g-cc-pvdz iop(5/13=1,5/36=2,99/5=2) pseudo=read geom=check guess=(read
 ,tcheck) scf=(maxcycle=1)\\title\\0,1\C,0,1.68176767,0.82299726,1.8025
 4396\C,0,1.095948,-0.09369466,0.81927053\C,0,1.10999775,-0.9616783,-0.
 06437191\C,0,0.59044145,-1.79693381,-0.9983586\C,0,-1.29899919,-0.2889
 3907,0.0180023\C,0,-1.24986155,0.86262498,-0.86328135\N,0,-2.4564761,0
 .37528086,-0.16904397\H,0,1.41902312,1.85958303,1.57777691\H,0,2.77271
 597,0.75118425,1.81415158\H,0,1.31935289,0.60542326,2.80904817\H,0,0.4

 Normal termination of Gaussian 16 at Wed Apr  9 19:01:06 2025.
