 Gaussian 16, Revision C.01,

 ----------------------------------------------------------------------
 #t hf aug-cc-pvdz symm=none int=(grid=ultrafine) guess=(read,tcheck) s
 table=(opt,rrhf)
 ----------------------------------------------------------------------
 -----
 title
 -----
 Symbolic Z-matrix:
 Charge =  0 Multiplicity = 1

 SCF Done:  E(RHF) =  -322.547896515     A.U. after   16 cycles
 Normal termination of Gaussian 16 at Wed Apr  9 18:39:36 2025.
 Gaussian 16:  ES64L-G16RevC.01  3-Jul-2019

 ----------------------------------------------------------------------
 #t hf aug-cc-pvdz iop(5/13=1,5/36=2,99/5=2) pseudo=read geom=check gue
 ss=(read,tcheck) scf=(maxcycle=1)
 ----------------------------------------------------------------------
 -----
 title
 -----
 Structure from the checkpoint file:  "Grambow2020_wb97xd3_007383_forward_mol1.chk"
 Charge =  0 Multiplicity = 1

                         Standard orientation:
 ---------------------------------------------------------------------
 Center     Atomic      Atomic             Coordinates (Angstroms)
 Number     Number       Type             X           Y           Z
 ---------------------------------------------------------------------
      1          6           0       -1.855097   -0.135630    0.424079
      2          6           0       -0.935924    0.688856   -0.462796
      3          6           0        0.249033    1.354383    0.179206
      4          8           0        1.498340    0.650117   -0.065143
      5          6           0        1.465577   -0.661849    0.074447
      6          7           0        0.377250   -1.343399    0.145309
      7          6           0       -0.854505   -0.796279   -0.442764
      8          1           0       -1.675772   -0.074556    1.494396
      9          1           0       -2.898485   -0.206397    0.143596
     10          1           0       -1.352496    1.183467   -1.331341
     11          1           0        0.136398    1.406445    1.264791
     12          1           0        0.431702    2.354409   -0.205537
     13          1           0        2.442005   -1.129319    0.116881
     14          1           0       -0.125322   -2.028065   -0.611835
 ---------------------------------------------------------------------

 SCF Done:  E(RHF) =  -324.037354424     A.U. after    2 cycles

 The electronic state is 1-A.
 Alpha  occ. eigenvalues --  -21.10800 -15.76093 -11.48947 -11.46227 -11.41162
 Alpha  occ. eigenvalues --  -11.39355 -11.34419  -1.83370  -1.43131  -1.26110
 Alpha  occ. eigenvalues --   -1.03028  -0.94693  -0.83898  -0.76047  -0.71681
 Alpha  occ. eigenvalues --   -0.65915  -0.62033  -0.60145  -0.57643  -0.53302
 Alpha  occ. eigenvalues --   -0.49325  -0.43331  -0.40513  -0.37778  -0.32843
 Alpha  occ. eigenvalues --   -0.24401
 Alpha virt. eigenvalues --    0.03653   0.05188   0.05846   0.06029   0.06151
 Alpha virt. eigenvalues --    0.06779   0.06846   0.09165   0.09472   0.11792
 Alpha virt. eigenvalues --    0.12037   0.12849   0.13813   0.14619   0.14936

 Mulliken charges:
               1
     1  C   -2.570765
     2  C   -0.674627
     3  C   -2.279395
     4  O   -3.084500
     5  C    2.289462
     6  N   -3.015745
     7  C    0.032087
     8  H    1.278295
     9  H    1.270755
    10  H    1.181046
    11  H    1.428222
    12  H    1.383708
    13  H    1.755857
    14  H    1.005600
 Sum of Mulliken charges =   0.00000

 Dipole moment (field-independent basis, Debye):
    X=              2.4399    Y=              1.4718    Z=              0.7192  Tot=              2.9388

 Test job not archived.
 1\1\GINC-SE220\SP\RHF\Aug-CC-pVDZ\C5H7N1O1\OHZDE\09-Apr-2025\0\\#t hf
 aug-cc-pvdz iop(5/13=1,5/36=2,99/5=2) pseudo=read geom=check guess=(re
 ad,tcheck) scf=(maxcycle=1)\\title\\0,1\C,0,-1.64680746,-0.22991885,0.
 24313293\C,0,-0.65910536,0.52926559,-0.62823796\C,0,0.44701793,1.28278
 413,0.05580693\O,0,1.72528316,0.59030654,0.00123573\C,0,1.70012933,-0.
 70277839,0.26412888\N,0,0.62112786,-1.40181957,0.29706711\C,0,-0.55623
 565,-0.94465058,-0.45606027\H,0,-1.57337505,-0.06254142,1.31460756\H,0
 ,-2.65672074,-0.35351944,-0.12718351\H,0,-0.99714674,0.92809174,-1.576

 Normal termination of Gaussian 16 at Wed Apr  9 18:39:40 2025.
