 Gaussian 16, Revision C.01,

 ----------------------------------------------------------------------
 #t hf aug-cc-pvdz symm=none int=(grid=ultrafine) guess=(read,tcheck) s
 table=(opt,rrhf)
 ----------------------------------------------------------------------
 -----
 title
 -----
 Symbolic Z-matrix:
 Charge =  0 Multiplicity = 1

 SCF Done:  E(RHF) =  -307.732700824     A.U. after   15 cycles

 1\1\GINC-SE131\Stability\RHF\Aug-CC-pVDZ\C6H10O1\OHZDE\09-Apr-2025\0\\
 #t hf aug-cc-pvdz symm=none int=(grid=ultrafine) guess=(read,tcheck) s
 table=(opt,rrhf)\\title\\0,1\C,0,-2.06148301,-0.54277455,0.24952703\C,
 0,-0.83625475,-0.01228008,-0.45412337\O,0,-0.50667838,1.29611962,0.101
 39436\C,0,0.79991301,1.53332462,0.12383229\C,0,1.50311629,0.2248507,-0
 .02695807\C,0,1.09301714,-0.7658866,1.02736008\C,0,0.44016694,-0.80157
 233,-0.31689575\H,0,-2.88797792,0.16284291,0.16160771\H,0,-1.85732644,
 -0.71088742,1.30758741\H,0,-2.36866761,-1.48935136,-0.19777596\H,0,-1.

 Normal termination of Gaussian 16 at Wed Apr  9 18:20:33 2025.
 Gaussian 16:  ES64L-G16RevC.01  3-Jul-2019

 ----------------------------------------------------------------------
 #t hf aug-cc-pvdz iop(5/13=1,5/36=2,99/5=2) pseudo=read geom=check gue
 ss=(read,tcheck) scf=(maxcycle=1)
 ----------------------------------------------------------------------
 -----
 title
 -----
 Structure from the checkpoint file:  "Grambow2020_wb97xd3_006894_reverse_mol1.chk"
 Charge =  0 Multiplicity = 1

                         Standard orientation:
 ---------------------------------------------------------------------
 Center     Atomic      Atomic             Coordinates (Angstroms)
 Number     Number       Type             X           Y           Z
 ---------------------------------------------------------------------
      1          6           0        2.184753   -0.198288   -0.155314
      2          6           0        0.874210    0.207987    0.473294
      3          8           0        0.227325    1.192965   -0.387223
      4          6           0       -1.097649    1.103039   -0.369694
      5          6           0       -1.456053   -0.236477    0.184004
      6          6           0       -0.826164   -1.359752   -0.592412
      7          6           0       -0.170438   -0.862779    0.655607
      8          1           0        2.813347    0.675883   -0.326820
      9          1           0        2.017037   -0.699942   -1.109069
     10          1           0        2.719863   -0.882093    0.505381
     11          1           0        1.047138    0.712943    1.432918
     12          1           0       -1.547226    1.961660    1.104005
     13          1           0       -1.679677    2.082769    0.201185
     14          1           0       -2.408790   -0.382029    0.671314
     15          1           0       -0.379604   -1.133990   -1.553931
     16          1           0       -1.325102   -2.317803   -0.539810
     17          1           0       -0.127544   -1.483506    1.539697
 ---------------------------------------------------------------------

 SCF Done:  E(RHF) =  -309.218735047     A.U. after    2 cycles

 The electronic state is 1-A.
 Alpha  occ. eigenvalues --  -21.07685 -11.50119 -11.44701 -11.42850 -11.41575
 Alpha  occ. eigenvalues --  -11.39174 -11.36711  -1.81328  -1.32621  -1.15199
 Alpha  occ. eigenvalues --   -0.97855  -0.93291  -0.81380  -0.79987  -0.74766
 Alpha  occ. eigenvalues --   -0.64941  -0.62880  -0.58186  -0.56961  -0.55197
 Alpha  occ. eigenvalues --   -0.51354  -0.48670  -0.43242  -0.40290  -0.38225
 Alpha  occ. eigenvalues --   -0.35715  -0.28669
 Alpha virt. eigenvalues --    0.03894   0.04751   0.04975   0.05226   0.05408
 Alpha virt. eigenvalues --    0.05636   0.06507   0.06970   0.07885   0.09114
 Alpha virt. eigenvalues --    0.11582   0.11863   0.12688   0.13199   0.13304

 Mulliken charges:
               1
     1  C   -3.766723
     2  C   -0.257639
     3  O   -3.221648
     4  C   -0.286077
     5  C   -0.571946
     6  C   -2.811467
     7  C   -0.739679
     8  H    1.183633
     9  H    1.266389
    10  H    1.252364
    11  H    1.692651
    12  H    0.081985
    13  H    0.817831
    14  H    1.403185
    15  H    1.302751
    16  H    1.238552
    17  H    1.415838
 Sum of Mulliken charges =   0.00000

 Dipole moment (field-independent basis, Debye):
    X=              1.0133    Y=             -1.8768    Z=              0.7488  Tot=              2.2605

 Test job not archived.
 1\1\GINC-SE131\SP\RHF\Aug-CC-pVDZ\C6H10O1\OHZDE\09-Apr-2025\0\\#t hf a
 ug-cc-pvdz iop(5/13=1,5/36=2,99/5=2) pseudo=read geom=check guess=(rea
 d,tcheck) scf=(maxcycle=1)\\title\\0,1\C,0,-2.06148301,-0.54277455,0.2
 4952703\C,0,-0.83625475,-0.01228008,-0.45412337\O,0,-0.50667838,1.2961
 1962,0.10139436\C,0,0.79991301,1.53332462,0.12383229\C,0,1.50311629,0.
 2248507,-0.02695807\C,0,1.09301714,-0.7658866,1.02736008\C,0,0.4401669
 4,-0.80157233,-0.31689575\H,0,-2.88797792,0.16284291,0.16160771\H,0,-1
 .85732644,-0.71088742,1.30758741\H,0,-2.36866761,-1.48935136,-0.197775

 Normal termination of Gaussian 16 at Wed Apr  9 18:20:39 2025.
