 Gaussian 16, Revision C.01,

 ----------------------------------------------------------------------
 #t hf aug-cc-pvdz symm=none int=(grid=ultrafine) guess=(read,tcheck) s
 table=(opt,rrhf)
 ----------------------------------------------------------------------
 -----
 title
 -----
 Symbolic Z-matrix:
 Charge =  0 Multiplicity = 1

 SCF Done:  E(RHF) =  -322.773551164     A.U. after   15 cycles
 Normal termination of Gaussian 16 at Wed Apr  9 18:55:45 2025.
 Gaussian 16:  ES64L-G16RevC.01  3-Jul-2019

 ----------------------------------------------------------------------
 #t hf aug-cc-pvdz iop(5/13=1,5/36=2,99/5=2) pseudo=read geom=check gue
 ss=(read,tcheck) scf=(maxcycle=1)
 ----------------------------------------------------------------------
 -----
 title
 -----
 Structure from the checkpoint file:  "Grambow2020_wb97xd3_007787_forward_mol2.chk"
 Charge =  0 Multiplicity = 1

                         Standard orientation:
 ---------------------------------------------------------------------
 Center     Atomic      Atomic             Coordinates (Angstroms)
 Number     Number       Type             X           Y           Z
 ---------------------------------------------------------------------
      1          6           0        2.544347   -0.360112   -0.001398
      2          6           0        1.095684   -0.017004    0.001593
      3          6           0        0.536946    1.190905    0.000990
      4          7           0       -0.864842    1.110070    0.000446
      5          6           0       -1.288944   -0.195497    0.000323
      6          8           0       -2.434849   -0.572919   -0.001432
      7          6           0       -0.013810   -1.033609    0.001595
      8          1           0        2.812927   -0.950902    0.878805
      9          1           0        3.163127    0.537978   -0.006846
     10          1           0        2.806578   -0.956944   -0.879432
     11          1           0        1.019875    2.157500   -0.000606
     12          1           0       -1.500622    1.886217   -0.003360
     13          1           0       -0.006432   -1.683221   -0.877722
     14          1           0       -0.008106   -1.685859    0.878881
 ---------------------------------------------------------------------

 SCF Done:  E(RHF) =  -324.257462866     A.U. after    2 cycles

 The electronic state is 1-A.
 Alpha  occ. eigenvalues --  -21.02597 -15.77004 -11.50246 -11.45669 -11.42563
 Alpha  occ. eigenvalues --  -11.40543 -11.37071  -1.70564  -1.46316  -1.20082
 Alpha  occ. eigenvalues --   -1.06733  -0.99477  -0.82753  -0.77844  -0.68036
 Alpha  occ. eigenvalues --   -0.64562  -0.59585  -0.56759  -0.56723  -0.51919
 Alpha  occ. eigenvalues --   -0.51503  -0.49720  -0.46472  -0.40780  -0.27825
 Alpha  occ. eigenvalues --   -0.26444
 Alpha virt. eigenvalues --    0.02944   0.04598   0.05379   0.06071   0.06160
 Alpha virt. eigenvalues --    0.07201   0.07322   0.08864   0.10205   0.11892
 Alpha virt. eigenvalues --    0.12081   0.13194   0.13297   0.13507   0.14805

 Mulliken charges:
               1
     1  C   -4.890164
     2  C    4.302098
     3  C   -0.828731
     4  N   -3.204022
     5  C    4.820279
     6  O   -3.509621
     7  C   -5.036313
     8  H    1.182589
     9  H    1.290597
    10  H    1.182353
    11  H    1.386299
    12  H    0.774470
    13  H    1.265636
    14  H    1.264531
 Sum of Mulliken charges =  -0.00000

 Dipole moment (field-independent basis, Debye):
    X=              2.0906    Y=              1.5437    Z=             -0.0060  Tot=              2.5988

 Test job not archived.
 1\1\GINC-SE224\SP\RHF\Aug-CC-pVDZ\C5H7N1O1\OHZDE\09-Apr-2025\0\\#t hf
 aug-cc-pvdz iop(5/13=1,5/36=2,99/5=2) pseudo=read geom=check guess=(re
 ad,tcheck) scf=(maxcycle=1)\\title\\0,1\C,0,-1.88027004,0.62609219,-0.
 32540168\C,0,-0.46109977,0.26433755,-0.05810991\C,0,0.52464889,1.05577
 599,0.35801115\N,0,1.72867051,0.34753991,0.50040928\C,0,1.5703011,-0.9
 7602507,0.17259161\O,0,2.42721705,-1.82483963,0.20011178\C,0,0.1033289
 ,-1.12099998,-0.22158398\H,0,-2.1524658,0.41933183,-1.36419142\H,0,-2.
 06125011,1.68429355,-0.13320313\H,0,-2.56053516,0.04659255,0.30494528\

 Normal termination of Gaussian 16 at Wed Apr  9 18:55:49 2025.
