 Gaussian 16, Revision C.01,

 ----------------------------------------------------------------------
 #t hf aug-cc-pvdz symm=none int=(grid=ultrafine) guess=(read,tcheck) s
 table=(opt,rrhf)
 ----------------------------------------------------------------------
 -----
 title
 -----
 Symbolic Z-matrix:
 Charge =  0 Multiplicity = 1

 SCF Done:  E(RHF) =  -318.785477959     A.U. after   15 cycles
 Normal termination of Gaussian 16 at Wed Apr  9 18:22:19 2025.
 Gaussian 16:  ES64L-G16RevC.01  3-Jul-2019

 ----------------------------------------------------------------------
 #t hf aug-cc-pvdz iop(5/13=1,5/36=2,99/5=2) pseudo=read geom=check gue
 ss=(read,tcheck) scf=(maxcycle=1)
 ----------------------------------------------------------------------
 -----
 title
 -----
 Structure from the checkpoint file:  "Grambow2020_wb97xd3_006931_reverse_mol1.chk"
 Charge =  0 Multiplicity = 1

                         Standard orientation:
 ---------------------------------------------------------------------
 Center     Atomic      Atomic             Coordinates (Angstroms)
 Number     Number       Type             X           Y           Z
 ---------------------------------------------------------------------
      1          7           0       -2.377416   -0.423271   -0.207746
      2          6           0       -1.094382   -0.398199    0.118469
      3          6           0        0.095047   -1.056666    0.210843
      4          6           0        1.123084   -0.046491    0.011583
      5          7           0        2.462274   -0.363668   -0.017328
      6          6           0        0.580097    1.192662   -0.127900
      7          7           0       -0.846147    1.047735    0.114583
      8          1           0       -1.972324    0.884101   -0.467015
      9          1           0       -2.861842   -1.293922   -0.349272
     10          1           0        0.246696   -2.122561    0.153155
     11          1           0        3.065570    0.306188   -0.461657
     12          1           0        2.677701   -1.313897   -0.263158
     13          1           0        1.040189    2.164861   -0.155279
     14          1           0       -1.090036    1.401814    1.038686
 ---------------------------------------------------------------------

 SCF Done:  E(RHF) =  -320.305134300     A.U. after    2 cycles

 The electronic state is 1-A.
 Alpha  occ. eigenvalues --  -15.78084 -15.76382 -15.70387 -11.48622 -11.45794
 Alpha  occ. eigenvalues --  -11.37970 -11.35895  -1.54653  -1.36443  -1.25481
 Alpha  occ. eigenvalues --   -1.11617  -0.98886  -0.81171  -0.80358  -0.70772
 Alpha  occ. eigenvalues --   -0.70181  -0.65632  -0.58129  -0.54527  -0.52273
 Alpha  occ. eigenvalues --   -0.49351  -0.47370  -0.42577  -0.39217  -0.31646
 Alpha  occ. eigenvalues --   -0.22983
 Alpha virt. eigenvalues --    0.03511   0.05202   0.05420   0.05823   0.06289
 Alpha virt. eigenvalues --    0.07348   0.08396   0.10745   0.12251   0.12659
 Alpha virt. eigenvalues --    0.12925   0.13319   0.14088   0.15312   0.15425

 Mulliken charges:
               1
     1  N   -3.436577
     2  C    3.749834
     3  C   -2.601175
     4  C    4.082586
     5  N   -3.600482
     6  C   -1.234093
     7  N   -3.100706
     8  H    0.603833
     9  H    0.790068
    10  H    1.444883
    11  H    0.680500
    12  H    0.658963
    13  H    1.308525
    14  H    0.653841
 Sum of Mulliken charges =   0.00000

 Dipole moment (field-independent basis, Debye):
    X=              1.5832    Y=              0.3131    Z=             -0.3379  Tot=              1.6488

 Test job not archived.
 1\1\GINC-SE014\SP\RHF\Aug-CC-pVDZ\C4H7N3\OHZDE\09-Apr-2025\0\\#t hf au
 g-cc-pvdz iop(5/13=1,5/36=2,99/5=2) pseudo=read geom=check guess=(read
 ,tcheck) scf=(maxcycle=1)\\title\\0,1\N,0,-2.45706604,-0.38670411,-0.1
 3396536\C,0,-1.18255623,-0.29852505,0.21398684\C,0,-0.01974544,-0.9298
 605,0.53977764\C,0,1.04790339,-0.05290363,0.08360735\N,0,2.37540041,-0
 .39897166,0.19698683\C,0,0.55255633,1.10129079,-0.43817555\N,0,-0.8835
 5315,1.0728749,-0.21288677\H,0,-1.99980676,0.77196218,-0.75762246\H,0,
 -2.96812858,-1.24683534,-0.02570876\H,0,0.09568846,-1.96767086,0.80825

 Normal termination of Gaussian 16 at Wed Apr  9 18:22:23 2025.
