 Gaussian 16, Revision C.01,

 ----------------------------------------------------------------------
 #t hf aug-cc-pvdz symm=none int=(grid=ultrafine) guess=(read,tcheck) s
 table=(opt,rrhf)
 ----------------------------------------------------------------------
 -----
 title
 -----
 Symbolic Z-matrix:
 Charge =  0 Multiplicity = 1

 SCF Done:  E(RHF) =  -358.441636152     A.U. after   17 cycles
 Normal termination of Gaussian 16 at Wed Apr  9 18:11:57 2025.
 Gaussian 16:  ES64L-G16RevC.01  3-Jul-2019

 ----------------------------------------------------------------------
 #t hf aug-cc-pvdz iop(5/13=1,5/36=2,99/5=2) pseudo=read geom=check gue
 ss=(read,tcheck) scf=(maxcycle=1)
 ----------------------------------------------------------------------
 -----
 title
 -----
 Structure from the checkpoint file:  "Grambow2020_wb97xd3_006752_forward_mol1.chk"
 Charge =  0 Multiplicity = 1

                         Standard orientation:
 ---------------------------------------------------------------------
 Center     Atomic      Atomic             Coordinates (Angstroms)
 Number     Number       Type             X           Y           Z
 ---------------------------------------------------------------------
      1          8           0        2.005455   -0.888213   -0.361595
      2          6           0        1.647891    0.105112    0.197220
      3          6           0        0.238138    0.683914    0.061932
      4          8           0        0.088484    1.872940    0.029964
      5          7           0       -0.821053   -0.217272   -0.062478
      6          6           0       -2.108813    0.139886   -0.239037
      7          6           0       -0.841624   -1.532912    0.322146
      8          1           0        2.329713    0.761628    0.767680
      9          1           0       -2.701887   -0.456117   -0.909892
     10          1           0       -2.502109    1.025785    0.245316
     11          1           0       -1.493670   -1.795255    1.137622
     12          1           0       -0.249742   -2.268949   -0.203901
 ---------------------------------------------------------------------

 SCF Done:  E(RHF) =  -360.006225174     A.U. after    2 cycles

 The electronic state is 1-A.
 Alpha  occ. eigenvalues --  -21.10946 -21.09334 -15.82504 -11.54694 -11.50382
 Alpha  occ. eigenvalues --  -11.43220 -11.40731  -1.78219  -1.73862  -1.49518
 Alpha  occ. eigenvalues --   -1.05821  -0.99880  -0.93334  -0.76946  -0.71163
 Alpha  occ. eigenvalues --   -0.66754  -0.63683  -0.60717  -0.59358  -0.54738
 Alpha  occ. eigenvalues --   -0.53321  -0.46163  -0.38422  -0.37506  -0.31547
 Alpha  occ. eigenvalues --   -0.27026
 Alpha virt. eigenvalues --    0.03486   0.04556   0.05483   0.06049   0.06593
 Alpha virt. eigenvalues --    0.06871   0.09268   0.09748   0.10819   0.11365
 Alpha virt. eigenvalues --    0.12605   0.13233   0.13494   0.14150   0.14468

 Mulliken charges:
               1
     1  O   -2.628493
     2  C    0.684014
     3  C    4.413273
     4  O   -3.143306
     5  N   -2.449128
     6  C   -2.034139
     7  C   -2.154939
     8  H    1.583447
     9  H    1.361152
    10  H    1.480820
    11  H    1.372119
    12  H    1.515181
 Sum of Mulliken charges =  -0.00000

 Dipole moment (field-independent basis, Debye):
    X=             -0.0659    Y=             -0.0726    Z=              0.2489  Tot=              0.2675

 Test job not archived.
 1\1\GINC-SE340\SP\RHF\Aug-CC-pVDZ\C4H5N1O2\OHZDE\09-Apr-2025\0\\#t hf
 aug-cc-pvdz iop(5/13=1,5/36=2,99/5=2) pseudo=read geom=check guess=(re
 ad,tcheck) scf=(maxcycle=1)\\title\\0,1\O,0,1.71887683,1.21514666,1.37
 173815\C,0,1.93963053,0.44561272,0.48522542\C,0,0.91684368,-0.57700636
 ,-0.01364907\O,0,1.28656524,-1.66742878,-0.34754321\N,0,-0.42704886,-0
 .19826127,-0.01608758\C,0,-1.44521511,-1.00383349,-0.37864857\C,0,-0.9
 3054493,1.07676151,-0.02483259\H,0,2.93529998,0.31927646,0.02262291\H,
 0,-2.356821,-0.93774276,0.18845651\H,0,-1.31674247,-1.72027178,-1.1813

 Normal termination of Gaussian 16 at Wed Apr  9 18:12:00 2025.
