 Gaussian 16, Revision C.01,

 ----------------------------------------------------------------------
 #t hf aug-cc-pvdz symm=none int=(grid=ultrafine) guess=(read,tcheck) s
 table=(opt,rrhf)
 ----------------------------------------------------------------------
 -----
 title
 -----
 Symbolic Z-matrix:
 Charge =  0 Multiplicity = 1

 SCF Done:  E(RHF) =  -394.258322979     A.U. after   16 cycles
 Normal termination of Gaussian 16 at Wed Apr  9 18:29:25 2025.
 Gaussian 16:  ES64L-G16RevC.01  3-Jul-2019

 ----------------------------------------------------------------------
 #t hf aug-cc-pvdz iop(5/13=1,5/36=2,99/5=2) pseudo=read geom=check gue
 ss=(read,tcheck) scf=(maxcycle=1)
 ----------------------------------------------------------------------
 -----
 title
 -----
 Structure from the checkpoint file:  "Grambow2020_wb97xd3_007194_forward_mol1.chk"
 Charge =  0 Multiplicity = 1

                         Standard orientation:
 ---------------------------------------------------------------------
 Center     Atomic      Atomic             Coordinates (Angstroms)
 Number     Number       Type             X           Y           Z
 ---------------------------------------------------------------------
      1          7           0       -2.324471   -0.321228    0.037933
      2          6           0       -1.098393   -0.131950    0.046406
      3          8           0       -0.083838   -1.021556   -0.265024
      4          6           0        1.028564   -0.349323    0.128228
      5          8           0        2.161347   -0.621269    0.155199
      6          6           0       -0.314493    1.125300    0.338549
      7          8           0        0.610210    1.314045   -0.538578
      8          1           0       -2.584008   -1.261891   -0.248618
      9          1           0        0.470233    0.320159    1.242380
     10          1           0       -0.810753    1.956414    0.848841
 ---------------------------------------------------------------------

 SCF Done:  E(RHF) =  -395.959432091     A.U. after    2 cycles

 The electronic state is 1-A.
 Alpha  occ. eigenvalues --  -21.17329 -21.11703 -21.06505 -15.79627 -11.63824
 Alpha  occ. eigenvalues --  -11.58150 -11.51556  -1.95524  -1.75582  -1.73350
 Alpha  occ. eigenvalues --   -1.37668  -1.07481  -0.92027  -0.84877  -0.76526
 Alpha  occ. eigenvalues --   -0.70753  -0.63772  -0.58735  -0.57141  -0.53409
 Alpha  occ. eigenvalues --   -0.51072  -0.44968  -0.41023  -0.38466  -0.31980
 Alpha  occ. eigenvalues --   -0.31136
 Alpha virt. eigenvalues --    0.03267   0.04655   0.05337   0.06684   0.09436
 Alpha virt. eigenvalues --    0.09909   0.10496   0.10960   0.11300   0.12400
 Alpha virt. eigenvalues --    0.12798   0.13639   0.14664   0.14971   0.17259

 Mulliken charges:
               1
     1  N   -3.324802
     2  C    4.958530
     3  O   -3.218849
     4  C    5.041786
     5  O   -3.129511
     6  C   -0.566655
     7  O   -2.416833
     8  H    0.692071
     9  H    0.734384
    10  H    1.229878
 Sum of Mulliken charges =   0.00000

 Dipole moment (field-independent basis, Debye):
    X=             -0.3787    Y=             -0.9798    Z=             -0.0468  Tot=              1.0515

 Test job not archived.
 1\1\GINC-SE131\SP\RHF\Aug-CC-pVDZ\C3H3N1O3\OHZDE\09-Apr-2025\0\\#t hf
 aug-cc-pvdz iop(5/13=1,5/36=2,99/5=2) pseudo=read geom=check guess=(re
 ad,tcheck) scf=(maxcycle=1)\\title\\0,1\N,0,-1.12381466,1.28312924,-1.
 19379214\C,0,-0.40703207,0.58807436,-0.45739045\O,0,0.94097717,0.73330
 804,-0.17545406\C,0,1.22775126,-0.41401932,0.49191667\O,0,2.21077532,-
 0.86300527,0.9277531\C,0,-0.76796621,-0.59504499,0.40891124\O,0,-0.251
 23523,-0.48865365,1.58437799\H,0,-0.6256247,2.05821407,-1.62433707\H,0
 ,0.34687736,-1.27307238,-0.2061987\H,0,-1.71550423,-1.11393211,0.23469

 Normal termination of Gaussian 16 at Wed Apr  9 18:29:28 2025.
