 Gaussian 16, Revision C.01,

 ----------------------------------------------------------------------
 #t hf aug-cc-pvdz symm=none int=(grid=ultrafine) guess=(read,tcheck) s
 table=(opt,rrhf)
 ----------------------------------------------------------------------
 -----
 title
 -----
 Symbolic Z-matrix:
 Charge =  0 Multiplicity = 1

 SCF Done:  E(RHF) =  -306.587915856     A.U. after   16 cycles
 Normal termination of Gaussian 16 at Wed Apr  9 18:35:32 2025.
 Gaussian 16:  ES64L-G16RevC.01  3-Jul-2019

 ----------------------------------------------------------------------
 #t hf aug-cc-pvdz iop(5/13=1,5/36=2,99/5=2) pseudo=read geom=check gue
 ss=(read,tcheck) scf=(maxcycle=1)
 ----------------------------------------------------------------------
 -----
 title
 -----
 Structure from the checkpoint file:  "Grambow2020_wb97xd3_007296_forward_mol1.chk"
 Charge =  0 Multiplicity = 1

                         Standard orientation:
 ---------------------------------------------------------------------
 Center     Atomic      Atomic             Coordinates (Angstroms)
 Number     Number       Type             X           Y           Z
 ---------------------------------------------------------------------
      1          6           0        2.691027   -0.467353    0.108476
      2          6           0        1.661959    0.642914    0.006502
      3          6           0        0.236475    0.219038   -0.083789
      4          8           0       -0.029664   -1.002642   -0.170952
      5          6           0       -0.818578    1.254130   -0.067410
      6          6           0       -1.891991    0.601631    0.056503
      7          6           0       -2.650751   -0.525388    0.109525
      8          1           0        2.525469   -1.080496    0.994779
      9          1           0        3.694579   -0.045289    0.171726
     10          1           0        2.652905   -1.125308   -0.759838
     11          1           0        1.825183    1.281106   -0.868844
     12          1           0        1.704519    1.338804    0.851228
     13          1           0       -3.169576   -0.833050   -0.794509
     14          1           0       -1.239815   -1.053494   -0.049491
     15          1           0       -3.124785   -0.810974    1.043730
 ---------------------------------------------------------------------

 SCF Done:  E(RHF) =  -308.064045128     A.U. after    2 cycles

 The electronic state is 1-A.
 Alpha  occ. eigenvalues --  -21.10141 -11.53790 -11.44554 -11.43130 -11.40151
 Alpha  occ. eigenvalues --  -11.37978 -11.35861  -1.79510  -1.23603  -1.19563
 Alpha  occ. eigenvalues --   -1.04576  -0.95379  -0.79109  -0.71822  -0.64972
 Alpha  occ. eigenvalues --   -0.64314  -0.60930  -0.60087  -0.55920  -0.52765
 Alpha  occ. eigenvalues --   -0.50233  -0.47606  -0.44826  -0.36880  -0.34658
 Alpha  occ. eigenvalues --   -0.30610
 Alpha virt. eigenvalues --    0.03079   0.04939   0.05414   0.05846   0.06347
 Alpha virt. eigenvalues --    0.06373   0.07105   0.07297   0.09388   0.09816
 Alpha virt. eigenvalues --    0.09974   0.11271   0.12632   0.13390   0.14004

 Mulliken charges:
               1
     1  C   -3.775581
     2  C   -3.161587
     3  C    4.933331
     4  O   -4.010892
     5  C   -2.829503
     6  C    3.199417
     7  C   -5.188021
     8  H    1.324316
     9  H    1.086874
    10  H    1.293129
    11  H    1.418526
    12  H    1.388481
    13  H    1.146840
    14  H    2.031674
    15  H    1.142996
 Sum of Mulliken charges =  -0.00000

 Dipole moment (field-independent basis, Debye):
    X=              1.5761    Y=             -3.2903    Z=              0.0600  Tot=              3.6488

 Test job not archived.
 1\1\GINC-SE103\SP\RHF\Aug-CC-pVDZ\C6H8O1\OHZDE\09-Apr-2025\0\\#t hf au
 g-cc-pvdz iop(5/13=1,5/36=2,99/5=2) pseudo=read geom=check guess=(read
 ,tcheck) scf=(maxcycle=1)\\title\\0,1\C,0,-2.39245032,-0.06590892,0.85
 20694\C,0,-1.49164476,-0.15723908,-0.36542052\C,0,-0.03839157,0.075361
 14,-0.13351349\O,0,0.34638699,0.42564038,1.00673983\C,0,0.90328873,-0.
 11493892,-1.25683203\C,0,2.04386057,-0.05785007,-0.71909552\C,0,2.9166
 0302,0.15506007,0.30153666\H,0,-2.11000314,-0.79773824,1.60939098\H,0,
 -3.42832192,-0.25512651,0.56847976\H,0,-2.3405197,0.92128747,1.3114978

 Normal termination of Gaussian 16 at Wed Apr  9 18:35:37 2025.
