 Gaussian 16, Revision C.01,

 ----------------------------------------------------------------------
 #t hf aug-cc-pvdz symm=none int=(grid=ultrafine) guess=(read,tcheck) s
 table=(opt,rrhf)
 ----------------------------------------------------------------------
 -----
 title
 -----
 Symbolic Z-matrix:
 Charge =  0 Multiplicity = 1

 SCF Done:  E(RHF) =  -339.241633218     A.U. after   17 cycles
 Normal termination of Gaussian 16 at Wed Apr  9 16:28:43 2025.
 Gaussian 16:  ES64L-G16RevC.01  3-Jul-2019

 ----------------------------------------------------------------------
 #t hf aug-cc-pvdz iop(5/13=1,5/36=2,99/5=2) pseudo=read geom=check gue
 ss=(read,tcheck) scf=(maxcycle=1)
 ----------------------------------------------------------------------
 -----
 title
 -----
 Structure from the checkpoint file:  "Grambow2020_b97d3_006811_forward_mol1.chk"
 Charge =  0 Multiplicity = 1

                         Standard orientation:
 ---------------------------------------------------------------------
 Center     Atomic      Atomic             Coordinates (Angstroms)
 Number     Number       Type             X           Y           Z
 ---------------------------------------------------------------------
      1          8           0        2.296926    0.008480    0.121495
      2          6           0        1.199169   -0.341201   -0.047250
      3          6           0       -0.682642    0.731822    0.066076
      4          8           0       -0.682240    1.888404   -0.200029
      5          6           0       -1.273888   -0.518928    0.349799
      6          8           0       -0.898261   -1.559558   -0.328731
      7          1           0        0.416980   -1.318194   -0.358067
      8          1           0       -1.604219   -0.610575    1.404433
 ---------------------------------------------------------------------

 SCF Done:  E(RHF) =  -340.680761591     A.U. after    2 cycles

 The electronic state is 1-A.
 Alpha  occ. eigenvalues --  -21.19344 -21.13862 -21.08174 -11.56116 -11.54396
 Alpha  occ. eigenvalues --  -11.48435  -1.81237  -1.76946  -1.72605  -1.06729
 Alpha  occ. eigenvalues --   -0.89947  -0.74446  -0.65700  -0.62871  -0.61855
 Alpha  occ. eigenvalues --   -0.55393  -0.54045  -0.49679  -0.46178  -0.42730
 Alpha  occ. eigenvalues --   -0.35924  -0.25385
 Alpha virt. eigenvalues --    0.03667   0.05944   0.07712   0.08885   0.09171
 Alpha virt. eigenvalues --    0.09897   0.11029   0.11223   0.12108   0.12573
 Alpha virt. eigenvalues --    0.12746   0.14426   0.14668   0.15769   0.16789

 Mulliken charges:
               1
     1  O   -2.205186
     2  C    1.003573
     3  C    2.222312
     4  O   -2.527117
     5  C    0.760317
     6  O   -2.663300
     7  H    1.968848
     8  H    1.440553
 Sum of Mulliken charges =  -0.00000

 Dipole moment (field-independent basis, Debye):
    X=              2.0603    Y=              0.7642    Z=              0.4549  Tot=              2.2440

 Test job not archived.
 1\1\GINC-SE113\SP\RHF\Aug-CC-pVDZ\C3H2O3\OHZDE\09-Apr-2025\0\\#t hf au
 g-cc-pvdz iop(5/13=1,5/36=2,99/5=2) pseudo=read geom=check guess=(read
 ,tcheck) scf=(maxcycle=1)\\title\\0,1\O,0,-2.26388917,0.05234139,0.910
 63669\C,0,-1.10664443,0.04933812,0.78180092\C,0,0.14815545,0.49380578,
 -0.93090353\O,0,-0.24914167,1.28235083,-1.72390131\C,0,1.11043388,-0.3
 4633649,-0.32871778\O,0,1.31015024,-0.25640765,0.9505151\H,0,0.0382043
 3,-0.13498247,1.34597314\H,0,1.23578238,-1.31032952,-0.86236222\\Versi
 on=ES64L-G16RevC.01\State=1-A\HF=-340.6807616\RMSD=1.465e-01\Dipole=-0

 Normal termination of Gaussian 16 at Wed Apr  9 16:28:46 2025.
