 Gaussian 16, Revision C.01,

 ----------------------------------------------------------------------
 #t hf aug-cc-pvdz symm=none int=(grid=ultrafine) guess=(read,tcheck) s
 table=(opt,rrhf)
 ----------------------------------------------------------------------
 -----
 title
 -----
 Symbolic Z-matrix:
 Charge =  0 Multiplicity = 1

 SCF Done:  E(RHF) =  -342.340213657     A.U. after   17 cycles
 Normal termination of Gaussian 16 at Wed Apr  9 19:16:58 2025.
 Gaussian 16:  ES64L-G16RevC.01  3-Jul-2019

 ----------------------------------------------------------------------
 #t hf aug-cc-pvdz iop(5/13=1,5/36=2,99/5=2) pseudo=read geom=check gue
 ss=(read,tcheck) scf=(maxcycle=1)
 ----------------------------------------------------------------------
 -----
 title
 -----
 Structure from the checkpoint file:  "Grambow2020_wb97xd3_008524_forward_mol1.chk"
 Charge =  0 Multiplicity = 1

                         Standard orientation:
 ---------------------------------------------------------------------
 Center     Atomic      Atomic             Coordinates (Angstroms)
 Number     Number       Type             X           Y           Z
 ---------------------------------------------------------------------
      1          8           0        0.490645    1.476649   -0.250978
      2          6           0       -0.327488    0.865654    0.462787
      3          6           0       -1.518551    0.208995   -0.238870
      4          8           0       -0.773177   -0.967325   -0.679714
      5          6           0        0.453496   -1.002161    0.124611
      6          6           0        1.566952   -0.228338   -0.462681
      7          6           0        0.173910   -0.158641    1.317652
      8          1           0       -1.863374    0.745788   -1.120356
      9          1           0       -2.344542   -0.066868    0.415266
     10          1           0        0.736307   -2.036295    0.329932
     11          1           0        1.539661    0.138949   -1.478987
     12          1           0        2.542021   -0.349777   -0.005372
     13          1           0       -0.439726   -0.619445    2.084057
 ---------------------------------------------------------------------

 SCF Done:  E(RHF) =  -343.872083993     A.U. after    2 cycles

 The electronic state is 1-A.
 Alpha  occ. eigenvalues --  -21.06295 -21.05132 -11.52900 -11.49738 -11.45968
 Alpha  occ. eigenvalues --  -11.44604 -11.35129  -1.81230  -1.69431  -1.21250
 Alpha  occ. eigenvalues --   -1.10448  -0.98565  -0.83164  -0.76267  -0.69214
 Alpha  occ. eigenvalues --   -0.68022  -0.63743  -0.61515  -0.53481  -0.50737
 Alpha  occ. eigenvalues --   -0.47944  -0.40598  -0.40241  -0.31746  -0.31345
 Alpha  occ. eigenvalues --   -0.24454
 Alpha virt. eigenvalues --    0.02901   0.03813   0.04608   0.05035   0.05970
 Alpha virt. eigenvalues --    0.07082   0.07203   0.09021   0.09895   0.10868
 Alpha virt. eigenvalues --    0.12347   0.12767   0.13587   0.14606   0.15057

 Mulliken charges:
               1
     1  O   -2.911817
     2  C    3.296179
     3  C   -1.925124
     4  O   -2.856982
     5  C    0.279652
     6  C   -2.459647
     7  C   -1.948149
     8  H    1.398668
     9  H    1.481551
    10  H    1.656273
    11  H    1.337389
    12  H    1.331220
    13  H    1.320788
 Sum of Mulliken charges =  -0.00000

 Dipole moment (field-independent basis, Debye):
    X=              0.2554    Y=             -0.9208    Z=             -2.2019  Tot=              2.4003

 Test job not archived.
 1\1\GINC-SE045\SP\RHF\Aug-CC-pVDZ\C5H6O2\OHZDE\09-Apr-2025\0\\#t hf au
 g-cc-pvdz iop(5/13=1,5/36=2,99/5=2) pseudo=read geom=check guess=(read
 ,tcheck) scf=(maxcycle=1)\\title\\0,1\O,0,0.25110311,0.65552326,1.5699
 0033\C,0,0.57181107,0.93624069,0.39923289\C,0,1.58461879,0.01935411,-0
 .29047257\O,0,0.60961485,-1.01408204,-0.62963541\C,0,-0.71253906,-0.39
 245915,-0.49409464\C,0,-1.27177105,-0.48549413,0.87049404\C,0,-0.47373
 265,1.07442175,-0.55947268\H,0,2.32083654,-0.41295847,0.38417998\H,0,2
 .04946737,0.4346919,-1.18359414\H,0,-1.39404923,-0.79656007,-1.2449732

 Normal termination of Gaussian 16 at Wed Apr  9 19:17:02 2025.
