 Gaussian 16, Revision C.01,

 ----------------------------------------------------------------------
 #t hf aug-cc-pvdz symm=none int=(grid=ultrafine) guess=(read,tcheck) s
 table=(opt,rrhf)
 ----------------------------------------------------------------------
 -----
 title
 -----
 Symbolic Z-matrix:
 Charge =  0 Multiplicity = 1

 SCF Done:  E(RHF) =  -305.755830783     A.U. after   14 cycles
 Normal termination of Gaussian 16 at Wed Apr  9 17:17:23 2025.
 Gaussian 16:  ES64L-G16RevC.01  3-Jul-2019

 ----------------------------------------------------------------------
 #t hf aug-cc-pvdz iop(5/13=1,5/36=2,99/5=2) pseudo=read geom=check gue
 ss=(read,tcheck) scf=(maxcycle=1)
 ----------------------------------------------------------------------
 -----
 title
 -----
 Structure from the checkpoint file:  "Grambow2020_b97d3_007090_reverse_mol1.chk"
 Charge =  0 Multiplicity = 1

                         Standard orientation:
 ---------------------------------------------------------------------
 Center     Atomic      Atomic             Coordinates (Angstroms)
 Number     Number       Type             X           Y           Z
 ---------------------------------------------------------------------
      1          6           0        0.887977    1.453545   -0.258982
      2          6           0        0.675480    0.044508    0.281079
      3          6           0        1.927485   -0.819755    0.264532
      4          8           0       -0.301581   -0.669470   -0.606998
      5          6           0       -1.592241   -0.511002   -0.388654
      6          8           0       -1.999065    0.283739    0.583916
      7          1           0        1.649367    1.970595    0.342576
      8          1           0        1.237113    1.414804   -1.299702
      9          1           0       -0.042146    2.031389   -0.214461
     10          1           0        0.235180    0.079645    1.284689
     11          1           0        1.710803   -1.831907    0.629218
     12          1           0        2.693800   -0.372522    0.913071
     13          1           0        2.333730   -0.893901   -0.753213
     14          1           0       -2.804883   -0.316035   -0.105366
 ---------------------------------------------------------------------

 SCF Done:  E(RHF) =  -307.157469613     A.U. after    2 cycles

 The electronic state is 1-A.
 Alpha  occ. eigenvalues --  -21.10008 -21.08006 -11.47683 -11.46516 -11.40303
 Alpha  occ. eigenvalues --  -11.37031  -1.83673  -1.68610  -1.19316  -1.02002
 Alpha  occ. eigenvalues --   -0.87144  -0.76181  -0.71769  -0.62426  -0.61169
 Alpha  occ. eigenvalues --   -0.57747  -0.54948  -0.52132  -0.51521  -0.48247
 Alpha  occ. eigenvalues --   -0.47003  -0.37991  -0.33451  -0.28538
 Alpha virt. eigenvalues --    0.03836   0.05564   0.05659   0.05811   0.06184
 Alpha virt. eigenvalues --    0.06289   0.06952   0.07712   0.10743   0.11609
 Alpha virt. eigenvalues --    0.12262   0.13685   0.14161   0.14919   0.15528

 Mulliken charges:
               1
     1  C   -3.342243
     2  C   -0.961481
     3  C   -3.589462
     4  O   -2.593637
     5  C    1.351728
     6  O   -1.962017
     7  H    1.213288
     8  H    1.303120
     9  H    1.262711
    10  H    1.898753
    11  H    1.279864
    12  H    1.176760
    13  H    1.203380
    14  H    1.759234
 Sum of Mulliken charges =  -0.00000

 Dipole moment (field-independent basis, Debye):
    X=              1.6673    Y=              1.0546    Z=              1.2986  Tot=              2.3619

 Test job not archived.
 1\1\GINC-SE173\SP\RHF\Aug-CC-pVDZ\C4H8O2\OHZDE\09-Apr-2025\0\\#t hf au
 g-cc-pvdz iop(5/13=1,5/36=2,99/5=2) pseudo=read geom=check guess=(read
 ,tcheck) scf=(maxcycle=1)\\title\\0,1\C,0,0.23438468,1.39987288,0.0328
 106\C,0,-0.25582805,-0.02449192,-0.19758078\C,0,-1.7339819,-0.22598309
 ,0.10108972\O,0,0.46095424,-0.94005792,0.75165812\C,0,1.64422513,-1.41
 051078,0.40941224\O,0,2.18307202,-1.05304494,-0.74161924\H,0,-0.325978
 47,2.0937283,-0.61021764\H,0,0.07577519,1.69355504,1.07927572\H,0,1.30
 02865,1.48768424,-0.20626696\H,0,-0.0113089,-0.35571746,-1.2138643\H,0

 Normal termination of Gaussian 16 at Wed Apr  9 17:17:27 2025.
