 Gaussian 16, Revision C.01,

 ----------------------------------------------------------------------
 #t hf aug-cc-pvdz symm=none int=(grid=ultrafine) guess=(read,tcheck) s
 table=(opt,rrhf)
 ----------------------------------------------------------------------
 -----
 title
 -----
 Symbolic Z-matrix:
 Charge =  0 Multiplicity = 1

 SCF Done:  E(RHF) =  -357.298110984     A.U. after   15 cycles
 Normal termination of Gaussian 16 at Wed Apr  9 19:19:42 2025.
 Gaussian 16:  ES64L-G16RevC.01  3-Jul-2019

 ----------------------------------------------------------------------
 #t hf aug-cc-pvdz iop(5/13=1,5/36=2,99/5=2) pseudo=read geom=check gue
 ss=(read,tcheck) scf=(maxcycle=1)
 ----------------------------------------------------------------------
 -----
 title
 -----
 Structure from the checkpoint file:  "Grambow2020_wb97xd3_008636_forward_mol1.chk"
 Charge =  0 Multiplicity = 1

                         Standard orientation:
 ---------------------------------------------------------------------
 Center     Atomic      Atomic             Coordinates (Angstroms)
 Number     Number       Type             X           Y           Z
 ---------------------------------------------------------------------
      1          7           0        2.253867   -0.362351    0.001024
      2          6           0        0.980113   -0.221958   -0.000762
      3          6           0        0.715475    1.219232   -0.000880
      4          6           0       -0.622698    1.281382    0.000079
      5          6           0       -1.200068   -0.088363   -0.000078
      6          8           0       -2.288572   -0.527644    0.000886
      7          8           0       -0.047547   -1.025291   -0.001205
      8          1           0        2.752969   -1.242175    0.002519
      9          1           0        2.213551    0.930432    0.001190
     10          1           0       -1.291570    2.129922    0.001525
 ---------------------------------------------------------------------

 SCF Done:  E(RHF) =  -358.854774746     A.U. after    2 cycles

 The electronic state is 1-A.
 Alpha  occ. eigenvalues --  -21.14241 -21.09610 -15.80458 -11.56082 -11.52599
 Alpha  occ. eigenvalues --  -11.44056 -11.39032  -1.89452  -1.72631  -1.42328
 Alpha  occ. eigenvalues --   -1.21253  -0.96904  -0.83967  -0.78376  -0.74072
 Alpha  occ. eigenvalues --   -0.64040  -0.62142  -0.56218  -0.53746  -0.51525
 Alpha  occ. eigenvalues --   -0.45792  -0.38980  -0.37559  -0.35801  -0.32682
 Alpha virt. eigenvalues --    0.03052   0.05102   0.05780   0.07338   0.09980
 Alpha virt. eigenvalues --    0.10418   0.10805   0.11127   0.11480   0.12489
 Alpha virt. eigenvalues --    0.13315   0.13853   0.13954   0.14968   0.15688

 Mulliken charges:
               1
     1  N   -3.486470
     2  C    5.543640
     3  C   -2.683595
     4  C   -0.207509
     5  C    3.903893
     6  O   -3.063717
     7  O   -3.297152
     8  H    0.910883
     9  H    0.953383
    10  H    1.426644
 Sum of Mulliken charges =   0.00000

 Dipole moment (field-independent basis, Debye):
    X=              1.0430    Y=             -1.9816    Z=              0.0034  Tot=              2.2394

 Test job not archived.
 1\1\GINC-SE083\SP\RHF\Aug-CC-pVDZ\C4H3N1O2\OHZDE\09-Apr-2025\0\\#t hf
 aug-cc-pvdz iop(5/13=1,5/36=2,99/5=2) pseudo=read geom=check guess=(re
 ad,tcheck) scf=(maxcycle=1)\\title\\0,1\N,0,1.94508723,-0.44509923,0.0
 5909491\C,0,0.76920544,0.05996245,-0.00707549\C,0,-0.17492239,-1.04958
 908,0.1497028\C,0,-1.36798064,-0.44597534,0.06705664\C,0,-1.19057793,1
 .01569257,-0.13694171\O,0,-1.91827139,1.92795917,-0.26359276\O,0,0.274
 79131,1.25565506,-0.17230608\H,0,2.81463004,0.06629434,-0.01552215\H,0
 ,1.26934434,-1.53721664,0.21259677\H,0,-2.36947702,-0.8474903,0.123659

 Normal termination of Gaussian 16 at Wed Apr  9 19:19:46 2025.
