 Gaussian 16, Revision C.01,

 ----------------------------------------------------------------------
 #t hf aug-cc-pvdz symm=none int=(grid=ultrafine) guess=(read,tcheck) s
 table=(opt,rrhf)
 ----------------------------------------------------------------------
 -----
 title
 -----
 Symbolic Z-matrix:
 Charge =  0 Multiplicity = 1

 SCF Done:  E(RHF) =  -245.651691727     A.U. after   15 cycles
 Normal termination of Gaussian 16 at Wed Apr  9 17:37:09 2025.
 Gaussian 16:  ES64L-G16RevC.01  3-Jul-2019

 ----------------------------------------------------------------------
 #t hf aug-cc-pvdz iop(5/13=1,5/36=2,99/5=2) pseudo=read geom=check gue
 ss=(read,tcheck) scf=(maxcycle=1)
 ----------------------------------------------------------------------
 -----
 title
 -----
 Structure from the checkpoint file:  "Grambow2020_b97d3_007203_forward_mol1.chk"
 Charge =  0 Multiplicity = 1

                         Standard orientation:
 ---------------------------------------------------------------------
 Center     Atomic      Atomic             Coordinates (Angstroms)
 Number     Number       Type             X           Y           Z
 ---------------------------------------------------------------------
      1          8           0       -1.589141   -0.558451    0.081505
      2          6           0       -1.057261    0.674104    0.029014
      3          6           0        0.388800    0.719553   -0.250696
      4          6           0        1.239689   -0.110095    0.690856
      5          7           0        1.068900   -0.520751   -0.688655
      6          1           0       -2.277050    0.372982    0.269134
      7          1           0        0.798257    1.655970   -0.627985
      8          1           0        2.221304    0.287629    0.953503
      9          1           0        0.717472   -0.651982    1.482813
     10          1           0        0.343484   -1.253105   -0.723969
 ---------------------------------------------------------------------

 SCF Done:  E(RHF) =  -246.761429832     A.U. after    2 cycles

 The electronic state is 1-A.
 Alpha  occ. eigenvalues --  -21.09878 -15.75457 -11.49209 -11.46408 -11.40946
 Alpha  occ. eigenvalues --   -1.75576  -1.45828  -1.00357  -0.92968  -0.78285
 Alpha  occ. eigenvalues --   -0.73367  -0.65306  -0.59664  -0.50014  -0.48527
 Alpha  occ. eigenvalues --   -0.46399  -0.43676  -0.35485  -0.28779
 Alpha virt. eigenvalues --    0.04040   0.05561   0.05789   0.06221   0.07111
 Alpha virt. eigenvalues --    0.09894   0.10197   0.10774   0.11543   0.12934
 Alpha virt. eigenvalues --    0.14586   0.14706   0.16345   0.16421   0.17909

 Mulliken charges:
               1
     1  O   -2.040384
     2  C   -0.799560
     3  C    1.027688
     4  C   -2.118051
     5  N   -2.310099
     6  H    1.272870
     7  H    1.515580
     8  H    1.303088
     9  H    1.391960
    10  H    0.756908
 Sum of Mulliken charges =   0.00000

 Dipole moment (field-independent basis, Debye):
    X=              0.1166    Y=             -1.4444    Z=              0.7871  Tot=              1.6491

 Test job not archived.
 1\1\GINC-SE113\SP\RHF\Aug-CC-pVDZ\C3H5N1O1\OHZDE\09-Apr-2025\0\\#t hf
 aug-cc-pvdz iop(5/13=1,5/36=2,99/5=2) pseudo=read geom=check guess=(re
 ad,tcheck) scf=(maxcycle=1)\\title\\0,1\O,0,1.24714363,-0.349842,1.375
 17629\C,0,1.32306547,-0.41053466,0.03525261\C,0,0.22805092,0.26388823,
 -0.68411689\C,0,-1.16263173,-0.18529062,-0.28027466\N,0,-0.6925955,1.1
 3819905,0.0779122\H,0,2.13787722,-0.92673269,0.87539511\H,0,0.4021616,
 0.53366693,-1.72516651\H,0,-1.91825468,-0.22802863,-1.06636839\H,0,-1.
 22952848,-0.95934861,0.48777967\H,0,-0.37022745,1.11627799,1.05740956\

 Normal termination of Gaussian 16 at Wed Apr  9 17:37:12 2025.
