 Gaussian 16, Revision C.01,

 ----------------------------------------------------------------------
 #t hf aug-cc-pvdz symm=none int=(grid=ultrafine) guess=(read,tcheck) s
 table=(opt,rrhf)
 ----------------------------------------------------------------------
 -----
 title
 -----
 Symbolic Z-matrix:
 Charge =  0 Multiplicity = 1

 SCF Done:  E(RHF) =  -286.830884047     A.U. after   14 cycles
 Normal termination of Gaussian 16 at Wed Apr  9 19:00:57 2025.
 Gaussian 16:  ES64L-G16RevC.01  3-Jul-2019

 ----------------------------------------------------------------------
 #t hf aug-cc-pvdz iop(5/13=1,5/36=2,99/5=2) pseudo=read geom=check gue
 ss=(read,tcheck) scf=(maxcycle=1)
 ----------------------------------------------------------------------
 -----
 title
 -----
 Structure from the checkpoint file:  "Grambow2020_wb97xd3_007993_forward_mol2.chk"
 Charge =  0 Multiplicity = 1

                         Standard orientation:
 ---------------------------------------------------------------------
 Center     Atomic      Atomic             Coordinates (Angstroms)
 Number     Number       Type             X           Y           Z
 ---------------------------------------------------------------------
      1          6           0        3.491717    0.434583    0.083017
      2          6           0        2.125337   -0.065005   -0.021643
      3          6           0        1.005484   -0.482816   -0.114563
      4          6           0       -0.368020   -0.975279   -0.215326
      5          6           0       -1.363451   -0.056274    0.454884
      6          6           0       -2.004148    1.048462   -0.280469
      7          7           0       -2.742596   -0.181940    0.005721
      8          1           0        3.503755    1.522954    0.160566
      9          1           0        4.074309    0.152615   -0.795480
     10          1           0        3.988948    0.026863    0.964535
     11          1           0       -0.435070   -1.970181    0.234467
     12          1           0       -0.651020   -1.088933   -1.264808
     13          1           0       -1.191137    0.102832    1.515555
     14          1           0       -1.763362    1.200991   -1.326543
     15          1           0       -2.260095    1.949792    0.264832
     16          1           0       -3.389674   -0.045375    0.771430
 ---------------------------------------------------------------------

 SCF Done:  E(RHF) =  -288.225037918     A.U. after    2 cycles

 The electronic state is 1-A.
 Alpha  occ. eigenvalues --  -15.73143 -11.48066 -11.44659 -11.43288 -11.39450
 Alpha  occ. eigenvalues --  -11.37874 -11.37623  -1.45752  -1.19650  -1.10802
 Alpha  occ. eigenvalues --   -0.96321  -0.92467  -0.84173  -0.72396  -0.65286
 Alpha  occ. eigenvalues --   -0.61061  -0.59468  -0.57963  -0.57378  -0.56007
 Alpha  occ. eigenvalues --   -0.50357  -0.44318  -0.43916  -0.35352  -0.34089
 Alpha  occ. eigenvalues --   -0.33711
 Alpha virt. eigenvalues --    0.03286   0.04896   0.05472   0.05809   0.06100
 Alpha virt. eigenvalues --    0.06283   0.06857   0.07072   0.07277   0.09739
 Alpha virt. eigenvalues --    0.11717   0.12178   0.12695   0.13520   0.13775

 Mulliken charges:
               1
     1  C   -5.408498
     2  C    1.855883
     3  C    3.429084
     4  C   -4.988789
     5  C    0.631367
     6  C   -2.537971
     7  N   -2.232388
     8  H    0.893626
     9  H    0.864177
    10  H    0.882907
    11  H    0.911079
    12  H    0.952432
    13  H    1.348237
    14  H    1.407894
    15  H    1.353101
    16  H    0.637859
 Sum of Mulliken charges =  -0.00000

 Dipole moment (field-independent basis, Debye):
    X=              0.3066    Y=              0.8780    Z=              0.9927  Tot=              1.3603

 Test job not archived.
 1\1\GINC-SE114\SP\RHF\Aug-CC-pVDZ\C6H9N1\OHZDE\09-Apr-2025\0\\#t hf au
 g-cc-pvdz iop(5/13=1,5/36=2,99/5=2) pseudo=read geom=check guess=(read
 ,tcheck) scf=(maxcycle=1)\\title\\0,1\C,0,2.66798758,0.78729197,2.0899
 2509\C,0,1.71059111,0.13292126,1.20520635\C,0,0.93154798,-0.41001113,0
 .47336845\C,0,-0.03537408,-1.05928473,-0.41132957\C,0,-1.41378374,-0.4
 4718449,-0.31155232\C,0,-1.81506009,0.68396929,-1.16662314\N,0,-2.2892
 9332,-0.67031934,-1.45316283\H,0,2.3878308,1.82703947,2.26641388\H,0,3
 .66759079,0.77695412,1.65247364\H,0,2.71529465,0.28089817,3.05526201\H

 Normal termination of Gaussian 16 at Wed Apr  9 19:01:02 2025.
