 Gaussian 16, Revision C.01,

 ----------------------------------------------------------------------
 #t hf aug-cc-pvdz symm=none int=(grid=ultrafine) guess=(read,tcheck) s
 table=(opt,rrhf)
 ----------------------------------------------------------------------
 -----
 title
 -----
 Symbolic Z-matrix:
 Charge =  0 Multiplicity = 1

 SCF Done:  E(RHF) =  -358.475878166     A.U. after   16 cycles
 Normal termination of Gaussian 16 at Wed Apr  9 04:04:31 2025.
 Gaussian 16:  ES64L-G16RevC.01  3-Jul-2019

 ----------------------------------------------------------------------
 #t hf aug-cc-pvdz iop(5/13=1,5/36=2,99/5=2) pseudo=read geom=check gue
 ss=(read,tcheck) scf=(maxcycle=1)
 ----------------------------------------------------------------------
 -----
 title
 -----
 Structure from the checkpoint file:  "Grambow2020_wb97xd3_009146_reverse_mol1.chk"
 Charge =  0 Multiplicity = 1

                         Standard orientation:
 ---------------------------------------------------------------------
 Center     Atomic      Atomic             Coordinates (Angstroms)
 Number     Number       Type             X           Y           Z
 ---------------------------------------------------------------------
      1          6           0        2.435566   -0.456554    0.143091
      2          6           0        1.029191   -0.034264   -0.129769
      3          6           0        0.458053    1.218080   -0.025536
      4          8           0       -0.839728    1.138351    0.032941
      5          6           0       -1.213343   -0.297173    0.022518
      6          8           0       -2.364526   -0.585308    0.091733
      7          7           0       -0.070490   -1.012281   -0.076884
      8          1           0        2.546203   -0.716883    1.196666
      9          1           0        2.697146   -1.333433   -0.447225
     10          1           0        3.132160    0.347223   -0.095858
     11          1           0        0.919678    2.195529   -0.004430
     12          1           0        0.575464   -0.411351   -1.170193
 ---------------------------------------------------------------------

 SCF Done:  E(RHF) =  -360.054025549     A.U. after    2 cycles

 The electronic state is 1-A.
 Alpha  occ. eigenvalues --  -21.14625 -21.03286 -15.74929 -11.54019 -11.52266
 Alpha  occ. eigenvalues --  -11.46723 -11.42167  -1.89586  -1.68407  -1.42244
 Alpha  occ. eigenvalues --   -1.16516  -1.03428  -0.86762  -0.81055  -0.71416
 Alpha  occ. eigenvalues --   -0.69335  -0.60784  -0.59194  -0.57412  -0.51136
 Alpha  occ. eigenvalues --   -0.48366  -0.47530  -0.46720  -0.40809  -0.29696
 Alpha  occ. eigenvalues --   -0.24798
 Alpha virt. eigenvalues --    0.01644   0.03869   0.04621   0.05662   0.05863
 Alpha virt. eigenvalues --    0.07239   0.09869   0.10314   0.10635   0.12041
 Alpha virt. eigenvalues --    0.12614   0.13070   0.13486   0.14348   0.14690

 Mulliken charges:
               1
     1  C   -4.358185
     2  C    0.966760
     3  C    0.840532
     4  O   -3.399151
     5  C    5.907299
     6  O   -3.260658
     7  N   -2.863341
     8  H    1.081100
     9  H    1.129618
    10  H    1.130912
    11  H    1.517157
    12  H    1.307957
 Sum of Mulliken charges =   0.00000

 Dipole moment (field-independent basis, Debye):
    X=              4.2217    Y=              2.8340    Z=             -0.2210  Tot=              5.0895

 Test job not archived.
 1\1\GINC-SE009\SP\RHF\Aug-CC-pVDZ\C4H5N1O2\OHZDE\09-Apr-2025\0\\#t hf
 aug-cc-pvdz iop(5/13=1,5/36=2,99/5=2) pseudo=read geom=check guess=(re
 ad,tcheck) scf=(maxcycle=1)\\title\\0,1\C,0,-1.40479807,-0.48411612,-0
 .89880126\C,0,-0.26859647,-0.05689506,-0.02862865\C,0,0.19616981,1.215
 21972,0.23810456\O,0,1.40739539,1.18201744,0.71333105\C,0,1.85495821,-
 0.23208914,0.73366568\O,0,2.95334259,-0.47506662,1.11778707\N,0,0.8299
 686,-0.98774256,0.28006185\H,0,-1.05663633,-0.61594339,-1.92419736\H,0
 ,-1.81477288,-1.4344019,-0.56014058\H,0,-2.19860396,0.26300528,-0.8899

 Normal termination of Gaussian 16 at Wed Apr  9 04:04:36 2025.
