 Gaussian 16, Revision C.01,

 ----------------------------------------------------------------------
 #t hf aug-cc-pvdz symm=none int=(grid=ultrafine) guess=(read,tcheck) s
 table=(opt,rrhf)
 ----------------------------------------------------------------------
 -----
 title
 -----
 Symbolic Z-matrix:
 Charge =  0 Multiplicity = 1

 SCF Done:  E(RHF) =  -168.783951477     A.U. after   14 cycles
 Normal termination of Gaussian 16 at Wed Apr  9 17:22:05 2025.
 Gaussian 16:  ES64L-G16RevC.01  3-Jul-2019

 ----------------------------------------------------------------------
 #t hf aug-cc-pvdz iop(5/13=1,5/36=2,99/5=2) pseudo=read geom=check gue
 ss=(read,tcheck) scf=(maxcycle=1)
 ----------------------------------------------------------------------
 -----
 title
 -----
 Structure from the checkpoint file:  "Grambow2020_b97d3_007119_reverse_mol2.chk"
 Charge =  0 Multiplicity = 1

                         Standard orientation:
 ---------------------------------------------------------------------
 Center     Atomic      Atomic             Coordinates (Angstroms)
 Number     Number       Type             X           Y           Z
 ---------------------------------------------------------------------
      1          7           0       -1.165386    0.111428   -0.121685
      2          6           0        1.156652    0.410014    0.038565
      3          8           0        0.214745   -0.474446   -0.027491
      4          1           0       -1.598036   -0.292894    0.721195
      5          1           0       -0.966179    1.102409    0.101142
      6          1           0        2.064041   -0.254023    0.017992
 ---------------------------------------------------------------------

 SCF Done:  E(RHF) =  -169.514564548     A.U. after    2 cycles

 The electronic state is 1-A.
 Alpha  occ. eigenvalues --  -21.14822 -15.80968 -11.42547  -1.83924  -1.22559
 Alpha  occ. eigenvalues --   -0.84141  -0.70801  -0.59220  -0.53019  -0.50848
 Alpha  occ. eigenvalues --   -0.39443  -0.33584
 Alpha virt. eigenvalues --    0.03889   0.05673   0.06471   0.08992   0.11067
 Alpha virt. eigenvalues --    0.13043   0.15504   0.17139   0.17831   0.19371
 Alpha virt. eigenvalues --    0.20412   0.22711   0.23250   0.25298   0.27201

 Mulliken charges:
               1
     1  N   -0.597885
     2  C   -0.830252
     3  O   -1.616370
     4  H    0.667482
     5  H    0.831475
     6  H    1.545549
 Sum of Mulliken charges =  -0.00000

 Dipole moment (field-independent basis, Debye):
    X=             -1.0255    Y=             -1.3919    Z=              1.0842  Tot=              2.0407

 Test job not archived.
 1\1\GINC-SE173\SP\RHF\Aug-CC-pVDZ\C1H3N1O1\OHZDE\09-Apr-2025\0\\#t hf
 aug-cc-pvdz iop(5/13=1,5/36=2,99/5=2) pseudo=read geom=check guess=(re
 ad,tcheck) scf=(maxcycle=1)\\title\\0,1\N,0,0.9593258,0.57597072,-0.15
 615346\C,0,-0.87792956,-0.88372719,-0.13452703\O,0,-0.52606258,0.35874
 423,-0.21374777\H,0,1.02774403,1.1805873,0.67503065\H,0,1.27680288,-0.
 36328074,0.14115704\H,0,-1.98936658,-0.79231631,-0.27969843\\Version=E
 S64L-G16RevC.01\State=1-A\HF=-169.5145645\RMSD=4.960e-02\Dipole=0.0146
 703,0.6945238,0.4025496\Quadrupole=1.768227,-2.2619761,0.4937491,-0.19

 Normal termination of Gaussian 16 at Wed Apr  9 17:22:07 2025.
