 Gaussian 16, Revision C.01,

 ----------------------------------------------------------------------
 #t hf aug-cc-pvdz symm=none int=(grid=ultrafine) guess=(read,tcheck) s
 table=(opt,rrhf)
 ----------------------------------------------------------------------
 -----
 title
 -----
 Symbolic Z-matrix:
 Charge =  0 Multiplicity = 1

 SCF Done:  E(RHF) =  -358.440762246     A.U. after   15 cycles
 Normal termination of Gaussian 16 at Wed Apr  9 03:34:09 2025.
 Gaussian 16:  ES64L-G16RevC.01  3-Jul-2019

 ----------------------------------------------------------------------
 #t hf aug-cc-pvdz iop(5/13=1,5/36=2,99/5=2) pseudo=read geom=check gue
 ss=(read,tcheck) scf=(maxcycle=1)
 ----------------------------------------------------------------------
 -----
 title
 -----
 Structure from the checkpoint file:  "Grambow2020_wb97xd3_007083_forward_mol1.chk"
 Charge =  0 Multiplicity = 1

                         Standard orientation:
 ---------------------------------------------------------------------
 Center     Atomic      Atomic             Coordinates (Angstroms)
 Number     Number       Type             X           Y           Z
 ---------------------------------------------------------------------
      1          8           0       -1.821400   -1.082590   -0.134148
      2          6           0       -0.835243   -0.433816   -0.046913
      3          7           0        0.498158   -1.013078   -0.169310
      4          6           0        1.648576   -0.125410   -0.501128
      5          6           0        1.158436   -0.078032    0.864536
      6          8           0       -0.340735    1.877266   -0.399488
      7          6           0       -0.543411    0.998835    0.439626
      8          1           0        0.606939   -2.017987   -0.221312
      9          1           0        1.381637    0.697988   -1.161688
     10          1           0        2.522722   -0.707022   -0.777128
     11          1           0        1.690162   -0.620784    1.641254
     12          1           0       -0.961634    1.212484    1.436407
 ---------------------------------------------------------------------

 SCF Done:  E(RHF) =  -360.022248572     A.U. after    2 cycles

 The electronic state is 1-A.
 Alpha  occ. eigenvalues --  -21.09774 -21.00504 -15.84902 -11.54474 -11.48290
 Alpha  occ. eigenvalues --  -11.48000 -11.41654  -1.77335  -1.67215  -1.54491
 Alpha  occ. eigenvalues --   -1.08376  -1.02154  -0.88858  -0.81999  -0.71907
 Alpha  occ. eigenvalues --   -0.67824  -0.62535  -0.58461  -0.57616  -0.52965
 Alpha  occ. eigenvalues --   -0.46488  -0.45823  -0.42212  -0.36311  -0.28273
 Alpha  occ. eigenvalues --   -0.25059
 Alpha virt. eigenvalues --    0.02654   0.04207   0.04666   0.05708   0.07262
 Alpha virt. eigenvalues --    0.09698   0.09741   0.10329   0.11724   0.12226
 Alpha virt. eigenvalues --    0.12888   0.13615   0.14012   0.14822   0.14894

 Mulliken charges:
               1
     1  O   -3.198171
     2  C    4.615535
     3  N   -2.031478
     4  C   -2.293209
     5  C   -1.106812
     6  O   -2.833237
     7  C    0.877422
     8  H    0.706434
     9  H    1.432441
    10  H    1.365972
    11  H    1.180795
    12  H    1.284309
 Sum of Mulliken charges =   0.00000

 Dipole moment (field-independent basis, Debye):
    X=              2.5438    Y=             -3.8096    Z=             -0.4427  Tot=              4.6021

 Test job not archived.
 1\1\GINC-SE021\SP\RHF\Aug-CC-pVDZ\C4H5N1O2\OHZDE\09-Apr-2025\0\\#t hf
 aug-cc-pvdz iop(5/13=1,5/36=2,99/5=2) pseudo=read geom=check guess=(re
 ad,tcheck) scf=(maxcycle=1)\\title\\0,1\O,0,0.90104664,2.2013402,0.619
 90411\C,0,0.37115957,1.14972936,0.50007893\N,0,0.77182477,0.180512,-0.
 51410431\C,0,0.40218136,-1.25241125,-0.33630601\C,0,-0.65124456,-0.354
 59812,-0.77419224\O,0,-0.86275282,-0.25801413,1.98522781\C,0,-0.933443
 45,0.54599129,1.05495437\H,0,1.45012453,0.44126667,-1.21858828\H,0,0.3
 9387938,-1.56976603,0.70523026\H,0,0.94418157,-1.88412856,-1.03326348\

 Normal termination of Gaussian 16 at Wed Apr  9 03:34:13 2025.
