 Gaussian 16, Revision C.01,

 ----------------------------------------------------------------------
 #t hf aug-cc-pvdz symm=none int=(grid=ultrafine) guess=(read,tcheck) s
 table=(opt,rrhf)
 ----------------------------------------------------------------------
 -----
 title
 -----
 Symbolic Z-matrix:
 Charge =  0 Multiplicity = 1

 SCF Done:  E(RHF) =  -288.062230010     A.U. after   13 cycles

 1\1\GINC-SE174\Stability\RHF\Aug-CC-pVDZ\C6H11N1\OHZDE\09-Apr-2025\0\\
 #t hf aug-cc-pvdz symm=none int=(grid=ultrafine) guess=(read,tcheck) s
 table=(opt,rrhf)\\title\\0,1\C,0,-2.02863568,0.45044113,-0.88603436\C,
 0,-1.06404837,-0.31533612,-0.00508395\C,0,0.18652585,-0.98776551,-0.63
 025608\C,0,1.05090459,-0.47702055,0.55452362\C,0,2.41803155,0.11789489
 ,0.29760394\C,0,-0.0913698,0.4680395,0.86889159\N,0,-0.09042119,1.5746
 0165,1.46501789\H,0,-2.765377,0.99426861,-0.29027002\H,0,-1.49583607,1
 .17532841,-1.50556691\H,0,-2.57551051,-0.22391378,-1.54794016\H,0,-1.0

 Normal termination of Gaussian 16 at Wed Apr  9 18:15:31 2025.
 Gaussian 16:  ES64L-G16RevC.01  3-Jul-2019

 ----------------------------------------------------------------------
 #t hf aug-cc-pvdz iop(5/13=1,5/36=2,99/5=2) pseudo=read geom=check gue
 ss=(read,tcheck) scf=(maxcycle=1)
 ----------------------------------------------------------------------
 -----
 title
 -----
 Structure from the checkpoint file:  "Grambow2020_wb97xd3_006811_reverse_mol2.chk"
 Charge =  0 Multiplicity = 1

                         Standard orientation:
 ---------------------------------------------------------------------
 Center     Atomic      Atomic             Coordinates (Angstroms)
 Number     Number       Type             X           Y           Z
 ---------------------------------------------------------------------
      1          6           0        2.300364   -0.222676    0.483563
      2          6           0        1.087062   -0.338618   -0.414977
      3          6           0       -0.018641   -1.377415   -0.090543
      4          6           0       -1.106532   -0.317001   -0.412610
      5          6           0       -2.312805   -0.167070    0.488165
      6          6           0       -0.005426    0.719210   -0.309695
      7          7           0       -0.064493    1.943257   -0.030292
      8          1           0        2.907084    0.647441    0.222301
      9          1           0        2.000266   -0.121783    1.528991
     10          1           0        2.938002   -1.104711    0.397675
     11          1           0        0.869159    2.342942    0.063255
     12          1           0        1.391688   -0.435268   -1.462121
     13          1           0       -0.025165   -2.295748   -0.676377
     14          1           0       -0.019787   -1.631964    0.971900
     15          1           0       -1.415690   -0.409617   -1.458928
     16          1           0       -2.973622   -1.032810    0.408588
     17          1           0       -2.003180   -0.064833    1.530434
     18          1           0       -2.881439    0.724969    0.222914
 ---------------------------------------------------------------------

 SCF Done:  E(RHF) =  -289.497954749     A.U. after    2 cycles

 The electronic state is 1-A.
 Alpha  occ. eigenvalues --  -15.72583 -11.51777 -11.42944 -11.41650 -11.39042
 Alpha  occ. eigenvalues --  -11.37998 -11.35094  -1.40676  -1.23789  -1.12002
 Alpha  occ. eigenvalues --   -1.02544  -0.89487  -0.86127  -0.73761  -0.66847
 Alpha  occ. eigenvalues --   -0.61511  -0.59956  -0.59073  -0.56049  -0.53421
 Alpha  occ. eigenvalues --   -0.50252  -0.49460  -0.48314  -0.42811  -0.40603
 Alpha  occ. eigenvalues --   -0.38599  -0.33789
 Alpha virt. eigenvalues --    0.03637   0.05148   0.05344   0.05520   0.05694
 Alpha virt. eigenvalues --    0.05978   0.06439   0.06929   0.07106   0.08233
 Alpha virt. eigenvalues --    0.08669   0.11126   0.12334   0.13305   0.13816

 Mulliken charges:
               1
     1  C   -4.341883
     2  C   -1.684100
     3  C   -3.164584
     4  C   -1.133584
     5  C   -4.360561
     6  C    4.540784
     7  N   -3.522776
     8  H    1.206388
     9  H    1.227345
    10  H    1.213686
    11  H    0.682138
    12  H    1.456320
    13  H    1.267905
    14  H    1.568432
    15  H    1.398837
    16  H    1.220540
    17  H    1.200749
    18  H    1.224364
 Sum of Mulliken charges =   0.00000

 Dipole moment (field-independent basis, Debye):
    X=              1.1220    Y=             -1.6982    Z=             -0.3856  Tot=              2.0716

 Test job not archived.
 1\1\GINC-SE174\SP\RHF\Aug-CC-pVDZ\C6H11N1\OHZDE\09-Apr-2025\0\\#t hf a
 ug-cc-pvdz iop(5/13=1,5/36=2,99/5=2) pseudo=read geom=check guess=(rea
 d,tcheck) scf=(maxcycle=1)\\title\\0,1\C,0,-2.02863568,0.45044113,-0.8
 8603436\C,0,-1.06404837,-0.31533612,-0.00508395\C,0,0.18652585,-0.9877
 6551,-0.63025608\C,0,1.05090459,-0.47702055,0.55452362\C,0,2.41803155,
 0.11789489,0.29760394\C,0,-0.0913698,0.4680395,0.86889159\N,0,-0.09042
 119,1.57460165,1.46501789\H,0,-2.765377,0.99426861,-0.29027002\H,0,-1.
 49583607,1.17532841,-1.50556691\H,0,-2.57551051,-0.22391378,-1.5479401

 Normal termination of Gaussian 16 at Wed Apr  9 18:15:38 2025.
