 Gaussian 16, Revision C.01,

 ----------------------------------------------------------------------
 #t hf aug-cc-pvdz symm=none int=(grid=ultrafine) guess=(read,tcheck) s
 table=(opt,rrhf)
 ----------------------------------------------------------------------
 -----
 title
 -----
 Symbolic Z-matrix:
 Charge =  0 Multiplicity = 1

 SCF Done:  E(RHF) =  -322.507035966     A.U. after   18 cycles
 Normal termination of Gaussian 16 at Wed Apr  9 18:26:26 2025.
 Gaussian 16:  ES64L-G16RevC.01  3-Jul-2019

 ----------------------------------------------------------------------
 #t hf aug-cc-pvdz iop(5/13=1,5/36=2,99/5=2) pseudo=read geom=check gue
 ss=(read,tcheck) scf=(maxcycle=1)
 ----------------------------------------------------------------------
 -----
 title
 -----
 Structure from the checkpoint file:  "Grambow2020_wb97xd3_007131_forward_mol1.chk"
 Charge =  0 Multiplicity = 1

                         Standard orientation:
 ---------------------------------------------------------------------
 Center     Atomic      Atomic             Coordinates (Angstroms)
 Number     Number       Type             X           Y           Z
 ---------------------------------------------------------------------
      1          7           0        1.268013   -1.489112    0.072851
      2          6           0        0.277831   -0.844952   -0.275762
      3          8           0       -1.055993   -1.089598   -0.110670
      4          6           0       -1.589598    0.146337    0.439196
      5          6           0       -0.793979    1.218400   -0.227079
      6          6           0        1.486723    1.003756    0.467338
      7          6           0        0.445749    0.670066   -0.611777
      8          1           0        1.952833   -0.265006    0.266274
      9          1           0       -1.461585    0.101970    1.528632
     10          1           0       -2.654456    0.222716    0.217671
     11          1           0       -1.238611    2.132710   -0.600255
     12          1           0        1.120255    0.921743    1.491667
     13          1           0        2.065881    1.915142    0.314014
     14          1           0        0.827178    0.949650   -1.594098
 ---------------------------------------------------------------------

 SCF Done:  E(RHF) =  -324.010362768     A.U. after    2 cycles

 The electronic state is 1-A.
 Alpha  occ. eigenvalues --  -21.08054 -15.67837 -11.55883 -11.47566 -11.45841
 Alpha  occ. eigenvalues --  -11.41832 -11.38864  -1.81066  -1.33344  -1.23578
 Alpha  occ. eigenvalues --   -1.06065  -0.96885  -0.85046  -0.77645  -0.68704
 Alpha  occ. eigenvalues --   -0.68202  -0.63734  -0.59651  -0.54429  -0.52238
 Alpha  occ. eigenvalues --   -0.49007  -0.47888  -0.41625  -0.34732  -0.30007
 Alpha  occ. eigenvalues --   -0.25688
 Alpha virt. eigenvalues --    0.01255   0.02519   0.04022   0.04406   0.05246
 Alpha virt. eigenvalues --    0.05815   0.06608   0.08775   0.09754   0.10207
 Alpha virt. eigenvalues --    0.11901   0.12703   0.13322   0.13583   0.13942

 Mulliken charges:
               1
     1  N   -3.196931
     2  C    5.757939
     3  O   -3.105174
     4  C   -2.082832
     5  C    0.077997
     6  C   -2.782864
     7  C   -4.065551
     8  H    1.251945
     9  H    1.408664
    10  H    1.375883
    11  H    1.412043
    12  H    1.321871
    13  H    1.210107
    14  H    1.416902
 Sum of Mulliken charges =   0.00000

 Dipole moment (field-independent basis, Debye):
    X=             -3.2005    Y=              4.2061    Z=             -0.5570  Tot=              5.3146

 Test job not archived.
 1\1\GINC-SE112\SP\RHF\Aug-CC-pVDZ\C5H7N1O1\OHZDE\09-Apr-2025\0\\#t hf
 aug-cc-pvdz iop(5/13=1,5/36=2,99/5=2) pseudo=read geom=check guess=(re
 ad,tcheck) scf=(maxcycle=1)\\title\\0,1\N,0,1.65495299,-1.52283262,-0.
 59175861\C,0,1.15536549,-0.48757482,-0.14950842\O,0,1.62514957,0.79487
 774,-0.12098768\C,0,0.53783104,1.59518791,-0.66123199\C,0,-0.69683325,
 0.91870466,-0.16703906\C,0,-0.80288785,-1.26235929,-1.14764981\C,0,-0.
 3879797,-0.43418482,0.07768293\H,0,0.35429667,-1.95946655,-0.94171668\
 H,0,0.64382963,1.5962267,-1.75393066\H,0,0.61863576,2.62206272,-0.3037

 Normal termination of Gaussian 16 at Wed Apr  9 18:26:31 2025.
