 Gaussian 16, Revision C.01,

 ----------------------------------------------------------------------
 #t hf aug-cc-pvdz symm=none int=(grid=ultrafine) guess=(read,tcheck) s
 table=(opt,rrhf)
 ----------------------------------------------------------------------
 -----
 title
 -----
 Symbolic Z-matrix:
 Charge =  0 Multiplicity = 1

 SCF Done:  E(RHF) =  -323.934880546     A.U. after   14 cycles
 Normal termination of Gaussian 16 at Wed Apr  9 03:52:46 2025.
 Gaussian 16:  ES64L-G16RevC.01  3-Jul-2019

 ----------------------------------------------------------------------
 #t hf aug-cc-pvdz iop(5/13=1,5/36=2,99/5=2) pseudo=read geom=check gue
 ss=(read,tcheck) scf=(maxcycle=1)
 ----------------------------------------------------------------------
 -----
 title
 -----
 Structure from the checkpoint file:  "Grambow2020_wb97xd3_008335_reverse_mol2.chk"
 Charge =  0 Multiplicity = 1

                         Standard orientation:
 ---------------------------------------------------------------------
 Center     Atomic      Atomic             Coordinates (Angstroms)
 Number     Number       Type             X           Y           Z
 ---------------------------------------------------------------------
      1          7           0        0.944568   -1.153984   -0.659288
      2          6           0        1.359539   -0.060221    0.031333
      3          6           0        0.312820    0.995829    0.358856
      4          6           0       -0.942420    1.061090   -0.506424
      5          6           0       -2.022718    0.048823   -0.246992
      6          6           0       -2.061794   -0.855574    0.721321
      7          8           0        2.515383    0.086568    0.369386
      8          1           0        1.618205   -1.883760   -0.810491
      9          1           0        0.053005    0.869321    1.414204
     10          1           0        0.848170    1.943385    0.300867
     11          1           0       -0.663422    1.012415   -1.564598
     12          1           0       -1.394772    2.050741   -0.383263
     13          1           0       -2.863015    0.100478   -0.935574
     14          1           0       -0.031008   -1.358423   -0.784245
     15          1           0       -2.909369   -1.521400    0.825392
     16          1           0       -1.265401   -0.967091    1.449069
 ---------------------------------------------------------------------

 SCF Done:  E(RHF) =  -325.455897914     A.U. after    2 cycles

 The electronic state is 1-A.
 Alpha  occ. eigenvalues --  -21.01340 -15.76912 -11.50204 -11.45571 -11.41843
 Alpha  occ. eigenvalues --  -11.40245 -11.37996  -1.69847  -1.34740  -1.24651
 Alpha  occ. eigenvalues --   -1.10178  -0.96751  -0.81603  -0.77702  -0.71628
 Alpha  occ. eigenvalues --   -0.67976  -0.61762  -0.60045  -0.58061  -0.54266
 Alpha  occ. eigenvalues --   -0.51997  -0.48071  -0.47167  -0.45277  -0.36727
 Alpha  occ. eigenvalues --   -0.31570  -0.27578
 Alpha virt. eigenvalues --    0.03277   0.04898   0.04969   0.05535   0.05670
 Alpha virt. eigenvalues --    0.06595   0.06750   0.07483   0.08184   0.10587
 Alpha virt. eigenvalues --    0.11610   0.12486   0.13224   0.13762   0.14341

 Mulliken charges:
               1
     1  N   -2.945211
     2  C    4.858116
     3  C   -2.663066
     4  C   -3.608379
     5  C    0.050577
     6  C   -3.414607
     7  O   -3.344944
     8  H    0.737123
     9  H    1.514773
    10  H    1.149601
    11  H    1.380559
    12  H    1.255271
    13  H    1.243197
    14  H    0.959100
    15  H    1.323926
    16  H    1.503965
 Sum of Mulliken charges =   0.00000

 Dipole moment (field-independent basis, Debye):
    X=             -2.6448    Y=             -0.6464    Z=             -0.8073  Tot=              2.8398

 Test job not archived.
 1\1\GINC-SE333\SP\RHF\Aug-CC-pVDZ\C5H9N1O1\OHZDE\09-Apr-2025\0\\#t hf
 aug-cc-pvdz iop(5/13=1,5/36=2,99/5=2) pseudo=read geom=check guess=(re
 ad,tcheck) scf=(maxcycle=1)\\title\\0,1\N,0,1.2413482,0.91186825,1.155
 61412\C,0,1.77250788,0.07002715,0.23114115\C,0,0.80488004,-0.81223848,
 -0.54567155\C,0,-0.55834515,-1.1079605,0.07300584\C,0,-1.61212225,-0.0
 3996243,-0.01624015\C,0,-1.5329658,1.11633122,-0.65952101\O,0,2.967328
 72,0.00603633,0.03086441\H,0,1.87145059,1.54550646,1.61462948\H,0,0.69
 41358,-0.36538352,-1.53830605\H,0,1.34638995,-1.74482727,-0.70336964\H

 Normal termination of Gaussian 16 at Wed Apr  9 03:52:51 2025.
