 Gaussian 16, Revision C.01,

 ----------------------------------------------------------------------
 #t hf aug-cc-pvdz symm=none int=(grid=ultrafine) guess=(read,tcheck) s
 table=(opt,rrhf)
 ----------------------------------------------------------------------
 -----
 title
 -----
 Symbolic Z-matrix:
 Charge =  0 Multiplicity = 1

 SCF Done:  E(RHF) =  -306.712136378     A.U. after   14 cycles
 Normal termination of Gaussian 16 at Wed Apr  9 03:59:43 2025.
 Gaussian 16:  ES64L-G16RevC.01  3-Jul-2019

 ----------------------------------------------------------------------
 #t hf aug-cc-pvdz iop(5/13=1,5/36=2,99/5=2) pseudo=read geom=check gue
 ss=(read,tcheck) scf=(maxcycle=1)
 ----------------------------------------------------------------------
 -----
 title
 -----
 Structure from the checkpoint file:  "Grambow2020_wb97xd3_008798_reverse_mol2.chk"
 Charge =  0 Multiplicity = 1

                         Standard orientation:
 ---------------------------------------------------------------------
 Center     Atomic      Atomic             Coordinates (Angstroms)
 Number     Number       Type             X           Y           Z
 ---------------------------------------------------------------------
      1          8           0        2.609988   -1.074483   -0.010954
      2          6           0        1.502761   -0.595746   -0.051381
      3          6           0       -2.305189   -1.270698   -0.222914
      4          6           0       -1.595114   -0.372160    0.440345
      5          6           0       -1.306029    1.014641   -0.047799
      6          6           0        0.114053    1.509332   -0.036296
      7          6           0        1.279983    0.860594   -0.022552
      8          1           0       -2.695948   -1.067321   -1.214590
      9          1           0       -2.519366   -2.244489    0.199521
     10          1           0       -1.220110   -0.613833    1.432422
     11          1           0        0.615087   -1.244510   -0.130492
     12          1           0       -1.701391    1.142256   -1.062086
     13          1           0       -1.880086    1.714852    0.570490
     14          1           0        0.180120    2.594758   -0.054145
     15          1           0        2.199000    1.438369   -0.009907
 ---------------------------------------------------------------------

 SCF Done:  E(RHF) =  -308.142813947     A.U. after    2 cycles

 The electronic state is 1-A.
 Alpha  occ. eigenvalues --  -21.05264 -11.48578 -11.46826 -11.44188 -11.42294
 Alpha  occ. eigenvalues --  -11.40129 -11.38488  -1.70107  -1.27950  -1.15119
 Alpha  occ. eigenvalues --   -1.02911  -0.89795  -0.81227  -0.77414  -0.66825
 Alpha  occ. eigenvalues --   -0.64751  -0.60525  -0.59056  -0.54626  -0.50729
 Alpha  occ. eigenvalues --   -0.50161  -0.47917  -0.46719  -0.36744  -0.33944
 Alpha  occ. eigenvalues --   -0.28582
 Alpha virt. eigenvalues --    0.03134   0.04802   0.05085   0.05422   0.05856
 Alpha virt. eigenvalues --    0.06127   0.07109   0.07452   0.09644   0.10806
 Alpha virt. eigenvalues --    0.11010   0.11734   0.13036   0.13619   0.14021

 Mulliken charges:
               1
     1  O   -3.003838
     2  C    0.585703
     3  C   -3.120473
     4  C   -0.885770
     5  C   -4.024034
     6  C    0.311980
     7  C   -0.811398
     8  H    1.412812
     9  H    1.362122
    10  H    1.536784
    11  H    1.646917
    12  H    1.296378
    13  H    1.191876
    14  H    1.195636
    15  H    1.305303
 Sum of Mulliken charges =   0.00000

 Dipole moment (field-independent basis, Debye):
    X=             -2.1513    Y=              1.2263    Z=             -0.0593  Tot=              2.4770

 Test job not archived.
 1\1\GINC-SE333\SP\RHF\Aug-CC-pVDZ\C6H8O1\OHZDE\09-Apr-2025\0\\#t hf au
 g-cc-pvdz iop(5/13=1,5/36=2,99/5=2) pseudo=read geom=check guess=(read
 ,tcheck) scf=(maxcycle=1)\\title\\0,1\O,0,1.41606605,-2.16388572,2.038
 15343\C,0,0.95171719,-1.36841414,1.25816646\C,0,-2.05253796,-0.4285301
 ,-0.99494974\C,0,-1.25587033,0.30302155,-0.2322952\C,0,-0.02381506,1.0
 0593263,-0.71502312\C,0,1.26473552,0.81557438,0.0365657\C,0,1.67605174
 ,-0.1473022,0.86368819\H,0,-1.82997196,-0.6082622,-2.04167712\H,0,-2.9
 5525273,-0.87788854,-0.60026746\H,0,-1.51298949,0.45997765,0.81293472\

 Normal termination of Gaussian 16 at Wed Apr  9 03:59:47 2025.
