 Gaussian 16, Revision C.01,

 ----------------------------------------------------------------------
 #t hf aug-cc-pvdz symm=none int=(grid=ultrafine) guess=(read,tcheck) s
 table=(opt,rrhf)
 ----------------------------------------------------------------------
 -----
 title
 -----
 Symbolic Z-matrix:
 Charge =  0 Multiplicity = 1

 SCF Done:  E(RHF) =  -263.796632411     A.U. after   15 cycles
 Normal termination of Gaussian 16 at Wed Apr  9 16:52:54 2025.
 Gaussian 16:  ES64L-G16RevC.01  3-Jul-2019

 ----------------------------------------------------------------------
 #t hf aug-cc-pvdz iop(5/13=1,5/36=2,99/5=2) pseudo=read geom=check gue
 ss=(read,tcheck) scf=(maxcycle=1)
 ----------------------------------------------------------------------
 -----
 title
 -----
 Structure from the checkpoint file:  "Grambow2020_b97d3_006859_reverse_mol2.chk"
 Charge =  0 Multiplicity = 1

                         Standard orientation:
 ---------------------------------------------------------------------
 Center     Atomic      Atomic             Coordinates (Angstroms)
 Number     Number       Type             X           Y           Z
 ---------------------------------------------------------------------
      1          6           0        1.520723   -1.106705    0.090650
      2          6           0        0.362519   -0.129347    0.043735
      3          6           0       -1.004393   -0.708063   -0.084474
      4          7           0       -2.047344    0.016239    0.095843
      5          7           0        0.597205    1.213377   -0.749629
      6          6           0        0.480108    1.248246    0.506120
      7          1           0        2.476206   -0.571600    0.144652
      8          1           0        1.445544   -1.765360    0.969273
      9          1           0        1.535658   -1.742189   -0.807725
     10          1           0       -1.025395   -1.784298   -0.335800
     11          1           0       -2.899301   -0.542533   -0.049027
     12          1           0        0.464522    1.973889    1.318939
 ---------------------------------------------------------------------

 SCF Done:  E(RHF) =  -265.023938529     A.U. after    2 cycles

 The electronic state is 1-A.
 Alpha  occ. eigenvalues --  -15.76891 -15.74574 -11.49243 -11.45238 -11.42474
 Alpha  occ. eigenvalues --  -11.38572  -1.47323  -1.31729  -1.10751  -0.93358
 Alpha  occ. eigenvalues --   -0.83259  -0.78268  -0.68337  -0.62275  -0.59034
 Alpha  occ. eigenvalues --   -0.56898  -0.52781  -0.48187  -0.44871  -0.40232
 Alpha  occ. eigenvalues --   -0.38251  -0.33315
 Alpha virt. eigenvalues --    0.03493   0.05128   0.05304   0.06047   0.06133
 Alpha virt. eigenvalues --    0.07089   0.09353   0.11078   0.11256   0.11760
 Alpha virt. eigenvalues --    0.13050   0.13315   0.13941   0.15020   0.15419

 Mulliken charges:
               1
     1  C   -5.082971
     2  C    1.740407
     3  C    0.235633
     4  N   -3.000512
     5  N   -1.610625
     6  C    0.600600
     7  H    1.360144
     8  H    1.161029
     9  H    1.097680
    10  H    1.694403
    11  H    0.708804
    12  H    1.095407
 Sum of Mulliken charges =  -0.00000

 Dipole moment (field-independent basis, Debye):
    X=              0.5026    Y=             -1.4535    Z=              1.3291  Tot=              2.0327

 Test job not archived.
 1\1\GINC-SE229\SP\RHF\Aug-CC-pVDZ\C4H6N2\OHZDE\09-Apr-2025\0\\#t hf au
 g-cc-pvdz iop(5/13=1,5/36=2,99/5=2) pseudo=read geom=check guess=(read
 ,tcheck) scf=(maxcycle=1)\\title\\0,1\C,0,-1.51088852,-0.38834604,0.18
 092506\C,0,-0.11853445,0.2107919,0.14558503\C,0,0.99806228,-0.69828579
 ,-0.23728249\N,0,2.1614184,-0.23459425,-0.5138059\N,0,0.23091757,1.263
 61677,1.26668025\C,0,0.11475984,1.64792001,0.07058258\H,0,-2.24396924,
 0.35646329,0.51266949\H,0,-1.81152691,-0.74637606,-0.81551262\H,0,-1.5
 5413587,-1.2421364,0.87396988\H,0,0.72914263,-1.77017281,-0.26238276\H

 Normal termination of Gaussian 16 at Wed Apr  9 16:52:58 2025.
