 Gaussian 16, Revision C.01,

 ----------------------------------------------------------------------
 #t hf aug-cc-pvdz symm=none int=(grid=ultrafine) guess=(read,tcheck) s
 table=(opt,rrhf)
 ----------------------------------------------------------------------
 -----
 title
 -----
 Symbolic Z-matrix:
 Charge =  0 Multiplicity = 1

 SCF Done:  E(RHF) =  -307.751161314     A.U. after   14 cycles

 1\1\GINC-SE041\Stability\RHF\Aug-CC-pVDZ\C6H10O1\OHZDE\09-Apr-2025\0\\
 #t hf aug-cc-pvdz symm=none int=(grid=ultrafine) guess=(read,tcheck) s
 table=(opt,rrhf)\\title\\0,1\C,0,2.64846433,-1.16480999,-0.59699095\C,
 0,0.46680168,0.3022187,0.78323391\C,0,0.0251569,1.54240686,-0.00907101
 \C,0,-1.44745425,1.30349627,-0.20676369\C,0,-1.81784628,0.08278393,0.1
 5978321\C,0,-0.63765333,-0.74850703,0.59096217\O,0,-0.32350874,-1.7353
 8337,-0.39122547\H,0,2.17089697,-1.02936842,-1.58879085\H,0,1.46068584
 ,-0.07671587,0.48160906\H,0,2.33324025,-2.19238963,-0.33419961\H,0,0.5

 Normal termination of Gaussian 16 at Wed Apr  9 03:45:45 2025.
 Gaussian 16:  ES64L-G16RevC.01  3-Jul-2019

 ----------------------------------------------------------------------
 #t hf aug-cc-pvdz iop(5/13=1,5/36=2,99/5=2) pseudo=read geom=check gue
 ss=(read,tcheck) scf=(maxcycle=1)
 ----------------------------------------------------------------------
 -----
 title
 -----
 Structure from the checkpoint file:  "Grambow2020_wb97xd3_007812_forward_mol1.chk"
 Charge =  0 Multiplicity = 1

                         Standard orientation:
 ---------------------------------------------------------------------
 Center     Atomic      Atomic             Coordinates (Angstroms)
 Number     Number       Type             X           Y           Z
 ---------------------------------------------------------------------
      1          6           0       -2.923692   -0.721660   -0.253467
      2          6           0       -0.141148   -0.676852    0.782046
      3          6           0        0.825214   -1.422810   -0.150989
      4          6           0        1.856947   -0.374157   -0.468162
      5          6           0        1.505702    0.830988   -0.036954
      6          6           0        0.128678    0.821418    0.574215
      7          8           0       -0.815144    1.458584   -0.286323
      8          1           0       -2.585312   -0.542658   -1.294399
      9          1           0       -1.201689   -0.937874    0.610304
     10          1           0       -3.222402    0.295424    0.063801
     11          1           0        0.060242   -0.944179    1.821173
     12          1           0        0.339080   -1.779644   -1.064632
     13          1           0        1.263425   -2.301450    0.326135
     14          1           0        2.773404   -0.596563   -1.002224
     15          1           0        2.075429    1.742701   -0.167697
     16          1           0        0.065095    1.376047    1.511601
     17          1           0       -0.556326    1.277964   -1.193604
 ---------------------------------------------------------------------

 SCF Done:  E(RHF) =  -309.191517898     A.U. after    2 cycles

 The electronic state is 1-A.
 Alpha  occ. eigenvalues --  -21.06747 -11.46946 -11.45529 -11.41274 -11.41005
 Alpha  occ. eigenvalues --  -11.39047 -11.35636  -1.71765  -1.31069  -1.04716
 Alpha  occ. eigenvalues --   -1.01453  -0.93429  -0.82644  -0.77573  -0.71513
 Alpha  occ. eigenvalues --   -0.64924  -0.57607  -0.55095  -0.53999  -0.51120
 Alpha  occ. eigenvalues --   -0.50529  -0.48708  -0.46320  -0.41409  -0.35147
 Alpha  occ. eigenvalues --   -0.33708  -0.30894
 Alpha virt. eigenvalues --    0.03443   0.04338   0.04993   0.05129   0.05448
 Alpha virt. eigenvalues --    0.05804   0.06603   0.07298   0.07855   0.09139
 Alpha virt. eigenvalues --    0.09412   0.11967   0.12440   0.13253   0.13633

 Mulliken charges:
               1
     1  C   -3.341487
     2  C   -3.681217
     3  C   -3.605228
     4  C   -0.108077
     5  C   -0.676211
     6  C    0.058343
     7  O   -2.894771
     8  H    1.424501
     9  H    2.505690
    10  H    1.386609
    11  H    1.118502
    12  H    1.352020
    13  H    1.229844
    14  H    1.436294
    15  H    1.349774
    16  H    1.614792
    17  H    0.830623
 Sum of Mulliken charges =   0.00000

 Dipole moment (field-independent basis, Debye):
    X=              1.2592    Y=              1.0108    Z=             -0.8498  Tot=              1.8247

 Test job not archived.
 1\1\GINC-SE041\SP\RHF\Aug-CC-pVDZ\C6H10O1\OHZDE\09-Apr-2025\0\\#t hf a
 ug-cc-pvdz iop(5/13=1,5/36=2,99/5=2) pseudo=read geom=check guess=(rea
 d,tcheck) scf=(maxcycle=1)\\title\\0,1\C,0,2.64846433,-1.16480999,-0.5
 9699095\C,0,0.46680168,0.3022187,0.78323391\C,0,0.0251569,1.54240686,-
 0.00907101\C,0,-1.44745425,1.30349627,-0.20676369\C,0,-1.81784628,0.08
 278393,0.15978321\C,0,-0.63765333,-0.74850703,0.59096217\O,0,-0.323508
 74,-1.73538337,-0.39122547\H,0,2.17089697,-1.02936842,-1.58879085\H,0,
 1.46068584,-0.07671587,0.48160906\H,0,2.33324025,-2.19238963,-0.334199

 Normal termination of Gaussian 16 at Wed Apr  9 03:45:51 2025.
