 Gaussian 16, Revision C.01,

 ----------------------------------------------------------------------
 #t hf aug-cc-pvdz symm=none int=(grid=ultrafine) guess=(read,tcheck) s
 table=(opt,rrhf)
 ----------------------------------------------------------------------
 -----
 title
 -----
 Symbolic Z-matrix:
 Charge =  0 Multiplicity = 1

 SCF Done:  E(RHF) =  -284.705123106     A.U. after   16 cycles
 Normal termination of Gaussian 16 at Wed Apr  9 03:06:35 2025.
 Gaussian 16:  ES64L-G16RevC.01  3-Jul-2019

 ----------------------------------------------------------------------
 #t hf aug-cc-pvdz iop(5/13=1,5/36=2,99/5=2) pseudo=read geom=check gue
 ss=(read,tcheck) scf=(maxcycle=1)
 ----------------------------------------------------------------------
 -----
 title
 -----
 Structure from the checkpoint file:  "Grambow2020_b97d3_006533_forward_mol1.chk"
 Charge =  0 Multiplicity = 1

                         Standard orientation:
 ---------------------------------------------------------------------
 Center     Atomic      Atomic             Coordinates (Angstroms)
 Number     Number       Type             X           Y           Z
 ---------------------------------------------------------------------
      1          6           0        1.100476    0.860530    0.222758
      2          6           0        1.275064   -0.668622    0.142030
      3          8           0       -0.001584   -1.198111   -0.418787
      4          6           0       -1.205465   -0.668000    0.398796
      5          7           0       -1.349830    0.599784    0.135936
      6          6           0       -0.262003    1.240148   -0.366145
      7          1           0        1.124721    1.157159    1.286576
      8          1           0        1.921652    1.379458   -0.289116
      9          1           0        2.037540   -1.001433   -0.574080
     10          1           0        1.400985   -1.169379    1.103948
     11          1           0       -1.995251   -1.407362    0.285081
     12          1           0       -0.397699    2.298632   -0.593118
     13          1           0       -0.078903   -0.455006   -1.205189
 ---------------------------------------------------------------------

 SCF Done:  E(RHF) =  -286.051616715     A.U. after    2 cycles

 The electronic state is 1-A.
 Alpha  occ. eigenvalues --  -21.15317 -15.75993 -11.48526 -11.41466 -11.40681
 Alpha  occ. eigenvalues --  -11.36145  -1.84229  -1.37260  -1.16908  -0.96121
 Alpha  occ. eigenvalues --   -0.91908  -0.75640  -0.71118  -0.67263  -0.61459
 Alpha  occ. eigenvalues --   -0.57504  -0.56410  -0.54835  -0.49309  -0.44274
 Alpha  occ. eigenvalues --   -0.42684  -0.34947  -0.25843
 Alpha virt. eigenvalues --    0.03813   0.05097   0.05335   0.05800   0.06123
 Alpha virt. eigenvalues --    0.06162   0.07422   0.09806   0.10572   0.12688
 Alpha virt. eigenvalues --    0.13080   0.13785   0.13955   0.14321   0.15111

 Mulliken charges:
               1
     1  C   -2.814928
     2  C   -1.933305
     3  O   -2.397105
     4  C    0.506440
     5  N   -2.401343
     6  C   -0.330660
     7  H    1.295114
     8  H    1.396137
     9  H    1.196503
    10  H    1.486198
    11  H    1.495176
    12  H    1.395443
    13  H    1.106328
 Sum of Mulliken charges =   0.00000

 Dipole moment (field-independent basis, Debye):
    X=              2.5239    Y=             -2.0254    Z=             -0.4513  Tot=              3.2675

 Test job not archived.
 1\1\GINC-SE162\SP\RHF\Aug-CC-pVDZ\C4H7N1O1\OHZDE\09-Apr-2025\0\\#t hf
 aug-cc-pvdz iop(5/13=1,5/36=2,99/5=2) pseudo=read geom=check guess=(re
 ad,tcheck) scf=(maxcycle=1)\\title\\0,1\C,0,0.66498771,-0.76134258,0.5
 5038006\C,0,-0.67132591,-1.06695847,-0.15401231\O,0,-1.02156369,0.1635
 457,-0.92075726\C,0,-0.98122287,1.40217213,0.00820302\N,0,0.26419248,1
 .65782318,0.29245311\C,0,1.14239949,0.63357082,0.13377488\H,0,0.492036
 05,-0.76838122,1.64140003\H,0,1.41547791,-1.53038337,0.32461258\H,0,-0
 .61155774,-1.84959126,-0.9213843\H,0,-1.51530339,-1.24347777,0.5156457

 Normal termination of Gaussian 16 at Wed Apr  9 03:06:39 2025.
