 Gaussian 16, Revision C.01,

 ----------------------------------------------------------------------
 #t hf aug-cc-pvdz symm=none int=(grid=ultrafine) guess=(read,tcheck) s
 table=(opt,rrhf)
 ----------------------------------------------------------------------
 -----
 title
 -----
 Symbolic Z-matrix:
 Charge =  0 Multiplicity = 1

 SCF Done:  E(RHF) =  -306.648668235     A.U. after   15 cycles
 Normal termination of Gaussian 16 at Wed Apr  9 04:04:47 2025.
 Gaussian 16:  ES64L-G16RevC.01  3-Jul-2019

 ----------------------------------------------------------------------
 #t hf aug-cc-pvdz iop(5/13=1,5/36=2,99/5=2) pseudo=read geom=check gue
 ss=(read,tcheck) scf=(maxcycle=1)
 ----------------------------------------------------------------------
 -----
 title
 -----
 Structure from the checkpoint file:  "Grambow2020_wb97xd3_009216_reverse_mol2.chk"
 Charge =  0 Multiplicity = 1

                         Standard orientation:
 ---------------------------------------------------------------------
 Center     Atomic      Atomic             Coordinates (Angstroms)
 Number     Number       Type             X           Y           Z
 ---------------------------------------------------------------------
      1          6           0        2.342326   -1.416049   -0.273269
      2          6           0        1.805851   -0.239040   -0.077393
      3          6           0        1.287108    0.901303    0.118086
      4          6           0        0.731881    2.067875    0.316173
      5          6           0       -1.663805   -0.465357   -0.455618
      6          6           0       -1.690653   -1.087944    0.905737
      7          8           0       -2.091599    0.627125   -0.715512
      8          1           0        1.786284   -2.216236   -0.749346
      9          1           0       -0.671469   -1.351121    1.200054
     10          1           0        3.361973   -1.626174    0.029013
     11          1           0        1.280083    2.874913    0.788576
     12          1           0       -0.292582    2.250981    0.009130
     13          1           0       -1.214213   -1.090133   -1.255351
     14          1           0       -2.265474   -2.017220    0.866689
     15          1           0       -2.128058   -0.406752    1.633039
 ---------------------------------------------------------------------

 SCF Done:  E(RHF) =  -308.081464761     A.U. after    2 cycles

 The electronic state is 1-A.
 Alpha  occ. eigenvalues --  -21.05911 -11.48144 -11.44705 -11.44251 -11.43185
 Alpha  occ. eigenvalues --  -11.41481 -11.38685  -1.70936  -1.21505  -1.11378
 Alpha  occ. eigenvalues --   -1.08673  -0.91395  -0.81624  -0.68962  -0.64020
 Alpha  occ. eigenvalues --   -0.62850  -0.60527  -0.60140  -0.59162  -0.55747
 Alpha  occ. eigenvalues --   -0.49756  -0.47044  -0.42536  -0.35528  -0.31626
 Alpha  occ. eigenvalues --   -0.29381
 Alpha virt. eigenvalues --    0.03115   0.04806   0.05236   0.05672   0.06515
 Alpha virt. eigenvalues --    0.06584   0.07429   0.07817   0.08225   0.09991
 Alpha virt. eigenvalues --    0.11327   0.11816   0.12344   0.12851   0.13948

 Mulliken charges:
               1
     1  C   -4.394126
     2  C    2.279698
     3  C    2.357420
     4  C   -4.434101
     5  C    1.172797
     6  C   -3.996230
     7  O   -2.650689
     8  H    1.061835
     9  H    1.455540
    10  H    0.970348
    11  H    0.966578
    12  H    1.138351
    13  H    1.565270
    14  H    1.258222
    15  H    1.249088
 Sum of Mulliken charges =  -0.00000

 Dipole moment (field-independent basis, Debye):
    X=              0.3807    Y=             -0.7697    Z=              0.5828  Tot=              1.0378

 Test job not archived.
 1\1\GINC-SE341\SP\RHF\Aug-CC-pVDZ\C6H8O1\OHZDE\09-Apr-2025\0\\#t hf au
 g-cc-pvdz iop(5/13=1,5/36=2,99/5=2) pseudo=read geom=check guess=(read
 ,tcheck) scf=(maxcycle=1)\\title\\0,1\C,0,2.01504687,-0.46410785,-1.72
 241645\C,0,1.55048696,0.39428877,-0.85128898\C,0,1.10328972,1.223642,-
 0.00283459\C,0,0.62206919,2.06853681,0.87065595\C,0,-1.83648839,-0.256
 55273,-0.27026216\C,0,-1.38717605,-1.40341064,0.58088883\O,0,-2.351175
 45,0.7449155,0.14953356\H,0,1.34863719,-1.06182056,-2.33460039\H,0,-0.
 32294266,-1.58294705,0.40827869\H,0,3.0812314,-0.60020329,-1.86360567\

 Normal termination of Gaussian 16 at Wed Apr  9 04:04:51 2025.
