 Gaussian 16, Revision C.01,

 ----------------------------------------------------------------------
 #t hf aug-cc-pvdz symm=none int=(grid=ultrafine) guess=(read,tcheck) s
 table=(opt,rrhf)
 ----------------------------------------------------------------------
 -----
 title
 -----
 Symbolic Z-matrix:
 Charge =  0 Multiplicity = 1

 SCF Done:  E(RHF) =  -206.698546948     A.U. after   14 cycles
 Normal termination of Gaussian 16 at Wed Apr  9 03:09:36 2025.
 Gaussian 16:  ES64L-G16RevC.01  3-Jul-2019

 ----------------------------------------------------------------------
 #t hf aug-cc-pvdz iop(5/13=1,5/36=2,99/5=2) pseudo=read geom=check gue
 ss=(read,tcheck) scf=(maxcycle=1)
 ----------------------------------------------------------------------
 -----
 title
 -----
 Structure from the checkpoint file:  "Grambow2020_b97d3_006676_reverse_mol2.chk"
 Charge =  0 Multiplicity = 1

                         Standard orientation:
 ---------------------------------------------------------------------
 Center     Atomic      Atomic             Coordinates (Angstroms)
 Number     Number       Type             X           Y           Z
 ---------------------------------------------------------------------
      1          8           0       -1.617098   -0.418157   -0.000101
      2          6           0        1.863349   -0.157259    0.000140
      3          6           0        0.575556    0.124041   -0.000289
      4          7           0       -0.586097    0.567065   -0.000042
      5          1           0       -2.412224    0.151345    0.001282
      6          1           0        2.409491   -0.288219   -0.934752
      7          1           0        2.408759   -0.288016    0.935473
 ---------------------------------------------------------------------

 SCF Done:  E(RHF) =  -207.603789944     A.U. after    2 cycles

 The electronic state is 1-A.
 Alpha  occ. eigenvalues --  -21.11521 -15.80459 -11.47045 -11.41973  -1.77963
 Alpha  occ. eigenvalues --   -1.27967  -1.07502  -0.72420  -0.64000  -0.63208
 Alpha  occ. eigenvalues --   -0.60809  -0.51459  -0.45479  -0.32528  -0.31658
 Alpha virt. eigenvalues --    0.03279   0.05423   0.06015   0.09377   0.10778
 Alpha virt. eigenvalues --    0.11833   0.12484   0.14358   0.15465   0.17235
 Alpha virt. eigenvalues --    0.18253   0.18349   0.19581   0.21001   0.24179

 Mulliken charges:
               1
     1  O   -2.148185
     2  C   -2.104276
     3  C    1.506688
     4  N   -0.756846
     5  H    0.920644
     6  H    1.291052
     7  H    1.290923
 Sum of Mulliken charges =  -0.00000

 Dipole moment (field-independent basis, Debye):
    X=             -0.0678    Y=             -0.5564    Z=              0.0014  Tot=              0.5605

 Test job not archived.
 1\1\GINC-SE058\SP\RHF\Aug-CC-pVDZ\C2H3N1O1\OHZDE\09-Apr-2025\0\\#t hf
 aug-cc-pvdz iop(5/13=1,5/36=2,99/5=2) pseudo=read geom=check guess=(re
 ad,tcheck) scf=(maxcycle=1)\\title\\0,1\O,0,-0.5754052,1.8977427,-0.40
 17079\C,0,0.06581188,-1.48239629,0.18572414\C,0,0.18481258,-0.17387302
 ,0.08015056\N,0,0.47037056,1.03554186,0.04167373\H,0,-0.12934806,2.766
 47634,-0.34790059\H,0,0.29795719,-2.13670529,-0.65536601\H,0,-0.289169
 96,-1.94077029,1.10946608\\Version=ES64L-G16RevC.01\State=1-A\HF=-207.
 6037899\RMSD=2.513e-01\Dipole=-0.2095512,-0.0072618,-0.0683216\Quadrup

 Normal termination of Gaussian 16 at Wed Apr  9 03:09:38 2025.
