 Gaussian 16, Revision C.01,

 ----------------------------------------------------------------------
 #t hf aug-cc-pvdz symm=none int=(grid=ultrafine) guess=(read,tcheck) s
 table=(opt,rrhf)
 ----------------------------------------------------------------------
 -----
 title
 -----
 Symbolic Z-matrix:
 Charge =  0 Multiplicity = 1

 SCF Done:  E(RHF) =  -279.886198909     A.U. after   14 cycles
 Normal termination of Gaussian 16 at Wed Apr  9 17:09:08 2025.
 Gaussian 16:  ES64L-G16RevC.01  3-Jul-2019

 ----------------------------------------------------------------------
 #t hf aug-cc-pvdz iop(5/13=1,5/36=2,99/5=2) pseudo=read geom=check gue
 ss=(read,tcheck) scf=(maxcycle=1)
 ----------------------------------------------------------------------
 -----
 title
 -----
 Structure from the checkpoint file:  "Grambow2020_b97d3_007052_reverse_mol2.chk"
 Charge =  0 Multiplicity = 1

                         Standard orientation:
 ---------------------------------------------------------------------
 Center     Atomic      Atomic             Coordinates (Angstroms)
 Number     Number       Type             X           Y           Z
 ---------------------------------------------------------------------
      1          7           0       -2.102458   -0.490773    0.046903
      2          6           0       -0.866349    0.149220    0.000276
      3          6           0        0.295842   -0.845751    0.039362
      4          6           0        1.617453   -0.221768    0.000569
      5          7           0        2.701337    0.213167   -0.035341
      6          7           0       -0.620940    1.406966    0.010220
      7          1           0       -2.156487   -1.431422   -0.335102
      8          1           0       -2.907503    0.080553   -0.194843
      9          1           0        0.215223   -1.545080   -0.809607
     10          1           0        0.213483   -1.455842    0.953000
     11          1           0       -1.491963    1.956057   -0.007156
 ---------------------------------------------------------------------

 SCF Done:  E(RHF) =  -281.164330347     A.U. after    2 cycles

 The electronic state is 1-A.
 Alpha  occ. eigenvalues --  -15.79508 -15.75751 -15.73548 -11.51506 -11.46316
 Alpha  occ. eigenvalues --  -11.42399  -1.45811  -1.29843  -1.25446  -1.13245
 Alpha  occ. eigenvalues --   -0.85016  -0.73020  -0.71149  -0.65974  -0.64701
 Alpha  occ. eigenvalues --   -0.55686  -0.51677  -0.50661  -0.42439  -0.42067
 Alpha  occ. eigenvalues --   -0.40672  -0.35707
 Alpha virt. eigenvalues --    0.02125   0.04303   0.04750   0.05902   0.06999
 Alpha virt. eigenvalues --    0.09717   0.10315   0.11210   0.11714   0.13389
 Alpha virt. eigenvalues --    0.13823   0.14198   0.15208   0.15739   0.16298

 Mulliken charges:
               1
     1  N   -3.128239
     2  C    4.147534
     3  C   -3.098960
     4  C    2.671071
     5  N   -2.499972
     6  N   -3.124971
     7  H    0.691401
     8  H    0.651556
     9  H    1.477814
    10  H    1.483006
    11  H    0.729761
 Sum of Mulliken charges =  -0.00000

 Dipole moment (field-independent basis, Debye):
    X=             -5.4303    Y=             -2.9102    Z=             -0.6512  Tot=              6.1953

 Test job not archived.
 1\1\GINC-SE041\SP\RHF\Aug-CC-pVDZ\C3H5N3\OHZDE\09-Apr-2025\0\\#t hf au
 g-cc-pvdz iop(5/13=1,5/36=2,99/5=2) pseudo=read geom=check guess=(read
 ,tcheck) scf=(maxcycle=1)\\title\\0,1\N,0,-1.58460016,-0.22285634,0.46
 521109\C,0,-0.3880658,0.36101356,0.05639198\C,0,0.75863892,-0.65164817
 ,0.01434421\C,0,2.04043556,-0.08506817,-0.40218659\N,0,3.09100137,0.30
 317434,-0.73511856\N,0,-0.14939611,1.59533606,-0.19207211\H,0,-1.71583
 845,-1.21053134,0.26286466\H,0,-2.4240653,0.32773203,0.30677825\H,0,0.
 50190542,-1.47567755,-0.67222146\H,0,0.87319684,-1.10354982,1.01253691

 Normal termination of Gaussian 16 at Wed Apr  9 17:09:11 2025.
