 Gaussian 16, Revision C.01,

 ----------------------------------------------------------------------
 #t hf aug-cc-pvdz symm=none int=(grid=ultrafine) guess=(read,tcheck) s
 table=(opt,rrhf)
 ----------------------------------------------------------------------
 -----
 title
 -----
 Symbolic Z-matrix:
 Charge =  0 Multiplicity = 1

 SCF Done:  E(RHF) =  -308.804012637     A.U. after   16 cycles

 1\1\GINC-SE174\Stability\RHF\Aug-CC-pVDZ\C6H12O1\OHZDE\09-Apr-2025\0\\
 #t hf aug-cc-pvdz symm=none int=(grid=ultrafine) guess=(read,tcheck) s
 table=(opt,rrhf)\\title\\0,1\C,0,2.43860984,-0.49466538,-0.35203716\O,
 0,1.07425716,-0.81944524,-0.26655332\C,0,0.40116746,-0.05142948,0.6865
 2258\C,0,0.10029129,1.40667042,0.29617982\C,0,-1.11536466,1.00795831,-
 0.3147353\C,0,-1.17752899,-0.28973175,0.48160153\C,0,-1.63264281,-1.58
 785378,-0.14748657\H,0,2.94164763,-0.62506884,0.61500563\H,0,2.5765007
 5,0.54235421,-0.68163477\H,0,2.8882061,-1.16812819,-1.08021715\H,0,0.8

 Normal termination of Gaussian 16 at Wed Apr  9 19:12:26 2025.
 Gaussian 16:  ES64L-G16RevC.01  3-Jul-2019

 ----------------------------------------------------------------------
 #t hf aug-cc-pvdz iop(5/13=1,5/36=2,99/5=2) pseudo=read geom=check gue
 ss=(read,tcheck) scf=(maxcycle=1)
 ----------------------------------------------------------------------
 -----
 title
 -----
 Structure from the checkpoint file:  "Grambow2020_wb97xd3_008395_forward_mol1.chk"
 Charge =  0 Multiplicity = 1

                         Standard orientation:
 ---------------------------------------------------------------------
 Center     Atomic      Atomic             Coordinates (Angstroms)
 Number     Number       Type             X           Y           Z
 ---------------------------------------------------------------------
      1          6           0        2.417344   -0.356943   -0.220454
      2          8           0        1.057051   -0.707831   -0.193456
      3          6           0        0.315434    0.095610    0.675877
      4          6           0        0.008497    1.522809    0.188187
      5          6           0       -1.162070    1.063353   -0.466552
      6          6           0       -1.243914   -0.189805    0.396531
      7          6           0       -1.636442   -1.530589   -0.183315
      8          1           0        2.866730   -0.422524    0.779033
      9          1           0        2.553251    0.663340   -0.599414
     10          1           0        2.921135   -1.058805   -0.883416
     11          1           0        0.668967   -0.036961    1.708747
     12          1           0       -0.029628    2.294764    0.945171
     13          1           0       -0.156794    2.647553   -0.761538
     14          1           0       -1.255343    0.977788   -1.540191
     15          1           0       -1.230195    2.592214   -0.791617
     16          1           0       -1.769341    0.005602    1.333456
     17          1           0       -2.709911   -1.558087   -0.383472
     18          1           0       -1.102714   -1.728340   -1.112690
     19          1           0       -1.405659   -2.340502    0.511945
 ---------------------------------------------------------------------

 SCF Done:  E(RHF) =  -310.355144480     A.U. after    2 cycles

 The electronic state is 1-A.
 Alpha  occ. eigenvalues --  -21.04787 -11.49787 -11.44184 -11.41885 -11.40348
 Alpha  occ. eigenvalues --  -11.38874 -11.36037  -1.77116  -1.33165  -1.08822
 Alpha  occ. eigenvalues --   -1.00671  -0.92000  -0.88700  -0.76040  -0.71710
 Alpha  occ. eigenvalues --   -0.63108  -0.61997  -0.59527  -0.59021  -0.54675
 Alpha  occ. eigenvalues --   -0.53957  -0.50190  -0.47748  -0.42856  -0.39363
 Alpha  occ. eigenvalues --   -0.35420  -0.33128  -0.29088
 Alpha virt. eigenvalues --    0.04040   0.04925   0.05169   0.05237   0.05377
 Alpha virt. eigenvalues --    0.05820   0.06366   0.06557   0.06984   0.08449
 Alpha virt. eigenvalues --    0.08881   0.09704   0.09961   0.12307   0.12917

 Mulliken charges:
               1
     1  C   -3.119537
     2  O   -3.591640
     3  C    1.015039
     4  C   -1.666411
     5  C   -1.023808
     6  C   -2.321715
     7  C   -4.006689
     8  H    1.339469
     9  H    1.427275
    10  H    1.328696
    11  H    1.779887
    12  H    1.260131
    13  H    0.482521
    14  H    1.458994
    15  H    0.270872
    16  H    1.559081
    17  H    1.196132
    18  H    1.314795
    19  H    1.296908
 Sum of Mulliken charges =  -0.00000

 Dipole moment (field-independent basis, Debye):
    X=              0.2436    Y=             -1.4532    Z=              0.7597  Tot=              1.6577

 Test job not archived.
 1\1\GINC-SE174\SP\RHF\Aug-CC-pVDZ\C6H12O1\OHZDE\09-Apr-2025\0\\#t hf a
 ug-cc-pvdz iop(5/13=1,5/36=2,99/5=2) pseudo=read geom=check guess=(rea
 d,tcheck) scf=(maxcycle=1)\\title\\0,1\C,0,2.43860984,-0.49466538,-0.3
 5203716\O,0,1.07425716,-0.81944524,-0.26655332\C,0,0.40116746,-0.05142
 948,0.68652258\C,0,0.10029129,1.40667042,0.29617982\C,0,-1.11536466,1.
 00795831,-0.3147353\C,0,-1.17752899,-0.28973175,0.48160153\C,0,-1.6326
 4281,-1.58785378,-0.14748657\H,0,2.94164763,-0.62506884,0.61500563\H,0
 ,2.57650075,0.54235421,-0.68163477\H,0,2.8882061,-1.16812819,-1.080217

 Normal termination of Gaussian 16 at Wed Apr  9 19:12:34 2025.
