 Gaussian 16, Revision C.01,

 ----------------------------------------------------------------------
 #t hf aug-cc-pvdz symm=none int=(grid=ultrafine) guess=(read,tcheck) s
 table=(opt,rrhf)
 ----------------------------------------------------------------------
 -----
 title
 -----
 Symbolic Z-matrix:
 Charge =  0 Multiplicity = 1

 SCF Done:  E(RHF) =  -318.839938999     A.U. after   15 cycles
 Normal termination of Gaussian 16 at Wed Apr  9 18:21:43 2025.
 Gaussian 16:  ES64L-G16RevC.01  3-Jul-2019

 ----------------------------------------------------------------------
 #t hf aug-cc-pvdz iop(5/13=1,5/36=2,99/5=2) pseudo=read geom=check gue
 ss=(read,tcheck) scf=(maxcycle=1)
 ----------------------------------------------------------------------
 -----
 title
 -----
 Structure from the checkpoint file:  "Grambow2020_wb97xd3_006930_reverse_mol2.chk"
 Charge =  0 Multiplicity = 1

                         Standard orientation:
 ---------------------------------------------------------------------
 Center     Atomic      Atomic             Coordinates (Angstroms)
 Number     Number       Type             X           Y           Z
 ---------------------------------------------------------------------
      1          7           0       -2.474383   -0.358608   -0.192025
      2          6           0       -1.198792   -0.296036   -0.005114
      3          6           0       -0.055277   -1.038069    0.234108
      4          6           0        1.135970   -0.151887    0.403336
      5          7           0        2.324690   -0.322933   -0.437398
      6          6           0        0.547396    1.201154    0.140779
      7          7           0       -0.701022    1.102922   -0.062551
      8          1           0       -2.794880   -1.318863   -0.161032
      9          1           0        1.505436   -0.101386    1.443814
     10          1           0       -0.044429   -2.095892    0.438969
     11          1           0        2.030237   -0.707950   -1.327089
     12          1           0        2.946690   -0.999147   -0.018333
     13          1           0        1.093279    2.135278    0.092258
     14          1           0       -1.357116    1.847319   -0.263428
 ---------------------------------------------------------------------

 SCF Done:  E(RHF) =  -320.335021335     A.U. after    2 cycles

 The electronic state is 1-A.
 Alpha  occ. eigenvalues --  -15.84563 -15.74570 -15.66614 -11.52505 -11.47217
 Alpha  occ. eigenvalues --  -11.45445 -11.32676  -1.55597  -1.33999  -1.26275
 Alpha  occ. eigenvalues --   -1.10293  -1.00620  -0.85347  -0.80908  -0.74606
 Alpha  occ. eigenvalues --   -0.69275  -0.60875  -0.58679  -0.56302  -0.52162
 Alpha  occ. eigenvalues --   -0.51729  -0.50608  -0.41256  -0.38490  -0.33974
 Alpha  occ. eigenvalues --   -0.22163
 Alpha virt. eigenvalues --    0.02842   0.04423   0.05358   0.05832   0.06317
 Alpha virt. eigenvalues --    0.06535   0.07266   0.07892   0.10835   0.11573
 Alpha virt. eigenvalues --    0.12828   0.13113   0.13543   0.14152   0.14519

 Mulliken charges:
               1
     1  N   -3.268538
     2  C    3.359594
     3  C   -0.812711
     4  C   -1.540796
     5  N   -2.506064
     6  C    0.729545
     7  N   -3.225905
     8  H    0.610321
     9  H    1.656918
    10  H    1.493176
    11  H    0.599626
    12  H    0.510971
    13  H    1.573316
    14  H    0.820547
 Sum of Mulliken charges =  -0.00000

 Dipole moment (field-independent basis, Debye):
    X=              3.3664    Y=              2.8324    Z=              0.5226  Tot=              4.4304

 Test job not archived.
 1\1\GINC-SE115\SP\RHF\Aug-CC-pVDZ\C4H7N3\OHZDE\09-Apr-2025\0\\#t hf au
 g-cc-pvdz iop(5/13=1,5/36=2,99/5=2) pseudo=read geom=check guess=(read
 ,tcheck) scf=(maxcycle=1)\\title\\0,1\N,0,-2.52862729,-0.05368425,-0.9
 2280022\C,0,-1.34943684,-0.10671609,-0.4006114\C,0,-0.35004496,-0.9532
 4309,0.04668695\C,0,0.79238587,-0.18069649,0.62205405\N,0,2.15434479,-
 0.3611828,0.11054588\C,0,0.36231074,1.23214404,0.3671189\N,0,-0.788027
 98,1.24927093,-0.16764005\H,0,-2.89134066,-0.98525774,-1.08521267\H,0,
 0.86910944,-0.25778096,1.7219727\H,0,-0.44576745,-2.02348887,0.1272239

 Normal termination of Gaussian 16 at Wed Apr  9 18:21:47 2025.
