 Gaussian 16, Revision C.01,

 ----------------------------------------------------------------------
 #t hf aug-cc-pvdz symm=none int=(grid=ultrafine) guess=(read,tcheck) s
 table=(opt,rrhf)
 ----------------------------------------------------------------------
 -----
 title
 -----
 Symbolic Z-matrix:
 Charge =  0 Multiplicity = 1

 SCF Done:  E(RHF) =  -352.257720617     A.U. after   18 cycles
 Normal termination of Gaussian 16 at Wed Apr  9 03:51:15 2025.
 Gaussian 16:  ES64L-G16RevC.01  3-Jul-2019

 ----------------------------------------------------------------------
 #t hf aug-cc-pvdz iop(5/13=1,5/36=2,99/5=2) pseudo=read geom=check gue
 ss=(read,tcheck) scf=(maxcycle=1)
 ----------------------------------------------------------------------
 -----
 title
 -----
 Structure from the checkpoint file:  "Grambow2020_wb97xd3_008227_reverse_mol1.chk"
 Charge =  0 Multiplicity = 1

                         Standard orientation:
 ---------------------------------------------------------------------
 Center     Atomic      Atomic             Coordinates (Angstroms)
 Number     Number       Type             X           Y           Z
 ---------------------------------------------------------------------
      1          7           0       -2.705561   -0.191238    0.001080
      2          6           0       -1.556132   -0.238430   -0.000333
      3          6           0       -0.149601   -0.262621   -0.001624
      4          6           0        0.700490    0.905883    0.000287
      5          8           0        0.689826    2.059447   -0.000221
      6          7           0        1.838573   -1.180380    0.001080
      7          7           0        0.666590   -1.344650   -0.000962
      8          1           0        1.915638    0.109315    0.003389
 ---------------------------------------------------------------------

 SCF Done:  E(RHF) =  -353.795227092     A.U. after    2 cycles

 The electronic state is 1-A.
 Alpha  occ. eigenvalues --  -21.19418 -15.90816 -15.89406 -15.78382 -11.62032
 Alpha  occ. eigenvalues --  -11.51257 -11.46082  -1.83661  -1.66877  -1.33891
 Alpha  occ. eigenvalues --   -1.20583  -1.00850  -0.88195  -0.76361  -0.67927
 Alpha  occ. eigenvalues --   -0.67663  -0.61606  -0.57093  -0.54511  -0.53939
 Alpha  occ. eigenvalues --   -0.50519  -0.47168  -0.40377  -0.33073
 Alpha virt. eigenvalues --    0.03750   0.04465   0.06216   0.07371   0.08937
 Alpha virt. eigenvalues --    0.09878   0.10865   0.11162   0.12479   0.12744
 Alpha virt. eigenvalues --    0.13597   0.13981   0.14492   0.14971   0.15687

 Mulliken charges:
               1
     1  N   -2.456546
     2  C    1.697846
     3  C    2.351356
     4  C    2.633127
     5  O   -2.891142
     6  N   -1.324992
     7  N   -0.993618
     8  H    0.983969
 Sum of Mulliken charges =  -0.00000

 Dipole moment (field-independent basis, Debye):
    X=              2.8748    Y=              2.4329    Z=              0.0011  Tot=              3.7661

 Test job not archived.
 1\1\GINC-SE128\SP\RHF\Aug-CC-pVDZ\C3H1N3O1\OHZDE\09-Apr-2025\0\\#t hf
 aug-cc-pvdz iop(5/13=1,5/36=2,99/5=2) pseudo=read geom=check guess=(re
 ad,tcheck) scf=(maxcycle=1)\\title\\0,1\N,0,2.84319419,-0.27260251,0.3
 6672313\C,0,1.69471517,-0.29174654,0.30312615\C,0,0.2905218,-0.2822187
 5,0.21906588\C,0,-0.51745929,0.88764106,-0.03911268\O,0,-0.46732262,2.
 02295283,-0.23754772\N,0,-1.72435848,-1.13925162,0.24868599\N,0,-0.560
 82589,-1.32818066,0.35370597\H,0,-1.75691889,0.13163019,0.01834228\\Ve
 rsion=ES64L-G16RevC.01\State=1-A\HF=-353.7952271\RMSD=4.406e-01\Dipole

 Normal termination of Gaussian 16 at Wed Apr  9 03:51:18 2025.
