 Gaussian 16, Revision C.01,

 ----------------------------------------------------------------------
 #t hf aug-cc-pvdz symm=none int=(grid=ultrafine) guess=(read,tcheck) s
 table=(opt,rrhf)
 ----------------------------------------------------------------------
 -----
 title
 -----
 Symbolic Z-matrix:
 Charge =  0 Multiplicity = 1

 SCF Done:  E(RHF) =  -268.698231658     A.U. after   14 cycles
 Normal termination of Gaussian 16 at Wed Apr  9 17:48:27 2025.
 Gaussian 16:  ES64L-G16RevC.01  3-Jul-2019

 ----------------------------------------------------------------------
 #t hf aug-cc-pvdz iop(5/13=1,5/36=2,99/5=2) pseudo=read geom=check gue
 ss=(read,tcheck) scf=(maxcycle=1)
 ----------------------------------------------------------------------
 -----
 title
 -----
 Structure from the checkpoint file:  "Grambow2020_wb97xd3_006179_reverse_mol2.chk"
 Charge =  0 Multiplicity = 1

                         Standard orientation:
 ---------------------------------------------------------------------
 Center     Atomic      Atomic             Coordinates (Angstroms)
 Number     Number       Type             X           Y           Z
 ---------------------------------------------------------------------
      1          8           0        2.824901   -0.178082    0.107876
      2          6           0       -0.146468    0.367960   -0.598683
      3          6           0       -0.727231    1.499861   -0.331426
      4          6           0       -0.624717    0.521669    0.809644
      5          6           0       -1.446537   -0.767920    0.574680
      6          6           0       -0.591260   -1.055261   -0.738219
      7          1           0        2.413615    0.454579   -0.486338
      8          1           0        2.299230   -0.124254    0.908295
      9          1           0       -1.354231    2.261477   -0.772397
     10          1           0        0.009746    0.668755    1.676827
     11          1           0       -1.355578   -1.533347    1.346336
     12          1           0       -2.503239   -0.601336    0.350140
     13          1           0        0.203407   -1.766355   -0.516605
     14          1           0       -1.094873   -1.332723   -1.665246
 ---------------------------------------------------------------------

 SCF Done:  E(RHF) =  -269.981380406     A.U. after    2 cycles

 The electronic state is 1-A.
 Alpha  occ. eigenvalues --  -21.08980 -11.48649 -11.44407 -11.42063 -11.40778
 Alpha  occ. eigenvalues --  -11.37466  -1.65417  -1.41327  -1.08422  -0.94627
 Alpha  occ. eigenvalues --   -0.82176  -0.75407  -0.64481  -0.63992  -0.62449
 Alpha  occ. eigenvalues --   -0.59079  -0.52500  -0.48987  -0.45800  -0.43033
 Alpha  occ. eigenvalues --   -0.37300  -0.34321  -0.30046
 Alpha virt. eigenvalues --    0.03454   0.05081   0.05394   0.05758   0.06100
 Alpha virt. eigenvalues --    0.06885   0.07404   0.07608   0.09341   0.10449
 Alpha virt. eigenvalues --    0.11562   0.12818   0.13245   0.13421   0.14821

 Mulliken charges:
               1
     1  O   -2.169054
     2  C    0.172200
     3  C   -1.043607
     4  C   -0.943671
     5  C   -3.031767
     6  C   -2.695287
     7  H    1.071867
     8  H    1.046300
     9  H    0.965847
    10  H    1.421904
    11  H    1.342362
    12  H    1.314265
    13  H    1.377175
    14  H    1.171465
 Sum of Mulliken charges =   0.00000

 Dipole moment (field-independent basis, Debye):
    X=             -1.7933    Y=             -0.7939    Z=             -0.1593  Tot=              1.9676

 Test job not archived.
 1\1\GINC-SE219\SP\RHF\Aug-CC-pVDZ\C5H8O1\OHZDE\09-Apr-2025\0\\#t hf au
 g-cc-pvdz iop(5/13=1,5/36=2,99/5=2) pseudo=read geom=check guess=(read
 ,tcheck) scf=(maxcycle=1)\\title\\0,1\O,0,1.74413402,1.34423178,2.0102
 8726\C,0,0.62923207,-0.15197293,-0.46858083\C,0,0.47471458,0.43092442,
 -1.62021746\C,0,-0.6156033,0.66464981,-0.60730663\C,0,-1.39197991,-0.6
 2445914,-0.24803872\C,0,-0.03197315,-1.28528148,0.25342121\H,0,2.13659
 735,1.13313556,1.15945347\H,0,0.87060762,1.67368364,1.79049228\H,0,0.6
 7078891,0.30072254,-2.67484783\H,0,-0.79877785,1.61889565,-0.12559575\

 Normal termination of Gaussian 16 at Wed Apr  9 17:48:31 2025.
