 Gaussian 16, Revision C.01,

 ----------------------------------------------------------------------
 #t hf aug-cc-pvdz symm=none int=(grid=ultrafine) guess=(read,tcheck) s
 table=(opt,rrhf)
 ----------------------------------------------------------------------
 -----
 title
 -----
 Symbolic Z-matrix:
 Charge =  0 Multiplicity = 1

 SCF Done:  E(RHF) =  -338.489360260     A.U. after   16 cycles
 Normal termination of Gaussian 16 at Wed Apr  9 19:22:00 2025.
 Gaussian 16:  ES64L-G16RevC.01  3-Jul-2019

 ----------------------------------------------------------------------
 #t hf aug-cc-pvdz iop(5/13=1,5/36=2,99/5=2) pseudo=read geom=check gue
 ss=(read,tcheck) scf=(maxcycle=1)
 ----------------------------------------------------------------------
 -----
 title
 -----
 Structure from the checkpoint file:  "Grambow2020_wb97xd3_008825_forward_mol1.chk"
 Charge =  0 Multiplicity = 1

                         Standard orientation:
 ---------------------------------------------------------------------
 Center     Atomic      Atomic             Coordinates (Angstroms)
 Number     Number       Type             X           Y           Z
 ---------------------------------------------------------------------
      1          6           0        3.069151    0.395940    0.049788
      2          6           0        1.582026    0.478798   -0.054003
      3          6           0       -1.878893    1.087293    0.134748
      4          6           0       -1.077487    0.034013   -0.046597
      5          8           0       -2.748880   -0.196332   -0.055139
      6          7           0       -0.323611   -0.945693   -0.078160
      7          7           0        1.039540   -0.697067   -0.008091
      8          1           0        3.485208   -0.619924    0.145240
      9          1           0        3.392518    0.990784    0.907067
     10          1           0        3.508881    0.875897   -0.827343
     11          1           0       -2.097932    1.859320   -0.586383
     12          1           0       -3.026971   -0.436575    0.836099
     13          1           0        1.549045   -1.575789    0.066565
 ---------------------------------------------------------------------

 SCF Done:  E(RHF) =  -340.042805111     A.U. after    2 cycles

 The electronic state is 1-A.
 Alpha  occ. eigenvalues --  -21.13846 -15.82890 -15.77037 -11.53771 -11.41137
 Alpha  occ. eigenvalues --  -11.40617 -11.36987  -1.78914  -1.55672  -1.26556
 Alpha  occ. eigenvalues --   -1.08991  -1.03113  -0.86503  -0.75834  -0.68068
 Alpha  occ. eigenvalues --   -0.64685  -0.61302  -0.59373  -0.56542  -0.54461
 Alpha  occ. eigenvalues --   -0.50865  -0.47952  -0.40693  -0.37467  -0.33749
 Alpha  occ. eigenvalues --   -0.28446
 Alpha virt. eigenvalues --    0.03854   0.04708   0.05679   0.06416   0.06662
 Alpha virt. eigenvalues --    0.06929   0.09930   0.10180   0.10615   0.11278
 Alpha virt. eigenvalues --    0.11596   0.12978   0.13960   0.14601   0.15859

 Mulliken charges:
               1
     1  C   -3.638598
     2  C    0.237512
     3  C   -1.270233
     4  C    3.487650
     5  O   -2.155671
     6  N   -1.793447
     7  N   -1.896998
     8  H    1.279310
     9  H    1.334271
    10  H    1.325185
    11  H    1.333987
    12  H    0.856330
    13  H    0.900701
 Sum of Mulliken charges =  -0.00000

 Dipole moment (field-independent basis, Debye):
    X=             -0.3374    Y=             -2.3932    Z=             -0.2693  Tot=              2.4318

 Test job not archived.
 1\1\GINC-SE108\SP\RHF\Aug-CC-pVDZ\C4H6N2O1\OHZDE\09-Apr-2025\0\\#t hf
 aug-cc-pvdz iop(5/13=1,5/36=2,99/5=2) pseudo=read geom=check guess=(re
 ad,tcheck) scf=(maxcycle=1)\\title\\0,1\C,0,-2.55144445,0.04457458,0.4
 1564034\C,0,-1.14751513,-0.02831556,-0.08719831\C,0,2.03797677,-0.7774
 6832,-1.38151882\C,0,1.53066241,-0.02575173,-0.40065623\O,0,3.20007364
 ,-0.03758563,-0.64481537\N,0,1.0592708,0.55623813,0.583329\N,0,-0.3142
 102,0.48100221,0.76442241\H,0,-2.68004588,0.5082307,1.40694162\H,0,-2.
 96475099,-0.96623438,0.44348667\H,0,-3.15579008,0.59245722,-0.31076946

 Normal termination of Gaussian 16 at Wed Apr  9 19:22:04 2025.
