 Gaussian 16, Revision C.01,

 ----------------------------------------------------------------------
 #t hf aug-cc-pvdz symm=none int=(grid=ultrafine) guess=(read,tcheck) s
 table=(opt,rrhf)
 ----------------------------------------------------------------------
 -----
 title
 -----
 Symbolic Z-matrix:
 Charge =  0 Multiplicity = 1

 SCF Done:  E(RHF) =  -373.208811974     A.U. after   16 cycles
 Normal termination of Gaussian 16 at Wed Apr  9 03:27:59 2025.
 Gaussian 16:  ES64L-G16RevC.01  3-Jul-2019

 ----------------------------------------------------------------------
 #t hf aug-cc-pvdz iop(5/13=1,5/36=2,99/5=2) pseudo=read geom=check gue
 ss=(read,tcheck) scf=(maxcycle=1)
 ----------------------------------------------------------------------
 -----
 title
 -----
 Structure from the checkpoint file:  "Grambow2020_wb97xd3_006702_reverse_mol2.chk"
 Charge =  0 Multiplicity = 1

                         Standard orientation:
 ---------------------------------------------------------------------
 Center     Atomic      Atomic             Coordinates (Angstroms)
 Number     Number       Type             X           Y           Z
 ---------------------------------------------------------------------
      1          8           0        2.297383    0.679427    0.001686
      2          6           0        1.726320   -0.375229   -0.000846
      3          6           0        0.268281   -0.513182   -0.001850
      4          7           0       -0.503202   -1.518121    0.000138
      5          6           0       -1.672368   -0.645403    0.001360
      6          7           0       -0.986354    0.469768   -0.000449
      7          8           0       -1.175145    1.663512   -0.000613
      8          1           0        2.245024   -1.352170   -0.001930
      9          1           0       -2.729435   -0.849979    0.003532
 ---------------------------------------------------------------------

 SCF Done:  E(RHF) =  -374.816255474     A.U. after    2 cycles

 The electronic state is 1-A.
 Alpha  occ. eigenvalues --  -21.11115 -21.08330 -15.93572 -15.82626 -11.54635
 Alpha  occ. eigenvalues --  -11.50703 -11.47422  -1.87868  -1.75436  -1.56183
 Alpha  occ. eigenvalues --   -1.18093  -1.05732  -0.91666  -0.76215  -0.70528
 Alpha  occ. eigenvalues --   -0.68204  -0.66525  -0.62680  -0.55230  -0.53615
 Alpha  occ. eigenvalues --   -0.46829  -0.45149  -0.35687  -0.31297  -0.26653
 Alpha virt. eigenvalues --    0.03370   0.03963   0.04344   0.08770   0.08951
 Alpha virt. eigenvalues --    0.09067   0.10161   0.10996   0.12287   0.13308
 Alpha virt. eigenvalues --    0.13855   0.14344   0.15047   0.16371   0.16542

 Mulliken charges:
               1
     1  O   -2.720939
     2  C    1.163745
     3  C    2.484566
     4  N   -2.487105
     5  C    0.490175
     6  N    1.359814
     7  O   -3.069938
     8  H    1.366191
     9  H    1.413491
 Sum of Mulliken charges =  -0.00000

 Dipole moment (field-independent basis, Debye):
    X=             -0.4220    Y=              0.1464    Z=              0.0001  Tot=              0.4467

 Test job not archived.
 1\1\GINC-SE249\SP\RHF\Aug-CC-pVDZ\C3H2N2O2\OHZDE\09-Apr-2025\0\\#t hf
 aug-cc-pvdz iop(5/13=1,5/36=2,99/5=2) pseudo=read geom=check guess=(re
 ad,tcheck) scf=(maxcycle=1)\\title\\0,1\O,0,-2.4244502,-0.70271005,-0.
 0969038\C,0,-1.74996468,0.28777576,-0.04766951\C,0,-0.28607127,0.27633
 402,-0.00529842\N,0,0.58256393,1.19681225,0.05202646\C,0,1.65704353,0.
 20985874,0.05385261\N,0,0.86226382,-0.82893957,-0.00486347\O,0,0.92943
 813,-2.03509534,-0.04152044\H,0,-2.1670772,1.31204181,-0.02852451\H,0,
 2.72882895,0.30543339,0.09110209\\Version=ES64L-G16RevC.01\State=1-A\H

 Normal termination of Gaussian 16 at Wed Apr  9 03:28:02 2025.
