 Gaussian 16, Revision C.01,

 ----------------------------------------------------------------------
 #t hf aug-cc-pvdz symm=none int=(grid=ultrafine) guess=(read,tcheck) s
 table=(opt,rrhf)
 ----------------------------------------------------------------------
 -----
 title
 -----
 Symbolic Z-matrix:
 Charge =  0 Multiplicity = 1

 SCF Done:  E(RHF) =  -268.777966074     A.U. after   14 cycles
 Normal termination of Gaussian 16 at Wed Apr  9 03:16:38 2025.
 Gaussian 16:  ES64L-G16RevC.01  3-Jul-2019

 ----------------------------------------------------------------------
 #t hf aug-cc-pvdz iop(5/13=1,5/36=2,99/5=2) pseudo=read geom=check gue
 ss=(read,tcheck) scf=(maxcycle=1)
 ----------------------------------------------------------------------
 -----
 title
 -----
 Structure from the checkpoint file:  "Grambow2020_b97d3_007032_reverse_mol2.chk"
 Charge =  0 Multiplicity = 1

                         Standard orientation:
 ---------------------------------------------------------------------
 Center     Atomic      Atomic             Coordinates (Angstroms)
 Number     Number       Type             X           Y           Z
 ---------------------------------------------------------------------
      1          6           0       -2.826658   -0.755585    0.009326
      2          6           0       -1.645269    0.108992    0.006871
      3          6           0       -0.672730    0.843589   -0.006438
      4          6           0        1.745348   -1.210854   -0.028990
      5          6           0        2.789902   -0.367280    0.037946
      6          8           0        0.354993    1.668277   -0.015744
      7          1           0       -3.474682   -0.559486   -0.859238
      8          1           0       -2.537905   -1.817640   -0.030654
      9          1           0       -3.433116   -0.614434    0.917571
     10          1           0        1.224597   -1.552438    0.865536
     11          1           0        1.362360   -1.575256   -0.982590
     12          1           0        3.182191   -0.017010    0.994582
     13          1           0        3.316547   -0.035229   -0.858606
     14          1           0        1.176506    1.112102   -0.032938
 ---------------------------------------------------------------------

 SCF Done:  E(RHF) =  -270.039007341     A.U. after    2 cycles

 The electronic state is 1-A.
 Alpha  occ. eigenvalues --  -21.12095 -11.44262 -11.43178 -11.41435 -11.39125
 Alpha  occ. eigenvalues --  -11.37391  -1.75829  -1.15283  -1.14506  -0.97022
 Alpha  occ. eigenvalues --   -0.84097  -0.70641  -0.65776  -0.60242  -0.57668
 Alpha  occ. eigenvalues --   -0.57606  -0.57295  -0.53040  -0.51118  -0.48628
 Alpha  occ. eigenvalues --   -0.38106  -0.33042  -0.28067
 Alpha virt. eigenvalues --    0.03142   0.04704   0.05511   0.05724   0.06240
 Alpha virt. eigenvalues --    0.06836   0.07290   0.07752   0.09136   0.11041
 Alpha virt. eigenvalues --    0.12120   0.12496   0.13527   0.14292   0.14539

 Mulliken charges:
               1
     1  C   -4.237923
     2  C    2.591358
     3  C    1.102462
     4  C   -2.755346
     5  C   -3.111541
     6  O   -3.792046
     7  H    1.083138
     8  H    1.012380
     9  H    1.092040
    10  H    1.428886
    11  H    1.408386
    12  H    1.373369
    13  H    1.366703
    14  H    1.438133
 Sum of Mulliken charges =  -0.00000

 Dipole moment (field-independent basis, Debye):
    X=              0.8852    Y=             -1.1348    Z=             -0.0276  Tot=              1.4395

 Test job not archived.
 1\1\GINC-SE108\SP\RHF\Aug-CC-pVDZ\C5H8O1\OHZDE\09-Apr-2025\0\\#t hf au
 g-cc-pvdz iop(5/13=1,5/36=2,99/5=2) pseudo=read geom=check guess=(read
 ,tcheck) scf=(maxcycle=1)\\title\\0,1\C,0,2.83411622,0.26621073,-0.472
 42411\C,0,1.56020789,0.76135071,0.05214429\C,0,0.51026238,1.18385865,0
 .50463043\C,0,-1.53258158,-1.13817609,-0.20479641\C,0,-2.68349596,-0.6
 0094663,0.23562311\O,0,-0.60725494,1.67457279,1.00138561\H,0,3.5973951
 7,0.19309083,0.31805143\H,0,2.71703845,-0.7382914,-0.90854982\H,0,3.23
 23569,0.92234747,-1.26205277\H,0,-1.14415803,-0.92677099,-1.20102566\H

 Normal termination of Gaussian 16 at Wed Apr  9 03:16:42 2025.
