 Gaussian 16, Revision C.01,

 ----------------------------------------------------------------------
 #t hf aug-cc-pvdz symm=none int=(grid=ultrafine) guess=(read,tcheck) s
 table=(opt,rrhf)
 ----------------------------------------------------------------------
 -----
 title
 -----
 Symbolic Z-matrix:
 Charge =  0 Multiplicity = 1

 SCF Done:  E(RHF) =  -343.542976893     A.U. after   17 cycles
 Normal termination of Gaussian 16 at Wed Apr  9 18:19:25 2025.
 Gaussian 16:  ES64L-G16RevC.01  3-Jul-2019

 ----------------------------------------------------------------------
 #t hf aug-cc-pvdz iop(5/13=1,5/36=2,99/5=2) pseudo=read geom=check gue
 ss=(read,tcheck) scf=(maxcycle=1)
 ----------------------------------------------------------------------
 -----
 title
 -----
 Structure from the checkpoint file:  "Grambow2020_wb97xd3_006880_forward_mol1.chk"
 Charge =  0 Multiplicity = 1

                         Standard orientation:
 ---------------------------------------------------------------------
 Center     Atomic      Atomic             Coordinates (Angstroms)
 Number     Number       Type             X           Y           Z
 ---------------------------------------------------------------------
      1          6           0       -0.582109    1.468142   -0.574278
      2          6           0       -0.639445    0.319452    0.220785
      3          6           0       -1.085438   -1.009317   -0.631976
      4          6           0       -1.974677   -0.486480    0.371719
      5          8           0        0.324231    0.132057    1.081156
      6          6           0        1.772484    0.257375    0.063690
      7          8           0        2.096189   -0.818490   -0.391711
      8          1           0       -1.166415    1.563388   -1.482432
      9          1           0        1.149506    0.987557   -0.651864
     10          1           0       -0.138435    2.371362   -0.176437
     11          1           0       -1.296255   -0.840789   -1.678463
     12          1           0       -0.402007   -1.809900   -0.392591
     13          1           0       -2.876604    0.031255    0.078599
     14          1           0       -1.994625   -0.954040    1.346730
     15          1           0        2.416576    0.847603    0.741261
 ---------------------------------------------------------------------

 SCF Done:  E(RHF) =  -345.126331714     A.U. after    2 cycles

 The electronic state is 1-A.
 Alpha  occ. eigenvalues --  -21.00476 -20.98238 -11.51122 -11.48619 -11.46764
 Alpha  occ. eigenvalues --  -11.45291 -11.42486  -1.73047  -1.62417  -1.30463
 Alpha  occ. eigenvalues --   -1.09533  -0.90787  -0.87627  -0.79687  -0.71130
 Alpha  occ. eigenvalues --   -0.69374  -0.63835  -0.61259  -0.55924  -0.53525
 Alpha  occ. eigenvalues --   -0.49428  -0.47473  -0.46308  -0.37795  -0.28502
 Alpha  occ. eigenvalues --   -0.25462  -0.21872
 Alpha virt. eigenvalues --    0.01962   0.03528   0.04195   0.04610   0.05137
 Alpha virt. eigenvalues --    0.05771   0.07095   0.07746   0.08092   0.08985
 Alpha virt. eigenvalues --    0.11897   0.12550   0.13558   0.13921   0.14041

 Mulliken charges:
               1
     1  C   -3.802706
     2  C    4.820733
     3  C   -2.614645
     4  C   -3.038232
     5  O   -3.588261
     6  C    0.291767
     7  O   -2.612371
     8  H    1.349464
     9  H    1.397929
    10  H    1.339576
    11  H    1.372072
    12  H    1.248971
    13  H    1.400388
    14  H    1.221564
    15  H    1.213752
 Sum of Mulliken charges =   0.00000

 Dipole moment (field-independent basis, Debye):
    X=             -4.4162    Y=              0.8518    Z=             -0.7842  Tot=              4.5655

 Test job not archived.
 1\1\GINC-SE117\SP\RHF\Aug-CC-pVDZ\C5H8O2\OHZDE\09-Apr-2025\0\\#t hf au
 g-cc-pvdz iop(5/13=1,5/36=2,99/5=2) pseudo=read geom=check guess=(read
 ,tcheck) scf=(maxcycle=1)\\title\\0,1\C,0,-0.41019405,1.36056628,-0.14
 181364\C,0,-0.25938489,0.10040793,0.44483809\C,0,-0.84029358,-1.104730
 18,-0.50485945\C,0,-1.50545298,-0.80399687,0.7355562\O,0,0.87326463,-0
 .15639453,1.04081211\C,0,2.06161918,0.22004385,-0.22191788\O,0,2.31048
 052,-0.74811297,-0.90777498\H,0,-1.18034115,1.5585979,-0.87862097\H,0,
 1.27672553,1.01122701,-0.65924567\H,0,0.08228575,2.2172837,0.29912788\

 Normal termination of Gaussian 16 at Wed Apr  9 18:19:30 2025.
