 Gaussian 16, Revision C.01,

 ----------------------------------------------------------------------
 #t hf aug-cc-pvdz symm=none int=(grid=ultrafine) guess=(read,tcheck) s
 table=(opt,rrhf)
 ----------------------------------------------------------------------
 -----
 title
 -----
 Symbolic Z-matrix:
 Charge =  0 Multiplicity = 1

 SCF Done:  E(RHF) =  -268.710084301     A.U. after   18 cycles
 Normal termination of Gaussian 16 at Wed Apr  9 17:14:25 2025.
 Gaussian 16:  ES64L-G16RevC.01  3-Jul-2019

 ----------------------------------------------------------------------
 #t hf aug-cc-pvdz iop(5/13=1,5/36=2,99/5=2) pseudo=read geom=check gue
 ss=(read,tcheck) scf=(maxcycle=1)
 ----------------------------------------------------------------------
 -----
 title
 -----
 Structure from the checkpoint file:  "Grambow2020_b97d3_007076_reverse_mol1.chk"
 Charge =  0 Multiplicity = 1

                         Standard orientation:
 ---------------------------------------------------------------------
 Center     Atomic      Atomic             Coordinates (Angstroms)
 Number     Number       Type             X           Y           Z
 ---------------------------------------------------------------------
      1          6           0       -2.210926   -0.316238    0.219807
      2          6           0       -0.801466   -0.017231   -0.236523
      3          6           0        0.225744   -0.963226   -0.222543
      4          6           0        1.632931   -0.428091   -0.318749
      5          8           0        1.593040    0.388529    0.804551
      6          6           0       -0.324888    1.302639   -0.322713
      7          1           0       -2.495348    0.322747    1.070193
      8          1           0       -2.309678   -1.363366    0.534226
      9          1           0       -2.940650   -0.136060   -0.583442
     10          1           0        0.029646   -1.969599    0.155777
     11          1           0        1.843060    0.092595   -1.278604
     12          1           0        2.383736   -1.241289   -0.234788
     13          1           0        0.532420    1.600770   -0.915704
     14          1           0       -0.915870    2.118857    0.100259
 ---------------------------------------------------------------------

 SCF Done:  E(RHF) =  -269.971909935     A.U. after    2 cycles

 The electronic state is 1-A.
 Alpha  occ. eigenvalues --  -20.94110 -11.50154 -11.48885 -11.42604 -11.40348
 Alpha  occ. eigenvalues --  -11.39208  -1.57931  -1.26832  -1.04786  -1.02108
 Alpha  occ. eigenvalues --   -0.88759  -0.77093  -0.69284  -0.63355  -0.59383
 Alpha  occ. eigenvalues --   -0.57210  -0.55932  -0.50597  -0.49089  -0.41939
 Alpha  occ. eigenvalues --   -0.38950  -0.23324  -0.20410
 Alpha virt. eigenvalues --    0.02881   0.03775   0.04555   0.05178   0.05548
 Alpha virt. eigenvalues --    0.06023   0.06410   0.07919   0.08559   0.10428
 Alpha virt. eigenvalues --    0.11781   0.12947   0.13325   0.14184   0.14723

 Mulliken charges:
               1
     1  C   -4.689562
     2  C    3.369885
     3  C   -2.057419
     4  C   -1.571634
     5  O   -1.694674
     6  C   -3.979981
     7  H    1.188710
     8  H    1.300931
     9  H    1.190770
    10  H    1.519841
    11  H    1.408623
    12  H    1.136324
    13  H    1.381713
    14  H    1.496476
 Sum of Mulliken charges =   0.00000

 Dipole moment (field-independent basis, Debye):
    X=             -2.2140    Y=              0.3049    Z=             -0.7079  Tot=              2.3443

 Test job not archived.
 1\1\GINC-SE112\SP\RHF\Aug-CC-pVDZ\C5H8O1\OHZDE\09-Apr-2025\0\\#t hf au
 g-cc-pvdz iop(5/13=1,5/36=2,99/5=2) pseudo=read geom=check guess=(read
 ,tcheck) scf=(maxcycle=1)\\title\\0,1\C,0,-1.84676392,0.26738316,-0.67
 676358\C,0,-0.53972723,0.10412007,0.06432991\C,0,0.62045234,0.80908345
 ,-0.26319754\C,0,1.91568022,0.26182273,0.283327\O,0,1.83406121,-1.0014
 8146,-0.28909293\C,0,-0.28258878,-1.03120959,0.85269386\H,0,-2.1621682
 8,-0.68213492,-1.13642592\H,0,-1.75703897,1.01691449,-1.47378351\H,0,-
 2.6542808,0.58867977,-0.00233534\H,0,0.61278241,1.50086938,-1.10921139

 Normal termination of Gaussian 16 at Wed Apr  9 17:14:29 2025.
