 Gaussian 16, Revision C.01,

 ----------------------------------------------------------------------
 #t hf aug-cc-pvdz symm=none int=(grid=ultrafine) guess=(read,tcheck) s
 table=(opt,rrhf)
 ----------------------------------------------------------------------
 -----
 title
 -----
 Symbolic Z-matrix:
 Charge =  0 Multiplicity = 1

 SCF Done:  E(RHF) =  -375.602617443     A.U. after   14 cycles
 Normal termination of Gaussian 16 at Wed Apr  9 03:46:29 2025.
 Gaussian 16:  ES64L-G16RevC.01  3-Jul-2019

 ----------------------------------------------------------------------
 #t hf aug-cc-pvdz iop(5/13=1,5/36=2,99/5=2) pseudo=read geom=check gue
 ss=(read,tcheck) scf=(maxcycle=1)
 ----------------------------------------------------------------------
 -----
 title
 -----
 Structure from the checkpoint file:  "Grambow2020_wb97xd3_007906_reverse_mol2.chk"
 Charge =  0 Multiplicity = 1

                         Standard orientation:
 ---------------------------------------------------------------------
 Center     Atomic      Atomic             Coordinates (Angstroms)
 Number     Number       Type             X           Y           Z
 ---------------------------------------------------------------------
      1          6           0       -2.224089   -0.350052    0.364641
      2          8           0       -1.371591    0.518082   -0.372043
      3          6           0       -0.061221    0.262880   -0.220305
      4          7           0        0.494901   -1.031429   -0.634214
      5          7           0        0.889386    1.327548   -0.247000
      6          6           0        1.004513    0.337228    0.796668
      7          8           0        1.584396   -0.865236    0.318731
      8          1           0       -3.242721   -0.052231    0.126958
      9          1           0       -2.049475   -0.233932    1.438185
     10          1           0       -2.064603   -1.391569    0.080876
     11          1           0        0.905210   -0.992454   -1.567170
     12          1           0        1.605039    1.275981   -0.965611
     13          1           0        1.138881    0.598271    1.835732
 ---------------------------------------------------------------------

 SCF Done:  E(RHF) =  -377.238041216     A.U. after    2 cycles

 The electronic state is 1-A.
 Alpha  occ. eigenvalues --  -21.07951 -21.07836 -15.78245 -15.75297 -11.56294
 Alpha  occ. eigenvalues --  -11.47657 -11.41720  -1.88156  -1.78443  -1.41669
 Alpha  occ. eigenvalues --   -1.21535  -1.01287  -0.95372  -0.82111  -0.71696
 Alpha  occ. eigenvalues --   -0.69524  -0.65394  -0.61902  -0.60614  -0.51119
 Alpha  occ. eigenvalues --   -0.48116  -0.47040  -0.45899  -0.38431  -0.35331
 Alpha  occ. eigenvalues --   -0.33689  -0.27275
 Alpha virt. eigenvalues --    0.03848   0.05324   0.05483   0.06132   0.06458
 Alpha virt. eigenvalues --    0.06637   0.09369   0.10169   0.11954   0.13127
 Alpha virt. eigenvalues --    0.13566   0.14674   0.15565   0.15864   0.16109

 Mulliken charges:
               1
     1  C   -3.083124
     2  O   -3.971797
     3  C    6.614250
     4  N   -1.128278
     5  N   -2.631718
     6  C    0.611347
     7  O   -2.596146
     8  H    1.276703
     9  H    1.227503
    10  H    1.304497
    11  H    0.605900
    12  H    0.529110
    13  H    1.241753
 Sum of Mulliken charges =  -0.00000

 Dipole moment (field-independent basis, Debye):
    X=              0.0435    Y=             -0.1365    Z=             -0.2110  Tot=              0.2551

 Test job not archived.
 1\1\GINC-SE328\SP\RHF\Aug-CC-pVDZ\C3H6N2O2\OHZDE\09-Apr-2025\0\\#t hf
 aug-cc-pvdz iop(5/13=1,5/36=2,99/5=2) pseudo=read geom=check guess=(re
 ad,tcheck) scf=(maxcycle=1)\\title\\0,1\C,0,-1.74702917,-0.43339567,-0
 .63047921\O,0,-1.26646661,0.04277071,0.62069484\C,0,0.06897816,0.17654
 152,0.68327134\N,0,0.76363571,1.10859839,-0.21369585\N,0,0.76141732,-0
 .05919471,1.90917541\C,0,1.29701416,-0.64025086,0.70139199\O,0,1.98213
 309,0.32027312,-0.08512876\H,0,-2.83118949,-0.46371491,-0.5499875\H,0,
 -1.36591377,-1.43979293,-0.82640186\H,0,-1.45226711,0.23175234,-1.4437

 Normal termination of Gaussian 16 at Wed Apr  9 03:46:33 2025.
