 Gaussian 16, Revision C.01,

 ----------------------------------------------------------------------
 #t hf aug-cc-pvdz symm=none int=(grid=ultrafine) guess=(read,tcheck) s
 table=(opt,rrhf)
 ----------------------------------------------------------------------
 -----
 title
 -----
 Symbolic Z-matrix:
 Charge =  0 Multiplicity = 1

 SCF Done:  E(RHF) =  -344.799258774     A.U. after   15 cycles

 1\1\GINC-SE452\Stability\RHF\Aug-CC-pVDZ\C5H10O2\OHZDE\09-Apr-2025\0\\
 #t hf aug-cc-pvdz symm=none int=(grid=ultrafine) guess=(read,tcheck) s
 table=(opt,rrhf)\\title\\0,1\C,0,-1.73961108,-0.98415709,-0.94786194\C
 ,0,-1.06651495,0.22729739,-0.32584613\C,0,-0.33082039,0.05484138,0.857
 89693\O,0,-0.03819338,-1.18965835,1.25208628\C,0,1.80460096,1.05134366
 ,0.33436298\C,0,1.82448077,0.33783471,-0.83234614\O,0,1.01637883,0.561
 44749,-1.79715554\H,0,-2.17861475,-0.71127143,-1.90696115\H,0,-1.01706
 216,-1.77947489,-1.12973675\H,0,-2.52937999,-1.38642227,-0.30908285\H,

 Normal termination of Gaussian 16 at Wed Apr  9 03:45:45 2025.
 Gaussian 16:  ES64L-G16RevC.01  3-Jul-2019

 ----------------------------------------------------------------------
 #t hf aug-cc-pvdz iop(5/13=1,5/36=2,99/5=2) pseudo=read geom=check gue
 ss=(read,tcheck) scf=(maxcycle=1)
 ----------------------------------------------------------------------
 -----
 title
 -----
 Structure from the checkpoint file:  "Grambow2020_wb97xd3_007843_reverse_mol1.chk"
 Charge =  0 Multiplicity = 1

                         Standard orientation:
 ---------------------------------------------------------------------
 Center     Atomic      Atomic             Coordinates (Angstroms)
 Number     Number       Type             X           Y           Z
 ---------------------------------------------------------------------
      1          6           0        2.070873   -0.912650   -0.227598
      2          6           0        0.993820   -0.379016    0.701259
      3          6           0        0.509060    0.922375    0.492398
      4          8           0        0.820347    1.543761   -0.650745
      5          6           0       -1.883035    0.614184    0.392236
      6          6           0       -1.689760   -0.411188   -0.492047
      7          8           0       -1.143752   -1.518972   -0.162534
      8          1           0        2.264951   -1.961297   -0.004584
      9          1           0        1.752817   -0.849682   -1.268060
     10          1           0        3.007873   -0.359757   -0.127938
     11          1           0       -0.030409   -1.079805    0.393826
     12          1           0        1.119879   -0.606625    1.758547
     13          1           0        0.186306    1.547432    1.313749
     14          1           0        0.355563    2.381372   -0.711558
     15          1           0       -2.334823    1.541768    0.059772
     16          1           0       -1.876715    0.412617    1.456300
     17          1           0       -1.863951   -0.226568   -1.561318
 ---------------------------------------------------------------------

 SCF Done:  E(RHF) =  -346.420805582     A.U. after    2 cycles

 The electronic state is 1-A.
 Alpha  occ. eigenvalues --  -21.14427 -21.00642 -11.53360 -11.43299 -11.39794
 Alpha  occ. eigenvalues --  -11.35992 -11.35607  -1.80262  -1.67933  -1.19748
 Alpha  occ. eigenvalues --   -1.07338  -0.99062  -0.82380  -0.79236  -0.73829
 Alpha  occ. eigenvalues --   -0.64456  -0.62959  -0.59404  -0.55036  -0.53183
 Alpha  occ. eigenvalues --   -0.52135  -0.50476  -0.48155  -0.45375  -0.43865
 Alpha  occ. eigenvalues --   -0.37335  -0.26173  -0.25261
 Alpha virt. eigenvalues --    0.03021   0.04476   0.04736   0.05146   0.05739
 Alpha virt. eigenvalues --    0.06023   0.06447   0.06776   0.08578   0.10070
 Alpha virt. eigenvalues --    0.11565   0.12062   0.12439   0.13089   0.13585

 Mulliken charges:
               1
     1  C   -4.006654
     2  C   -2.598998
     3  C    0.950771
     4  O   -3.302413
     5  C   -3.442708
     6  C    1.168340
     7  O   -3.485705
     8  H    1.161346
     9  H    1.287465
    10  H    1.251698
    11  H    3.079532
    12  H    1.262483
    13  H    1.550753
    14  H    0.883896
    15  H    1.315288
    16  H    1.349554
    17  H    1.575352
 Sum of Mulliken charges =   0.00000

 Dipole moment (field-independent basis, Debye):
    X=              1.8891    Y=              2.5884    Z=              0.1685  Tot=              3.2089

 Test job not archived.
 1\1\GINC-SE452\SP\RHF\Aug-CC-pVDZ\C5H10O2\OHZDE\09-Apr-2025\0\\#t hf a
 ug-cc-pvdz iop(5/13=1,5/36=2,99/5=2) pseudo=read geom=check guess=(rea
 d,tcheck) scf=(maxcycle=1)\\title\\0,1\C,0,-1.73961108,-0.98415709,-0.
 94786194\C,0,-1.06651495,0.22729739,-0.32584613\C,0,-0.33082039,0.0548
 4138,0.85789693\O,0,-0.03819338,-1.18965835,1.25208628\C,0,1.80460096,
 1.05134366,0.33436298\C,0,1.82448077,0.33783471,-0.83234614\O,0,1.0163
 7883,0.56144749,-1.79715554\H,0,-2.17861475,-0.71127143,-1.90696115\H,
 0,-1.01706216,-1.77947489,-1.12973675\H,0,-2.52937999,-1.38642227,-0.3

 Normal termination of Gaussian 16 at Wed Apr  9 03:45:50 2025.
