 Gaussian 16, Revision C.01,

 ----------------------------------------------------------------------
 #t hf aug-cc-pvdz symm=none int=(grid=ultrafine) guess=(read,tcheck) s
 table=(opt,rrhf)
 ----------------------------------------------------------------------
 -----
 title
 -----
 Symbolic Z-matrix:
 Charge =  0 Multiplicity = 1

 SCF Done:  E(RHF) =  -323.829917499     A.U. after   14 cycles
 Normal termination of Gaussian 16 at Wed Apr  9 19:05:58 2025.
 Gaussian 16:  ES64L-G16RevC.01  3-Jul-2019

 ----------------------------------------------------------------------
 #t hf aug-cc-pvdz iop(5/13=1,5/36=2,99/5=2) pseudo=read geom=check gue
 ss=(read,tcheck) scf=(maxcycle=1)
 ----------------------------------------------------------------------
 -----
 title
 -----
 Structure from the checkpoint file:  "Grambow2020_wb97xd3_008089_reverse_mol2.chk"
 Charge =  0 Multiplicity = 1

                         Standard orientation:
 ---------------------------------------------------------------------
 Center     Atomic      Atomic             Coordinates (Angstroms)
 Number     Number       Type             X           Y           Z
 ---------------------------------------------------------------------
      1          6           0       -2.565184   -0.798170   -0.126860
      2          6           0       -1.835492    0.404260    0.242789
      3          7           0       -1.245233    1.343817    0.534113
      4          8           0        0.596246   -1.622831   -0.419392
      5          6           0        1.255478   -0.669666   -0.129098
      6          6           0        1.901119    0.564402   -0.566635
      7          6           0        1.972399    0.063088    0.910839
      8          1           0       -3.179706   -0.603184   -1.004846
      9          1           0       -1.849745   -1.589063   -0.352187
     10          1           0       -3.205671   -1.108926    0.697593
     11          1           0       -0.426440    3.440545   -1.067813
     12          1           0       -0.143195    3.851458   -1.622653
     13          1           0        2.801017    0.495227   -1.166759
     14          1           0        1.273798    1.426299   -0.760757
     15          1           0        2.918058   -0.329958    1.265676
     16          1           0        1.388633    0.610042    1.641883
 ---------------------------------------------------------------------

 SCF Done:  E(RHF) =  -325.338291575     A.U. after    2 cycles

 The electronic state is 1-A.
 Alpha  occ. eigenvalues --  -21.06977 -15.75633 -11.50197 -11.46080 -11.43711
 Alpha  occ. eigenvalues --  -11.41857 -11.39100  -1.71552  -1.32085  -1.27946
 Alpha  occ. eigenvalues --   -1.11503  -0.89467  -0.76198  -0.69181  -0.67065
 Alpha  occ. eigenvalues --   -0.62083  -0.61900  -0.60377  -0.57942  -0.54767
 Alpha  occ. eigenvalues --   -0.53161  -0.52040  -0.44568  -0.43775  -0.42516
 Alpha  occ. eigenvalues --   -0.41980  -0.26651
 Alpha virt. eigenvalues --    0.03092   0.04933   0.05267   0.06193   0.06833
 Alpha virt. eigenvalues --    0.07046   0.07318   0.08684   0.09311   0.09773
 Alpha virt. eigenvalues --    0.10833   0.11520   0.11941   0.12889   0.13795

 Mulliken charges:
               1
     1  C   -3.790451
     2  C    2.127076
     3  N   -2.323920
     4  O   -3.197802
     5  C    3.262074
     6  C   -2.843718
     7  C   -2.679846
     8  H    1.300460
     9  H    1.383359
    10  H    1.300150
    11  H   -0.313609
    12  H    0.255038
    13  H    1.193057
    14  H    1.718911
    15  H    1.255537
    16  H    1.353684
 Sum of Mulliken charges =   0.00000

 Dipole moment (field-independent basis, Debye):
    X=             -0.9626    Y=             -1.5348    Z=             -0.3923  Tot=              1.8537

 Test job not archived.
 1\1\GINC-SE112\SP\RHF\Aug-CC-pVDZ\C5H9N1O1\OHZDE\09-Apr-2025\0\\#t hf
 aug-cc-pvdz iop(5/13=1,5/36=2,99/5=2) pseudo=read geom=check guess=(re
 ad,tcheck) scf=(maxcycle=1)\\title\\0,1\C,0,2.62287021,-0.42016631,-0.
 82627453\C,0,1.81530303,0.47841579,-0.01675926\N,0,1.16420666,1.181862
 05,0.61354266\O,0,-0.47731512,-1.22129977,-1.53853571\C,0,-1.19808507,
 -0.51467919,-0.89934998\C,0,-1.91491042,-0.29109934,0.35260437\C,0,-1.
 9708375,0.72265033,-0.8342027\H,0,3.23355699,-1.05121362,-0.18179228\H
 ,0,1.96087682,-1.04526843,-1.42556471\H,0,3.27249058,0.15787502,-1.482

 Normal termination of Gaussian 16 at Wed Apr  9 19:06:03 2025.
