 Gaussian 16, Revision C.01,

 ----------------------------------------------------------------------
 #t hf aug-cc-pvdz symm=none int=(grid=ultrafine) guess=(read,tcheck) s
 table=(opt,rrhf)
 ----------------------------------------------------------------------
 -----
 title
 -----
 Symbolic Z-matrix:
 Charge =  0 Multiplicity = 1

 SCF Done:  E(RHF) =  -333.570005040     A.U. after   20 cycles
 Normal termination of Gaussian 16 at Wed Apr  9 18:25:04 2025.
 Gaussian 16:  ES64L-G16RevC.01  3-Jul-2019

 ----------------------------------------------------------------------
 #t hf aug-cc-pvdz iop(5/13=1,5/36=2,99/5=2) pseudo=read geom=check gue
 ss=(read,tcheck) scf=(maxcycle=1)
 ----------------------------------------------------------------------
 -----
 title
 -----
 Structure from the checkpoint file:  "Grambow2020_wb97xd3_006987_forward_mol1.chk"
 Charge =  0 Multiplicity = 1

                         Standard orientation:
 ---------------------------------------------------------------------
 Center     Atomic      Atomic             Coordinates (Angstroms)
 Number     Number       Type             X           Y           Z
 ---------------------------------------------------------------------
      1          7           0       -2.251363   -0.309492    0.266170
      2          6           0       -0.899694   -0.135842   -0.058134
      3          6           0        0.045789   -1.175594   -0.341518
      4          7           0        1.268812   -0.944186    0.006792
      5          6           0        2.155214   -0.120401    0.233313
      6          7           0        0.579881    1.764232   -0.175285
      7          7           0       -0.303669    1.044130   -0.118730
      8          1           0       -2.488953   -0.107558    1.225677
      9          1           0       -2.899366    0.129372   -0.367953
     10          1           0       -0.211482   -2.086772   -0.866116
     11          1           0        2.736322   -0.226804    1.153793
 ---------------------------------------------------------------------

 SCF Done:  E(RHF) =  -335.091587049     A.U. after    2 cycles

 The electronic state is 1-A.
 Alpha  occ. eigenvalues --  -15.89160 -15.84999 -15.80060 -15.76709 -11.47910
 Alpha  occ. eigenvalues --  -11.42996 -11.41237  -1.61854  -1.43726  -1.35460
 Alpha  occ. eigenvalues --   -1.13833  -1.01713  -0.82093  -0.72491  -0.69554
 Alpha  occ. eigenvalues --   -0.69178  -0.64464  -0.62283  -0.60790  -0.54617
 Alpha  occ. eigenvalues --   -0.50545  -0.45129  -0.39406  -0.34557  -0.25694
 Alpha virt. eigenvalues --    0.03242   0.05146   0.05975   0.06032   0.09303
 Alpha virt. eigenvalues --    0.10029   0.10285   0.10617   0.11797   0.12137
 Alpha virt. eigenvalues --    0.12993   0.14207   0.14680   0.15506   0.16002

 Mulliken charges:
               1
     1  N   -3.104318
     2  C    3.118397
     3  C    0.937690
     4  N   -2.511347
     5  C   -1.184151
     6  N   -1.549147
     7  N    0.310591
     8  H    0.438709
     9  H    0.481503
    10  H    1.517409
    11  H    1.544664
 Sum of Mulliken charges =  -0.00000

 Dipole moment (field-independent basis, Debye):
    X=             -2.3977    Y=             -0.6301    Z=              0.9951  Tot=              2.6713

 Test job not archived.
 1\1\GINC-SE454\SP\RHF\Aug-CC-pVDZ\C3H4N4\OHZDE\09-Apr-2025\0\\#t hf au
 g-cc-pvdz iop(5/13=1,5/36=2,99/5=2) pseudo=read geom=check guess=(read
 ,tcheck) scf=(maxcycle=1)\\title\\0,1\N,0,2.01319806,-0.27710826,-0.31
 225535\C,0,0.63315259,-0.03686056,-0.32172431\C,0,-0.04457031,1.046185
 18,0.32868659\N,0,-1.23640563,0.79501183,0.76123354\C,0,-2.26952279,0.
 13319452,0.65970363\N,0,-1.28278201,-1.22060962,-1.18258481\N,0,-0.245
 29207,-0.81878726,-0.92849962\H,0,2.3033108,-1.07512144,0.23261986\H,0
 ,2.4493629,-0.28001209,-1.22020564\H,0,0.37148476,2.04164873,0.4157934

 Normal termination of Gaussian 16 at Wed Apr  9 18:25:08 2025.
