 Gaussian 16, Revision C.01,

 ----------------------------------------------------------------------
 #t hf aug-cc-pvdz symm=none int=(grid=ultrafine) guess=(read,tcheck) s
 table=(opt,rrhf)
 ----------------------------------------------------------------------
 -----
 title
 -----
 Symbolic Z-matrix:
 Charge =  0 Multiplicity = 1

 SCF Done:  E(RHF) =  -353.521256657     A.U. after   15 cycles
 Normal termination of Gaussian 16 at Wed Apr  9 03:46:45 2025.
 Gaussian 16:  ES64L-G16RevC.01  3-Jul-2019

 ----------------------------------------------------------------------
 #t hf aug-cc-pvdz iop(5/13=1,5/36=2,99/5=2) pseudo=read geom=check gue
 ss=(read,tcheck) scf=(maxcycle=1)
 ----------------------------------------------------------------------
 -----
 title
 -----
 Structure from the checkpoint file:  "Grambow2020_wb97xd3_007938_reverse_mol2.chk"
 Charge =  0 Multiplicity = 1

                         Standard orientation:
 ---------------------------------------------------------------------
 Center     Atomic      Atomic             Coordinates (Angstroms)
 Number     Number       Type             X           Y           Z
 ---------------------------------------------------------------------
      1          8           0       -2.220021   -0.157009    0.000351
      2          6           0       -0.898648   -0.061926   -0.000180
      3          6           0       -0.173950   -1.322024   -0.000491
      4          7           0        1.113556   -1.048209    0.000085
      5          7           0        1.774280    0.137691    0.000405
      6          6           0        0.983850    1.162613   -0.000266
      7          7           0       -0.366664    1.128688   -0.000139
      8          1           0       -2.576873    0.740544    0.000082
      9          1           0        1.764488   -1.821227    0.000249
     10          1           0        1.456833    2.137585    0.000029
 ---------------------------------------------------------------------

 SCF Done:  E(RHF) =  -355.065255348     A.U. after    2 cycles

 The electronic state is 1-A.
 Alpha  occ. eigenvalues --  -21.13446 -15.85727 -15.78369 -15.76521 -11.50707
 Alpha  occ. eigenvalues --  -11.45892 -11.40432  -1.81394  -1.61333  -1.38652
 Alpha  occ. eigenvalues --   -1.24615  -0.99515  -0.93895  -0.78715  -0.72336
 Alpha  occ. eigenvalues --   -0.64584  -0.62961  -0.59404  -0.54449  -0.52798
 Alpha  occ. eigenvalues --   -0.48507  -0.43781  -0.39623  -0.33835  -0.32672
 Alpha virt. eigenvalues --    0.03528   0.05198   0.05777   0.08506   0.09774
 Alpha virt. eigenvalues --    0.09971   0.10015   0.10989   0.12323   0.13276
 Alpha virt. eigenvalues --    0.13803   0.13981   0.15087   0.15269   0.15748

 Mulliken charges:
               1
     1  O   -3.286503
     2  C    5.552281
     3  C   -0.824498
     4  N   -1.628053
     5  N   -1.573586
     6  C    1.340630
     7  N   -3.067765
     8  H    0.940529
     9  H    0.832978
    10  H    1.713987
 Sum of Mulliken charges =   0.00000

 Dipole moment (field-independent basis, Debye):
    X=              0.7068    Y=              1.4873    Z=              0.0008  Tot=              1.6467

 Test job not archived.
 1\1\GINC-SE150\SP\RHF\Aug-CC-pVDZ\C3H3N3O1\OHZDE\09-Apr-2025\0\\#t hf
 aug-cc-pvdz iop(5/13=1,5/36=2,99/5=2) pseudo=read geom=check guess=(re
 ad,tcheck) scf=(maxcycle=1)\\title\\0,1\O,0,2.20425657,-0.66490782,0.1
 2488461\C,0,0.95171679,-0.23969255,0.05136686\C,0,0.77658926,1.2012509
 3,-0.02639649\N,0,-0.51455444,1.44888054,-0.09177324\N,0,-1.58487959,0
 .61383231,-0.09548536\C,0,-1.25752053,-0.63621978,-0.02164286\N,0,-0.0
 0201224,-1.12904919,0.05488563\H,0,2.18244614,-1.62946605,0.17065676\H
 ,0,-0.81182472,2.41293326,-0.15094583\H,0,-2.07288025,-1.34999164,-0.0

 Normal termination of Gaussian 16 at Wed Apr  9 03:46:48 2025.
