 Gaussian 16, Revision C.01,

 ----------------------------------------------------------------------
 #t hf aug-cc-pvdz symm=none int=(grid=ultrafine) guess=(read,tcheck) s
 table=(opt,rrhf)
 ----------------------------------------------------------------------
 -----
 title
 -----
 Symbolic Z-matrix:
 Charge =  0 Multiplicity = 1

 SCF Done:  E(RHF) =  -324.964821673     A.U. after   14 cycles
 Normal termination of Gaussian 16 at Wed Apr  9 19:11:15 2025.
 Gaussian 16:  ES64L-G16RevC.01  3-Jul-2019

 ----------------------------------------------------------------------
 #t hf aug-cc-pvdz iop(5/13=1,5/36=2,99/5=2) pseudo=read geom=check gue
 ss=(read,tcheck) scf=(maxcycle=1)
 ----------------------------------------------------------------------
 -----
 title
 -----
 Structure from the checkpoint file:  "Grambow2020_wb97xd3_008235_reverse_mol1.chk"
 Charge =  0 Multiplicity = 1

                         Standard orientation:
 ---------------------------------------------------------------------
 Center     Atomic      Atomic             Coordinates (Angstroms)
 Number     Number       Type             X           Y           Z
 ---------------------------------------------------------------------
      1          6           0        2.310714   -0.855790   -0.420241
      2          6           0        1.515273   -0.033136    0.542068
      3          6           0        1.162187    1.302054    0.300662
      4          7           0       -0.857122    1.058576   -0.651553
      5          6           0       -1.225179   -0.101401   -0.158403
      6          8           0       -0.394161   -1.034710    0.029856
      7          6           0       -2.662877   -0.385083    0.242492
      8          1           0        3.282695   -1.126208   -0.003754
      9          1           0        1.745315   -1.764180   -0.613586
     10          1           0        2.451670   -0.328014   -1.363115
     11          1           0        1.289611   -0.445294    1.516289
     12          1           0        2.316495    1.020609    0.892708
     13          1           0        0.675625    1.886095    1.066111
     14          1           0        1.461554    1.779922   -0.618056
     15          1           0       -1.625049    1.719355   -0.649221
     16          1           0       -2.992138   -1.305128   -0.241761
     17          1           0       -3.345216    0.423122   -0.023599
     18          1           0       -2.708129   -0.552495    1.320542
 ---------------------------------------------------------------------

 SCF Done:  E(RHF) =  -326.542623288     A.U. after    2 cycles

 The electronic state is 1-A.
 Alpha  occ. eigenvalues --  -20.95480 -15.65521 -11.53745 -11.46977 -11.42801
 Alpha  occ. eigenvalues --  -11.40066 -11.34176  -1.64578  -1.28878  -1.23757
 Alpha  occ. eigenvalues --   -1.05011  -1.02913  -0.84820  -0.72042  -0.69109
 Alpha  occ. eigenvalues --   -0.64168  -0.61742  -0.58439  -0.56647  -0.55172
 Alpha  occ. eigenvalues --   -0.53761  -0.52614  -0.50659  -0.42570  -0.41446
 Alpha  occ. eigenvalues --   -0.33713  -0.24785  -0.23909
 Alpha virt. eigenvalues --    0.03152   0.04570   0.05123   0.05291   0.05477
 Alpha virt. eigenvalues --    0.06026   0.06288   0.07594   0.07666   0.08592
 Alpha virt. eigenvalues --    0.08822   0.11205   0.12281   0.13173   0.13814

 Mulliken charges:
               1
     1  C   -3.694566
     2  C   -1.813644
     3  C   -3.052666
     4  N   -2.798221
     5  C    5.280673
     6  O   -3.375465
     7  C   -4.063465
     8  H    1.128286
     9  H    1.349607
    10  H    1.325314
    11  H    1.437582
    12  H    1.021389
    13  H    1.432236
    14  H    1.369479
    15  H    0.680315
    16  H    1.261629
    17  H    1.322438
    18  H    1.189083
 Sum of Mulliken charges =   0.00000

 Dipole moment (field-independent basis, Debye):
    X=              3.4823    Y=              1.0592    Z=              1.6821  Tot=              4.0097

 Test job not archived.
 1\1\GINC-SE162\SP\RHF\Aug-CC-pVDZ\C5H11N1O1\OHZDE\09-Apr-2025\0\\#t hf
  aug-cc-pvdz iop(5/13=1,5/36=2,99/5=2) pseudo=read geom=check guess=(r
 ead,tcheck) scf=(maxcycle=1)\\title\\0,1\C,0,-2.06349063,0.3855591,-0.
 98389233\C,0,-1.16084837,0.85967748,0.1097141\C,0,-1.04888353,0.210691
 5,1.34743799\N,0,0.68078333,-1.17004995,0.96611412\C,0,1.30242776,-0.5
 2829367,0.00386787\O,0,0.66826755,0.10412986,-0.88774855\C,0,2.8184955
 4,-0.48134079,-0.08273578\H,0,-2.85826457,1.10632856,-1.18429112\H,0,-
 1.4561031,0.27315122,-1.8786971\H,0,-2.50126346,-0.58166624,-0.7384207

 Normal termination of Gaussian 16 at Wed Apr  9 19:11:21 2025.
