 Gaussian 16, Revision C.01,

 ----------------------------------------------------------------------
 #t hf aug-cc-pvdz symm=none int=(grid=ultrafine) guess=(read,tcheck) s
 table=(opt,rrhf)
 ----------------------------------------------------------------------
 -----
 title
 -----
 Symbolic Z-matrix:
 Charge =  0 Multiplicity = 1

 SCF Done:  E(RHF) =  -321.767627228     A.U. after   15 cycles
 Normal termination of Gaussian 16 at Wed Apr  9 16:02:50 2025.
 Gaussian 16:  ES64L-G16RevC.01  3-Jul-2019

 ----------------------------------------------------------------------
 #t hf aug-cc-pvdz iop(5/13=1,5/36=2,99/5=2) pseudo=read geom=check gue
 ss=(read,tcheck) scf=(maxcycle=1)
 ----------------------------------------------------------------------
 -----
 title
 -----
 Structure from the checkpoint file:  "Grambow2020_b97d3_006705_forward_mol1.chk"
 Charge =  0 Multiplicity = 1

                         Standard orientation:
 ---------------------------------------------------------------------
 Center     Atomic      Atomic             Coordinates (Angstroms)
 Number     Number       Type             X           Y           Z
 ---------------------------------------------------------------------
      1          6           0       -2.321686   -0.470069    0.018512
      2          7           0       -0.945733    1.159454   -0.015085
      3          6           0        0.004432    0.266393   -0.015083
      4          8           0       -0.326510   -0.968899   -0.025961
      5          8           0        1.310125    0.640282    0.005346
      6          6           0        2.260830   -0.441355    0.009452
      7          1           0       -2.942173    0.245534   -0.512722
      8          1           0       -2.443980   -0.461071    1.097302
      9          1           0       -2.344200   -1.461531   -0.430447
     10          1           0       -0.708319    2.153040    0.007143
     11          1           0        2.126356   -1.076666    0.894009
     12          1           0        3.244361    0.039327    0.031952
     13          1           0        2.157711   -1.055683   -0.894015
 ---------------------------------------------------------------------

 SCF Done:  E(RHF) =  -323.204441570     A.U. after    2 cycles

 The electronic state is 1-A.
 Alpha  occ. eigenvalues --  -21.07310 -21.01347 -15.69337 -11.49551 -11.47355
 Alpha  occ. eigenvalues --  -11.40320  -1.81815  -1.64501  -1.26321  -1.03661
 Alpha  occ. eigenvalues --   -0.98641  -0.74903  -0.67565  -0.64378  -0.63395
 Alpha  occ. eigenvalues --   -0.60692  -0.56998  -0.52163  -0.51684  -0.41262
 Alpha  occ. eigenvalues --   -0.37922  -0.31931  -0.29659  -0.28575
 Alpha virt. eigenvalues --    0.02829   0.04855   0.05792   0.05932   0.06284
 Alpha virt. eigenvalues --    0.06798   0.07125   0.09394   0.11628   0.12864
 Alpha virt. eigenvalues --    0.13935   0.14218   0.15228   0.15704   0.16829

 Mulliken charges:
               1
     1  C   -3.669390
     2  N   -2.660946
     3  C    6.180086
     4  O   -2.320241
     5  O   -2.946155
     6  C   -3.082923
     7  H    1.285750
     8  H    1.276042
     9  H    1.361421
    10  H    0.715268
    11  H    1.278334
    12  H    1.306140
    13  H    1.276613
 Sum of Mulliken charges =  -0.00000

 Dipole moment (field-independent basis, Debye):
    X=             -0.6049    Y=             -0.9221    Z=              0.1673  Tot=              1.1155

 Test job not archived.
 1\1\GINC-SE141\SP\RHF\Aug-CC-pVDZ\C3H7N1O2\OHZDE\09-Apr-2025\0\\#t hf
 aug-cc-pvdz iop(5/13=1,5/36=2,99/5=2) pseudo=read geom=check guess=(re
 ad,tcheck) scf=(maxcycle=1)\\title\\0,1\C,0,-2.18121301,-0.65981698,-0
 .15435925\N,0,-1.03699703,1.13770385,-0.05736771\C,0,0.02420643,0.3843
 1535,-0.13875272\O,0,-0.13822632,-0.87910782,-0.25262377\O,0,1.2681226
 2,0.92812906,-0.09420401\C,0,2.35522055,-0.01171413,-0.18752473\H,0,-2
 .90110625,0.00720349,-0.61926592\H,0,-2.28503206,-0.7574278,0.92198603
 \H,0,-2.07828432,-1.60430197,-0.68579315\H,0,-0.93462383,2.14890525,0.

 Normal termination of Gaussian 16 at Wed Apr  9 16:02:54 2025.
