 Gaussian 16, Revision C.01,

 ----------------------------------------------------------------------
 #t hf aug-cc-pvdz symm=none int=(grid=ultrafine) guess=(read,tcheck) s
 table=(opt,rrhf)
 ----------------------------------------------------------------------
 -----
 title
 -----
 Symbolic Z-matrix:
 Charge =  0 Multiplicity = 1

 SCF Done:  E(RHF) =  -304.456172617     A.U. after   17 cycles
 Normal termination of Gaussian 16 at Wed Apr  9 03:14:51 2025.
 Gaussian 16:  ES64L-G16RevC.01  3-Jul-2019

 ----------------------------------------------------------------------
 #t hf aug-cc-pvdz iop(5/13=1,5/36=2,99/5=2) pseudo=read geom=check gue
 ss=(read,tcheck) scf=(maxcycle=1)
 ----------------------------------------------------------------------
 -----
 title
 -----
 Structure from the checkpoint file:  "Grambow2020_b97d3_006932_reverse_mol1.chk"
 Charge =  0 Multiplicity = 1

                         Standard orientation:
 ---------------------------------------------------------------------
 Center     Atomic      Atomic             Coordinates (Angstroms)
 Number     Number       Type             X           Y           Z
 ---------------------------------------------------------------------
      1          8           0        1.851936   -0.108731    0.100798
      2          6           0        0.590115    0.037199   -0.151691
      3          6           0       -0.136996    1.389411   -0.424872
      4          6           0       -0.672190    0.584307    0.681831
      5          8           0       -1.502288   -0.505987    0.079147
      6          6           0       -0.374080   -1.060532   -0.415887
      7          1           0        1.486471   -1.480216    0.630909
      8          1           0        0.490468    2.228896   -0.122827
      9          1           0       -0.712158    1.538176   -1.342204
     10          1           0       -0.805042    0.793394    1.737154
     11          1           0       -0.468136   -1.884902   -1.127402
     12          1           0        0.770114   -1.979915    0.648518
 ---------------------------------------------------------------------

 SCF Done:  E(RHF) =  -305.843213330     A.U. after    2 cycles

 The electronic state is 1-A.
 Alpha  occ. eigenvalues --  -21.13963 -20.98784 -11.55632 -11.50830 -11.47493
 Alpha  occ. eigenvalues --  -11.42649  -1.86793  -1.64265  -1.24731  -1.03063
 Alpha  occ. eigenvalues --   -0.90475  -0.81484  -0.70889  -0.66693  -0.61993
 Alpha  occ. eigenvalues --   -0.60555  -0.52708  -0.50543  -0.45100  -0.41596
 Alpha  occ. eigenvalues --   -0.40264  -0.27583  -0.22628
 Alpha virt. eigenvalues --    0.03153   0.04647   0.05032   0.05842   0.06948
 Alpha virt. eigenvalues --    0.07520   0.08515   0.09381   0.10106   0.10891
 Alpha virt. eigenvalues --    0.12926   0.14034   0.14149   0.14920   0.15100

 Mulliken charges:
               1
     1  O   -3.238498
     2  C    3.462609
     3  C   -3.019828
     4  C    0.160493
     5  O   -2.938370
     6  C    0.667074
     7  H    0.172650
     8  H    1.255421
     9  H    1.146503
    10  H    1.277817
    11  H    1.361945
    12  H   -0.307816
 Sum of Mulliken charges =   0.00000

 Dipole moment (field-independent basis, Debye):
    X=             -3.0801    Y=              1.0667    Z=             -0.7603  Tot=              3.3471

 Test job not archived.
 1\1\GINC-SE143\SP\RHF\Aug-CC-pVDZ\C4H6O2\OHZDE\09-Apr-2025\0\\#t hf au
 g-cc-pvdz iop(5/13=1,5/36=2,99/5=2) pseudo=read geom=check guess=(read
 ,tcheck) scf=(maxcycle=1)\\title\\0,1\O,0,-0.07450915,-1.59940365,-0.8
 342173\C,0,-0.10677485,-0.55201703,-0.07317897\C,0,-1.38623124,0.08741
 354,0.54804133\C,0,-0.55861248,0.97826356,-0.27709482\O,0,0.60989962,1
 .40117195,0.55762585\C,0,1.0744407,0.13337367,0.50944546\H,0,1.3133220
 3,-1.14329172,-1.23601299\H,0,-2.28195625,-0.29538591,0.05730821\H,0,-
 1.46810216,0.23509598,1.62782328\H,0,-0.77489565,1.5546723,-1.1693109\

 Normal termination of Gaussian 16 at Wed Apr  9 03:14:55 2025.
