 Gaussian 16, Revision C.01,

 ----------------------------------------------------------------------
 #t hf aug-cc-pvdz symm=none int=(grid=ultrafine) guess=(read,tcheck) s
 table=(opt,rrhf)
 ----------------------------------------------------------------------
 -----
 title
 -----
 Symbolic Z-matrix:
 Charge =  0 Multiplicity = 1

 SCF Done:  E(RHF) =  -307.755699987     A.U. after   14 cycles

 1\1\GINC-SE117\Stability\RHF\Aug-CC-pVDZ\C6H10O1\OHZDE\09-Apr-2025\0\\
 #t hf aug-cc-pvdz symm=none int=(grid=ultrafine) guess=(read,tcheck) s
 table=(opt,rrhf)\\title\\0,1\C,0,2.30892389,0.03631319,0.09772674\C,0,
 0.82472809,-0.12695242,0.06172097\C,0,0.11130511,-1.13884401,0.5281508
 2\C,0,-1.38216381,-1.01631313,0.42253514\C,0,-1.6626783,0.22284388,-0.
 40785677\C,0,0.06206036,1.04005485,-0.50304586\O,0,0.01381571,2.169196
 27,0.19721742\H,0,2.56594632,0.94003798,0.65408495\H,0,2.71791527,0.14
 647884,-0.91037297\H,0,2.78719545,-0.81995626,0.57204864\H,0,0.5622328

 Normal termination of Gaussian 16 at Wed Apr  9 18:52:03 2025.
 Gaussian 16:  ES64L-G16RevC.01  3-Jul-2019

 ----------------------------------------------------------------------
 #t hf aug-cc-pvdz iop(5/13=1,5/36=2,99/5=2) pseudo=read geom=check gue
 ss=(read,tcheck) scf=(maxcycle=1)
 ----------------------------------------------------------------------
 -----
 title
 -----
 Structure from the checkpoint file:  "Grambow2020_wb97xd3_007732_forward_mol1.chk"
 Charge =  0 Multiplicity = 1

                         Standard orientation:
 ---------------------------------------------------------------------
 Center     Atomic      Atomic             Coordinates (Angstroms)
 Number     Number       Type             X           Y           Z
 ---------------------------------------------------------------------
      1          6           0       -2.213422   -0.572770    0.105062
      2          6           0       -0.724754   -0.452375    0.092289
      3          6           0        0.159942   -1.394103   -0.192164
      4          6           0        1.604737   -0.982810   -0.196898
      5          6           0        1.658501    0.435510    0.340899
      6          6           0       -0.187989    0.927203    0.359083
      7          8           0       -0.364759    1.869312   -0.562242
      8          1           0       -2.645108    0.128491   -0.612011
      9          1           0       -2.620484   -0.324931    1.089212
     10          1           0       -2.528329   -1.583112   -0.153711
     11          1           0       -0.125650   -2.409946   -0.442947
     12          1           0        2.013106   -1.044039   -1.209811
     13          1           0        2.210067   -1.654794    0.417163
     14          1           0        1.852308    0.515811    1.406535
     15          1           0        2.399401    1.074127   -0.165326
     16          1           0       -0.284440    1.243056    1.412144
     17          1           0        0.865110    1.336908   -0.292942
 ---------------------------------------------------------------------

 SCF Done:  E(RHF) =  -309.254926608     A.U. after    2 cycles

 The electronic state is 1-A.
 Alpha  occ. eigenvalues --  -20.98051 -11.50885 -11.46645 -11.43517 -11.40566
 Alpha  occ. eigenvalues --  -11.39211 -11.36840  -1.67494  -1.30804  -1.13831
 Alpha  occ. eigenvalues --   -1.01990  -0.97037  -0.85528  -0.75757  -0.70743
 Alpha  occ. eigenvalues --   -0.65739  -0.60102  -0.59199  -0.57420  -0.52255
 Alpha  occ. eigenvalues --   -0.51777  -0.50388  -0.46982  -0.44823  -0.33662
 Alpha  occ. eigenvalues --   -0.25908  -0.25407
 Alpha virt. eigenvalues --    0.03446   0.04837   0.04953   0.05069   0.05338
 Alpha virt. eigenvalues --    0.05910   0.06896   0.08046   0.08295   0.08648
 Alpha virt. eigenvalues --    0.10897   0.12393   0.12746   0.13160   0.13400

 Mulliken charges:
               1
     1  C   -4.513376
     2  C    4.861343
     3  C   -1.782618
     4  C   -3.844561
     5  C   -3.801954
     6  C   -0.948997
     7  O   -2.926375
     8  H    1.161354
     9  H    1.154247
    10  H    1.287192
    11  H    1.614753
    12  H    1.268560
    13  H    1.182257
    14  H    1.393380
    15  H    0.809421
    16  H    1.213503
    17  H    1.871872
 Sum of Mulliken charges =  -0.00000

 Dipole moment (field-independent basis, Debye):
    X=              0.8015    Y=             -1.7925    Z=              1.0055  Tot=              2.2060

 Test job not archived.
 1\1\GINC-SE117\SP\RHF\Aug-CC-pVDZ\C6H10O1\OHZDE\09-Apr-2025\0\\#t hf a
 ug-cc-pvdz iop(5/13=1,5/36=2,99/5=2) pseudo=read geom=check guess=(rea
 d,tcheck) scf=(maxcycle=1)\\title\\0,1\C,0,2.30892389,0.03631319,0.097
 72674\C,0,0.82472809,-0.12695242,0.06172097\C,0,0.11130511,-1.13884401
 ,0.52815082\C,0,-1.38216381,-1.01631313,0.42253514\C,0,-1.6626783,0.22
 284388,-0.40785677\C,0,0.06206036,1.04005485,-0.50304586\O,0,0.0138157
 1,2.16919627,0.19721742\H,0,2.56594632,0.94003798,0.65408495\H,0,2.717
 91527,0.14647884,-0.91037297\H,0,2.78719545,-0.81995626,0.57204864\H,0

 Normal termination of Gaussian 16 at Wed Apr  9 18:52:10 2025.
