 Gaussian 16, Revision C.01,

 ----------------------------------------------------------------------
 #t hf aug-cc-pvdz symm=none int=(grid=ultrafine) guess=(read,tcheck) s
 table=(opt,rrhf)
 ----------------------------------------------------------------------
 -----
 title
 -----
 Symbolic Z-matrix:
 Charge =  0 Multiplicity = 1

 SCF Done:  E(RHF) =  -152.308570458     A.U. after   17 cycles
 Normal termination of Gaussian 16 at Wed Apr  9 15:44:31 2025.
 Gaussian 16:  ES64L-G16RevC.01  3-Jul-2019

 ----------------------------------------------------------------------
 #t hf aug-cc-pvdz iop(5/13=1,5/36=2,99/5=2) pseudo=read geom=check gue
 ss=(read,tcheck) scf=(maxcycle=1)
 ----------------------------------------------------------------------
 -----
 title
 -----
 Structure from the checkpoint file:  "Grambow2020_b97d3_006637_reverse_mol1.chk"
 Charge =  0 Multiplicity = 1

                         Standard orientation:
 ---------------------------------------------------------------------
 Center     Atomic      Atomic             Coordinates (Angstroms)
 Number     Number       Type             X           Y           Z
 ---------------------------------------------------------------------
      1          6           0        0.264273   -0.528690    0.000020
      2          6           0        1.381625    0.102295   -0.004283
      3          6           0       -1.131864   -0.548596    0.000302
      4          6           0       -0.985557    0.753035    0.001401
      5          1           0        2.458776    0.107465    0.019213
      6          1           0        0.370361    1.224265   -0.003849
 ---------------------------------------------------------------------

 SCF Done:  E(RHF) =  -153.045490478     A.U. after    2 cycles

 The electronic state is 1-A.
 Alpha  occ. eigenvalues --  -11.52286 -11.46391 -11.45396 -11.41541  -1.34922
 Alpha  occ. eigenvalues --   -1.05297  -0.78300  -0.73974  -0.58339  -0.52235
 Alpha  occ. eigenvalues --   -0.46075  -0.40521  -0.32991
 Alpha virt. eigenvalues --    0.03010   0.05141   0.06512   0.07587   0.07725
 Alpha virt. eigenvalues --    0.08791   0.09745   0.12212   0.12506   0.12831
 Alpha virt. eigenvalues --    0.14711   0.15752   0.16621   0.16790   0.17152

 Mulliken charges:
               1
     1  C    3.021116
     2  C   -2.616618
     3  C   -1.454166
     4  C   -1.261204
     5  H    0.727998
     6  H    1.582874
 Sum of Mulliken charges =  -0.00000

 Dipole moment (field-independent basis, Debye):
    X=              3.0376    Y=              0.5394    Z=              0.0402  Tot=              3.0854

 Test job not archived.
 1\1\GINC-SE168\SP\RHF\Aug-CC-pVDZ\C4H2\OHZDE\09-Apr-2025\0\\#t hf aug-
 cc-pvdz iop(5/13=1,5/36=2,99/5=2) pseudo=read geom=check guess=(read,t
 check) scf=(maxcycle=1)\\title\\0,1\C,0,0.05831668,-0.68434709,-0.2956
 4744\C,0,0.8668492,0.045961,0.38226084\C,0,-1.10379865,-0.84897855,-1.
 05194086\C,0,-1.24377979,0.43088625,-0.81110555\H,0,1.75335381,0.15805
 572,0.9842401\H,0,-0.20341725,1.03096666,-0.02488109\\Version=ES64L-G1
 6RevC.01\State=1-A\HF=-153.0454905\RMSD=8.022e-01\Dipole=0.9473171,0.3
 271899,0.6848869\Quadrupole=0.8698995,-0.1969774,-0.6729221,-0.5777353

 Normal termination of Gaussian 16 at Wed Apr  9 15:44:33 2025.
