 Gaussian 16, Revision C.01,

 ----------------------------------------------------------------------
 #t hf aug-cc-pvdz symm=none int=(grid=ultrafine) guess=(read,tcheck) s
 table=(opt,rrhf)
 ----------------------------------------------------------------------
 -----
 title
 -----
 Symbolic Z-matrix:
 Charge =  0 Multiplicity = 1

 SCF Done:  E(RHF) =  -344.756960733     A.U. after   16 cycles

 1\1\GINC-SE424\Stability\RHF\Aug-CC-pVDZ\C5H10O2\OHZDE\09-Apr-2025\0\\
 #t hf aug-cc-pvdz symm=none int=(grid=ultrafine) guess=(read,tcheck) s
 table=(opt,rrhf)\\title\\0,1\C,0,2.12760665,0.92458458,-0.18250667\O,0
 ,0.72776181,0.98944465,-0.35275904\C,0,0.15757519,-0.2250836,-0.694622
 94\C,0,0.13473855,-1.37288749,0.67758048\O,0,-0.92959962,-2.11845039,0
 .58594104\C,0,-1.24448081,-0.29936707,-0.5994732\C,0,-2.02467056,0.691
 61417,0.15215703\H,0,2.40460942,0.29242606,0.66606101\H,0,2.61389849,0
 .53976457,-1.08670451\H,0,2.47158944,1.94046089,0.00186481\H,0,0.63003

 Normal termination of Gaussian 16 at Wed Apr  9 03:27:34 2025.
 Gaussian 16:  ES64L-G16RevC.01  3-Jul-2019

 ----------------------------------------------------------------------
 #t hf aug-cc-pvdz iop(5/13=1,5/36=2,99/5=2) pseudo=read geom=check gue
 ss=(read,tcheck) scf=(maxcycle=1)
 ----------------------------------------------------------------------
 -----
 title
 -----
 Structure from the checkpoint file:  "Grambow2020_wb97xd3_006661_forward_mol1.chk"
 Charge =  0 Multiplicity = 1

                         Standard orientation:
 ---------------------------------------------------------------------
 Center     Atomic      Atomic             Coordinates (Angstroms)
 Number     Number       Type             X           Y           Z
 ---------------------------------------------------------------------
      1          6           0       -2.474655   -0.164602   -0.160741
      2          8           0       -1.314902    0.625955   -0.009909
      3          6           0       -0.286197   -0.025335    0.649371
      4          6           0        0.471026   -1.292593   -0.361366
      5          8           0        1.738295   -1.364422   -0.068199
      6          6           0        0.978458    0.588246    0.582307
      7          6           0        1.284164    1.629398   -0.406750
      8          1           0       -2.296040   -1.028298   -0.807693
      9          1           0       -2.836389   -0.517505    0.812269
     10          1           0       -3.233732    0.469989   -0.613970
     11          1           0       -0.572067   -0.482507    1.598622
     12          1           0        0.162397   -0.788798   -1.303112
     13          1           0       -0.129761   -2.220344   -0.245878
     14          1           0        1.706743    0.346479    1.339251
     15          1           0        2.351265    1.811641   -0.495681
     16          1           0        0.854763    1.358363   -1.373765
     17          1           0        0.768898    2.548035   -0.102115
 ---------------------------------------------------------------------

 SCF Done:  E(RHF) =  -346.356292792     A.U. after    2 cycles

 The electronic state is 1-A.
 Alpha  occ. eigenvalues --  -21.06813 -20.93560 -11.53330 -11.44773 -11.42735
 Alpha  occ. eigenvalues --  -11.41838 -11.40873  -1.78949  -1.60671  -1.23611
 Alpha  occ. eigenvalues --   -1.05835  -0.98088  -0.90166  -0.79649  -0.72084
 Alpha  occ. eigenvalues --   -0.64579  -0.63189  -0.61583  -0.58083  -0.57319
 Alpha  occ. eigenvalues --   -0.54599  -0.54338  -0.48840  -0.43539  -0.40486
 Alpha  occ. eigenvalues --   -0.34105  -0.23199  -0.19827
 Alpha virt. eigenvalues --    0.03486   0.04432   0.04850   0.05045   0.05519
 Alpha virt. eigenvalues --    0.05933   0.06294   0.07221   0.07828   0.08438
 Alpha virt. eigenvalues --    0.08620   0.11732   0.12881   0.13296   0.14122

 Mulliken charges:
               1
     1  C   -3.140012
     2  O   -3.575307
     3  C    0.599534
     4  C   -0.071899
     5  O   -2.533367
     6  C   -0.925569
     7  C   -3.866808
     8  H    1.444017
     9  H    1.320362
    10  H    1.278497
    11  H    1.691240
    12  H    1.364608
    13  H    1.224955
    14  H    1.272451
    15  H    1.320828
    16  H    1.347353
    17  H    1.249114
 Sum of Mulliken charges =  -0.00000

 Dipole moment (field-independent basis, Debye):
    X=             -1.3655    Y=              3.2116    Z=              0.6906  Tot=              3.5575

 Test job not archived.
 1\1\GINC-SE424\SP\RHF\Aug-CC-pVDZ\C5H10O2\OHZDE\09-Apr-2025\0\\#t hf a
 ug-cc-pvdz iop(5/13=1,5/36=2,99/5=2) pseudo=read geom=check guess=(rea
 d,tcheck) scf=(maxcycle=1)\\title\\0,1\C,0,2.12760665,0.92458458,-0.18
 250667\O,0,0.72776181,0.98944465,-0.35275904\C,0,0.15757519,-0.2250836
 ,-0.69462294\C,0,0.13473855,-1.37288749,0.67758048\O,0,-0.92959962,-2.
 11845039,0.58594104\C,0,-1.24448081,-0.29936707,-0.5994732\C,0,-2.0246
 7056,0.69161417,0.15215703\H,0,2.40460942,0.29242606,0.66606101\H,0,2.
 61389849,0.53976457,-1.08670451\H,0,2.47158944,1.94046089,0.00186481\H

 Normal termination of Gaussian 16 at Wed Apr  9 03:27:40 2025.
