 Gaussian 16, Revision C.01,

 ----------------------------------------------------------------------
 #t hf aug-cc-pvdz symm=none int=(grid=ultrafine) guess=(read,tcheck) s
 table=(opt,rrhf)
 ----------------------------------------------------------------------
 -----
 title
 -----
 Symbolic Z-matrix:
 Charge =  0 Multiplicity = 1

 SCF Done:  E(RHF) =  -305.462108009     A.U. after   14 cycles
 Normal termination of Gaussian 16 at Wed Apr  9 03:52:36 2025.
 Gaussian 16:  ES64L-G16RevC.01  3-Jul-2019

 ----------------------------------------------------------------------
 #t hf aug-cc-pvdz iop(5/13=1,5/36=2,99/5=2) pseudo=read geom=check gue
 ss=(read,tcheck) scf=(maxcycle=1)
 ----------------------------------------------------------------------
 -----
 title
 -----
 Structure from the checkpoint file:  "Grambow2020_wb97xd3_008341_forward_mol2.chk"
 Charge =  0 Multiplicity = 1

                         Standard orientation:
 ---------------------------------------------------------------------
 Center     Atomic      Atomic             Coordinates (Angstroms)
 Number     Number       Type             X           Y           Z
 ---------------------------------------------------------------------
      1          8           0       -0.405067   -1.464250   -0.939573
      2          6           0       -0.634107   -0.790112    0.273947
      3          6           0        0.683826   -0.485720    1.011374
      4          6           0        1.578733    0.343806    0.211204
      5          6           0        2.292971    1.007675   -0.483639
      6          6           0       -1.437101    0.428506    0.090806
      7          6           0       -2.078541    1.426973   -0.063075
      8          1           0        0.089372   -0.875166   -1.518583
      9          1           0       -1.205881   -1.487223    0.890558
     10          1           0        1.172391   -1.437284    1.231300
     11          1           0        0.465442    0.008519    1.960552
     12          1           0        2.935235    1.604942   -1.086817
     13          1           0       -2.650713    2.313440   -0.204131
 ---------------------------------------------------------------------

 SCF Done:  E(RHF) =  -306.875655651     A.U. after    2 cycles

 The electronic state is 1-A.
 Alpha  occ. eigenvalues --  -21.08019 -11.49829 -11.45860 -11.42459 -11.41074
 Alpha  occ. eigenvalues --  -11.40515 -11.40027  -1.73578  -1.23275  -1.11689
 Alpha  occ. eigenvalues --   -1.03881  -0.93486  -0.76442  -0.73298  -0.68141
 Alpha  occ. eigenvalues --   -0.64770  -0.60932  -0.57612  -0.54586  -0.44540
 Alpha  occ. eigenvalues --   -0.39378  -0.38432  -0.37121  -0.35896  -0.32846
 Alpha virt. eigenvalues --    0.03117   0.04339   0.05263   0.05949   0.06369
 Alpha virt. eigenvalues --    0.07801   0.09110   0.10150   0.10638   0.11266
 Alpha virt. eigenvalues --    0.12088   0.12884   0.12997   0.13254   0.14325

 Mulliken charges:
               1
     1  O   -3.120757
     2  C    1.018849
     3  C   -4.020683
     4  C    4.526743
     5  C   -4.269453
     6  C    4.221244
     7  C   -4.353931
     8  H    0.780148
     9  H    1.259484
    10  H    1.134462
    11  H    1.277754
    12  H    0.768682
    13  H    0.777458
 Sum of Mulliken charges =  -0.00000

 Dipole moment (field-independent basis, Debye):
    X=              0.1717    Y=              0.3116    Z=              0.2892  Tot=              0.4585

 Test job not archived.
 1\1\GINC-SE341\SP\RHF\Aug-CC-pVDZ\C6H6O1\OHZDE\09-Apr-2025\0\\#t hf au
 g-cc-pvdz iop(5/13=1,5/36=2,99/5=2) pseudo=read geom=check guess=(read
 ,tcheck) scf=(maxcycle=1)\\title\\0,1\O,0,-0.25699206,-0.57850714,1.78
 605546\C,0,0.34396174,-0.88792163,0.55209099\C,0,-0.67023896,-0.820557
 25,-0.6056053\C,0,-1.27028772,0.50371389,-0.73006154\C,0,-1.75482624,1
 .59717025,-0.78700109\C,0,1.52095448,-0.04879729,0.28019535\C,0,2.4697
 2704,0.64490653,0.05510305\H,0,-0.55461516,0.33633716,1.75107773\H,0,0
 .67620001,-1.92455345,0.64214988\H,0,-1.45335918,-1.55565778,-0.408408

 Normal termination of Gaussian 16 at Wed Apr  9 03:52:40 2025.
