 Gaussian 16, Revision C.01,

 ----------------------------------------------------------------------
 #t hf aug-cc-pvdz symm=none int=(grid=ultrafine) guess=(read,tcheck) s
 table=(opt,rrhf)
 ----------------------------------------------------------------------
 -----
 title
 -----
 Symbolic Z-matrix:
 Charge =  0 Multiplicity = 1

 SCF Done:  E(RHF) =  -353.382271930     A.U. after   18 cycles
 Normal termination of Gaussian 16 at Wed Apr  9 18:57:29 2025.
 Gaussian 16:  ES64L-G16RevC.01  3-Jul-2019

 ----------------------------------------------------------------------
 #t hf aug-cc-pvdz iop(5/13=1,5/36=2,99/5=2) pseudo=read geom=check gue
 ss=(read,tcheck) scf=(maxcycle=1)
 ----------------------------------------------------------------------
 -----
 title
 -----
 Structure from the checkpoint file:  "Grambow2020_wb97xd3_007950_forward_mol1.chk"
 Charge =  0 Multiplicity = 1

                         Standard orientation:
 ---------------------------------------------------------------------
 Center     Atomic      Atomic             Coordinates (Angstroms)
 Number     Number       Type             X           Y           Z
 ---------------------------------------------------------------------
      1          8           0       -2.368854   -0.052515   -0.001904
      2          6           0       -1.093444   -0.406918    0.000463
      3          6           0       -0.333043   -1.391671    0.003065
      4          7           0        1.703725   -1.033805   -0.001304
      5          7           0        2.100118    0.015811   -0.002087
      6          6           0        0.768713    1.515062    0.001737
      7          7           0       -0.366030    1.206629    0.000894
      8          1           0       -2.400066    0.914288   -0.004523
      9          1           0       -0.222937   -2.450826    0.003275
     10          1           0        1.455794    2.337372    0.002370
 ---------------------------------------------------------------------

 SCF Done:  E(RHF) =  -354.987175976     A.U. after    2 cycles

 The electronic state is 1-A.
 Alpha  occ. eigenvalues --  -21.11527 -15.85585 -15.83594 -15.79573 -11.48985
 Alpha  occ. eigenvalues --  -11.47955 -11.38032  -1.77476  -1.55140  -1.36548
 Alpha  occ. eigenvalues --   -1.08715  -0.89789  -0.83209  -0.72620  -0.71126
 Alpha  occ. eigenvalues --   -0.64053  -0.62744  -0.57122  -0.55745  -0.52847
 Alpha  occ. eigenvalues --   -0.46809  -0.46368  -0.42823  -0.29670  -0.28134
 Alpha virt. eigenvalues --    0.03246   0.05197   0.06223   0.08854   0.09305
 Alpha virt. eigenvalues --    0.10266   0.11329   0.12076   0.13204   0.13620
 Alpha virt. eigenvalues --    0.13654   0.14566   0.15423   0.15498   0.16661

 Mulliken charges:
               1
     1  O   -3.538955
     2  C    4.317996
     3  C   -2.357634
     4  N   -0.174804
     5  N   -0.024346
     6  C    0.421858
     7  N   -2.400902
     8  H    1.075792
     9  H    1.097109
    10  H    1.583886
 Sum of Mulliken charges =   0.00000

 Dipole moment (field-independent basis, Debye):
    X=              0.3205    Y=              2.0451    Z=             -0.0021  Tot=              2.0701

 Test job not archived.
 1\1\GINC-SE112\SP\RHF\Aug-CC-pVDZ\C3H3N3O1\OHZDE\09-Apr-2025\0\\#t hf
 aug-cc-pvdz iop(5/13=1,5/36=2,99/5=2) pseudo=read geom=check guess=(re
 ad,tcheck) scf=(maxcycle=1)\\title\\0,1\O,0,2.24906134,-0.50189362,0.1
 2196894\C,0,1.11493771,0.17431384,0.02823137\C,0,0.64467287,1.32142532
 ,-0.07636044\N,0,-1.41213964,1.51218058,-0.17458202\N,0,-2.07336879,0.
 60683666,-0.1304175\C,0,-1.19038516,-1.18465191,0.0465513\N,0,-0.01531
 185,-1.18629833,0.09097379\H,0,2.02179585,-1.44011099,0.18351547\H,0,0
 .8206336,2.36900774,-0.15079455\H,0,-2.07111792,-1.7948833,0.06077265\

 Normal termination of Gaussian 16 at Wed Apr  9 18:57:32 2025.
