 Gaussian 16, Revision C.01,

 ----------------------------------------------------------------------
 #t hf aug-cc-pvdz symm=none int=(grid=ultrafine) guess=(read,tcheck) s
 table=(opt,rrhf)
 ----------------------------------------------------------------------
 -----
 title
 -----
 Symbolic Z-matrix:
 Charge =  0 Multiplicity = 1

 SCF Done:  E(RHF) =  -322.538068659     A.U. after   16 cycles
 Normal termination of Gaussian 16 at Wed Apr  9 18:39:34 2025.
 Gaussian 16:  ES64L-G16RevC.01  3-Jul-2019

 ----------------------------------------------------------------------
 #t hf aug-cc-pvdz iop(5/13=1,5/36=2,99/5=2) pseudo=read geom=check gue
 ss=(read,tcheck) scf=(maxcycle=1)
 ----------------------------------------------------------------------
 -----
 title
 -----
 Structure from the checkpoint file:  "Grambow2020_wb97xd3_007386_reverse_mol1.chk"
 Charge =  0 Multiplicity = 1

                         Standard orientation:
 ---------------------------------------------------------------------
 Center     Atomic      Atomic             Coordinates (Angstroms)
 Number     Number       Type             X           Y           Z
 ---------------------------------------------------------------------
      1          6           0        1.740139   -0.343239    0.500056
      2          6           0        0.608643   -0.911580   -0.303293
      3          6           0       -0.793143   -0.952910    0.289095
      4          8           0       -1.756732   -0.459792   -0.456810
      5          6           0       -0.909831    0.998333    0.420965
      6          7           0        0.086758    1.467624   -0.122400
      7          6           0        1.058437    0.492465   -0.552144
      8          1           0        1.556497   -0.082591    1.537110
      9          1           0        2.743338   -0.692213    0.296708
     10          1           0        0.798325   -1.675220   -1.047906
     11          1           0       -0.646917   -0.102124    1.253816
     12          1           0       -1.009443   -1.846741    0.903587
     13          1           0       -1.817776    1.341404    0.887574
     14          1           0        1.597052    0.764035   -1.447682
 ---------------------------------------------------------------------

 SCF Done:  E(RHF) =  -324.061734322     A.U. after    2 cycles

 The electronic state is 1-A.
 Alpha  occ. eigenvalues --  -20.99647 -15.73937 -11.55163 -11.51164 -11.46056
 Alpha  occ. eigenvalues --  -11.42741 -11.38488  -1.70503  -1.45226  -1.25492
 Alpha  occ. eigenvalues --   -1.02917  -0.94033  -0.84369  -0.83242  -0.74927
 Alpha  occ. eigenvalues --   -0.65010  -0.63869  -0.57458  -0.54416  -0.53369
 Alpha  occ. eigenvalues --   -0.48906  -0.45928  -0.40976  -0.36828  -0.27785
 Alpha  occ. eigenvalues --   -0.24454
 Alpha virt. eigenvalues --    0.03765   0.04661   0.05074   0.05567   0.05876
 Alpha virt. eigenvalues --    0.06064   0.07461   0.09167   0.10627   0.11956
 Alpha virt. eigenvalues --    0.12802   0.12877   0.13612   0.14182   0.14322

 Mulliken charges:
               1
     1  C   -2.348115
     2  C   -0.528248
     3  C   -0.523370
     4  O   -2.701205
     5  C    0.483215
     6  N   -3.584179
     7  C    0.172495
     8  H    1.164751
     9  H    1.231334
    10  H    1.296074
    11  H    1.574321
    12  H    1.274973
    13  H    1.122032
    14  H    1.365923
 Sum of Mulliken charges =  -0.00000

 Dipole moment (field-independent basis, Debye):
    X=              0.6600    Y=             -0.9043    Z=              1.0295  Tot=              1.5209

 Test job not archived.
 1\1\GINC-SE112\SP\RHF\Aug-CC-pVDZ\C5H7N1O1\OHZDE\09-Apr-2025\0\\#t hf
 aug-cc-pvdz iop(5/13=1,5/36=2,99/5=2) pseudo=read geom=check guess=(re
 ad,tcheck) scf=(maxcycle=1)\\title\\0,1\C,0,-1.52015926,-0.277967,0.26
 424699\C,0,-0.56015489,0.37877704,-0.68219118\C,0,0.6495722,1.12416882
 ,-0.13576036\O,0,1.81357879,0.81191139,-0.66076124\C,0,1.41620755,-0.4
 9111871,0.66515908\N,0,0.72457356,-1.44372049,0.31464061\C,0,-0.459025
 84,-1.09155505,-0.43024054\H,0,-1.3959093,-0.1043397,1.32799389\H,0,-2
 .5460348,-0.41064915,-0.05121371\H,0,-0.90268826,0.73519997,-1.646145\

 Normal termination of Gaussian 16 at Wed Apr  9 18:39:38 2025.
