 Gaussian 16, Revision C.01,

 ----------------------------------------------------------------------
 #t hf aug-cc-pvdz symm=none int=(grid=ultrafine) guess=(read,tcheck) s
 table=(opt,rrhf)
 ----------------------------------------------------------------------
 -----
 title
 -----
 Symbolic Z-matrix:
 Charge =  0 Multiplicity = 1

 SCF Done:  E(RHF) =  -284.637267582     A.U. after   14 cycles
 Normal termination of Gaussian 16 at Wed Apr  9 03:06:50 2025.
 Gaussian 16:  ES64L-G16RevC.01  3-Jul-2019

 ----------------------------------------------------------------------
 #t hf aug-cc-pvdz iop(5/13=1,5/36=2,99/5=2) pseudo=read geom=check gue
 ss=(read,tcheck) scf=(maxcycle=1)
 ----------------------------------------------------------------------
 -----
 title
 -----
 Structure from the checkpoint file:  "Grambow2020_b97d3_006555_forward_mol1.chk"
 Charge =  0 Multiplicity = 1

                         Standard orientation:
 ---------------------------------------------------------------------
 Center     Atomic      Atomic             Coordinates (Angstroms)
 Number     Number       Type             X           Y           Z
 ---------------------------------------------------------------------
      1          8           0        1.918149   -0.491980   -0.416282
      2          6           0        0.849644    0.006598    0.175409
      3          6           0       -0.029694    1.235505   -0.210305
      4          7           0       -1.276255    0.541629    0.290010
      5          6           0       -1.372792   -0.678985   -0.532851
      6          6           0       -0.436120   -0.687910    0.619361
      7          1           0        1.960310    0.016052    0.855299
      8          1           0        1.295408    0.458121    1.486846
      9          1           0       -0.034691    1.469226   -1.283236
     10          1           0        0.175619    2.136711    0.376803
     11          1           0       -0.975009   -0.675440   -1.551235
     12          1           0       -2.312376   -1.217270   -0.406911
     13          1           0       -0.586900   -1.294204    1.512930
 ---------------------------------------------------------------------

 SCF Done:  E(RHF) =  -285.985115372     A.U. after    2 cycles

 The electronic state is 1-A.
 Alpha  occ. eigenvalues --  -21.01577 -15.74379 -11.57212 -11.48208 -11.43894
 Alpha  occ. eigenvalues --  -11.41362  -1.70394  -1.52147  -1.09354  -0.99977
 Alpha  occ. eigenvalues --   -0.89173  -0.81838  -0.76678  -0.64530  -0.62794
 Alpha  occ. eigenvalues --   -0.59599  -0.54823  -0.50986  -0.45687  -0.41814
 Alpha  occ. eigenvalues --   -0.35858  -0.29947  -0.27903
 Alpha virt. eigenvalues --    0.03691   0.04995   0.05271   0.05579   0.06181
 Alpha virt. eigenvalues --    0.06597   0.08010   0.10202   0.10719   0.12209
 Alpha virt. eigenvalues --    0.12568   0.13226   0.13692   0.14295   0.15082

 Mulliken charges:
               1
     1  O   -3.046459
     2  C    1.591499
     3  C   -2.113011
     4  N   -1.621304
     5  C   -1.903859
     6  C   -0.496428
     7  H    1.084372
     8  H   -0.106698
     9  H    1.281171
    10  H    1.376871
    11  H    1.334900
    12  H    1.368889
    13  H    1.250058
 Sum of Mulliken charges =   0.00000

 Dipole moment (field-independent basis, Debye):
    X=             -0.6330    Y=             -0.1359    Z=             -0.2011  Tot=              0.6780

 Test job not archived.
 1\1\GINC-SE423\SP\RHF\Aug-CC-pVDZ\C4H7N1O1\OHZDE\09-Apr-2025\0\\#t hf
 aug-cc-pvdz iop(5/13=1,5/36=2,99/5=2) pseudo=read geom=check guess=(re
 ad,tcheck) scf=(maxcycle=1)\\title\\0,1\O,0,-1.37017521,-1.03136605,1.
 24505187\C,0,-0.83786008,-0.28886355,0.29336229\C,0,-0.2009893,1.13279
 889,0.36748866\N,0,0.81025477,0.77075556,-0.69646828\C,0,1.55622253,-0
 .36547442,-0.12302764\C,0,0.2326944,-0.64019797,-0.73770519\H,0,-2.102
 01233,-0.57983788,0.17859504\H,0,-1.92117709,0.00365969,-0.63577677\H,
 0,0.23214837,1.38402942,1.34478365\H,0,-0.85775435,1.93778705,0.021544

 Normal termination of Gaussian 16 at Wed Apr  9 03:06:54 2025.
