 Gaussian 16, Revision C.01,

 ----------------------------------------------------------------------
 #t hf aug-cc-pvdz symm=none int=(grid=ultrafine) guess=(read,tcheck) s
 table=(opt,rrhf)
 ----------------------------------------------------------------------
 -----
 title
 -----
 Symbolic Z-matrix:
 Charge =  0 Multiplicity = 1

 SCF Done:  E(RHF) =  -306.651860818     A.U. after   13 cycles
 Normal termination of Gaussian 16 at Wed Apr  9 19:08:57 2025.
 Gaussian 16:  ES64L-G16RevC.01  3-Jul-2019

 ----------------------------------------------------------------------
 #t hf aug-cc-pvdz iop(5/13=1,5/36=2,99/5=2) pseudo=read geom=check gue
 ss=(read,tcheck) scf=(maxcycle=1)
 ----------------------------------------------------------------------
 -----
 title
 -----
 Structure from the checkpoint file:  "Grambow2020_wb97xd3_008155_forward_mol2.chk"
 Charge =  0 Multiplicity = 1

                         Standard orientation:
 ---------------------------------------------------------------------
 Center     Atomic      Atomic             Coordinates (Angstroms)
 Number     Number       Type             X           Y           Z
 ---------------------------------------------------------------------
      1          8           0        2.129689   -0.141501   -0.077477
      2          6           0        0.766182    0.053790   -0.045821
      3          6           0        0.014239    1.340399   -0.319328
      4          6           0       -1.169409    0.639968    0.388779
      5          6           0       -1.563893   -0.506126   -0.569316
      6          6           0       -0.215204   -1.106698   -0.220431
      7          6           0       -0.138726   -0.329266    1.073335
      8          1           0        2.385454   -0.386322   -0.969245
      9          1           0       -0.134660    1.667272   -1.353059
     10          1           0        0.420010    2.154094    0.282945
     11          1           0       -1.923805    1.227000    0.903670
     12          1           0       -2.382979   -1.104740   -0.168119
     13          1           0       -1.773199   -0.240078   -1.609736
     14          1           0        0.159493   -2.105358   -0.400415
     15          1           0        0.053032   -0.632258    2.090471
 ---------------------------------------------------------------------

 SCF Done:  E(RHF) =  -308.102374143     A.U. after    2 cycles

 The electronic state is 1-A.
 Alpha  occ. eigenvalues --  -21.08050 -11.49425 -11.47258 -11.42066 -11.41231
 Alpha  occ. eigenvalues --  -11.39840 -11.34506  -1.73405  -1.45708  -1.05163
 Alpha  occ. eigenvalues --   -1.02689  -0.89589  -0.77772  -0.76350  -0.70947
 Alpha  occ. eigenvalues --   -0.62965  -0.59997  -0.56853  -0.55886  -0.50078
 Alpha  occ. eigenvalues --   -0.44950  -0.42642  -0.41077  -0.36863  -0.32902
 Alpha  occ. eigenvalues --   -0.29660
 Alpha virt. eigenvalues --    0.03940   0.04747   0.05249   0.05782   0.05960
 Alpha virt. eigenvalues --    0.06301   0.06698   0.07003   0.10748   0.11716
 Alpha virt. eigenvalues --    0.12457   0.13008   0.13729   0.14371   0.14672

 Mulliken charges:
               1
     1  O   -3.704322
     2  C    4.810693
     3  C   -3.285808
     4  C   -1.709260
     5  C   -2.978593
     6  C   -1.638568
     7  C   -0.984359
     8  H    0.488741
     9  H    1.375129
    10  H    1.258140
    11  H    1.446147
    12  H    1.239575
    13  H    1.256637
    14  H    1.350975
    15  H    1.074874
 Sum of Mulliken charges =   0.00000

 Dipole moment (field-independent basis, Debye):
    X=             -0.4180    Y=             -0.2004    Z=             -0.3120  Tot=              0.5588

 Test job not archived.
 1\1\GINC-SE131\SP\RHF\Aug-CC-pVDZ\C6H8O1\OHZDE\09-Apr-2025\0\\#t hf au
 g-cc-pvdz iop(5/13=1,5/36=2,99/5=2) pseudo=read geom=check guess=(read
 ,tcheck) scf=(maxcycle=1)\\title\\0,1\O,0,2.1528621,0.8754598,-0.41753
 088\C,0,0.93166244,0.27767679,-0.19477896\C,0,0.67296142,-1.13569249,0
 .28589593\C,0,-0.76297072,-0.90762725,-0.2424293\C,0,-1.35014023,0.167
 91137,0.69860381\C,0,-0.32740829,1.10206271,0.07993508\C,0,-0.20462406
 ,0.2422897,-1.15691378\H,0,2.44899534,1.28499788,0.39805833\H,0,0.7910
 8387,-1.3730334,1.34765527\H,0,1.21931602,-1.85275018,-0.3279488\H,0,-

 Normal termination of Gaussian 16 at Wed Apr  9 19:09:01 2025.
