 Gaussian 16, Revision C.01,

 ----------------------------------------------------------------------
 #t hf aug-cc-pvdz symm=none int=(grid=ultrafine) guess=(read,tcheck) s
 table=(opt,rrhf)
 ----------------------------------------------------------------------
 -----
 title
 -----
 Symbolic Z-matrix:
 Charge =  0 Multiplicity = 1

 SCF Done:  E(RHF) =  -306.680414575     A.U. after   15 cycles
 Normal termination of Gaussian 16 at Wed Apr  9 03:59:45 2025.
 Gaussian 16:  ES64L-G16RevC.01  3-Jul-2019

 ----------------------------------------------------------------------
 #t hf aug-cc-pvdz iop(5/13=1,5/36=2,99/5=2) pseudo=read geom=check gue
 ss=(read,tcheck) scf=(maxcycle=1)
 ----------------------------------------------------------------------
 -----
 title
 -----
 Structure from the checkpoint file:  "Grambow2020_wb97xd3_008775_reverse_mol2.chk"
 Charge =  0 Multiplicity = 1

                         Standard orientation:
 ---------------------------------------------------------------------
 Center     Atomic      Atomic             Coordinates (Angstroms)
 Number     Number       Type             X           Y           Z
 ---------------------------------------------------------------------
      1          8           0       -0.688228    1.936743   -0.427720
      2          6           0       -0.605023    0.907559    0.169203
      3          6           0       -1.184989   -0.409137    0.434302
      4          6           0       -1.355139   -1.415799   -0.675204
      5          6           0        2.179077   -0.043373   -0.597010
      6          6           0        1.487639   -0.568211    0.403878
      7          6           0        0.246441    0.017945    0.967457
      8          1           0       -1.925035   -0.453449    1.228076
      9          1           0       -1.337480   -2.434774   -0.284294
     10          1           0       -0.559851   -1.323032   -1.415780
     11          1           0       -2.307168   -1.260745   -1.184619
     12          1           0        3.070155   -0.528816   -0.975777
     13          1           0        1.882814    0.890354   -1.062269
     14          1           0        1.821326   -1.497583    0.859074
     15          1           0        0.253028    0.180198    2.041591
 ---------------------------------------------------------------------

 SCF Done:  E(RHF) =  -308.109951165     A.U. after    2 cycles

 The electronic state is 1-A.
 Alpha  occ. eigenvalues --  -21.07165 -11.49987 -11.47578 -11.42666 -11.40729
 Alpha  occ. eigenvalues --  -11.39236 -11.38089  -1.71461  -1.33145  -1.14855
 Alpha  occ. eigenvalues --   -1.05164  -0.89680  -0.79293  -0.74295  -0.66415
 Alpha  occ. eigenvalues --   -0.63195  -0.59374  -0.56497  -0.55045  -0.52880
 Alpha  occ. eigenvalues --   -0.51399  -0.48194  -0.43012  -0.42240  -0.34494
 Alpha  occ. eigenvalues --   -0.26101
 Alpha virt. eigenvalues --    0.03256   0.04825   0.05108   0.05252   0.05708
 Alpha virt. eigenvalues --    0.06255   0.07310   0.07957   0.09242   0.11323
 Alpha virt. eigenvalues --    0.11501   0.11949   0.13157   0.14134   0.14325

 Mulliken charges:
               1
     1  O   -3.164951
     2  C    4.291400
     3  C   -1.180537
     4  C   -4.611216
     5  C   -2.931168
     6  C   -1.378232
     7  C   -1.598818
     8  H    1.360946
     9  H    1.261947
    10  H    1.410183
    11  H    1.164694
    12  H    1.361547
    13  H    1.417001
    14  H    1.348590
    15  H    1.248615
 Sum of Mulliken charges =   0.00000

 Dipole moment (field-independent basis, Debye):
    X=              0.1079    Y=             -1.5873    Z=              0.5870  Tot=              1.6958

 Test job not archived.
 1\1\GINC-SE292\SP\RHF\Aug-CC-pVDZ\C6H8O1\OHZDE\09-Apr-2025\0\\#t hf au
 g-cc-pvdz iop(5/13=1,5/36=2,99/5=2) pseudo=read geom=check guess=(read
 ,tcheck) scf=(maxcycle=1)\\title\\0,1\O,0,0.70507449,-0.86143891,2.226
 71874\C,0,0.48182749,-0.92131652,1.05666088\C,0,-0.48428634,-1.2394015
 8,0.00510393\C,0,-1.79406373,-0.49864874,-0.09022846\C,0,1.12885679,1.
 90583761,0.14500223\C,0,0.97281074,0.89453786,-0.69656796\C,0,0.903413
 35,-0.53195939,-0.29399833\H,0,-0.50191812,-2.27241625,-0.32997462\H,0
 ,-2.1645877,-0.49073524,-1.11691414\H,0,-1.68590547,0.53547183,0.23907

 Normal termination of Gaussian 16 at Wed Apr  9 03:59:50 2025.
