 Gaussian 16, Revision C.01,

 ----------------------------------------------------------------------
 #t hf aug-cc-pvdz symm=none int=(grid=ultrafine) guess=(read,tcheck) s
 table=(opt,rrhf)
 ----------------------------------------------------------------------
 -----
 title
 -----
 Symbolic Z-matrix:
 Charge =  0 Multiplicity = 1

 SCF Done:  E(RHF) =  -283.596058740     A.U. after   15 cycles
 Normal termination of Gaussian 16 at Wed Apr  9 17:31:11 2025.
 Gaussian 16:  ES64L-G16RevC.01  3-Jul-2019

 ----------------------------------------------------------------------
 #t hf aug-cc-pvdz iop(5/13=1,5/36=2,99/5=2) pseudo=read geom=check gue
 ss=(read,tcheck) scf=(maxcycle=1)
 ----------------------------------------------------------------------
 -----
 title
 -----
 Structure from the checkpoint file:  "Grambow2020_b97d3_007166_forward_mol1.chk"
 Charge =  0 Multiplicity = 1

                         Standard orientation:
 ---------------------------------------------------------------------
 Center     Atomic      Atomic             Coordinates (Angstroms)
 Number     Number       Type             X           Y           Z
 ---------------------------------------------------------------------
      1          6           0        2.259811   -0.342412    0.009188
      2          7           0        0.839300   -0.663731   -0.021769
      3          6           0       -0.123739    0.305836   -0.002076
      4          8           0        0.080517    1.517529   -0.002489
      5          6           0       -1.515569   -0.186650    0.003204
      6          6           0       -2.778293   -0.395529    0.013021
      7          1           0        2.804262   -0.993367   -0.686433
      8          1           0        2.678585   -0.459937    1.019834
      9          1           0        2.374210    0.700209   -0.301412
     10          1           0        0.559291   -1.635279    0.062400
     11          1           0       -1.988847   -1.393219   -0.062107
 ---------------------------------------------------------------------

 SCF Done:  E(RHF) =  -284.862549723     A.U. after    2 cycles

 The electronic state is 1-A.
 Alpha  occ. eigenvalues --  -21.05521 -15.79697 -11.56383 -11.46002 -11.44248
 Alpha  occ. eigenvalues --  -11.42139  -1.72862  -1.42050  -1.20746  -1.05106
 Alpha  occ. eigenvalues --   -0.88565  -0.78089  -0.64397  -0.63240  -0.57804
 Alpha  occ. eigenvalues --   -0.55893  -0.54609  -0.51584  -0.45686  -0.40136
 Alpha  occ. eigenvalues --   -0.33449  -0.32111
 Alpha virt. eigenvalues --    0.02365   0.04122   0.05206   0.05876   0.07463
 Alpha virt. eigenvalues --    0.08898   0.09599   0.10461   0.10817   0.12374
 Alpha virt. eigenvalues --    0.12969   0.13270   0.14605   0.15443   0.15548

 Mulliken charges:
               1
     1  C   -3.424759
     2  N   -2.892053
     3  C    5.054208
     4  O   -3.065066
     5  C    0.428442
     6  C   -2.202168
     7  H    1.319387
     8  H    1.318149
     9  H    1.410233
    10  H    0.777633
    11  H    1.275996
 Sum of Mulliken charges =  -0.00000

 Dipole moment (field-independent basis, Debye):
    X=              4.0779    Y=             -2.2597    Z=              0.0204  Tot=              4.6622

 Test job not archived.
 1\1\GINC-SE041\SP\RHF\Aug-CC-pVDZ\C4H5N1O1\OHZDE\09-Apr-2025\0\\#t hf
 aug-cc-pvdz iop(5/13=1,5/36=2,99/5=2) pseudo=read geom=check guess=(re
 ad,tcheck) scf=(maxcycle=1)\\title\\0,1\C,0,-1.76271976,0.13386509,-0.
 37901329\N,0,-0.30687102,0.12052645,-0.42780889\C,0,0.4513529,-0.23359
 612,0.65273946\O,0,0.01753705,-0.61269074,1.73810209\C,0,1.9119695,-0.
 15565697,0.45202481\C,0,3.19126492,-0.15704256,0.4920414\H,0,-2.170489
 29,-0.27914642,-1.3102506\H,0,-2.15262157,1.15216915,-0.23196298\H,0,-
 2.0753037,-0.48911868,0.46407591\H,0,0.1548916,0.4964723,-1.24929217\H

 Normal termination of Gaussian 16 at Wed Apr  9 17:31:15 2025.
