 Gaussian 16, Revision C.01,

 ----------------------------------------------------------------------
 #t hf aug-cc-pvdz symm=none int=(grid=ultrafine) guess=(read,tcheck) s
 table=(opt,rrhf)
 ----------------------------------------------------------------------
 -----
 title
 -----
 Symbolic Z-matrix:
 Charge =  0 Multiplicity = 1

 SCF Done:  E(RHF) =  -359.764127032     A.U. after   13 cycles
 Normal termination of Gaussian 16 at Wed Apr  9 19:11:55 2025.
 Gaussian 16:  ES64L-G16RevC.01  3-Jul-2019

 ----------------------------------------------------------------------
 #t hf aug-cc-pvdz iop(5/13=1,5/36=2,99/5=2) pseudo=read geom=check gue
 ss=(read,tcheck) scf=(maxcycle=1)
 ----------------------------------------------------------------------
 -----
 title
 -----
 Structure from the checkpoint file:  "Grambow2020_wb97xd3_008282_reverse_mol2.chk"
 Charge =  0 Multiplicity = 1

                         Standard orientation:
 ---------------------------------------------------------------------
 Center     Atomic      Atomic             Coordinates (Angstroms)
 Number     Number       Type             X           Y           Z
 ---------------------------------------------------------------------
      1          6           0        2.614453   -0.059257   -0.003167
      2          6           0        1.607276   -0.914490    0.000858
      3          6           0       -2.406505   -0.771137    0.001027
      4          7           0       -1.645627    0.458421   -0.007172
      5          6           0       -0.296222    0.558283    0.000670
      6          8           0        0.313406    1.596517    0.004265
      7          8           0        0.251242   -0.685616    0.002710
      8          1           0        3.611217   -0.479647   -0.005866
      9          1           0       -2.220436   -1.353703    0.905028
     10          1           0        2.491399    1.010491   -0.005231
     11          1           0        1.762312   -1.986005    0.003008
     12          1           0       -3.464564   -0.517648   -0.034949
     13          1           0       -2.171546   -1.391734   -0.864881
     14          1           0       -2.120184    1.341694    0.000974
 ---------------------------------------------------------------------

 SCF Done:  E(RHF) =  -361.361197232     A.U. after    2 cycles

 The electronic state is 1-A.
 Alpha  occ. eigenvalues --  -21.10611 -21.02933 -15.76617 -11.52341 -11.45408
 Alpha  occ. eigenvalues --  -11.40981 -11.37407  -1.86519  -1.67609  -1.39792
 Alpha  occ. eigenvalues --   -1.12016  -1.02263  -0.89066  -0.76857  -0.67025
 Alpha  occ. eigenvalues --   -0.64662  -0.64574  -0.63339  -0.56514  -0.55949
 Alpha  occ. eigenvalues --   -0.53494  -0.52388  -0.45555  -0.43160  -0.32020
 Alpha  occ. eigenvalues --   -0.29891  -0.29227
 Alpha virt. eigenvalues --    0.03155   0.04822   0.05138   0.05731   0.06058
 Alpha virt. eigenvalues --    0.06879   0.08178   0.10304   0.11689   0.12584
 Alpha virt. eigenvalues --    0.12702   0.13387   0.13567   0.14382   0.14852

 Mulliken charges:
               1
     1  C   -2.916255
     2  C    0.302914
     3  C   -3.325995
     4  N   -2.594139
     5  C    5.645262
     6  O   -2.910542
     7  O   -3.368898
     8  H    1.335578
     9  H    1.378572
    10  H    1.501699
    11  H    1.749277
    12  H    1.320802
    13  H    1.385406
    14  H    0.496318
 Sum of Mulliken charges =   0.00000

 Dipole moment (field-independent basis, Debye):
    X=             -1.9464    Y=             -1.6002    Z=              0.0047  Tot=              2.5198

 Test job not archived.
 1\1\GINC-SE162\SP\RHF\Aug-CC-pVDZ\C4H7N1O2\OHZDE\09-Apr-2025\0\\#t hf
 aug-cc-pvdz iop(5/13=1,5/36=2,99/5=2) pseudo=read geom=check guess=(re
 ad,tcheck) scf=(maxcycle=1)\\title\\0,1\C,0,-1.24914204,-2.28750927,-0
 .66889633\C,0,-1.21700419,-0.98765468,-0.90381986\C,0,0.86543873,2.205
 18997,0.36115502\N,0,1.16394164,0.8963415,0.89839621\C,0,0.53956041,-0
 .25862428,0.57109035\O,0,0.80095508,-1.33543431,1.04198553\O,0,-0.4159
 1588,-0.00954386,-0.36273456\H,0,-1.97508797,-2.86575597,-1.22469081\H
 ,0,-0.15351006,2.51536314,0.599397\H,0,-0.60086853,-2.78533801,0.03211

 Normal termination of Gaussian 16 at Wed Apr  9 19:11:59 2025.
