 Gaussian 16, Revision C.01,

 ----------------------------------------------------------------------
 #t hf aug-cc-pvdz symm=none int=(grid=ultrafine) guess=(read,tcheck) s
 table=(opt,rrhf)
 ----------------------------------------------------------------------
 -----
 title
 -----
 Symbolic Z-matrix:
 Charge =  0 Multiplicity = 1

 SCF Done:  E(RHF) =  -231.834555504     A.U. after   14 cycles
 Normal termination of Gaussian 16 at Wed Apr  9 16:56:09 2025.
 Gaussian 16:  ES64L-G16RevC.01  3-Jul-2019

 ----------------------------------------------------------------------
 #t hf aug-cc-pvdz iop(5/13=1,5/36=2,99/5=2) pseudo=read geom=check gue
 ss=(read,tcheck) scf=(maxcycle=1)
 ----------------------------------------------------------------------
 -----
 title
 -----
 Structure from the checkpoint file:  "Grambow2020_b97d3_006876_reverse_mol2.chk"
 Charge =  0 Multiplicity = 1

                         Standard orientation:
 ---------------------------------------------------------------------
 Center     Atomic      Atomic             Coordinates (Angstroms)
 Number     Number       Type             X           Y           Z
 ---------------------------------------------------------------------
      1          6           0       -0.792882   -1.158299   -0.037301
      2          6           0       -1.472317    0.178981    0.205893
      3          6           0       -0.652025    1.214996   -0.056541
      4          6           0        1.457742   -0.025276    0.637656
      5          6           0        0.648480   -0.772935   -0.390337
      6          6           0        0.716227    0.750698   -0.438881
      7          1           0       -1.275292   -1.705398   -0.864890
      8          1           0       -0.842166   -1.816273    0.845716
      9          1           0       -2.495963    0.259829    0.570324
     10          1           0       -0.916028    2.268112    0.035732
     11          1           0        2.543332   -0.090360    0.554780
     12          1           0        1.076165    0.042027    1.657376
     13          1           0        1.186351   -1.369511   -1.125740
     14          1           0        1.292250    1.282586   -1.196240
 ---------------------------------------------------------------------

 SCF Done:  E(RHF) =  -232.986039983     A.U. after    2 cycles

 The electronic state is 1-A.
 Alpha  occ. eigenvalues --  -11.44901 -11.44137 -11.41549 -11.38459 -11.36910
 Alpha  occ. eigenvalues --  -11.34799  -1.38152  -1.11369  -1.01804  -0.86420
 Alpha  occ. eigenvalues --   -0.79399  -0.75407  -0.71037  -0.61523  -0.55943
 Alpha  occ. eigenvalues --   -0.55825  -0.49408  -0.47155  -0.44201  -0.42371
 Alpha  occ. eigenvalues --   -0.36905  -0.30283
 Alpha virt. eigenvalues --    0.03980   0.05251   0.05348   0.05858   0.06109
 Alpha virt. eigenvalues --    0.06221   0.06788   0.06966   0.10544   0.11863
 Alpha virt. eigenvalues --    0.12632   0.14252   0.14560   0.14814   0.15157

 Mulliken charges:
               1
     1  C   -4.587337
     2  C   -0.188035
     3  C   -0.844408
     4  C   -2.390441
     5  C   -0.645916
     6  C   -1.682799
     7  H    1.297404
     8  H    1.206221
     9  H    1.383428
    10  H    1.416080
    11  H    1.214004
    12  H    1.386280
    13  H    1.235699
    14  H    1.199819
 Sum of Mulliken charges =  -0.00000

 Dipole moment (field-independent basis, Debye):
    X=              0.2055    Y=             -0.1030    Z=             -0.1673  Tot=              0.2843

 Test job not archived.
 1\1\GINC-SE114\SP\RHF\Aug-CC-pVDZ\C6H8\OHZDE\09-Apr-2025\0\\#t hf aug-
 cc-pvdz iop(5/13=1,5/36=2,99/5=2) pseudo=read geom=check guess=(read,t
 check) scf=(maxcycle=1)\\title\\0,1\C,0,-1.20243733,-0.14222684,0.6355
 2682\C,0,-0.51014491,1.19979521,0.80523397\C,0,0.47550484,1.37485905,-
 0.09638961\C,0,1.07113906,-1.09535127,-0.2171285\C,0,-0.39098806,-0.83
 096705,-0.46803634\C,0,0.6556457,0.1660765,-0.95677456\H,0,-2.25602232
 ,-0.01172121,0.33574821\H,0,-1.21138207,-0.72649118,1.57020965\H,0,-0.
 78520316,1.90774336,1.58648361\H,0,1.10665904,2.2593331,-0.17772281\H,

 Normal termination of Gaussian 16 at Wed Apr  9 16:56:13 2025.
