 Gaussian 16, Revision C.01,

 ----------------------------------------------------------------------
 #t hf aug-cc-pvdz symm=none int=(grid=ultrafine) guess=(read,tcheck) s
 table=(opt,rrhf)
 ----------------------------------------------------------------------
 -----
 title
 -----
 Symbolic Z-matrix:
 Charge =  0 Multiplicity = 1

 SCF Done:  E(RHF) =  -302.874231788     A.U. after   15 cycles
 Normal termination of Gaussian 16 at Wed Apr  9 04:05:50 2025.
 Gaussian 16:  ES64L-G16RevC.01  3-Jul-2019

 ----------------------------------------------------------------------
 #t hf aug-cc-pvdz iop(5/13=1,5/36=2,99/5=2) pseudo=read geom=check gue
 ss=(read,tcheck) scf=(maxcycle=1)
 ----------------------------------------------------------------------
 -----
 title
 -----
 Structure from the checkpoint file:  "Grambow2020_wb97xd3_009341_reverse_mol2.chk"
 Charge =  0 Multiplicity = 1

                         Standard orientation:
 ---------------------------------------------------------------------
 Center     Atomic      Atomic             Coordinates (Angstroms)
 Number     Number       Type             X           Y           Z
 ---------------------------------------------------------------------
      1          6           0        0.255375    1.954821   -0.366444
      2          7           0        1.589158   -0.019001    0.249927
      3          6           0        0.300379    0.657647    0.431530
      4          6           0       -0.706904   -0.380798    0.064110
      5          6           0       -2.179958   -0.182704    0.073477
      6          6           0        0.010834   -1.457430   -0.255749
      7          7           0        1.404626   -1.191190   -0.127590
      8          1           0        0.344013    1.749274   -1.434108
      9          1           0        1.079893    2.602636   -0.071256
     10          1           0       -0.682114    2.483782   -0.189220
     11          1           0        0.235277    0.887841    1.503252
     12          1           0       -2.707381   -1.096586   -0.197242
     13          1           0       -2.469345    0.600186   -0.632606
     14          1           0       -2.526001    0.132412    1.060757
     15          1           0       -0.309191   -2.437420   -0.577480
 ---------------------------------------------------------------------

 SCF Done:  E(RHF) =  -304.325634588     A.U. after    2 cycles

 The electronic state is 1-A.
 Alpha  occ. eigenvalues --  -15.77825 -15.76566 -11.46250 -11.43700 -11.41902
 Alpha  occ. eigenvalues --  -11.40492 -11.37619  -1.59279  -1.23031  -1.16224
 Alpha  occ. eigenvalues --   -1.04399  -0.98239  -0.79377  -0.78362  -0.68624
 Alpha  occ. eigenvalues --   -0.63939  -0.59081  -0.58461  -0.56910  -0.54826
 Alpha  occ. eigenvalues --   -0.51030  -0.47678  -0.46295  -0.44038  -0.33816
 Alpha  occ. eigenvalues --   -0.33619
 Alpha virt. eigenvalues --    0.02927   0.04955   0.05367   0.05594   0.05951
 Alpha virt. eigenvalues --    0.06076   0.06699   0.08229   0.10040   0.11036
 Alpha virt. eigenvalues --    0.11427   0.11865   0.12925   0.13211   0.14521

 Mulliken charges:
               1
     1  C   -3.579722
     2  N   -1.309431
     3  C   -1.791382
     4  C    4.877408
     5  C   -4.674805
     6  C   -2.035379
     7  N   -1.555415
     8  H    1.219286
     9  H    1.173053
    10  H    1.260732
    11  H    1.351500
    12  H    1.250013
    13  H    1.246418
    14  H    1.249126
    15  H    1.318597
 Sum of Mulliken charges =   0.00000

 Dipole moment (field-independent basis, Debye):
    X=             -3.2964    Y=              1.1056    Z=              0.1632  Tot=              3.4807

 Test job not archived.
 1\1\GINC-SE069\SP\RHF\Aug-CC-pVDZ\C5H8N2\OHZDE\09-Apr-2025\0\\#t hf au
 g-cc-pvdz iop(5/13=1,5/36=2,99/5=2) pseudo=read geom=check guess=(read
 ,tcheck) scf=(maxcycle=1)\\title\\0,1\C,0,-1.46579284,-0.80546148,-0.7
 5158529\N,0,-1.51300204,0.76441017,1.14265326\C,0,-0.7360213,-0.290395
 61,0.48275176\C,0,0.59804608,0.33707614,0.24923911\C,0,1.7513712,-0.32
 913965,-0.41046724\C,0,0.49103652,1.56776452,0.74978931\N,0,-0.8120331
 3,1.78386576,1.28389982\H,0,-1.5825092,-0.00772827,-1.48643924\H,0,-2.
 45581904,-1.16640173,-0.47554054\H,0,-0.91311035,-1.62590389,-1.211488

 Normal termination of Gaussian 16 at Wed Apr  9 04:05:54 2025.
