 Gaussian 16, Revision C.01,

 ----------------------------------------------------------------------
 #t hf aug-cc-pvdz symm=none int=(grid=ultrafine) guess=(read,tcheck) s
 table=(opt,rrhf)
 ----------------------------------------------------------------------
 -----
 title
 -----
 Symbolic Z-matrix:
 Charge =  0 Multiplicity = 1

 SCF Done:  E(RHF) =  -343.601545603     A.U. after   15 cycles
 Normal termination of Gaussian 16 at Wed Apr  9 18:27:27 2025.
 Gaussian 16:  ES64L-G16RevC.01  3-Jul-2019

 ----------------------------------------------------------------------
 #t hf aug-cc-pvdz iop(5/13=1,5/36=2,99/5=2) pseudo=read geom=check gue
 ss=(read,tcheck) scf=(maxcycle=1)
 ----------------------------------------------------------------------
 -----
 title
 -----
 Structure from the checkpoint file:  "Grambow2020_wb97xd3_007148_forward_mol1.chk"
 Charge =  0 Multiplicity = 1

                         Standard orientation:
 ---------------------------------------------------------------------
 Center     Atomic      Atomic             Coordinates (Angstroms)
 Number     Number       Type             X           Y           Z
 ---------------------------------------------------------------------
      1          8           0        0.097271   -1.124290   -0.838648
      2          6           0        0.611827    0.085038   -0.148078
      3          6           0       -0.514376    1.001383   -0.459134
      4          6           0       -1.749263    0.586678    0.102597
      5          8           0       -1.943972   -0.557200    0.558327
      6          6           0        2.066079    0.328973   -0.205608
      7          6           0        1.411045   -0.120343    1.084081
      8          1           0       -0.671200   -1.342266   -0.213868
      9          1           0       -0.352166    2.033393   -0.737711
     10          1           0       -0.498675   -0.240366   -1.368743
     11          1           0       -2.596238    1.289987    0.061223
     12          1           0        2.392423    1.356608   -0.297920
     13          1           0        2.672564   -0.396739   -0.730757
     14          1           0        1.599020   -1.135950    1.405475
     15          1           0        1.276009    0.596873    1.881717
 ---------------------------------------------------------------------

 SCF Done:  E(RHF) =  -345.193837122     A.U. after    2 cycles

 The electronic state is 1-A.
 Alpha  occ. eigenvalues --  -21.12607 -21.02017 -11.49535 -11.47222 -11.45922
 Alpha  occ. eigenvalues --  -11.40167 -11.37524  -1.81952  -1.67552  -1.30399
 Alpha  occ. eigenvalues --   -1.11005  -0.89534  -0.86817  -0.78064  -0.70280
 Alpha  occ. eigenvalues --   -0.67813  -0.67300  -0.59551  -0.57050  -0.52906
 Alpha  occ. eigenvalues --   -0.48921  -0.46643  -0.43750  -0.40337  -0.39934
 Alpha  occ. eigenvalues --   -0.28309  -0.25894
 Alpha virt. eigenvalues --    0.03806   0.04886   0.04958   0.05298   0.05923
 Alpha virt. eigenvalues --    0.06760   0.07334   0.07782   0.10247   0.11147
 Alpha virt. eigenvalues --    0.12288   0.12809   0.13327   0.13740   0.14642

 Mulliken charges:
               1
     1  O   -3.139182
     2  C    4.604575
     3  C   -3.678967
     4  C    1.356941
     5  O   -3.016360
     6  C   -3.162867
     7  C   -2.704839
     8  H    0.985255
     9  H    1.225005
    10  H    1.489094
    11  H    1.518022
    12  H    1.136069
    13  H    1.000680
    14  H    1.115670
    15  H    1.270904
 Sum of Mulliken charges =   0.00000

 Dipole moment (field-independent basis, Debye):
    X=              2.3805    Y=             -0.6310    Z=             -0.2501  Tot=              2.4754

 Test job not archived.
 1\1\GINC-SE135\SP\RHF\Aug-CC-pVDZ\C5H8O2\OHZDE\09-Apr-2025\0\\#t hf au
 g-cc-pvdz iop(5/13=1,5/36=2,99/5=2) pseudo=read geom=check guess=(read
 ,tcheck) scf=(maxcycle=1)\\title\\0,1\O,0,0.26111939,-0.86166807,-1.19
 103203\C,0,-0.33428668,-0.20624174,0.0006211\C,0,0.82777878,-0.3357117
 1,0.91583634\C,0,1.97529316,0.37057272,0.47216862\O,0,2.1021831,0.8106
 1267,-0.68728062\C,0,-1.76686488,-0.44757492,0.25973521\C,0,-1.2906743
 ,0.90209991,-0.23611946\H,0,0.93896894,-0.14819081,-1.43574002\H,0,0.7
 0907671,-0.5995889,1.95758523\H,0,0.92645216,-1.27929749,-0.2963867\H,

 Normal termination of Gaussian 16 at Wed Apr  9 18:27:32 2025.
