 Gaussian 16, Revision C.01,

 ----------------------------------------------------------------------
 #t hf aug-cc-pvdz symm=none int=(grid=ultrafine) guess=(read,tcheck) s
 table=(opt,rrhf)
 ----------------------------------------------------------------------
 -----
 title
 -----
 Symbolic Z-matrix:
 Charge =  0 Multiplicity = 1

 SCF Done:  E(RHF) =  -343.517973504     A.U. after   14 cycles
 Normal termination of Gaussian 16 at Wed Apr  9 19:21:05 2025.
 Gaussian 16:  ES64L-G16RevC.01  3-Jul-2019

 ----------------------------------------------------------------------
 #t hf aug-cc-pvdz iop(5/13=1,5/36=2,99/5=2) pseudo=read geom=check gue
 ss=(read,tcheck) scf=(maxcycle=1)
 ----------------------------------------------------------------------
 -----
 title
 -----
 Structure from the checkpoint file:  "Grambow2020_wb97xd3_008652_forward_mol1.chk"
 Charge =  0 Multiplicity = 1

                         Standard orientation:
 ---------------------------------------------------------------------
 Center     Atomic      Atomic             Coordinates (Angstroms)
 Number     Number       Type             X           Y           Z
 ---------------------------------------------------------------------
      1          6           0        2.241555    0.679511   -0.350669
      2          6           0        1.249274   -0.440795   -0.348188
      3          8           0        0.776137   -0.883996    0.929507
      4          6           0       -0.129614   -0.249945    0.087513
      5          6           0       -1.444134   -0.795026   -0.438846
      6          8           0       -1.949801    0.561611   -0.378306
      7          6           0       -0.873807    1.064231    0.288179
      8          1           0        2.335414    1.095133   -1.355587
      9          1           0        1.920791    1.474289    0.322723
     10          1           0        3.222317    0.320162   -0.034758
     11          1           0        1.439595   -1.261015   -1.038089
     12          1           0       -1.494785   -1.215523   -1.444042
     13          1           0       -1.968639   -1.424842    0.286683
     14          1           0       -1.236437    0.629328    1.910973
     15          1           0       -1.088590    1.413691    1.514563
 ---------------------------------------------------------------------

 SCF Done:  E(RHF) =  -345.086430904     A.U. after    2 cycles

 The electronic state is 1-A.
 Alpha  occ. eigenvalues --  -21.08690 -21.07937 -11.52673 -11.47300 -11.45553
 Alpha  occ. eigenvalues --  -11.43075 -11.39181  -1.85192  -1.78360  -1.13061
 Alpha  occ. eigenvalues --   -1.07523  -0.99931  -0.89920  -0.79536  -0.70359
 Alpha  occ. eigenvalues --   -0.66025  -0.64796  -0.59110  -0.58108  -0.54963
 Alpha  occ. eigenvalues --   -0.50047  -0.49191  -0.42302  -0.37507  -0.36238
 Alpha  occ. eigenvalues --   -0.33164  -0.28835
 Alpha virt. eigenvalues --    0.03532   0.04563   0.05202   0.05630   0.06283
 Alpha virt. eigenvalues --    0.06518   0.06781   0.08561   0.10167   0.10927
 Alpha virt. eigenvalues --    0.11617   0.12170   0.12987   0.13669   0.14331

 Mulliken charges:
               1
     1  C   -4.108158
     2  C   -0.635533
     3  O   -3.229437
     4  C    4.641270
     5  C   -2.285002
     6  O   -2.617007
     7  C   -0.363113
     8  H    1.229400
     9  H    1.383573
    10  H    1.125440
    11  H    1.522887
    12  H    1.393007
    13  H    1.246869
    14  H    0.188048
    15  H    0.507756
 Sum of Mulliken charges =   0.00000

 Dipole moment (field-independent basis, Debye):
    X=              0.3845    Y=             -1.5861    Z=             -0.7588  Tot=              1.7998

 Test job not archived.
 1\1\GINC-SE045\SP\RHF\Aug-CC-pVDZ\C5H8O2\OHZDE\09-Apr-2025\0\\#t hf au
 g-cc-pvdz iop(5/13=1,5/36=2,99/5=2) pseudo=read geom=check guess=(read
 ,tcheck) scf=(maxcycle=1)\\title\\0,1\C,0,2.0220969,-0.32562057,0.6970
 8022\C,0,0.96159683,0.65919457,0.3160381\O,0,0.6241753,0.74215221,-1.0
 7394559\C,0,-0.33400423,0.23625662,-0.20370453\C,0,-1.73979748,0.75654
 459,0.03119231\O,0,-2.13673592,-0.61979265,0.25020145\C,0,-0.95217646,
 -1.15539088,-0.15544167\H,0,2.01688802,-0.48324031,1.77714473\H,0,1.84
 616195,-1.28359909,0.20785329\H,0,3.00718096,0.04507315,0.40894452\H,0

 Normal termination of Gaussian 16 at Wed Apr  9 19:21:10 2025.
