 Gaussian 16, Revision C.01,

 ----------------------------------------------------------------------
 #t hf aug-cc-pvdz symm=none int=(grid=ultrafine) guess=(read,tcheck) s
 table=(opt,rrhf)
 ----------------------------------------------------------------------
 -----
 title
 -----
 Symbolic Z-matrix:
 Charge =  0 Multiplicity = 1

 SCF Done:  E(RHF) =  -359.777644333     A.U. after   14 cycles
 Normal termination of Gaussian 16 at Wed Apr  9 19:11:55 2025.
 Gaussian 16:  ES64L-G16RevC.01  3-Jul-2019

 ----------------------------------------------------------------------
 #t hf aug-cc-pvdz iop(5/13=1,5/36=2,99/5=2) pseudo=read geom=check gue
 ss=(read,tcheck) scf=(maxcycle=1)
 ----------------------------------------------------------------------
 -----
 title
 -----
 Structure from the checkpoint file:  "Grambow2020_wb97xd3_008278_reverse_mol2.chk"
 Charge =  0 Multiplicity = 1

                         Standard orientation:
 ---------------------------------------------------------------------
 Center     Atomic      Atomic             Coordinates (Angstroms)
 Number     Number       Type             X           Y           Z
 ---------------------------------------------------------------------
      1          6           0       -1.213700    1.254797    0.609854
      2          6           0        2.003645    0.151431   -0.013333
      3          6           0        1.013449   -0.615447    0.842810
      4          7           0       -0.223536   -0.956129    0.208747
      5          6           0       -1.261496   -0.099400   -0.056362
      6          8           0       -2.177714   -0.444508   -0.768316
      7          8           0        1.783214    0.540394   -1.122892
      8          1           0       -2.120694    1.791558    0.347597
      9          1           0       -0.349258    1.824988    0.265029
     10          1           0       -1.153401    1.159418    1.695979
     11          1           0        2.980513    0.342136    0.480221
     12          1           0        0.845781   -0.024257    1.749730
     13          1           0        1.513623   -1.526059    1.187141
     14          1           0       -0.247204   -1.790256   -0.355073
 ---------------------------------------------------------------------

 SCF Done:  E(RHF) =  -361.377723690     A.U. after    2 cycles

 The electronic state is 1-A.
 Alpha  occ. eigenvalues --  -21.08421 -21.02158 -15.76464 -11.50684 -11.50060
 Alpha  occ. eigenvalues --  -11.44225 -11.39116  -1.73502  -1.70551  -1.40799
 Alpha  occ. eigenvalues --   -1.11344  -1.07937  -0.85423  -0.79610  -0.69850
 Alpha  occ. eigenvalues --   -0.66602  -0.64260  -0.60477  -0.58856  -0.54026
 Alpha  occ. eigenvalues --   -0.53406  -0.48274  -0.47205  -0.44953  -0.33235
 Alpha  occ. eigenvalues --   -0.30284  -0.28456
 Alpha virt. eigenvalues --    0.02803   0.04581   0.04722   0.05340   0.06525
 Alpha virt. eigenvalues --    0.07127   0.07716   0.09444   0.10482   0.11053
 Alpha virt. eigenvalues --    0.12210   0.12397   0.13524   0.14046   0.14476

 Mulliken charges:
               1
     1  C   -4.104377
     2  C    1.334489
     3  C   -2.074883
     4  N   -2.542875
     5  C    4.524393
     6  O   -3.272881
     7  O   -2.666899
     8  H    1.070414
     9  H    1.287102
    10  H    1.274703
    11  H    1.449641
    12  H    1.697427
    13  H    1.378556
    14  H    0.645190
 Sum of Mulliken charges =   0.00000

 Dipole moment (field-independent basis, Debye):
    X=              2.1791    Y=             -0.2258    Z=              1.9339  Tot=              2.9222

 Test job not archived.
 1\1\GINC-SE131\SP\RHF\Aug-CC-pVDZ\C4H7N1O2\OHZDE\09-Apr-2025\0\\#t hf
 aug-cc-pvdz iop(5/13=1,5/36=2,99/5=2) pseudo=read geom=check guess=(re
 ad,tcheck) scf=(maxcycle=1)\\title\\0,1\C,0,-0.72002892,-1.20347193,1.
 04615247\C,0,0.04274947,0.47522675,-1.87912079\C,0,-0.00826561,1.15157
 846,-0.52209587\N,0,0.84958627,0.59831149,0.48100791\C,0,0.64748602,-0
 .5741458,1.16374368\O,0,1.52725796,-1.04770501,1.84724679\O,0,0.679177
 45,-0.50753441,-2.12436255\H,0,-0.74019781,-2.0862848,1.67842238\H,0,-
 0.92251059,-1.49837084,0.01497979\H,0,-1.50232136,-0.51276473,1.367624

 Normal termination of Gaussian 16 at Wed Apr  9 19:11:59 2025.
