 Gaussian 16, Revision C.01,

 ----------------------------------------------------------------------
 #t hf aug-cc-pvdz symm=none int=(grid=ultrafine) guess=(read,tcheck) s
 table=(opt,rrhf)
 ----------------------------------------------------------------------
 -----
 title
 -----
 Symbolic Z-matrix:
 Charge =  0 Multiplicity = 1

 SCF Done:  E(RHF) =  -267.613632404     A.U. after   14 cycles
 Normal termination of Gaussian 16 at Wed Apr  9 16:46:50 2025.
 Gaussian 16:  ES64L-G16RevC.01  3-Jul-2019

 ----------------------------------------------------------------------
 #t hf aug-cc-pvdz iop(5/13=1,5/36=2,99/5=2) pseudo=read geom=check gue
 ss=(read,tcheck) scf=(maxcycle=1)
 ----------------------------------------------------------------------
 -----
 title
 -----
 Structure from the checkpoint file:  "Grambow2020_b97d3_006835_forward_mol2.chk"
 Charge =  0 Multiplicity = 1

                         Standard orientation:
 ---------------------------------------------------------------------
 Center     Atomic      Atomic             Coordinates (Angstroms)
 Number     Number       Type             X           Y           Z
 ---------------------------------------------------------------------
      1          6           0        2.999451    0.103839   -0.158826
      2          6           0        1.564168   -0.021844    0.077748
      3          6           0        0.362904   -0.126486    0.261028
      4          6           0       -1.050431   -0.264620    0.514882
      5          6           0       -2.032530    0.719833   -0.000626
      6          8           0       -1.912422   -0.565419   -0.612649
      7          1           0        3.362707   -0.697406   -0.819869
      8          1           0        3.244538    1.067100   -0.631059
      9          1           0        3.561896    0.039546    0.784745
     10          1           0       -1.314952   -0.812449    1.425760
     11          1           0       -1.664428    1.564033   -0.591164
     12          1           0       -2.951758    0.898190    0.567540
 ---------------------------------------------------------------------

 SCF Done:  E(RHF) =  -268.844898835     A.U. after    2 cycles

 The electronic state is 1-A.
 Alpha  occ. eigenvalues --  -21.06859 -11.51399 -11.44881 -11.43918 -11.40146
 Alpha  occ. eigenvalues --  -11.39990  -1.77762  -1.18270  -1.06396  -0.96519
 Alpha  occ. eigenvalues --   -0.90209  -0.72641  -0.65594  -0.60628  -0.58756
 Alpha  occ. eigenvalues --   -0.58572  -0.54578  -0.48101  -0.42548  -0.35379
 Alpha  occ. eigenvalues --   -0.32819  -0.30939
 Alpha virt. eigenvalues --    0.02951   0.04893   0.05541   0.06335   0.06365
 Alpha virt. eigenvalues --    0.06923   0.09410   0.10629   0.11809   0.12057
 Alpha virt. eigenvalues --    0.12507   0.13592   0.14125   0.15331   0.15851

 Mulliken charges:
               1
     1  C   -5.009419
     2  C    2.423941
     3  C    2.160121
     4  C   -1.260207
     5  C   -2.297591
     6  O   -2.410346
     7  H    0.916981
     8  H    0.869284
     9  H    0.892743
    10  H    1.030572
    11  H    1.325062
    12  H    1.358859
 Sum of Mulliken charges =   0.00000

 Dipole moment (field-independent basis, Debye):
    X=              0.5513    Y=              0.3983    Z=              0.1413  Tot=              0.6946

 Test job not archived.
 1\1\GINC-SE168\SP\RHF\Aug-CC-pVDZ\C5H6O1\OHZDE\09-Apr-2025\0\\#t hf au
 g-cc-pvdz iop(5/13=1,5/36=2,99/5=2) pseudo=read geom=check guess=(read
 ,tcheck) scf=(maxcycle=1)\\title\\0,1\C,0,-2.65366754,-0.17291657,0.38
 996929\C,0,-1.22648498,0.07829914,0.2115284\C,0,-0.03252685,0.27443767
 ,0.05800263\C,0,1.37240447,0.54621766,-0.12459478\C,0,2.41504679,-0.26
 726926,0.54663667\O,0,2.16057996,-0.43274477,-0.84933382\H,0,-3.110280
 16,-0.53809266,-0.54227398\H,0,-2.83283142,-0.92734071,1.17079415\H,0,
 -3.18235888,0.74640481,0.68346239\H,0,1.62390504,1.58234743,-0.3755337

 Normal termination of Gaussian 16 at Wed Apr  9 16:46:53 2025.
