 Gaussian 16, Revision C.01,

 ----------------------------------------------------------------------
 #t hf aug-cc-pvdz symm=none int=(grid=ultrafine) guess=(read,tcheck) s
 table=(opt,rrhf)
 ----------------------------------------------------------------------
 -----
 title
 -----
 Symbolic Z-matrix:
 Charge =  0 Multiplicity = 1

 SCF Done:  E(RHF) =  -359.549602904     A.U. after   16 cycles
 Normal termination of Gaussian 16 at Wed Apr  9 03:46:35 2025.
 Gaussian 16:  ES64L-G16RevC.01  3-Jul-2019

 ----------------------------------------------------------------------
 #t hf aug-cc-pvdz iop(5/13=1,5/36=2,99/5=2) pseudo=read geom=check gue
 ss=(read,tcheck) scf=(maxcycle=1)
 ----------------------------------------------------------------------
 -----
 title
 -----
 Structure from the checkpoint file:  "Grambow2020_wb97xd3_007893_forward_mol1.chk"
 Charge =  0 Multiplicity = 1

                         Standard orientation:
 ---------------------------------------------------------------------
 Center     Atomic      Atomic             Coordinates (Angstroms)
 Number     Number       Type             X           Y           Z
 ---------------------------------------------------------------------
      1          6           0       -0.883748    1.808786   -0.005274
      2          6           0       -0.255934    0.476916    0.083144
      3          7           0       -0.795759   -0.673051    0.001132
      4          8           0       -2.169824   -0.766707   -0.085367
      5          6           0        1.208662    0.096799    0.366515
      6          6           0        1.049704   -1.348393    0.061525
      7          8           0        2.233999    0.413721   -0.398973
      8          1           0       -1.010750    2.221740    0.998632
      9          1           0       -0.208516    2.470709   -0.549914
     10          1           0       -1.856594    1.772259   -0.492820
     11          1           0       -2.334612   -1.674342   -0.353555
     12          1           0        1.342624    0.264886    1.461893
     13          1           0        1.310057   -2.143902    0.759195
     14          1           0        1.102600   -1.580758   -0.992091
 ---------------------------------------------------------------------

 SCF Done:  E(RHF) =  -361.172719525     A.U. after    2 cycles

 The electronic state is 1-A.
 Alpha  occ. eigenvalues --  -21.13555 -20.93240 -15.81084 -11.53600 -11.48480
 Alpha  occ. eigenvalues --  -11.43074 -11.39712  -1.83373  -1.60548  -1.36060
 Alpha  occ. eigenvalues --   -1.11582  -1.04885  -0.90952  -0.74965  -0.71879
 Alpha  occ. eigenvalues --   -0.66046  -0.63626  -0.61097  -0.57553  -0.54898
 Alpha  occ. eigenvalues --   -0.53412  -0.51562  -0.43738  -0.39207  -0.32208
 Alpha  occ. eigenvalues --   -0.22326  -0.21853
 Alpha virt. eigenvalues --    0.03007   0.04494   0.04742   0.05643   0.06078
 Alpha virt. eigenvalues --    0.06678   0.07784   0.09402   0.10600   0.11828
 Alpha virt. eigenvalues --    0.12858   0.13122   0.13457   0.14430   0.14650

 Mulliken charges:
               1
     1  C   -4.445987
     2  C    3.705333
     3  N   -0.569525
     4  O   -2.505587
     5  C    1.002431
     6  C   -2.926771
     7  O   -2.950186
     8  H    1.205570
     9  H    1.231492
    10  H    1.384122
    11  H    0.803384
    12  H    1.333069
    13  H    1.437265
    14  H    1.295389
 Sum of Mulliken charges =   0.00000

 Dipole moment (field-independent basis, Debye):
    X=             -4.4695    Y=             -1.8984    Z=              0.6278  Tot=              4.8963

 Test job not archived.
 1\1\GINC-SE222\SP\RHF\Aug-CC-pVDZ\C4H7N1O2\OHZDE\09-Apr-2025\0\\#t hf
 aug-cc-pvdz iop(5/13=1,5/36=2,99/5=2) pseudo=read geom=check guess=(re
 ad,tcheck) scf=(maxcycle=1)\\title\\0,1\C,0,-1.41346141,-1.24077999,-0
 .17777759\C,0,-0.31160813,-0.26549349,-0.07491675\N,0,-0.30125407,0.87
 965736,0.48103604\O,0,-1.47623624,1.38837469,0.99575213\C,0,1.10935889
 ,-0.32110606,-0.66448298\C,0,1.61998737,0.86880729,0.06368714\O,0,2.01
 994134,-1.22418483,-0.35949546\H,0,-1.86457576,-1.18100106,-1.17146273
 \H,0,-0.99605431,-2.24278329,-0.06609019\H,0,-2.18751801,-1.06544367,0

 Normal termination of Gaussian 16 at Wed Apr  9 03:46:39 2025.
