 Gaussian 16, Revision C.01,

 ----------------------------------------------------------------------
 #t hf aug-cc-pvdz symm=none int=(grid=ultrafine) guess=(read,tcheck) s
 table=(opt,rrhf)
 ----------------------------------------------------------------------
 -----
 title
 -----
 Symbolic Z-matrix:
 Charge =  0 Multiplicity = 1

 SCF Done:  E(RHF) =  -306.985379889     A.U. after   13 cycles

 1\1\GINC-SE173\Stability\RHF\Aug-CC-pVDZ\C4H10O2\OHZDE\09-Apr-2025\0\\
 #t hf aug-cc-pvdz symm=none int=(grid=ultrafine) guess=(read,tcheck) s
 table=(opt,rrhf)\\title\\0,1\C,0,-1.27479078,-1.14627702,0.69395483\C,
 0,-0.11322663,-0.49890553,0.51166953\C,0,0.98931885,-1.08501275,-0.335
 97758\O,0,1.39113185,-0.1108127,-1.32705421\C,0,0.18361952,0.8514666,1
 .13312363\O,0,0.22055635,1.90074702,0.16505755\H,0,-2.27078531,1.59568
 813,-1.89790131\H,0,-1.48388175,-2.10296163,0.2111588\H,0,-2.05709124,
 -0.73944061,1.33602789\H,0,-1.71525232,1.62958024,-1.39896887\H,0,0.65

 Normal termination of Gaussian 16 at Wed Apr  9 17:21:27 2025.
 Gaussian 16:  ES64L-G16RevC.01  3-Jul-2019

 ----------------------------------------------------------------------
 #t hf aug-cc-pvdz iop(5/13=1,5/36=2,99/5=2) pseudo=read geom=check gue
 ss=(read,tcheck) scf=(maxcycle=1)
 ----------------------------------------------------------------------
 -----
 title
 -----
 Structure from the checkpoint file:  "Grambow2020_b97d3_007111_reverse_mol2.chk"
 Charge =  0 Multiplicity = 1

                         Standard orientation:
 ---------------------------------------------------------------------
 Center     Atomic      Atomic             Coordinates (Angstroms)
 Number     Number       Type             X           Y           Z
 ---------------------------------------------------------------------
      1          6           0       -0.691305    1.873282    0.308641
      2          6           0       -0.169200    0.753507   -0.215819
      3          6           0        1.321437    0.519480   -0.245251
      4          8           0        1.608963   -0.766946    0.350727
      5          6           0       -1.019052   -0.350082   -0.813877
      6          8           0       -1.023328   -1.530836   -0.010568
      7          1           0       -1.387337   -0.741973    3.120061
      8          1           0       -0.065462    2.642581    0.765320
      9          1           0       -1.766169    2.058474    0.296806
     10          1           0       -1.309253   -0.877907    2.389223
     11          1           0        1.853327    1.323293    0.290324
     12          1           0        1.659972    0.525345   -1.298029
     13          1           0        2.474502   -1.063750    0.016997
     14          1           0       -2.062690   -0.021305   -0.900201
     15          1           0       -0.651095   -0.571006   -1.837215
     16          1           0       -0.082154   -1.668617    0.233270
 ---------------------------------------------------------------------

 SCF Done:  E(RHF) =  -308.407842853     A.U. after    2 cycles

 The electronic state is 1-A.
 Alpha  occ. eigenvalues --  -21.08922 -21.04483 -11.45306 -11.43558 -11.40990
 Alpha  occ. eigenvalues --  -11.37688  -1.73258  -1.67991  -1.20985  -0.97650
 Alpha  occ. eigenvalues --   -0.96196  -0.77575  -0.66478  -0.65748  -0.63324
 Alpha  occ. eigenvalues --   -0.58757  -0.58272  -0.54683  -0.52583  -0.48561
 Alpha  occ. eigenvalues --   -0.44947  -0.41014  -0.34065  -0.33091  -0.29847
 Alpha virt. eigenvalues --    0.03269   0.04660   0.05188   0.05315   0.06052
 Alpha virt. eigenvalues --    0.06267   0.07143   0.08192   0.08704   0.11311
 Alpha virt. eigenvalues --    0.11709   0.12779   0.12875   0.13715   0.14412

 Mulliken charges:
               1
     1  C   -4.744771
     2  C    2.876571
     3  C   -2.079484
     4  O   -2.443975
     5  C   -1.830857
     6  O   -2.312386
     7  H    0.291130
     8  H    1.593063
     9  H    1.652769
    10  H   -0.411036
    11  H    1.470687
    12  H    1.299113
    13  H    0.791898
    14  H    1.461001
    15  H    1.265991
    16  H    1.120287
 Sum of Mulliken charges =  -0.00000

 Dipole moment (field-independent basis, Debye):
    X=              1.5576    Y=              0.6733    Z=             -0.6846  Tot=              1.8298

 Test job not archived.
 1\1\GINC-SE173\SP\RHF\Aug-CC-pVDZ\C4H10O2\OHZDE\09-Apr-2025\0\\#t hf a
 ug-cc-pvdz iop(5/13=1,5/36=2,99/5=2) pseudo=read geom=check guess=(rea
 d,tcheck) scf=(maxcycle=1)\\title\\0,1\C,0,-1.27479078,-1.14627702,0.6
 9395483\C,0,-0.11322663,-0.49890553,0.51166953\C,0,0.98931885,-1.08501
 275,-0.33597758\O,0,1.39113185,-0.1108127,-1.32705421\C,0,0.18361952,0
 .8514666,1.13312363\O,0,0.22055635,1.90074702,0.16505755\H,0,-2.270785
 31,1.59568813,-1.89790131\H,0,-1.48388175,-2.10296163,0.2111588\H,0,-2
 .05709124,-0.73944061,1.33602789\H,0,-1.71525232,1.62958024,-1.3989688

 Normal termination of Gaussian 16 at Wed Apr  9 17:21:32 2025.
