 Gaussian 16, Revision C.01,

 ----------------------------------------------------------------------
 #t hf aug-cc-pvdz symm=none int=(grid=ultrafine) guess=(read,tcheck) s
 table=(opt,rrhf)
 ----------------------------------------------------------------------
 -----
 title
 -----
 Symbolic Z-matrix:
 Charge =  0 Multiplicity = 1

 SCF Done:  E(RHF) =  -267.509964797     A.U. after   17 cycles
 Normal termination of Gaussian 16 at Wed Apr  9 03:20:54 2025.
 Gaussian 16:  ES64L-G16RevC.01  3-Jul-2019

 ----------------------------------------------------------------------
 #t hf aug-cc-pvdz iop(5/13=1,5/36=2,99/5=2) pseudo=read geom=check gue
 ss=(read,tcheck) scf=(maxcycle=1)
 ----------------------------------------------------------------------
 -----
 title
 -----
 Structure from the checkpoint file:  "Grambow2020_wb97xd3_006079_reverse_mol1.chk"
 Charge =  0 Multiplicity = 1

                         Standard orientation:
 ---------------------------------------------------------------------
 Center     Atomic      Atomic             Coordinates (Angstroms)
 Number     Number       Type             X           Y           Z
 ---------------------------------------------------------------------
      1          8           0       -2.386622   -0.684789   -0.064335
      2          6           0       -1.935050    0.424576   -0.013918
      3          6           0       -0.466154    0.746307    0.085371
      4          6           0        0.433102   -0.439614   -0.016592
      5          6           0        1.806560   -0.319319   -0.004542
      6          6           0        2.972444    0.185293   -0.245940
      7          1           0       -2.603848    1.308667   -0.030360
      8          1           0       -0.319732    1.294012    1.024402
      9          1           0       -0.201615    1.473087   -0.696168
     10          1           0        1.639053   -1.030113    0.907236
     11          1           0       -0.022318   -1.422763   -0.038037
     12          1           0        3.736021    0.271966    0.521330
 ---------------------------------------------------------------------

 SCF Done:  E(RHF) =  -268.725106845     A.U. after    2 cycles

 The electronic state is 1-A.
 Alpha  occ. eigenvalues --  -21.08613 -11.51296 -11.49325 -11.43639 -11.41705
 Alpha  occ. eigenvalues --  -11.37904  -1.73731  -1.28072  -1.12305  -0.96886
 Alpha  occ. eigenvalues --   -0.83985  -0.74734  -0.66715  -0.65012  -0.61887
 Alpha  occ. eigenvalues --   -0.58723  -0.51595  -0.51284  -0.45099  -0.37575
 Alpha  occ. eigenvalues --   -0.31427  -0.28323
 Alpha virt. eigenvalues --    0.02162   0.04238   0.05403   0.05950   0.06055
 Alpha virt. eigenvalues --    0.06622   0.06943   0.08973   0.10407   0.11167
 Alpha virt. eigenvalues --    0.11482   0.12018   0.12600   0.13236   0.14519

 Mulliken charges:
               1
     1  O   -2.812483
     2  C    1.591287
     3  C   -4.266337
     4  C   -0.989590
     5  C    2.657141
     6  C   -4.131179
     7  H    1.419636
     8  H    1.409849
     9  H    1.435000
    10  H    1.239316
    11  H    1.463022
    12  H    0.984337
 Sum of Mulliken charges =  -0.00000

 Dipole moment (field-independent basis, Debye):
    X=             -2.6063    Y=              0.2816    Z=              2.1621  Tot=              3.3980

 Test job not archived.
 1\1\GINC-SE435\SP\RHF\Aug-CC-pVDZ\C5H6O1\OHZDE\09-Apr-2025\0\\#t hf au
 g-cc-pvdz iop(5/13=1,5/36=2,99/5=2) pseudo=read geom=check guess=(read
 ,tcheck) scf=(maxcycle=1)\\title\\0,1\O,0,-2.63433228,0.27428769,-0.54
 393554\C,0,-2.1479623,-0.097988,0.48660127\C,0,-0.66692058,-0.20233146
 ,0.74477484\C,0,0.18966183,0.32757971,-0.35564631\C,0,1.56459758,0.363
 8613,-0.2595289\C,0,2.72956303,0.50468382,0.28380929\H,0,-2.79013258,-
 0.40546999,1.3364538\H,0,-0.4519313,-1.2556974,0.96248726\H,0,-0.42517
 448,0.3224077,1.68029615\H,0,1.427461,-0.28309785,-1.22247396\H,0,-0.2

 Normal termination of Gaussian 16 at Wed Apr  9 03:20:58 2025.
