 Gaussian 16, Revision C.01,

 ----------------------------------------------------------------------
 #t hf aug-cc-pvdz symm=none int=(grid=ultrafine) guess=(read,tcheck) s
 table=(opt,rrhf)
 ----------------------------------------------------------------------
 -----
 title
 -----
 Symbolic Z-matrix:
 Charge =  0 Multiplicity = 1

 SCF Done:  E(RHF) =  -323.886241108     A.U. after   13 cycles
 Normal termination of Gaussian 16 at Wed Apr  9 18:44:52 2025.
 Gaussian 16:  ES64L-G16RevC.01  3-Jul-2019

 ----------------------------------------------------------------------
 #t hf aug-cc-pvdz iop(5/13=1,5/36=2,99/5=2) pseudo=read geom=check gue
 ss=(read,tcheck) scf=(maxcycle=1)
 ----------------------------------------------------------------------
 -----
 title
 -----
 Structure from the checkpoint file:  "Grambow2020_wb97xd3_007601_forward_mol2.chk"
 Charge =  0 Multiplicity = 1

                         Standard orientation:
 ---------------------------------------------------------------------
 Center     Atomic      Atomic             Coordinates (Angstroms)
 Number     Number       Type             X           Y           Z
 ---------------------------------------------------------------------
      1          6           0        1.401413    1.461180    0.437103
      2          6           0        1.329391    0.273890   -0.481118
      3          7           0        1.657363   -1.039133    0.072968
      4          6           0        0.295994   -0.779182   -0.390506
      5          6           0       -0.783083   -0.787369    0.654632
      6          6           0       -1.987456    0.037965    0.299280
      7          8           0       -2.116924    0.660727   -0.719087
      8          1           0        1.106419    1.198024    1.452536
      9          1           0        2.422193    1.845367    0.483373
     10          1           0        0.750173    2.261171    0.078838
     11          1           0        1.678248    0.473342   -1.490840
     12          1           0        2.170010   -1.605265   -0.590146
     13          1           0       -0.002723   -1.219265   -1.337148
     14          1           0       -0.403967   -0.436298    1.618874
     15          1           0       -1.130777   -1.809897    0.846338
     16          1           0       -2.793283    0.042025    1.063742
 ---------------------------------------------------------------------

 SCF Done:  E(RHF) =  -325.394964084     A.U. after    2 cycles

 The electronic state is 1-A.
 Alpha  occ. eigenvalues --  -21.06356 -15.73006 -11.50375 -11.48697 -11.42135
 Alpha  occ. eigenvalues --  -11.40114 -11.37159  -1.71453  -1.46288  -1.14237
 Alpha  occ. eigenvalues --   -1.08363  -0.91199  -0.84799  -0.77212  -0.73133
 Alpha  occ. eigenvalues --   -0.65280  -0.60678  -0.56864  -0.56200  -0.54726
 Alpha  occ. eigenvalues --   -0.51143  -0.46770  -0.43216  -0.43062  -0.42110
 Alpha  occ. eigenvalues --   -0.34897  -0.29231
 Alpha virt. eigenvalues --    0.03776   0.05050   0.05235   0.05564   0.05707
 Alpha virt. eigenvalues --    0.06181   0.06823   0.07368   0.08967   0.11063
 Alpha virt. eigenvalues --    0.11764   0.12075   0.13368   0.13975   0.14010

 Mulliken charges:
               1
     1  C   -4.155359
     2  C   -0.496804
     3  N   -2.096986
     4  C    0.215800
     5  C   -3.540106
     6  C    1.278922
     7  O   -2.758935
     8  H    1.294457
     9  H    1.062042
    10  H    1.286547
    11  H    1.552367
    12  H    0.580233
    13  H    1.497092
    14  H    1.557381
    15  H    1.285370
    16  H    1.437980
 Sum of Mulliken charges =  -0.00000

 Dipole moment (field-independent basis, Debye):
    X=              0.4410    Y=             -0.5326    Z=             -0.4180  Tot=              0.8080

 Test job not archived.
 1\1\GINC-SE162\SP\RHF\Aug-CC-pVDZ\C5H9N1O1\OHZDE\09-Apr-2025\0\\#t hf
 aug-cc-pvdz iop(5/13=1,5/36=2,99/5=2) pseudo=read geom=check guess=(re
 ad,tcheck) scf=(maxcycle=1)\\title\\0,1\C,0,-1.39561126,-0.12015714,1.
 24546093\C,0,-1.25810635,0.06676316,-0.23916924\N,0,-0.86793596,1.3886
 4366,-0.72805046\C,0,0.03385693,0.25685197,-0.93183024\C,0,1.35313061,
 0.31092792,-0.21532557\C,0,1.96103636,-1.03679256,0.05312613\O,0,1.470
 76184,-2.08639438,-0.26252114\H,0,-0.66958935,0.48140655,1.79171073\H,
 0,-2.38917998,0.1869502,1.57748295\H,0,-1.2540603,-1.16934859,1.513069

 Normal termination of Gaussian 16 at Wed Apr  9 18:44:57 2025.
