 Gaussian 16, Revision C.01,

 ----------------------------------------------------------------------
 #t hf aug-cc-pvdz symm=none int=(grid=ultrafine) guess=(read,tcheck) s
 table=(opt,rrhf)
 ----------------------------------------------------------------------
 -----
 title
 -----
 Symbolic Z-matrix:
 Charge =  0 Multiplicity = 1

 SCF Done:  E(RHF) =  -268.655250405     A.U. after   16 cycles
 Normal termination of Gaussian 16 at Wed Apr  9 17:15:24 2025.
 Gaussian 16:  ES64L-G16RevC.01  3-Jul-2019

 ----------------------------------------------------------------------
 #t hf aug-cc-pvdz iop(5/13=1,5/36=2,99/5=2) pseudo=read geom=check gue
 ss=(read,tcheck) scf=(maxcycle=1)
 ----------------------------------------------------------------------
 -----
 title
 -----
 Structure from the checkpoint file:  "Grambow2020_b97d3_007082_forward_mol1.chk"
 Charge =  0 Multiplicity = 1

                         Standard orientation:
 ---------------------------------------------------------------------
 Center     Atomic      Atomic             Coordinates (Angstroms)
 Number     Number       Type             X           Y           Z
 ---------------------------------------------------------------------
      1          6           0        2.022475   -0.585266   -0.210536
      2          6           0        0.690578   -0.351530    0.436320
      3          6           0       -0.638797   -0.298282   -0.368297
      4          8           0       -1.647883   -1.143960    0.158810
      5          6           0       -0.916564    1.172924   -0.565096
      6          6           0        0.038537    1.656801    0.286005
      7          1           0        2.189374   -1.668961   -0.353933
      8          1           0        2.833774   -0.233210    0.444225
      9          1           0        2.110037   -0.084648   -1.182301
     10          1           0        0.199365    1.089012    1.267381
     11          1           0        0.625514   -0.811570    1.436078
     12          1           0       -0.378645   -0.705706   -1.365796
     13          1           0       -2.210900   -0.577571    0.719083
     14          1           0        0.637173    2.576445    0.294413
 ---------------------------------------------------------------------

 SCF Done:  E(RHF) =  -269.934240501     A.U. after    2 cycles

 The electronic state is 1-A.
 Alpha  occ. eigenvalues --  -21.07824 -11.51758 -11.44793 -11.41618 -11.40443
 Alpha  occ. eigenvalues --  -11.35220  -1.72017  -1.28123  -1.11503  -0.95072
 Alpha  occ. eigenvalues --   -0.88659  -0.74127  -0.65538  -0.64359  -0.60865
 Alpha  occ. eigenvalues --   -0.57422  -0.54085  -0.53763  -0.51536  -0.41655
 Alpha  occ. eigenvalues --   -0.35748  -0.32075  -0.28406
 Alpha virt. eigenvalues --    0.03047   0.04545   0.05131   0.05266   0.05727
 Alpha virt. eigenvalues --    0.06095   0.06862   0.07469   0.08600   0.10397
 Alpha virt. eigenvalues --    0.10997   0.12616   0.13250   0.14158   0.14604

 Mulliken charges:
               1
     1  C   -4.029125
     2  C   -1.406737
     3  C    1.707219
     4  O   -3.092774
     5  C   -1.646999
     6  C   -1.686622
     7  H    1.171111
     8  H    1.237318
     9  H    1.280995
    10  H    1.547199
    11  H    1.335624
    12  H    1.710474
    13  H    0.630464
    14  H    1.241853
 Sum of Mulliken charges =   0.00000

 Dipole moment (field-independent basis, Debye):
    X=              3.6031    Y=             -2.5144    Z=              2.3325  Tot=              4.9744

 Test job not archived.
 1\1\GINC-SE114\SP\RHF\Aug-CC-pVDZ\C5H8O1\OHZDE\09-Apr-2025\0\\#t hf au
 g-cc-pvdz iop(5/13=1,5/36=2,99/5=2) pseudo=read geom=check guess=(read
 ,tcheck) scf=(maxcycle=1)\\title\\0,1\C,0,-1.26797659,1.20602132,-0.14
 800665\C,0,-0.57195337,-0.1210377,-0.10967358\C,0,0.7124167,-0.3745759
 7,0.72913257\O,0,0.62174073,-1.51881838,1.56205043\C,0,1.85143752,-0.2
 4755685,-0.25414235\C,0,1.1042063,-0.21404661,-1.39924122\H,0,-1.94412
 669,1.30478139,0.72140714\H,0,-1.90461338,1.27936954,-1.04253214\H,0,-
 0.56537795,2.048015,-0.14415264\H,0,0.1955172,-0.90905206,-1.4502464\H

 Normal termination of Gaussian 16 at Wed Apr  9 17:15:28 2025.
