 Gaussian 16, Revision C.01,

 ----------------------------------------------------------------------
 #t hf aug-cc-pvdz symm=none int=(grid=ultrafine) guess=(read,tcheck) s
 table=(opt,rrhf)
 ----------------------------------------------------------------------
 -----
 title
 -----
 Symbolic Z-matrix:
 Charge =  0 Multiplicity = 1

 SCF Done:  E(RHF) =  -306.513732397     A.U. after   15 cycles
 Normal termination of Gaussian 16 at Wed Apr  9 03:51:44 2025.
 Gaussian 16:  ES64L-G16RevC.01  3-Jul-2019

 ----------------------------------------------------------------------
 #t hf aug-cc-pvdz iop(5/13=1,5/36=2,99/5=2) pseudo=read geom=check gue
 ss=(read,tcheck) scf=(maxcycle=1)
 ----------------------------------------------------------------------
 -----
 title
 -----
 Structure from the checkpoint file:  "Grambow2020_wb97xd3_008211_reverse_mol1.chk"
 Charge =  0 Multiplicity = 1

                         Standard orientation:
 ---------------------------------------------------------------------
 Center     Atomic      Atomic             Coordinates (Angstroms)
 Number     Number       Type             X           Y           Z
 ---------------------------------------------------------------------
      1          6           0       -1.087231   -0.725037    0.715906
      2          8           0       -1.771637    0.412051    0.008208
      3          6           0       -0.370485    0.702467   -0.595048
      4          6           0        0.744179    1.241531    0.237092
      5          6           0        1.681551    0.295000    0.329995
      6          6           0        1.266848   -1.035740   -0.282149
      7          6           0       -0.218587   -0.812649   -0.542340
      8          1           0       -0.652340   -0.308366    1.628873
      9          1           0       -1.807013   -1.509885    0.944584
     10          1           0       -0.552524    1.256794   -1.517121
     11          1           0        0.850646    2.266508    0.568381
     12          1           0        2.651756    0.456306    0.789814
     13          1           0        1.839233   -1.228756   -1.194644
     14          1           0        1.472675   -1.872806    0.392009
     15          1           0       -1.726981   -0.349635   -0.858296
 ---------------------------------------------------------------------

 SCF Done:  E(RHF) =  -308.004880370     A.U. after    2 cycles

 The electronic state is 1-A.
 Alpha  occ. eigenvalues --  -21.11346 -11.49410 -11.45839 -11.44425 -11.40566
 Alpha  occ. eigenvalues --  -11.38150 -11.32553  -1.83941  -1.30541  -1.05715
 Alpha  occ. eigenvalues --   -1.01155  -0.96325  -0.81374  -0.74922  -0.72799
 Alpha  occ. eigenvalues --   -0.66268  -0.58773  -0.57971  -0.53619  -0.49027
 Alpha  occ. eigenvalues --   -0.48501  -0.44815  -0.42887  -0.36250  -0.33343
 Alpha  occ. eigenvalues --   -0.26997
 Alpha virt. eigenvalues --    0.03921   0.04916   0.05045   0.05594   0.05800
 Alpha virt. eigenvalues --    0.06376   0.06899   0.07472   0.09247   0.11667
 Alpha virt. eigenvalues --    0.12767   0.12910   0.13566   0.14202   0.14420

 Mulliken charges:
               1
     1  C   -1.420413
     2  O   -2.598786
     3  C   -0.403271
     4  C   -0.611495
     5  C   -0.460078
     6  C   -3.513063
     7  C   -1.573269
     8  H    1.752224
     9  H    1.161268
    10  H    1.383590
    11  H    1.327788
    12  H    1.420433
    13  H    1.289565
    14  H    1.177303
    15  H    1.068204
 Sum of Mulliken charges =  -0.00000

 Dipole moment (field-independent basis, Debye):
    X=             -0.3411    Y=              1.7391    Z=              1.5477  Tot=              2.3529

 Test job not archived.
 1\1\GINC-SE083\SP\RHF\Aug-CC-pVDZ\C6H8O1\OHZDE\09-Apr-2025\0\\#t hf au
 g-cc-pvdz iop(5/13=1,5/36=2,99/5=2) pseudo=read geom=check guess=(read
 ,tcheck) scf=(maxcycle=1)\\title\\0,1\C,0,-1.32120889,-0.35412839,-0.7
 2998975\O,0,-1.2921728,-1.48927941,0.25632074\C,0,-0.02356208,-0.79136
 736,0.81759744\C,0,1.25945325,-0.76877099,0.05675384\C,0,1.4994234,0.4
 9396939,-0.30535043\C,0,0.35891313,1.44852631,0.01965122\C,0,-0.753281
 97,0.48513994,0.41826506\H,0,-0.65921245,-0.63825667,-1.55296228\H,0,-
 2.33916637,-0.1905864,-1.08124825\H,0,0.07132753,-1.13185794,1.8499243

 Normal termination of Gaussian 16 at Wed Apr  9 03:51:51 2025.
