 Gaussian 16, Revision C.01,

 ----------------------------------------------------------------------
 #t hf aug-cc-pvdz symm=none int=(grid=ultrafine) guess=(read,tcheck) s
 table=(opt,rrhf)
 ----------------------------------------------------------------------
 -----
 title
 -----
 Symbolic Z-matrix:
 Charge =  0 Multiplicity = 1

 SCF Done:  E(RHF) =  -317.553641650     A.U. after   17 cycles
 Normal termination of Gaussian 16 at Wed Apr  9 19:00:36 2025.
 Gaussian 16:  ES64L-G16RevC.01  3-Jul-2019

 ----------------------------------------------------------------------
 #t hf aug-cc-pvdz iop(5/13=1,5/36=2,99/5=2) pseudo=read geom=check gue
 ss=(read,tcheck) scf=(maxcycle=1)
 ----------------------------------------------------------------------
 -----
 title
 -----
 Structure from the checkpoint file:  "Grambow2020_wb97xd3_007984_forward_mol1.chk"
 Charge =  0 Multiplicity = 1

                         Standard orientation:
 ---------------------------------------------------------------------
 Center     Atomic      Atomic             Coordinates (Angstroms)
 Number     Number       Type             X           Y           Z
 ---------------------------------------------------------------------
      1          7           0        2.136097    0.316472   -0.312843
      2          6           0        0.878707   -0.109566   -0.000056
      3          7           0       -0.036247    0.823922    0.595357
      4          6           0       -1.215485    1.012289   -0.234408
      5          6           0       -1.782970   -0.180809   -0.383824
      6          6           0       -0.853393   -0.931195    0.470350
      7          7           0        0.363618   -1.277046   -0.116106
      8          1           0        2.825922   -0.404174   -0.437772
      9          1           0        2.443008    1.130780    0.191371
     10          1           0       -1.510764    2.013990   -0.510960
     11          1           0       -2.650774   -0.531673   -0.917394
     12          1           0       -0.512821    0.003324    1.397535
 ---------------------------------------------------------------------

 SCF Done:  E(RHF) =  -319.029905317     A.U. after    2 cycles

 The electronic state is 1-A.
 Alpha  occ. eigenvalues --  -15.77941 -15.75244 -15.72831 -11.50919 -11.47139
 Alpha  occ. eigenvalues --  -11.45398 -11.39819  -1.61347  -1.36042  -1.27926
 Alpha  occ. eigenvalues --   -1.12068  -0.92263  -0.85389  -0.73652  -0.70884
 Alpha  occ. eigenvalues --   -0.67548  -0.66163  -0.61538  -0.54769  -0.50344
 Alpha  occ. eigenvalues --   -0.45915  -0.40638  -0.37484  -0.34115  -0.28098
 Alpha virt. eigenvalues --    0.03728   0.05054   0.05320   0.06277   0.07059
 Alpha virt. eigenvalues --    0.08339   0.10127   0.10858   0.11179   0.12348
 Alpha virt. eigenvalues --    0.13057   0.13524   0.14243   0.14805   0.15634

 Mulliken charges:
               1
     1  N   -3.021241
     2  C    4.842867
     3  N   -2.313440
     4  C   -0.561121
     5  C   -0.092413
     6  C   -0.993414
     7  N   -2.473826
     8  H    0.646094
     9  H    0.552054
    10  H    1.053355
    11  H    1.155884
    12  H    1.205201
 Sum of Mulliken charges =   0.00000

 Dipole moment (field-independent basis, Debye):
    X=              0.8641    Y=              1.3831    Z=             -0.4922  Tot=              1.7035

 Test job not archived.
 1\1\GINC-SE097\SP\RHF\Aug-CC-pVDZ\C4H5N3\OHZDE\09-Apr-2025\0\\#t hf au
 g-cc-pvdz iop(5/13=1,5/36=2,99/5=2) pseudo=read geom=check guess=(read
 ,tcheck) scf=(maxcycle=1)\\title\\0,1\N,0,2.15221512,-0.27276178,0.070
 29336\C,0,0.88796913,0.22472149,-0.05039744\N,0,-0.10067371,-0.5650921
 3,-0.72998291\C,0,-1.21525202,-0.88737621,0.14662605\C,0,-1.7309726,0.
 26519824,0.56310054\C,0,-0.84930667,1.14798121,-0.21160216\N,0,0.42097
 6,1.35758059,0.32422219\H,0,2.87226053,0.40027474,0.26867461\H,0,2.391
 97387,-0.9823634,-0.60090253\H,0,-1.51903805,-1.91835659,0.25557102\H,

 Normal termination of Gaussian 16 at Wed Apr  9 19:00:40 2025.
