 Gaussian 16, Revision C.01,

 ----------------------------------------------------------------------
 #t hf aug-cc-pvdz symm=none int=(grid=ultrafine) guess=(read,tcheck) s
 table=(opt,rrhf)
 ----------------------------------------------------------------------
 -----
 title
 -----
 Symbolic Z-matrix:
 Charge =  0 Multiplicity = 1

 SCF Done:  E(RHF) =  -322.554721425     A.U. after   16 cycles
 Normal termination of Gaussian 16 at Wed Apr  9 18:38:33 2025.
 Gaussian 16:  ES64L-G16RevC.01  3-Jul-2019

 ----------------------------------------------------------------------
 #t hf aug-cc-pvdz iop(5/13=1,5/36=2,99/5=2) pseudo=read geom=check gue
 ss=(read,tcheck) scf=(maxcycle=1)
 ----------------------------------------------------------------------
 -----
 title
 -----
 Structure from the checkpoint file:  "Grambow2020_wb97xd3_007353_forward_mol1.chk"
 Charge =  0 Multiplicity = 1

                         Standard orientation:
 ---------------------------------------------------------------------
 Center     Atomic      Atomic             Coordinates (Angstroms)
 Number     Number       Type             X           Y           Z
 ---------------------------------------------------------------------
      1          8           0        2.086929   -0.833785   -0.218350
      2          6           0        0.998502   -0.272955   -0.271508
      3          6           0        0.731069    1.335251    0.115440
      4          7           0       -0.596190    0.844767    0.416861
      5          6           0       -1.406127    0.453927   -0.560215
      6          6           0       -1.560537   -0.956984   -0.054248
      7          6           0       -0.289284   -0.568426    0.707142
      8          1           0        1.279782    1.606325    1.015799
      9          1           0        0.776415    2.099470   -0.657557
     10          1           0        0.333577   -0.211400   -1.265879
     11          1           0       -1.780644    1.053731   -1.379719
     12          1           0       -1.457948   -1.749633   -0.792390
     13          1           0       -2.448782   -1.127107    0.557883
     14          1           0       -0.066246   -0.859351    1.730969
 ---------------------------------------------------------------------

 SCF Done:  E(RHF) =  -324.073302834     A.U. after    2 cycles

 The electronic state is 1-A.
 Alpha  occ. eigenvalues --  -20.95544 -15.80636 -11.52984 -11.50520 -11.45616
 Alpha  occ. eigenvalues --  -11.42501 -11.40776  -1.66064  -1.57648  -1.17698
 Alpha  occ. eigenvalues --   -1.05268  -0.96496  -0.88504  -0.77829  -0.71649
 Alpha  occ. eigenvalues --   -0.67247  -0.64219  -0.56890  -0.54699  -0.51894
 Alpha  occ. eigenvalues --   -0.50585  -0.47885  -0.45939  -0.37474  -0.24120
 Alpha  occ. eigenvalues --   -0.22091
 Alpha virt. eigenvalues --    0.03109   0.04097   0.04966   0.05202   0.05791
 Alpha virt. eigenvalues --    0.06592   0.07184   0.08282   0.09140   0.10844
 Alpha virt. eigenvalues --    0.11845   0.12021   0.12937   0.13133   0.14397

 Mulliken charges:
               1
     1  O   -3.254908
     2  C    3.173052
     3  C   -2.812764
     4  N   -2.154196
     5  C   -0.037041
     6  C   -2.744571
     7  C   -1.079627
     8  H    1.400699
     9  H    1.638023
    10  H    0.768613
    11  H    1.322936
    12  H    1.162606
    13  H    1.185396
    14  H    1.431781
 Sum of Mulliken charges =  -0.00000

 Dipole moment (field-independent basis, Debye):
    X=             -3.7878    Y=              1.3243    Z=              0.2008  Tot=              4.0176

 Test job not archived.
 1\1\GINC-SE192\SP\RHF\Aug-CC-pVDZ\C5H7N1O1\OHZDE\09-Apr-2025\0\\#t hf
 aug-cc-pvdz iop(5/13=1,5/36=2,99/5=2) pseudo=read geom=check guess=(re
 ad,tcheck) scf=(maxcycle=1)\\title\\0,1\O,0,1.74543872,1.7221639,-0.53
 915643\C,0,0.98139688,0.86438814,-0.11196797\C,0,1.43047958,-0.6954671
 6,0.30366615\N,0,0.05140449,-0.97805442,-0.0300131\C,0,-0.93123144,-0.
 54614918,0.7518546\C,0,-1.60307413,0.27875224,-0.31523549\C,0,-0.22164
 025,0.13285051,-0.96108992\H,0,2.12004971,-1.10225938,-0.43405125\H,0,
 1.71505762,-0.92913513,1.32739694\H,0,0.31386028,1.00379402,0.87274052

 Normal termination of Gaussian 16 at Wed Apr  9 18:38:38 2025.
