 Gaussian 16, Revision C.01,

 ----------------------------------------------------------------------
 #t hf aug-cc-pvdz symm=none int=(grid=ultrafine) guess=(read,tcheck) s
 table=(opt,rrhf)
 ----------------------------------------------------------------------
 -----
 title
 -----
 Symbolic Z-matrix:
 Charge =  0 Multiplicity = 1

 SCF Done:  E(RHF) =  -359.674442814     A.U. after   14 cycles
 Normal termination of Gaussian 16 at Wed Apr  9 18:34:43 2025.
 Gaussian 16:  ES64L-G16RevC.01  3-Jul-2019

 ----------------------------------------------------------------------
 #t hf aug-cc-pvdz iop(5/13=1,5/36=2,99/5=2) pseudo=read geom=check gue
 ss=(read,tcheck) scf=(maxcycle=1)
 ----------------------------------------------------------------------
 -----
 title
 -----
 Structure from the checkpoint file:  "Grambow2020_wb97xd3_007284_reverse_mol2.chk"
 Charge =  0 Multiplicity = 1

                         Standard orientation:
 ---------------------------------------------------------------------
 Center     Atomic      Atomic             Coordinates (Angstroms)
 Number     Number       Type             X           Y           Z
 ---------------------------------------------------------------------
      1          8           0       -1.316588   -1.568033   -0.106117
      2          6           0       -0.293324   -0.756420    0.393343
      3          6           0        1.097539   -1.005122   -0.185115
      4          7           0        1.767014    0.237372    0.176294
      5          6           0       -1.573287    1.399533   -0.036008
      6          6           0       -0.444226    0.717452    0.090894
      7          8           0        0.780836    1.262707   -0.104286
      8          1           0       -1.569208   -1.236557   -0.972338
      9          1           0       -0.272751   -0.911548    1.474761
     10          1           0        1.611220   -1.847631    0.274742
     11          1           0        1.017509   -1.164665   -1.268989
     12          1           0        2.500186    0.463848   -0.485757
     13          1           0       -1.577743    2.448790   -0.294719
     14          1           0       -2.512497    0.896106    0.142780
 ---------------------------------------------------------------------

 SCF Done:  E(RHF) =  -361.271421270     A.U. after    2 cycles

 The electronic state is 1-A.
 Alpha  occ. eigenvalues --  -21.08841 -21.08564 -15.78247 -11.49511 -11.45316
 Alpha  occ. eigenvalues --  -11.40865 -11.37090  -1.85606  -1.72992  -1.28974
 Alpha  occ. eigenvalues --   -1.16523  -1.02829  -0.89358  -0.78385  -0.70932
 Alpha  occ. eigenvalues --   -0.69693  -0.62045  -0.57778  -0.56180  -0.53909
 Alpha  occ. eigenvalues --   -0.51568  -0.49999  -0.45837  -0.40317  -0.38160
 Alpha  occ. eigenvalues --   -0.32499  -0.25198
 Alpha virt. eigenvalues --    0.03856   0.05178   0.05356   0.05854   0.06349
 Alpha virt. eigenvalues --    0.06482   0.06906   0.10392   0.11127   0.12011
 Alpha virt. eigenvalues --    0.12888   0.13517   0.14279   0.14988   0.15696

 Mulliken charges:
               1
     1  O   -3.076355
     2  C    0.257672
     3  C   -2.816949
     4  N   -0.302289
     5  C   -3.857378
     6  C    4.885442
     7  O   -3.562274
     8  H    0.630355
     9  H    1.414866
    10  H    1.381506
    11  H    1.420851
    12  H    0.712362
    13  H    1.471241
    14  H    1.440950
 Sum of Mulliken charges =   0.00000

 Dipole moment (field-independent basis, Debye):
    X=              1.2362    Y=             -0.8163    Z=             -1.0221  Tot=              1.7998

 Test job not archived.
 1\1\GINC-SE045\SP\RHF\Aug-CC-pVDZ\C4H7N1O2\OHZDE\09-Apr-2025\0\\#t hf
 aug-cc-pvdz iop(5/13=1,5/36=2,99/5=2) pseudo=read geom=check guess=(re
 ad,tcheck) scf=(maxcycle=1)\\title\\0,1\O,0,1.3981954,-0.44770308,1.13
 262178\C,0,0.32032725,0.24537506,0.57307847\C,0,0.67154119,1.26272118,
 -0.50979821\N,0,-0.6246301,1.43123082,-1.15334169\C,0,-0.98928581,-1.8
 7550937,0.0655902\C,0,-0.66605288,-0.61487062,-0.18426933\O,0,-1.15281
 54,0.08351313,-1.23854466\H,0,1.66994877,-1.13254826,0.51523354\H,0,-0
 .18728415,0.75034481,1.39848056\H,0,1.0115489,2.21683508,-0.11077439\H

 Normal termination of Gaussian 16 at Wed Apr  9 18:34:48 2025.
