 Gaussian 16, Revision C.01,

 ----------------------------------------------------------------------
 #t hf aug-cc-pvdz symm=none int=(grid=ultrafine) guess=(read,tcheck) s
 table=(opt,rrhf)
 ----------------------------------------------------------------------
 -----
 title
 -----
 Symbolic Z-matrix:
 Charge =  0 Multiplicity = 1

 SCF Done:  E(RHF) =  -288.036502607     A.U. after   14 cycles

 1\1\GINC-SE186\Stability\RHF\Aug-CC-pVDZ\C6H11N1\OHZDE\09-Apr-2025\0\\
 #t hf aug-cc-pvdz symm=none int=(grid=ultrafine) guess=(read,tcheck) s
 table=(opt,rrhf)\\title\\0,1\C,0,1.80161853,-0.58961993,0.59883324\C,0
 ,0.4554703,0.12153793,0.51919199\C,0,0.49832018,1.30879163,-0.4450804\
 C,0,-0.63779818,-0.78086086,-0.10854436\C,0,-2.02167384,-0.58465866,0.
 51487879\C,0,-0.72552054,-0.41080517,-1.57931567\N,0,-0.09656867,0.728
 83542,-1.66099778\H,0,1.73858697,-1.4726141,1.23783442\H,0,2.57727315,
 0.06396015,1.00414454\H,0,2.12316924,-0.92185288,-0.39216433\H,0,0.162

 Normal termination of Gaussian 16 at Wed Apr  9 03:46:08 2025.
 Gaussian 16:  ES64L-G16RevC.01  3-Jul-2019

 ----------------------------------------------------------------------
 #t hf aug-cc-pvdz iop(5/13=1,5/36=2,99/5=2) pseudo=read geom=check gue
 ss=(read,tcheck) scf=(maxcycle=1)
 ----------------------------------------------------------------------
 -----
 title
 -----
 Structure from the checkpoint file:  "Grambow2020_wb97xd3_007880_reverse_mol2.chk"
 Charge =  0 Multiplicity = 1

                         Standard orientation:
 ---------------------------------------------------------------------
 Center     Atomic      Atomic             Coordinates (Angstroms)
 Number     Number       Type             X           Y           Z
 ---------------------------------------------------------------------
      1          6           0        1.778871   -1.102670   -0.397931
      2          6           0        0.607677   -0.565731    0.417057
      3          6           0        0.813670    0.899371    0.807278
      4          6           0       -0.698284   -0.510160   -0.416604
      5          6           0       -1.953264   -0.841475    0.394270
      6          6           0       -0.832071    0.911818   -0.934179
      7          7           0        0.010273    1.596490   -0.211190
      8          1           0        1.588654   -2.126627   -0.725504
      9          1           0        2.704789   -1.101627    0.181516
     10          1           0        1.939093   -0.494511   -1.292538
     11          1           0        0.475762   -1.181476    1.309682
     12          1           0        0.088822    2.596578   -0.314170
     13          1           0        1.858364    1.214813    0.756177
     14          1           0        0.434587    1.136691    1.804908
     15          1           0       -0.647533   -1.197611   -1.265590
     16          1           0       -2.849783   -0.709951   -0.211808
     17          1           0       -1.921064   -1.872744    0.751352
     18          1           0       -2.043186   -0.185885    1.264956
 ---------------------------------------------------------------------

 SCF Done:  E(RHF) =  -289.471652628     A.U. after    2 cycles

 The electronic state is 1-A.
 Alpha  occ. eigenvalues --  -15.77262 -11.46633 -11.42016 -11.39533 -11.37611
 Alpha  occ. eigenvalues --  -11.37022 -11.34198  -1.47508  -1.20969  -1.11489
 Alpha  occ. eigenvalues --   -1.00390  -0.94227  -0.81758  -0.77865  -0.67820
 Alpha  occ. eigenvalues --   -0.65624  -0.59159  -0.57015  -0.56678  -0.55878
 Alpha  occ. eigenvalues --   -0.49982  -0.46950  -0.46743  -0.45352  -0.42292
 Alpha  occ. eigenvalues --   -0.38636  -0.30517
 Alpha virt. eigenvalues --    0.03766   0.05130   0.05207   0.05339   0.05564
 Alpha virt. eigenvalues --    0.05763   0.06285   0.06895   0.07260   0.08675
 Alpha virt. eigenvalues --    0.08795   0.11510   0.12051   0.12488   0.13279

 Mulliken charges:
               1
     1  C   -3.811278
     2  C   -2.019559
     3  C   -2.422844
     4  C   -0.766417
     5  C   -3.638353
     6  C   -0.326674
     7  N   -2.058278
     8  H    1.239438
     9  H    1.197359
    10  H    1.320894
    11  H    1.880384
    12  H    0.796372
    13  H    1.464315
    14  H    1.403258
    15  H    1.964952
    16  H    1.201714
    17  H    1.281690
    18  H    1.293028
 Sum of Mulliken charges =  -0.00000

 Dipole moment (field-independent basis, Debye):
    X=              2.1787    Y=             -0.0852    Z=              2.3421  Tot=              3.1999

 Test job not archived.
 1\1\GINC-SE186\SP\RHF\Aug-CC-pVDZ\C6H11N1\OHZDE\09-Apr-2025\0\\#t hf a
 ug-cc-pvdz iop(5/13=1,5/36=2,99/5=2) pseudo=read geom=check guess=(rea
 d,tcheck) scf=(maxcycle=1)\\title\\0,1\C,0,1.80161853,-0.58961993,0.59
 883324\C,0,0.4554703,0.12153793,0.51919199\C,0,0.49832018,1.30879163,-
 0.4450804\C,0,-0.63779818,-0.78086086,-0.10854436\C,0,-2.02167384,-0.5
 8465866,0.51487879\C,0,-0.72552054,-0.41080517,-1.57931567\N,0,-0.0965
 6867,0.72883542,-1.66099778\H,0,1.73858697,-1.4726141,1.23783442\H,0,2
 .57727315,0.06396015,1.00414454\H,0,2.12316924,-0.92185288,-0.39216433

 Normal termination of Gaussian 16 at Wed Apr  9 03:46:15 2025.
