 Gaussian 16, Revision C.01,

 ----------------------------------------------------------------------
 #t hf aug-cc-pvdz symm=none int=(grid=ultrafine) guess=(read,tcheck) s
 table=(opt,rrhf)
 ----------------------------------------------------------------------
 -----
 title
 -----
 Symbolic Z-matrix:
 Charge =  0 Multiplicity = 1

 SCF Done:  E(RHF) =  -344.730287338     A.U. after   14 cycles

 1\1\GINC-SE026\Stability\RHF\Aug-CC-pVDZ\C5H10O2\OHZDE\09-Apr-2025\0\\
 #t hf aug-cc-pvdz symm=none int=(grid=ultrafine) guess=(read,tcheck) s
 table=(opt,rrhf)\\title\\0,1\C,0,-2.08077308,-0.45411773,0.53184665\C,
 0,-0.9286021,0.34277081,-0.02136218\O,0,-0.73498023,1.56057507,0.45674
 082\C,0,0.30277714,-0.49888674,-0.37391297\C,0,1.55742685,0.29198266,-
 0.74379743\C,0,2.02517512,-0.08334107,0.66618916\O,0,0.88165936,-0.943
 21622,0.8574629\H,0,-2.96315005,0.17481615,0.62542317\H,0,-2.3013273,-
 1.34215883,-0.06179037\H,0,-1.76512848,-0.76346844,1.5308336\H,0,-1.36

 Normal termination of Gaussian 16 at Wed Apr  9 03:33:59 2025.
 Gaussian 16:  ES64L-G16RevC.01  3-Jul-2019

 ----------------------------------------------------------------------
 #t hf aug-cc-pvdz iop(5/13=1,5/36=2,99/5=2) pseudo=read geom=check gue
 ss=(read,tcheck) scf=(maxcycle=1)
 ----------------------------------------------------------------------
 -----
 title
 -----
 Structure from the checkpoint file:  "Grambow2020_wb97xd3_007054_forward_mol1.chk"
 Charge =  0 Multiplicity = 1

                         Standard orientation:
 ---------------------------------------------------------------------
 Center     Atomic      Atomic             Coordinates (Angstroms)
 Number     Number       Type             X           Y           Z
 ---------------------------------------------------------------------
      1          6           0        2.128442   -0.769499    0.010224
      2          6           0        1.041328    0.263713    0.148877
      3          8           0        0.995883    1.235336   -0.747227
      4          6           0       -0.284794   -0.290269    0.681305
      5          6           0       -1.466230    0.678860    0.643486
      6          6           0       -1.907254   -0.145042   -0.570764
      7          8           0       -0.851293   -1.104294   -0.350810
      8          1           0        3.074323   -0.290684   -0.232569
      9          1           0        2.229577   -1.395226    0.897863
     10          1           0        1.827147   -1.394807   -0.833291
     11          1           0        1.441294    0.926390    1.380824
     12          1           0        1.335031    1.469142    0.575568
     13          1           0       -0.123518   -0.851244    1.608277
     14          1           0       -2.124078    0.601558    1.506364
     15          1           0       -1.210395    1.716822    0.444189
     16          1           0       -1.785407    0.360335   -1.530252
     17          1           0       -2.889644   -0.617203   -0.511440
 ---------------------------------------------------------------------

 SCF Done:  E(RHF) =  -346.350904137     A.U. after    2 cycles

 The electronic state is 1-A.
 Alpha  occ. eigenvalues --  -21.04319 -20.99508 -11.54406 -11.47228 -11.45089
 Alpha  occ. eigenvalues --  -11.39691 -11.37848  -1.78836  -1.68303  -1.15981
 Alpha  occ. eigenvalues --   -1.11723  -1.00973  -0.88484  -0.79251  -0.73230
 Alpha  occ. eigenvalues --   -0.68479  -0.65778  -0.59657  -0.57267  -0.55168
 Alpha  occ. eigenvalues --   -0.52768  -0.51505  -0.45129  -0.42485  -0.36494
 Alpha  occ. eigenvalues --   -0.32098  -0.29881  -0.26123
 Alpha virt. eigenvalues --    0.03953   0.04682   0.04831   0.05118   0.05641
 Alpha virt. eigenvalues --    0.06070   0.06628   0.07407   0.07560   0.09004
 Alpha virt. eigenvalues --    0.11747   0.12382   0.12692   0.13194   0.13598

 Mulliken charges:
               1
     1  C   -4.020441
     2  C    2.733037
     3  O   -3.049216
     4  C    0.423031
     5  C   -3.504966
     6  C   -1.570422
     7  O   -2.899766
     8  H    1.176869
     9  H    1.267033
    10  H    1.174508
    11  H   -0.260340
    12  H    1.296872
    13  H    1.656273
    14  H    1.223774
    15  H    1.446554
    16  H    1.522562
    17  H    1.384637
 Sum of Mulliken charges =  -0.00000

 Dipole moment (field-independent basis, Debye):
    X=             -0.5517    Y=             -0.5620    Z=              0.6276  Tot=              1.0070

 Test job not archived.
 1\1\GINC-SE026\SP\RHF\Aug-CC-pVDZ\C5H10O2\OHZDE\09-Apr-2025\0\\#t hf a
 ug-cc-pvdz iop(5/13=1,5/36=2,99/5=2) pseudo=read geom=check guess=(rea
 d,tcheck) scf=(maxcycle=1)\\title\\0,1\C,0,-2.08077308,-0.45411773,0.5
 3184665\C,0,-0.9286021,0.34277081,-0.02136218\O,0,-0.73498023,1.560575
 07,0.45674082\C,0,0.30277714,-0.49888674,-0.37391297\C,0,1.55742685,0.
 29198266,-0.74379743\C,0,2.02517512,-0.08334107,0.66618916\O,0,0.88165
 936,-0.94321622,0.8574629\H,0,-2.96315005,0.17481615,0.62542317\H,0,-2
 .3013273,-1.34215883,-0.06179037\H,0,-1.76512848,-0.76346844,1.5308336

 Normal termination of Gaussian 16 at Wed Apr  9 03:34:05 2025.
