 Gaussian 16, Revision C.01,

 ----------------------------------------------------------------------
 #t hf aug-cc-pvdz symm=none int=(grid=ultrafine) guess=(read,tcheck) s
 table=(opt,rrhf)
 ----------------------------------------------------------------------
 -----
 title
 -----
 Symbolic Z-matrix:
 Charge =  0 Multiplicity = 1

 SCF Done:  E(RHF) =  -342.402733976     A.U. after   18 cycles
 Normal termination of Gaussian 16 at Wed Apr  9 19:17:00 2025.
 Gaussian 16:  ES64L-G16RevC.01  3-Jul-2019

 ----------------------------------------------------------------------
 #t hf aug-cc-pvdz iop(5/13=1,5/36=2,99/5=2) pseudo=read geom=check gue
 ss=(read,tcheck) scf=(maxcycle=1)
 ----------------------------------------------------------------------
 -----
 title
 -----
 Structure from the checkpoint file:  "Grambow2020_wb97xd3_008530_forward_mol1.chk"
 Charge =  0 Multiplicity = 1

                         Standard orientation:
 ---------------------------------------------------------------------
 Center     Atomic      Atomic             Coordinates (Angstroms)
 Number     Number       Type             X           Y           Z
 ---------------------------------------------------------------------
      1          8           0        1.906106   -0.650812   -0.391853
      2          6           0        0.770687   -0.345120   -0.142321
      3          6           0       -0.295986   -1.229862    0.480205
      4          8           0       -1.532847   -0.647826    0.079652
      5          6           0       -1.270732    0.481362   -0.536900
      6          6           0        0.424101    1.483066    0.830142
      7          6           0        0.065242    1.004723   -0.530643
      8          1           0       -0.220128   -1.216063    1.566215
      9          1           0       -0.277190   -2.252041    0.104003
     10          1           0       -2.126017    0.893404   -1.062674
     11          1           0        1.431311    1.334325    1.187292
     12          1           0       -0.355340    1.741783    1.533325
     13          1           0        0.401429    1.522670   -1.433447
 ---------------------------------------------------------------------

 SCF Done:  E(RHF) =  -343.933493031     A.U. after    2 cycles

 The electronic state is 1-A.
 Alpha  occ. eigenvalues --  -21.16298 -21.03908 -11.55401 -11.52187 -11.46043
 Alpha  occ. eigenvalues --  -11.44452 -11.34785  -1.89527  -1.70012  -1.26150
 Alpha  occ. eigenvalues --   -1.11037  -0.94402  -0.84872  -0.81151  -0.71599
 Alpha  occ. eigenvalues --   -0.68814  -0.59784  -0.58909  -0.57815  -0.53341
 Alpha  occ. eigenvalues --   -0.49831  -0.47883  -0.45307  -0.40806  -0.27981
 Alpha  occ. eigenvalues --   -0.20390
 Alpha virt. eigenvalues --    0.02743   0.04343   0.04501   0.05426   0.06473
 Alpha virt. eigenvalues --    0.06753   0.07332   0.09111   0.09822   0.11362
 Alpha virt. eigenvalues --    0.11774   0.12783   0.13870   0.14606   0.14671

 Mulliken charges:
               1
     1  O   -3.749078
     2  C    5.397314
     3  C   -1.985811
     4  O   -3.287657
     5  C    1.513835
     6  C   -2.148642
     7  C   -3.931106
     8  H    1.491191
     9  H    1.384808
    10  H    1.668689
    11  H    1.139880
    12  H    1.181573
    13  H    1.325003
 Sum of Mulliken charges =  -0.00000

 Dipole moment (field-independent basis, Debye):
    X=             -3.9303    Y=             -2.2961    Z=             -1.2327  Tot=              4.7158

 Test job not archived.
 1\1\GINC-SE135\SP\RHF\Aug-CC-pVDZ\C5H6O2\OHZDE\09-Apr-2025\0\\#t hf au
 g-cc-pvdz iop(5/13=1,5/36=2,99/5=2) pseudo=read geom=check guess=(read
 ,tcheck) scf=(maxcycle=1)\\title\\0,1\O,0,1.03797856,1.7217058,0.93455
 475\C,0,0.59787261,0.77584535,0.33744137\C,0,1.39128515,-0.36824372,-0
 .27055049\O,0,0.54490474,-0.90140192,-1.28465872\C,0,-0.61930489,-0.30
 012739,-1.20103725\C,0,-1.04757918,-0.23897737,1.15640121\C,0,-0.89989
 866,0.56061022,-0.08785775\H,0,1.59411143,-1.13401611,0.47632185\H,0,2
 .31323608,-0.04207004,-0.75049813\H,0,-1.26043302,-0.48229823,-2.05748

 Normal termination of Gaussian 16 at Wed Apr  9 19:17:03 2025.
