 Gaussian 16, Revision C.01,

 ----------------------------------------------------------------------
 #t hf aug-cc-pvdz symm=none int=(grid=ultrafine) guess=(read,tcheck) s
 table=(opt,rrhf)
 ----------------------------------------------------------------------
 -----
 title
 -----
 Symbolic Z-matrix:
 Charge =  0 Multiplicity = 1

 SCF Done:  E(RHF) =  -268.753735344     A.U. after   16 cycles
 Normal termination of Gaussian 16 at Wed Apr  9 03:20:39 2025.
 Gaussian 16:  ES64L-G16RevC.01  3-Jul-2019

 ----------------------------------------------------------------------
 #t hf aug-cc-pvdz iop(5/13=1,5/36=2,99/5=2) pseudo=read geom=check gue
 ss=(read,tcheck) scf=(maxcycle=1)
 ----------------------------------------------------------------------
 -----
 title
 -----
 Structure from the checkpoint file:  "Grambow2020_wb97xd3_006049_reverse_mol2.chk"
 Charge =  0 Multiplicity = 1

                         Standard orientation:
 ---------------------------------------------------------------------
 Center     Atomic      Atomic             Coordinates (Angstroms)
 Number     Number       Type             X           Y           Z
 ---------------------------------------------------------------------
      1          6           0       -1.692166   -1.160160   -0.003554
      2          8           0       -1.834842    0.264636    0.012527
      3          6           0       -0.815613    1.073159    0.003470
      4          6           0        0.537743    0.846050   -0.015191
      5          6           0        1.133831   -0.425049   -0.027469
      6          6           0        2.616276   -0.376056    0.003833
      7          1           0       -1.119022   -1.490441    0.860182
      8          1           0       -2.712059   -1.539251    0.011969
      9          1           0       -1.153785   -1.473280   -0.895511
     10          1           0        1.121149    1.775952   -0.021530
     11          1           0       -1.173765    2.101254    0.016373
     12          1           0        3.085878    0.607467   -0.155171
     13          1           0        2.904645   -0.736764    1.000303
     14          1           0        3.045271   -1.109690   -0.683364
 ---------------------------------------------------------------------

 SCF Done:  E(RHF) =  -270.012610276     A.U. after    2 cycles

 The electronic state is 1-A.
 Alpha  occ. eigenvalues --  -21.11227 -11.50158 -11.41295 -11.39444 -11.37034
 Alpha  occ. eigenvalues --  -11.34579  -1.82629  -1.20046  -1.07588  -1.00168
 Alpha  occ. eigenvalues --   -0.84474  -0.71095  -0.69640  -0.62225  -0.60151
 Alpha  occ. eigenvalues --   -0.56973  -0.54559  -0.53291  -0.47768  -0.47532
 Alpha  occ. eigenvalues --   -0.40398  -0.31456  -0.29592
 Alpha virt. eigenvalues --    0.03616   0.05137   0.05297   0.06314   0.06743
 Alpha virt. eigenvalues --    0.06870   0.07332   0.08238   0.08398   0.10130
 Alpha virt. eigenvalues --    0.12113   0.12901   0.13457   0.13758   0.13876

 Mulliken charges:
               1
     1  C   -3.334229
     2  O   -3.557880
     3  C    0.844472
     4  C    0.227403
     5  C   -0.676827
     6  C   -4.631883
     7  H    1.462873
     8  H    1.253912
     9  H    1.467398
    10  H    1.448609
    11  H    1.761449
    12  H    1.277896
    13  H    1.232316
    14  H    1.224492
 Sum of Mulliken charges =  -0.00000

 Dipole moment (field-independent basis, Debye):
    X=             -2.2475    Y=              0.9973    Z=              0.0907  Tot=              2.4605

 Test job not archived.
 1\1\GINC-SE016\SP\RHF\Aug-CC-pVDZ\C5H8O1\OHZDE\09-Apr-2025\0\\#t hf au
 g-cc-pvdz iop(5/13=1,5/36=2,99/5=2) pseudo=read geom=check guess=(read
 ,tcheck) scf=(maxcycle=1)\\title\\0,1\C,0,-2.15705677,0.47401187,-0.15
 112138\O,0,-1.93863426,-0.84051192,-0.6755026\C,0,-0.74988466,-1.34276
 164,-0.84054779\C,0,0.50320502,-0.83635741,-0.60217557\C,0,0.76222405,
 0.44376307,-0.08703869\C,0,2.21012629,0.74805853,0.02252349\H,0,-1.670
 95256,1.21578821,-0.78127202\H,0,-3.23895996,0.59028259,-0.14118545\H,
 0,-1.72844001,0.55645485,0.84536078\H,0,1.30043094,-1.54648408,-0.8576

 Normal termination of Gaussian 16 at Wed Apr  9 03:20:43 2025.
