 Gaussian 16, Revision C.01,

 ----------------------------------------------------------------------
 #t hf aug-cc-pvdz symm=none int=(grid=ultrafine) guess=(read,tcheck) s
 table=(opt,rrhf)
 ----------------------------------------------------------------------
 -----
 title
 -----
 Symbolic Z-matrix:
 Charge =  0 Multiplicity = 1

 SCF Done:  E(RHF) =  -338.544082458     A.U. after   16 cycles
 Normal termination of Gaussian 16 at Wed Apr  9 03:52:35 2025.
 Gaussian 16:  ES64L-G16RevC.01  3-Jul-2019

 ----------------------------------------------------------------------
 #t hf aug-cc-pvdz iop(5/13=1,5/36=2,99/5=2) pseudo=read geom=check gue
 ss=(read,tcheck) scf=(maxcycle=1)
 ----------------------------------------------------------------------
 -----
 title
 -----
 Structure from the checkpoint file:  "Grambow2020_wb97xd3_008309_forward_mol1.chk"
 Charge =  0 Multiplicity = 1

                         Standard orientation:
 ---------------------------------------------------------------------
 Center     Atomic      Atomic             Coordinates (Angstroms)
 Number     Number       Type             X           Y           Z
 ---------------------------------------------------------------------
      1          6           0        2.380670    0.177418   -0.134017
      2          8           0        1.444781   -0.666526    0.001918
      3          6           0        0.146354   -0.260588   -0.080658
      4          6           0       -0.248969    1.069984   -0.193488
      5          7           0       -1.602474    0.867756   -0.058896
      6          6           0       -1.901000   -0.463349    0.071112
      7          7           0       -0.828291   -1.199525    0.070349
      8          1           0        2.183094    1.115046   -0.641173
      9          1           0        3.372503   -0.201846    0.075778
     10          1           0        1.787944    1.336041    1.362027
     11          1           0        1.049684    1.499585    1.085449
     12          1           0       -2.286336    1.601452   -0.108577
     13          1           0       -2.912116   -0.836482    0.153294
 ---------------------------------------------------------------------

 SCF Done:  E(RHF) =  -340.108448533     A.U. after    2 cycles

 The electronic state is 1-A.
 Alpha  occ. eigenvalues --  -21.19793 -15.77070 -15.71262 -11.53514 -11.42530
 Alpha  occ. eigenvalues --  -11.40184 -11.33668  -1.91141  -1.53531  -1.25602
 Alpha  occ. eigenvalues --   -1.07131  -0.98656  -0.84101  -0.79974  -0.72878
 Alpha  occ. eigenvalues --   -0.69056  -0.66201  -0.60424  -0.57675  -0.53777
 Alpha  occ. eigenvalues --   -0.51404  -0.45725  -0.40381  -0.35214  -0.31325
 Alpha  occ. eigenvalues --   -0.28810
 Alpha virt. eigenvalues --    0.02839   0.04884   0.05078   0.06013   0.06606
 Alpha virt. eigenvalues --    0.07125   0.09013   0.09837   0.11058   0.11701
 Alpha virt. eigenvalues --    0.12198   0.12692   0.13583   0.14117   0.15580

 Mulliken charges:
               1
     1  C   -1.687335
     2  O   -3.691487
     3  C    5.834197
     4  C   -1.103393
     5  N   -2.700948
     6  C    0.760550
     7  N   -3.099922
     8  H    1.669273
     9  H    1.610853
    10  H    0.697986
    11  H   -0.614652
    12  H    0.819658
    13  H    1.505219
 Sum of Mulliken charges =   0.00000

 Dipole moment (field-independent basis, Debye):
    X=              1.2766    Y=             -0.0897    Z=             -0.1230  Tot=              1.2856

 Test job not archived.
 1\1\GINC-SE123\SP\RHF\Aug-CC-pVDZ\C4H6N2O1\OHZDE\09-Apr-2025\0\\#t hf
 aug-cc-pvdz iop(5/13=1,5/36=2,99/5=2) pseudo=read geom=check guess=(re
 ad,tcheck) scf=(maxcycle=1)\\title\\0,1\C,0,2.20920423,-0.06931548,-0.
 26119099\O,0,1.20889438,0.33848324,-0.92428033\C,0,-0.02518003,0.36327
 21,-0.34638513\C,0,-0.30395599,-0.14671945,0.9191686\N,0,-1.67090009,-
 0.003927,0.87378049\C,0,-2.07691845,0.57328788,-0.3008826\N,0,-1.07261
 59,0.80932071,-1.09355266\H,0,2.16625885,-0.06923774,0.82211219\H,0,3.
 12183456,-0.18084941,-0.83237729\H,0,1.44674399,-1.8597893,0.11925045\

 Normal termination of Gaussian 16 at Wed Apr  9 03:52:39 2025.
