 Gaussian 16, Revision C.01,

 ----------------------------------------------------------------------
 #t hf aug-cc-pvdz symm=none int=(grid=ultrafine) guess=(read,tcheck) s
 table=(opt,rrhf)
 ----------------------------------------------------------------------
 -----
 title
 -----
 Symbolic Z-matrix:
 Charge =  0 Multiplicity = 1

 SCF Done:  E(RHF) =  -359.731297793     A.U. after   14 cycles
 Normal termination of Gaussian 16 at Wed Apr  9 18:07:41 2025.
 Gaussian 16:  ES64L-G16RevC.01  3-Jul-2019

 ----------------------------------------------------------------------
 #t hf aug-cc-pvdz iop(5/13=1,5/36=2,99/5=2) pseudo=read geom=check gue
 ss=(read,tcheck) scf=(maxcycle=1)
 ----------------------------------------------------------------------
 -----
 title
 -----
 Structure from the checkpoint file:  "Grambow2020_wb97xd3_006600_reverse_mol2.chk"
 Charge =  0 Multiplicity = 1

                         Standard orientation:
 ---------------------------------------------------------------------
 Center     Atomic      Atomic             Coordinates (Angstroms)
 Number     Number       Type             X           Y           Z
 ---------------------------------------------------------------------
      1          6           0        1.532111    1.336301   -0.331134
      2          7           0       -2.129361    1.381874    0.030509
      3          6           0       -1.692366    0.322677    0.068956
      4          6           0       -1.160963   -1.052571    0.088283
      5          8           0        0.044347   -1.181946   -0.613707
      6          6           0        1.196609   -0.937884    0.161349
      7          8           0        1.276414    0.349889    0.653167
      8          1           0        0.719273    1.398668   -1.058452
      9          1           0        1.614702    2.287031    0.190393
     10          1           0        2.472306    1.124219   -0.852619
     11          1           0       -1.894503   -1.699316   -0.395294
     12          1           0       -1.059122   -1.367039    1.133146
     13          1           0        2.030888   -1.174741   -0.507568
     14          1           0        1.203556   -1.596624    1.036429
 ---------------------------------------------------------------------

 SCF Done:  E(RHF) =  -361.327651034     A.U. after    2 cycles

 The electronic state is 1-A.
 Alpha  occ. eigenvalues --  -21.08145 -21.06433 -15.76178 -11.49709 -11.46363
 Alpha  occ. eigenvalues --  -11.42794 -11.40595  -1.84804  -1.72317  -1.31051
 Alpha  occ. eigenvalues --   -1.09817  -1.01847  -0.89640  -0.74235  -0.71906
 Alpha  occ. eigenvalues --   -0.66609  -0.63296  -0.62130  -0.56876  -0.54602
 Alpha  occ. eigenvalues --   -0.51924  -0.48239  -0.44227  -0.43587  -0.38849
 Alpha  occ. eigenvalues --   -0.34575  -0.31210
 Alpha virt. eigenvalues --    0.03330   0.05038   0.05233   0.05306   0.05938
 Alpha virt. eigenvalues --    0.06965   0.07848   0.08602   0.10510   0.11942
 Alpha virt. eigenvalues --    0.12129   0.13789   0.14158   0.14427   0.14990

 Mulliken charges:
               1
     1  C   -2.869378
     2  N   -2.326379
     3  C    2.188620
     4  C   -1.443223
     5  O   -2.833461
     6  C    0.246546
     7  O   -2.871771
     8  H    1.424580
     9  H    1.230080
    10  H    1.336865
    11  H    1.281041
    12  H    1.576719
    13  H    1.582272
    14  H    1.477489
 Sum of Mulliken charges =  -0.00000

 Dipole moment (field-independent basis, Debye):
    X=              1.8889    Y=             -2.6276    Z=              0.1096  Tot=              3.2380

 Test job not archived.
 1\1\GINC-SE041\SP\RHF\Aug-CC-pVDZ\C4H7N1O2\OHZDE\09-Apr-2025\0\\#t hf
 aug-cc-pvdz iop(5/13=1,5/36=2,99/5=2) pseudo=read geom=check guess=(re
 ad,tcheck) scf=(maxcycle=1)\\title\\0,1\C,0,1.31846733,-1.17171906,-0.
 91730571\N,0,1.55309979,2.05778701,0.83040196\C,0,0.47170533,1.7554917
 5,0.59900321\C,0,-0.92616376,1.40760903,0.28434627\O,0,-1.04257707,0.5
 7580405,-0.83674672\C,0,-0.97352837,-0.80228643,-0.5467724\O,0,0.23353
 787,-1.19954234,-0.00659555\H,0,1.52483742,-0.15707915,-1.26588145\H,0
 ,2.18797044,-1.54630065,-0.38218806\H,0,1.11431395,-1.81836054,-1.7781

 Normal termination of Gaussian 16 at Wed Apr  9 18:07:46 2025.
