 Gaussian 16, Revision C.01,

 ----------------------------------------------------------------------
 #t hf aug-cc-pvdz symm=none int=(grid=ultrafine) guess=(read,tcheck) s
 table=(opt,rrhf)
 ----------------------------------------------------------------------
 -----
 title
 -----
 Symbolic Z-matrix:
 Charge =  0 Multiplicity = 1

 SCF Done:  E(RHF) =  -281.569151288     A.U. after   15 cycles
 Normal termination of Gaussian 16 at Wed Apr  9 03:07:35 2025.
 Gaussian 16:  ES64L-G16RevC.01  3-Jul-2019

 ----------------------------------------------------------------------
 #t hf aug-cc-pvdz iop(5/13=1,5/36=2,99/5=2) pseudo=read geom=check gue
 ss=(read,tcheck) scf=(maxcycle=1)
 ----------------------------------------------------------------------
 -----
 title
 -----
 Structure from the checkpoint file:  "Grambow2020_b97d3_006582_forward_mol1.chk"
 Charge =  0 Multiplicity = 1

                         Standard orientation:
 ---------------------------------------------------------------------
 Center     Atomic      Atomic             Coordinates (Angstroms)
 Number     Number       Type             X           Y           Z
 ---------------------------------------------------------------------
      1          8           0        2.320878   -0.239661   -0.000500
      2          6           0        1.270928    0.369635    0.000004
      3          7           0        0.015127   -0.254836    0.000905
      4          6           0       -1.160849    0.432679    0.000106
      5          8           0       -2.274896   -0.280251   -0.000673
      6          1           0        1.169647    1.471920   -0.000085
      7          1           0       -0.008870   -1.284525    0.001500
      8          1           0       -2.294991    0.941876    0.000973
 ---------------------------------------------------------------------

 SCF Done:  E(RHF) =  -282.766404585     A.U. after    2 cycles

 The electronic state is 1-A.
 Alpha  occ. eigenvalues --  -21.09946 -21.07980 -15.82244 -11.52131 -11.49367
 Alpha  occ. eigenvalues --   -1.76699  -1.73478  -1.41244  -0.93130  -0.86169
 Alpha  occ. eigenvalues --   -0.73569  -0.66590  -0.59773  -0.56622  -0.49349
 Alpha  occ. eigenvalues --   -0.46764  -0.35119  -0.34154  -0.30160
 Alpha virt. eigenvalues --    0.03779   0.05202   0.05922   0.08861   0.10436
 Alpha virt. eigenvalues --    0.11543   0.11830   0.12252   0.14099   0.14360
 Alpha virt. eigenvalues --    0.15805   0.16564   0.17713   0.18475   0.21231

 Mulliken charges:
               1
     1  O   -2.538743
     2  C    1.817886
     3  N   -2.207375
     4  C    1.141337
     5  O   -1.919051
     6  H    1.620912
     7  H    0.596537
     8  H    1.488496
 Sum of Mulliken charges =  -0.00000

 Dipole moment (field-independent basis, Debye):
    X=             -1.1123    Y=             -0.7502    Z=              0.0016  Tot=              1.3416

 Test job not archived.
 1\1\GINC-SE227\SP\RHF\Aug-CC-pVDZ\C2H3N1O2\OHZDE\09-Apr-2025\0\\#t hf
 aug-cc-pvdz iop(5/13=1,5/36=2,99/5=2) pseudo=read geom=check guess=(re
 ad,tcheck) scf=(maxcycle=1)\\title\\0,1\O,0,-2.45160553,0.28573894,0.0
 9576616\C,0,-1.37435159,-0.1352247,-0.27294924\N,0,-0.15374207,0.27018
 905,0.28629281\C,0,1.05315139,-0.20370932,-0.13135018\O,0,2.12810731,0
 .26389682,0.4811733\H,0,-1.21812303,-0.87678823,-1.07977442\H,0,-0.181
 46653,0.96126411,1.04949838\H,0,2.20930105,-0.55859467,-0.41933582\\Ve
 rsion=ES64L-G16RevC.01\State=1-A\HF=-282.7664046\RMSD=5.675e-02\Dipole

 Normal termination of Gaussian 16 at Wed Apr  9 03:07:37 2025.
