 Gaussian 16, Revision C.01,

 ----------------------------------------------------------------------
 #t hf aug-cc-pvdz symm=none int=(grid=ultrafine) guess=(read,tcheck) s
 table=(opt,rrhf)
 ----------------------------------------------------------------------
 -----
 title
 -----
 Symbolic Z-matrix:
 Charge =  0 Multiplicity = 1

 SCF Done:  E(RHF) =  -343.563269925     A.U. after   18 cycles
 Normal termination of Gaussian 16 at Wed Apr  9 18:55:54 2025.
 Gaussian 16:  ES64L-G16RevC.01  3-Jul-2019

 ----------------------------------------------------------------------
 #t hf aug-cc-pvdz iop(5/13=1,5/36=2,99/5=2) pseudo=read geom=check gue
 ss=(read,tcheck) scf=(maxcycle=1)
 ----------------------------------------------------------------------
 -----
 title
 -----
 Structure from the checkpoint file:  "Grambow2020_wb97xd3_007803_forward_mol1.chk"
 Charge =  0 Multiplicity = 1

                         Standard orientation:
 ---------------------------------------------------------------------
 Center     Atomic      Atomic             Coordinates (Angstroms)
 Number     Number       Type             X           Y           Z
 ---------------------------------------------------------------------
      1          6           0        2.210356   -0.561091   -0.054663
      2          6           0        0.792517   -0.013645    0.039043
      3          6           0        0.542429    1.263212   -0.673851
      4          6           0       -0.320833   -0.955369   -0.433345
      5          6           0       -1.458365   -0.004081   -0.142701
      6          8           0       -2.586586   -0.136225    0.143830
      7          8           0        0.375189    0.408926    1.265681
      8          1           0        2.287423   -1.410542    0.625831
      9          1           0        2.473055   -0.886232   -1.064414
     10          1           0        2.920937    0.196614    0.275064
     11          1           0        0.179262    1.379489   -1.694555
     12          1           0       -1.010632    1.111929   -0.341919
     13          1           0        0.960703    2.143669   -0.201849
     14          1           0       -0.309423   -1.256836   -1.487664
     15          1           0       -0.406763   -1.833854    0.206524
 ---------------------------------------------------------------------

 SCF Done:  E(RHF) =  -345.141073980     A.U. after    2 cycles

 The electronic state is 1-A.
 Alpha  occ. eigenvalues --  -21.10300 -20.93793 -11.53848 -11.53376 -11.46577
 Alpha  occ. eigenvalues --  -11.43156 -11.38846  -1.75721  -1.63453  -1.21865
 Alpha  occ. eigenvalues --   -1.08212  -1.05166  -0.84810  -0.80052  -0.69930
 Alpha  occ. eigenvalues --   -0.65347  -0.62362  -0.60649  -0.57895  -0.56913
 Alpha  occ. eigenvalues --   -0.51500  -0.48924  -0.45732  -0.38444  -0.33936
 Alpha  occ. eigenvalues --   -0.23942  -0.22837
 Alpha virt. eigenvalues --    0.01123   0.04054   0.04388   0.04875   0.05312
 Alpha virt. eigenvalues --    0.05998   0.06135   0.07115   0.08090   0.10467
 Alpha virt. eigenvalues --    0.11456   0.12720   0.13038   0.13207   0.13982

 Mulliken charges:
               1
     1  C   -5.111281
     2  C    5.681570
     3  C   -3.295502
     4  C   -4.454747
     5  C    3.769623
     6  O   -3.283303
     7  O   -3.387768
     8  H    1.144483
     9  H    1.250945
    10  H    1.162837
    11  H    1.236733
    12  H    1.373346
    13  H    1.375821
    14  H    1.268129
    15  H    1.269115
 Sum of Mulliken charges =   0.00000

 Dipole moment (field-independent basis, Debye):
    X=              0.2512    Y=              0.2939    Z=             -3.1193  Tot=              3.1432

 Test job not archived.
 1\1\GINC-SE173\SP\RHF\Aug-CC-pVDZ\C5H8O2\OHZDE\09-Apr-2025\0\\#t hf au
 g-cc-pvdz iop(5/13=1,5/36=2,99/5=2) pseudo=read geom=check guess=(read
 ,tcheck) scf=(maxcycle=1)\\title\\0,1\C,0,-1.15347005,1.17305319,-0.83
 687251\C,0,-0.17606915,0.39792101,0.03639966\C,0,-0.75933824,-0.702848
 73,0.84214771\C,0,1.01614305,-0.23316017,-0.69154841\C,0,1.64553359,-0
 .8371426,0.54233776\O,0,2.74158988,-1.10410259,0.85830878\O,0,0.386939
 4,1.07189112,1.07858672\H,0,-0.62355173,2.0314852,-1.25263557\H,0,-1.5
 5920917,0.57230877,-1.65467937\H,0,-1.97399838,1.55040798,-0.2268733\H

 Normal termination of Gaussian 16 at Wed Apr  9 18:55:59 2025.
