 Gaussian 16, Revision C.01,

 ----------------------------------------------------------------------
 #t hf aug-cc-pvdz symm=none int=(grid=ultrafine) guess=(read,tcheck) s
 table=(opt,rrhf)
 ----------------------------------------------------------------------
 -----
 title
 -----
 Symbolic Z-matrix:
 Charge =  0 Multiplicity = 1

 SCF Done:  E(RHF) =  -323.932038930     A.U. after   14 cycles
 Normal termination of Gaussian 16 at Wed Apr  9 18:24:25 2025.
 Gaussian 16:  ES64L-G16RevC.01  3-Jul-2019

 ----------------------------------------------------------------------
 #t hf aug-cc-pvdz iop(5/13=1,5/36=2,99/5=2) pseudo=read geom=check gue
 ss=(read,tcheck) scf=(maxcycle=1)
 ----------------------------------------------------------------------
 -----
 title
 -----
 Structure from the checkpoint file:  "Grambow2020_wb97xd3_006970_forward_mol2.chk"
 Charge =  0 Multiplicity = 1

                         Standard orientation:
 ---------------------------------------------------------------------
 Center     Atomic      Atomic             Coordinates (Angstroms)
 Number     Number       Type             X           Y           Z
 ---------------------------------------------------------------------
      1          6           0       -2.247520   -1.187438   -0.121518
      2          6           0       -0.878857   -0.775618    0.404169
      3          6           0       -0.327878    0.472032   -0.274726
      4          8           0       -1.131889    1.614288   -0.045656
      5          6           0        1.051571    0.866391    0.255486
      6          6           0        2.062011   -0.153202   -0.002199
      7          7           0        2.843247   -0.965251   -0.216583
      8          1           0       -2.224647   -1.350029   -1.202190
      9          1           0       -2.580414   -2.115337    0.344104
     10          1           0       -3.010814   -0.435520    0.095376
     11          1           0       -0.167761   -1.592388    0.252352
     12          1           0       -0.930386   -0.588256    1.481313
     13          1           0       -0.241848    0.284359   -1.354588
     14          1           0       -2.002351    1.461215   -0.417062
     15          1           0        0.990302    1.046424    1.331247
     16          1           0        1.364340    1.799001   -0.216500
 ---------------------------------------------------------------------

 SCF Done:  E(RHF) =  -325.448133448     A.U. after    2 cycles

 The electronic state is 1-A.
 Alpha  occ. eigenvalues --  -21.08573 -15.75667 -11.48563 -11.46476 -11.42614
 Alpha  occ. eigenvalues --  -11.40931 -11.37432  -1.74148  -1.32436  -1.22216
 Alpha  occ. eigenvalues --   -1.12566  -0.96168  -0.85061  -0.73536  -0.66966
 Alpha  occ. eigenvalues --   -0.63801  -0.63015  -0.59031  -0.56639  -0.51551
 Alpha  occ. eigenvalues --   -0.50589  -0.49402  -0.48210  -0.43753  -0.43010
 Alpha  occ. eigenvalues --   -0.41310  -0.33585
 Alpha virt. eigenvalues --    0.03625   0.04736   0.05099   0.05365   0.05814
 Alpha virt. eigenvalues --    0.06137   0.06502   0.08280   0.08466   0.10101
 Alpha virt. eigenvalues --    0.11445   0.12255   0.12979   0.13799   0.14114

 Mulliken charges:
               1
     1  C   -3.884796
     2  C   -2.992762
     3  C    1.725326
     4  O   -3.275848
     5  C   -3.715741
     6  C    2.588173
     7  N   -2.549886
     8  H    1.249422
     9  H    1.098948
    10  H    1.351472
    11  H    1.483282
    12  H    1.419239
    13  H    1.873673
    14  H    0.749588
    15  H    1.457413
    16  H    1.422496
 Sum of Mulliken charges =   0.00000

 Dipole moment (field-independent basis, Debye):
    X=             -3.0846    Y=              1.5301    Z=              0.2723  Tot=              3.4540

 Test job not archived.
 1\1\GINC-SE454\SP\RHF\Aug-CC-pVDZ\C5H9N1O1\OHZDE\09-Apr-2025\0\\#t hf
 aug-cc-pvdz iop(5/13=1,5/36=2,99/5=2) pseudo=read geom=check guess=(re
 ad,tcheck) scf=(maxcycle=1)\\title\\0,1\C,0,2.09207392,-0.02652269,0.0
 3583648\C,0,0.66954468,0.13649475,0.55450447\C,0,-0.38916717,-0.238916
 7,-0.47471969\O,0,-0.323366,-1.60269651,-0.84812175\C,0,-1.81213491,-0
 .05918154,0.05667793\C,0,-2.11457094,1.32886302,0.38656355\N,0,-2.3346
 782,2.42628008,0.63744419\H,0,2.2528717,0.56093452,-0.87182398\H,0,2.8
 1769589,0.30812571,0.77752502\H,0,2.32812037,-1.07061916,-0.18594432\H

 Normal termination of Gaussian 16 at Wed Apr  9 18:24:30 2025.
