 Gaussian 16, Revision C.01,

 ----------------------------------------------------------------------
 #t hf aug-cc-pvdz symm=none int=(grid=ultrafine) guess=(read,tcheck) s
 table=(opt,rrhf)
 ----------------------------------------------------------------------
 -----
 title
 -----
 Symbolic Z-matrix:
 Charge =  0 Multiplicity = 1

 SCF Done:  E(RHF) =  -323.713625660     A.U. after   15 cycles
 Normal termination of Gaussian 16 at Wed Apr  9 18:45:45 2025.
 Gaussian 16:  ES64L-G16RevC.01  3-Jul-2019

 ----------------------------------------------------------------------
 #t hf aug-cc-pvdz iop(5/13=1,5/36=2,99/5=2) pseudo=read geom=check gue
 ss=(read,tcheck) scf=(maxcycle=1)
 ----------------------------------------------------------------------
 -----
 title
 -----
 Structure from the checkpoint file:  "Grambow2020_wb97xd3_007612_forward_mol1.chk"
 Charge =  0 Multiplicity = 1

                         Standard orientation:
 ---------------------------------------------------------------------
 Center     Atomic      Atomic             Coordinates (Angstroms)
 Number     Number       Type             X           Y           Z
 ---------------------------------------------------------------------
      1          6           0       -2.653413   -0.901972   -0.164277
      2          6           0       -1.674137    0.183872   -0.507432
      3          7           0       -1.322971    1.132227    0.583092
      4          6           0       -0.339004    0.236679    0.075537
      5          6           0        0.649546   -0.515510    0.653593
      6          6           0        2.370894    0.150753   -0.252987
      7          8           0        3.415809   -0.293291   -0.159420
      8          1           0       -2.481918   -1.254373    0.852851
      9          1           0       -3.678731   -0.533226   -0.235334
     10          1           0       -2.547204   -1.745901   -0.849236
     11          1           0       -1.795038    0.620064   -1.495969
     12          1           0       -1.218853    2.078147    0.234699
     13          1           0        0.462939    1.028628   -0.998898
     14          1           0        0.789291   -1.540913    0.331981
     15          1           0        0.974490   -0.280519    1.659742
     16          1           0        1.306025    1.125892   -1.132734
 ---------------------------------------------------------------------

 SCF Done:  E(RHF) =  -325.275403802     A.U. after    2 cycles

 The electronic state is 1-A.
 Alpha  occ. eigenvalues --  -21.14333 -15.74508 -11.52297 -11.49590 -11.44516
 Alpha  occ. eigenvalues --  -11.40931 -11.38241  -1.78006  -1.47348  -1.10436
 Alpha  occ. eigenvalues --   -1.09168  -0.88570  -0.79847  -0.77905  -0.70122
 Alpha  occ. eigenvalues --   -0.62170  -0.61269  -0.58972  -0.56959  -0.53808
 Alpha  occ. eigenvalues --   -0.52605  -0.50196  -0.46140  -0.44423  -0.41721
 Alpha  occ. eigenvalues --   -0.37130  -0.28196
 Alpha virt. eigenvalues --    0.03838   0.05199   0.05524   0.05659   0.06170
 Alpha virt. eigenvalues --    0.06511   0.06877   0.07205   0.09806   0.10424
 Alpha virt. eigenvalues --    0.11330   0.11766   0.12848   0.13476   0.13547

 Mulliken charges:
               1
     1  C   -4.290021
     2  C   -0.772084
     3  N   -2.361914
     4  C    3.637931
     5  C   -4.276267
     6  C    1.482399
     7  O   -2.025988
     8  H    1.239379
     9  H    1.133893
    10  H    1.205979
    11  H    1.413801
    12  H    0.580659
    13  H   -0.108068
    14  H    1.141582
    15  H    1.131872
    16  H    0.866846
 Sum of Mulliken charges =   0.00000

 Dipole moment (field-independent basis, Debye):
    X=              0.5381    Y=             -0.5501    Z=             -0.4927  Tot=              0.9137

 Test job not archived.
 1\1\GINC-SE029\SP\RHF\Aug-CC-pVDZ\C5H9N1O1\OHZDE\09-Apr-2025\0\\#t hf
 aug-cc-pvdz iop(5/13=1,5/36=2,99/5=2) pseudo=read geom=check guess=(re
 ad,tcheck) scf=(maxcycle=1)\\title\\0,1\C,0,-1.98247907,0.35320503,1.2
 1982979\C,0,-1.30671998,0.04538401,-0.08569352\N,0,-0.69797257,1.19468
 63,-0.80712775\C,0,0.13444132,0.17566312,-0.26261972\C,0,1.33669783,0.
 18117683,0.39443346\C,0,2.54976634,-0.98675853,-0.78591505\O,0,3.60188
 587,-1.35131027,-0.54524141\H,0,-1.42881998,1.12359914,1.75658007\H,0,
 -3.00048991,0.7108134,1.0522919\H,0,-2.03447453,-0.54018796,1.84577724

 Normal termination of Gaussian 16 at Wed Apr  9 18:45:50 2025.
