 Gaussian 16, Revision C.01,

 ----------------------------------------------------------------------
 #t hf aug-cc-pvdz symm=none int=(grid=ultrafine) guess=(read,tcheck) s
 table=(opt,rrhf)
 ----------------------------------------------------------------------
 -----
 title
 -----
 Symbolic Z-matrix:
 Charge =  0 Multiplicity = 1

 SCF Done:  E(RHF) =  -306.553368670     A.U. after   17 cycles
 Normal termination of Gaussian 16 at Wed Apr  9 18:35:36 2025.
 Gaussian 16:  ES64L-G16RevC.01  3-Jul-2019

 ----------------------------------------------------------------------
 #t hf aug-cc-pvdz iop(5/13=1,5/36=2,99/5=2) pseudo=read geom=check gue
 ss=(read,tcheck) scf=(maxcycle=1)
 ----------------------------------------------------------------------
 -----
 title
 -----
 Structure from the checkpoint file:  "Grambow2020_wb97xd3_007301_reverse_mol1.chk"
 Charge =  0 Multiplicity = 1

                         Standard orientation:
 ---------------------------------------------------------------------
 Center     Atomic      Atomic             Coordinates (Angstroms)
 Number     Number       Type             X           Y           Z
 ---------------------------------------------------------------------
      1          6           0       -0.285116    1.566430    0.082611
      2          6           0       -1.649154    0.922624    0.034828
      3          6           0       -1.140672   -0.524278   -0.059464
      4          8           0       -1.716504   -1.552910    0.110579
      5          6           0        0.309618   -0.231896   -0.267310
      6          6           0        1.479495   -0.845845   -0.034215
      7          6           0        2.717848   -0.053757    0.089994
      8          1           0        0.386483    0.627071   -1.017644
      9          1           0        0.133067    1.764052    1.062877
     10          1           0       -0.076197    2.378007   -0.610986
     11          1           0       -2.242096    1.201053   -0.837049
     12          1           0       -2.250142    1.067200    0.931830
     13          1           0        3.005510   -0.098542    1.147014
     14          1           0        3.542773   -0.524674   -0.447370
     15          1           0        2.640517    1.009441   -0.191966
 ---------------------------------------------------------------------

 SCF Done:  E(RHF) =  -308.001837269     A.U. after    2 cycles

 The electronic state is 1-A.
 Alpha  occ. eigenvalues --  -21.05372 -11.53829 -11.48307 -11.42771 -11.41320
 Alpha  occ. eigenvalues --  -11.39973 -11.37523  -1.71125  -1.32708  -1.15735
 Alpha  occ. eigenvalues --   -1.01082  -0.94948  -0.83671  -0.71854  -0.65598
 Alpha  occ. eigenvalues --   -0.62962  -0.60861  -0.57605  -0.56306  -0.55597
 Alpha  occ. eigenvalues --   -0.50917  -0.47832  -0.46103  -0.35446  -0.29247
 Alpha  occ. eigenvalues --   -0.28270
 Alpha virt. eigenvalues --    0.02407   0.04410   0.04735   0.05149   0.05315
 Alpha virt. eigenvalues --    0.05737   0.06869   0.07504   0.08782   0.10142
 Alpha virt. eigenvalues --    0.10717   0.11415   0.12894   0.13474   0.13825

 Mulliken charges:
               1
     1  C   -2.730906
     2  C   -3.647625
     3  C    4.266735
     4  O   -3.338052
     5  C    1.066191
     6  C   -2.103916
     7  C   -4.521063
     8  H    2.044802
     9  H    1.411756
    10  H    1.121759
    11  H    1.338458
    12  H    1.293134
    13  H    1.225687
    14  H    1.230704
    15  H    1.342335
 Sum of Mulliken charges =   0.00000

 Dipole moment (field-independent basis, Debye):
    X=             -0.2999    Y=              4.4984    Z=             -0.2077  Tot=              4.5132

 Test job not archived.
 1\1\GINC-SE115\SP\RHF\Aug-CC-pVDZ\C6H8O1\OHZDE\09-Apr-2025\0\\#t hf au
 g-cc-pvdz iop(5/13=1,5/36=2,99/5=2) pseudo=read geom=check guess=(read
 ,tcheck) scf=(maxcycle=1)\\title\\0,1\C,0,-0.97912183,-0.49465606,-0.5
 0768524\C,0,-1.83388354,0.70421185,-0.17682584\C,0,-0.75989467,1.44924
 66,0.63091127\O,0,-0.71310467,2.58723646,0.97929539\C,0,0.25803766,0.3
 5774324,0.69771076\C,0,1.5903343,0.26234141,0.82326078\C,0,2.29253293,
 -0.94568682,0.35004342\H,0,-0.29299022,-0.61721766,0.92695822\H,0,-0.4
 4124454,-0.47252312,-1.44845709\H,0,-1.3812951,-1.48417128,-0.30153823

 Normal termination of Gaussian 16 at Wed Apr  9 18:35:41 2025.
