 Gaussian 16, Revision C.01,

 ----------------------------------------------------------------------
 #t hf aug-cc-pvdz symm=none int=(grid=ultrafine) guess=(read,tcheck) s
 table=(opt,rrhf)
 ----------------------------------------------------------------------
 -----
 title
 -----
 Symbolic Z-matrix:
 Charge =  0 Multiplicity = 1

 SCF Done:  E(RHF) =  -308.823600930     A.U. after   14 cycles

 1\1\GINC-SE120\Stability\RHF\Aug-CC-pVDZ\C6H12O1\OHZDE\09-Apr-2025\0\\
 #t hf aug-cc-pvdz symm=none int=(grid=ultrafine) guess=(read,tcheck) s
 table=(opt,rrhf)\\title\\0,1\C,0,1.63735419,0.93517743,0.62003371\C,0,
 0.75721176,-0.28134037,0.53427124\C,0,1.37666032,-1.04951952,-1.167922
 44\C,0,-0.68844586,-0.0141207,0.64874432\C,0,-1.92865281,-0.77022372,0
 .32665914\C,0,-1.68538656,0.64275119,-0.18917529\O,0,-2.40715175,1.747
 41862,0.28341982\H,0,1.54532243,1.33841255,1.62931082\H,0,2.68334578,0
 .7084062,0.41486687\H,0,1.29337108,1.70039341,-0.07574663\H,0,1.055112

 Normal termination of Gaussian 16 at Wed Apr  9 03:53:03 2025.
 Gaussian 16:  ES64L-G16RevC.01  3-Jul-2019

 ----------------------------------------------------------------------
 #t hf aug-cc-pvdz iop(5/13=1,5/36=2,99/5=2) pseudo=read geom=check gue
 ss=(read,tcheck) scf=(maxcycle=1)
 ----------------------------------------------------------------------
 -----
 title
 -----
 Structure from the checkpoint file:  "Grambow2020_wb97xd3_008293_forward_mol1.chk"
 Charge =  0 Multiplicity = 1

                         Standard orientation:
 ---------------------------------------------------------------------
 Center     Atomic      Atomic             Coordinates (Angstroms)
 Number     Number       Type             X           Y           Z
 ---------------------------------------------------------------------
      1          6           0       -1.587503    1.500573   -0.144848
      2          6           0       -1.119895    0.138115   -0.577250
      3          6           0       -2.157722   -0.999622    0.647392
      4          6           0        0.342625   -0.050109   -0.570673
      5          6           0        1.253973   -1.225842   -0.596006
      6          6           0        1.366614   -0.137410    0.464365
      7          8           0        2.435369    0.768831    0.497125
      8          1           0       -1.248102    2.218489   -0.892586
      9          1           0       -2.671765    1.559450   -0.052508
     10          1           0       -1.131453    1.772213    0.807108
     11          1           0       -1.575116   -0.274988   -1.469778
     12          1           0       -3.129878   -0.864427    0.184461
     13          1           0       -2.134490   -0.590740    1.655911
     14          1           0       -1.880373   -2.055086    0.634450
     15          1           0       -0.720055   -0.669097    0.214059
     16          1           0        0.942688   -2.210064   -0.238643
     17          1           0        2.009447   -1.275527   -1.374892
     18          1           0        1.143538   -0.455749    1.483963
     19          1           0        2.324061    1.340649   -0.266428
 ---------------------------------------------------------------------

 SCF Done:  E(RHF) =  -310.350855444     A.U. after    2 cycles

 The electronic state is 1-A.
 Alpha  occ. eigenvalues --  -21.04790 -11.50973 -11.45788 -11.41130 -11.40165
 Alpha  occ. eigenvalues --  -11.38887 -11.35168  -1.69685  -1.33377  -1.17001
 Alpha  occ. eigenvalues --   -1.03271  -0.95324  -0.83724  -0.76503  -0.70430
 Alpha  occ. eigenvalues --   -0.63037  -0.62039  -0.59002  -0.57344  -0.56271
 Alpha  occ. eigenvalues --   -0.53205  -0.51861  -0.50585  -0.47278  -0.43284
 Alpha  occ. eigenvalues --   -0.35193  -0.27429  -0.23658
 Alpha virt. eigenvalues --    0.02866   0.04668   0.04927   0.05134   0.05327
 Alpha virt. eigenvalues --    0.05878   0.06686   0.06793   0.07356   0.08345
 Alpha virt. eigenvalues --    0.08769   0.09581   0.11576   0.12383   0.13454

 Mulliken charges:
               1
     1  C   -3.641628
     2  C   -4.660844
     3  C   -4.868210
     4  C    0.345642
     5  C   -3.214728
     6  C    1.574754
     7  O   -3.120690
     8  H    1.277404
     9  H    1.255049
    10  H    1.424028
    11  H    1.528035
    12  H    1.199359
    13  H    0.981241
    14  H    0.578997
    15  H    5.307079
    16  H    1.110504
    17  H    1.092455
    18  H    1.192410
    19  H    0.639144
 Sum of Mulliken charges =  -0.00000

 Dipole moment (field-independent basis, Debye):
    X=             -3.4744    Y=             -0.1807    Z=              0.0678  Tot=              3.4797

 Test job not archived.
 1\1\GINC-SE120\SP\RHF\Aug-CC-pVDZ\C6H12O1\OHZDE\09-Apr-2025\0\\#t hf a
 ug-cc-pvdz iop(5/13=1,5/36=2,99/5=2) pseudo=read geom=check guess=(rea
 d,tcheck) scf=(maxcycle=1)\\title\\0,1\C,0,1.63735419,0.93517743,0.620
 03371\C,0,0.75721176,-0.28134037,0.53427124\C,0,1.37666032,-1.04951952
 ,-1.16792244\C,0,-0.68844586,-0.0141207,0.64874432\C,0,-1.92865281,-0.
 77022372,0.32665914\C,0,-1.68538656,0.64275119,-0.18917529\O,0,-2.4071
 5175,1.74741862,0.28341982\H,0,1.54532243,1.33841255,1.62931082\H,0,2.
 68334578,0.7084062,0.41486687\H,0,1.29337108,1.70039341,-0.07574663\H,

 Normal termination of Gaussian 16 at Wed Apr  9 03:53:11 2025.
