 Gaussian 16, Revision C.01,

 ----------------------------------------------------------------------
 #t hf aug-cc-pvdz symm=none int=(grid=ultrafine) guess=(read,tcheck) s
 table=(opt,rrhf)
 ----------------------------------------------------------------------
 -----
 title
 -----
 Symbolic Z-matrix:
 Charge =  0 Multiplicity = 1

 SCF Done:  E(RHF) =  -269.768794057     A.U. after   14 cycles
 Normal termination of Gaussian 16 at Wed Apr  9 19:07:57 2025.
 Gaussian 16:  ES64L-G16RevC.01  3-Jul-2019

 ----------------------------------------------------------------------
 #t hf aug-cc-pvdz iop(5/13=1,5/36=2,99/5=2) pseudo=read geom=check gue
 ss=(read,tcheck) scf=(maxcycle=1)
 ----------------------------------------------------------------------
 -----
 title
 -----
 Structure from the checkpoint file:  "Grambow2020_wb97xd3_008150_reverse_mol2.chk"
 Charge =  0 Multiplicity = 1

                         Standard orientation:
 ---------------------------------------------------------------------
 Center     Atomic      Atomic             Coordinates (Angstroms)
 Number     Number       Type             X           Y           Z
 ---------------------------------------------------------------------
      1          6           0       -2.411675    0.000728    0.008241
      2          6           0       -0.907512    0.001999   -0.010571
      3          6           0        1.892739   -0.001321    0.007350
      4          6           0        1.191578   -1.198145    0.001661
      5          6           0        1.195045    1.196217    0.002125
      6          6           0       -0.192028    1.194904   -0.007463
      7          6           0       -0.194350   -1.193430   -0.008042
      8          1           0       -2.786797   -0.122996    1.027461
      9          1           0       -2.812953    0.937111   -0.380420
     10          1           0       -2.815437   -0.816648   -0.591029
     11          1           0        2.976138   -0.002524    0.011361
     12          1           0        1.727018   -2.140422    0.002697
     13          1           0        1.731703    2.137712    0.000821
     14          1           0       -0.729325    2.137320   -0.016043
     15          1           0       -0.733125   -2.135262   -0.014660
 ---------------------------------------------------------------------

 SCF Done:  E(RHF) =  -271.096436340     A.U. after    2 cycles

 The electronic state is 1-A.
 Alpha  occ. eigenvalues --  -11.50561 -11.42514 -11.42100 -11.39873 -11.39609
 Alpha  occ. eigenvalues --  -11.38226 -11.35172  -1.34937  -1.14093  -1.08596
 Alpha  occ. eigenvalues --   -0.99086  -0.85773  -0.82702  -0.70214  -0.63829
 Alpha  occ. eigenvalues --   -0.59923  -0.57489  -0.57254  -0.54781  -0.51126
 Alpha  occ. eigenvalues --   -0.48457  -0.43388  -0.43075  -0.32536  -0.31406
 Alpha virt. eigenvalues --    0.03451   0.04727   0.05175   0.05922   0.06431
 Alpha virt. eigenvalues --    0.06488   0.07323   0.08128   0.10003   0.11423
 Alpha virt. eigenvalues --    0.12546   0.13109   0.13391   0.14120   0.14256

 Mulliken charges:
               1
     1  C   -5.414345
     2  C    3.648207
     3  C   -2.859832
     4  C   -1.521544
     5  C   -1.505002
     6  C   -1.800692
     7  C   -1.835153
     8  H    1.130927
     9  H    1.150982
    10  H    1.075452
    11  H    1.501272
    12  H    1.478391
    13  H    1.474808
    14  H    1.730725
    15  H    1.745802
 Sum of Mulliken charges =  -0.00000

 Dipole moment (field-independent basis, Debye):
    X=             -0.2619    Y=             -0.0145    Z=              0.0314  Tot=              0.2642

 Test job not archived.
 1\1\GINC-SE084\SP\RHF\Aug-CC-pVDZ\C7H8\OHZDE\09-Apr-2025\0\\#t hf aug-
 cc-pvdz iop(5/13=1,5/36=2,99/5=2) pseudo=read geom=check guess=(read,t
 check) scf=(maxcycle=1)\\title\\0,1\C,0,2.04006568,0.8550346,0.1948917
 5\C,0,0.66214882,0.26608303,0.06319036\C,0,-1.92354898,-0.78124744,-0.
 17970783\C,0,-1.24923669,-0.31547452,-1.29881789\C,0,-1.30540167,-0.72
 545083,1.05951812\C,0,-0.02426277,-0.20680857,1.17681573\C,0,0.0307593
 6,0.20159836,-1.1756983\H,0,1.99163462,1.94526003,0.25730038\H,0,2.540
 20596,0.49423606,1.09410189\H,0,2.66311555,0.60335647,-0.66459543\H,0,

 Normal termination of Gaussian 16 at Wed Apr  9 19:08:02 2025.
