 Gaussian 16, Revision C.01,

 ----------------------------------------------------------------------
 #t hf aug-cc-pvdz symm=none int=(grid=ultrafine) guess=(read,tcheck) s
 table=(opt,rrhf)
 ----------------------------------------------------------------------
 -----
 title
 -----
 Symbolic Z-matrix:
 Charge =  0 Multiplicity = 1

 SCF Done:  E(RHF) =  -355.850473806     A.U. after   15 cycles
 Normal termination of Gaussian 16 at Wed Apr  9 03:58:37 2025.
 Gaussian 16:  ES64L-G16RevC.01  3-Jul-2019

 ----------------------------------------------------------------------
 #t hf aug-cc-pvdz iop(5/13=1,5/36=2,99/5=2) pseudo=read geom=check gue
 ss=(read,tcheck) scf=(maxcycle=1)
 ----------------------------------------------------------------------
 -----
 title
 -----
 Structure from the checkpoint file:  "Grambow2020_wb97xd3_008711_reverse_mol1.chk"
 Charge =  0 Multiplicity = 1

                         Standard orientation:
 ---------------------------------------------------------------------
 Center     Atomic      Atomic             Coordinates (Angstroms)
 Number     Number       Type             X           Y           Z
 ---------------------------------------------------------------------
      1          6           0       -1.997476   -0.977933    0.440639
      2          7           0       -1.434148    0.186542   -0.198014
      3          6           0       -0.188644    0.614472   -0.108464
      4          7           0       -0.230962    1.917116   -0.254223
      5          6           0        1.074900   -0.197348    0.071211
      6          8           0        1.976867    0.172663    0.784580
      7          7           0        1.091098   -1.341852   -0.651167
      8          1           0       -2.498901   -0.704358    1.373794
      9          1           0       -1.237375   -1.727401    0.679031
     10          1           0       -2.741140   -1.437472   -0.212988
     11          1           0       -1.500778    1.538909   -0.354542
     12          1           0        0.579993    2.449886   -0.532489
     13          1           0        0.349443   -1.558133   -1.291797
     14          1           0        1.919223   -1.910520   -0.634146
 ---------------------------------------------------------------------

 SCF Done:  E(RHF) =  -357.480992577     A.U. after    2 cycles

 The electronic state is 1-A.
 Alpha  occ. eigenvalues --  -21.05006 -15.79995 -15.72862 -15.71425 -11.54443
 Alpha  occ. eigenvalues --  -11.47336 -11.39594  -1.73195  -1.49080  -1.36525
 Alpha  occ. eigenvalues --   -1.24784  -1.00773  -0.95622  -0.77468  -0.73946
 Alpha  occ. eigenvalues --   -0.69939  -0.63379  -0.61267  -0.57243  -0.54960
 Alpha  occ. eigenvalues --   -0.54007  -0.48249  -0.47888  -0.38757  -0.34279
 Alpha  occ. eigenvalues --   -0.30507  -0.30101
 Alpha virt. eigenvalues --    0.03242   0.04669   0.05502   0.06038   0.06424
 Alpha virt. eigenvalues --    0.06935   0.07826   0.10140   0.11449   0.12450
 Alpha virt. eigenvalues --    0.12555   0.13145   0.13808   0.14607   0.15051

 Mulliken charges:
               1
     1  C   -3.615539
     2  N   -2.934318
     3  C    3.077145
     4  N   -3.208292
     5  C    5.700500
     6  O   -3.294493
     7  N   -2.925961
     8  H    1.372253
     9  H    1.473012
    10  H    1.336062
    11  H    0.753154
    12  H    0.730389
    13  H    0.818098
    14  H    0.717989
 Sum of Mulliken charges =  -0.00000

 Dipole moment (field-independent basis, Debye):
    X=              0.0307    Y=             -2.2187    Z=             -1.3622  Tot=              2.6037

 Test job not archived.
 1\1\GINC-SE412\SP\RHF\Aug-CC-pVDZ\C3H7N3O1\OHZDE\09-Apr-2025\0\\#t hf
 aug-cc-pvdz iop(5/13=1,5/36=2,99/5=2) pseudo=read geom=check guess=(re
 ad,tcheck) scf=(maxcycle=1)\\title\\0,1\C,0,1.52467425,0.97899834,-0.5
 5216651\N,0,0.96679872,-0.35141153,-0.55078471\C,0,0.0064611,-0.806849
 98,0.23199978\N,0,0.22607914,-2.09100955,0.38240283\C,0,-1.16568653,-0
 .05292544,0.81983081\O,0,-1.554331,-0.2521162,1.9461641\N,0,-1.7276592
 8,0.82995726,-0.03847327\H,0,2.43792763,1.01748751,0.04911001\H,0,0.82
 894035,1.71974053,-0.14776357\H,0,1.78574933,1.27180485,-1.57076555\H,

 Normal termination of Gaussian 16 at Wed Apr  9 03:58:41 2025.
