 Gaussian 16, Revision C.01,

 ----------------------------------------------------------------------
 #t hf aug-cc-pvdz symm=none int=(grid=ultrafine) guess=(read,tcheck) s
 table=(opt,rrhf)
 ----------------------------------------------------------------------
 -----
 title
 -----
 Symbolic Z-matrix:
 Charge =  0 Multiplicity = 1

 SCF Done:  E(RHF) =  -302.047141499     A.U. after   14 cycles
 Normal termination of Gaussian 16 at Wed Apr  9 03:15:02 2025.
 Gaussian 16:  ES64L-G16RevC.01  3-Jul-2019

 ----------------------------------------------------------------------
 #t hf aug-cc-pvdz iop(5/13=1,5/36=2,99/5=2) pseudo=read geom=check gue
 ss=(read,tcheck) scf=(maxcycle=1)
 ----------------------------------------------------------------------
 -----
 title
 -----
 Structure from the checkpoint file:  "Grambow2020_b97d3_006947_reverse_mol2.chk"
 Charge =  0 Multiplicity = 1

                         Standard orientation:
 ---------------------------------------------------------------------
 Center     Atomic      Atomic             Coordinates (Angstroms)
 Number     Number       Type             X           Y           Z
 ---------------------------------------------------------------------
      1          6           0       -1.553949    1.283900    0.259991
      2          7           0        1.880796    1.083798   -0.122527
      3          6           0        1.796881   -0.133866    0.033216
      4          8           0        1.647713   -1.298623    0.162902
      5          7           0       -1.084988    0.066516   -0.392828
      6          6           0       -1.812056   -1.126328    0.027177
      7          1           0       -2.636716    1.491583    0.123777
      8          1           0       -0.976481    2.137865   -0.116662
      9          1           0       -1.364566    1.205177    1.340828
     10          1           0        2.775849    1.551618   -0.020590
     11          1           0       -1.168666    0.176054   -1.404843
     12          1           0       -2.912315   -1.071113   -0.116459
     13          1           0       -1.429528   -1.997411   -0.521345
     14          1           0       -1.625189   -1.299225    1.097249
 ---------------------------------------------------------------------

 SCF Done:  E(RHF) =  -303.433167024     A.U. after    2 cycles

 The electronic state is 1-A.
 Alpha  occ. eigenvalues --  -21.11890 -15.77240 -15.70796 -11.56608 -11.37351
 Alpha  occ. eigenvalues --  -11.36802  -1.75532  -1.36167  -1.34445  -1.01323
 Alpha  occ. eigenvalues --   -0.88519  -0.77744  -0.64987  -0.61888  -0.60077
 Alpha  occ. eigenvalues --   -0.57709  -0.56783  -0.55826  -0.52859  -0.48496
 Alpha  occ. eigenvalues --   -0.47744  -0.38723  -0.33827  -0.32306
 Alpha virt. eigenvalues --    0.03644   0.04877   0.05779   0.06389   0.06596
 Alpha virt. eigenvalues --    0.07275   0.07430   0.07961   0.10620   0.11644
 Alpha virt. eigenvalues --    0.12889   0.13679   0.14451   0.14802   0.16357

 Mulliken charges:
               1
     1  C   -3.341862
     2  N   -2.499685
     3  C    3.790717
     4  O   -2.124314
     5  N   -2.263818
     6  C   -3.229760
     7  H    1.280000
     8  H    1.383853
     9  H    1.411799
    10  H    0.861299
    11  H    0.647715
    12  H    1.299519
    13  H    1.347176
    14  H    1.437361
 Sum of Mulliken charges =  -0.00000

 Dipole moment (field-independent basis, Debye):
    X=              0.2282    Y=             -0.4519    Z=             -0.1964  Tot=              0.5430

 Test job not archived.
 1\1\GINC-SE393\SP\RHF\Aug-CC-pVDZ\C3H8N2O1\OHZDE\09-Apr-2025\0\\#t hf
 aug-cc-pvdz iop(5/13=1,5/36=2,99/5=2) pseudo=read geom=check guess=(re
 ad,tcheck) scf=(maxcycle=1)\\title\\0,1\C,0,-0.60235019,1.23443281,0.6
 8939233\N,0,-1.81927543,-1.87479806,-0.22472504\C,0,-0.81255217,-2.032
 56734,-0.91437672\O,0,0.18693941,-2.13527459,-1.53582299\N,0,0.4232800
 3,0.21968961,0.47374861\C,0,1.60605889,0.73498898,-0.20699235\H,0,-0.2
 5669617,2.12533924,1.25585532\H,0,-1.44951131,0.78081266,1.21961815\H,
 0,-0.96973618,1.58394876,-0.28689526\H,0,-2.63740976,-2.4568179,-0.373

 Normal termination of Gaussian 16 at Wed Apr  9 03:15:06 2025.
