 Gaussian 16, Revision C.01,

 ----------------------------------------------------------------------
 #t hf aug-cc-pvdz symm=none int=(grid=ultrafine) guess=(read,tcheck) s
 table=(opt,rrhf)
 ----------------------------------------------------------------------
 -----
 title
 -----
 Symbolic Z-matrix:
 Charge =  0 Multiplicity = 1

 SCF Done:  E(RHF) =  -317.552858852     A.U. after   19 cycles
 Normal termination of Gaussian 16 at Wed Apr  9 19:04:40 2025.
 Gaussian 16:  ES64L-G16RevC.01  3-Jul-2019

 ----------------------------------------------------------------------
 #t hf aug-cc-pvdz iop(5/13=1,5/36=2,99/5=2) pseudo=read geom=check gue
 ss=(read,tcheck) scf=(maxcycle=1)
 ----------------------------------------------------------------------
 -----
 title
 -----
 Structure from the checkpoint file:  "Grambow2020_wb97xd3_008049_reverse_mol1.chk"
 Charge =  0 Multiplicity = 1

                         Standard orientation:
 ---------------------------------------------------------------------
 Center     Atomic      Atomic             Coordinates (Angstroms)
 Number     Number       Type             X           Y           Z
 ---------------------------------------------------------------------
      1          7           0        2.928081   -0.033234    0.009333
      2          6           0        1.700447   -0.005468    0.043583
      3          6           0        0.344197    0.009407   -0.213788
      4          6           0       -0.595415    1.196080   -0.121952
      5          7           0       -1.912600    0.609951    0.143589
      6          6           0       -1.767523   -0.649517    0.109344
      7          7           0       -0.477433   -1.110993   -0.073642
      8          1           0        1.936170    0.147443    1.150334
      9          1           0       -0.324630    1.907599    0.660492
     10          1           0       -0.637859    1.760208   -1.061822
     11          1           0       -2.578246   -1.358702    0.230643
     12          1           0       -0.252009   -2.019628   -0.437723
 ---------------------------------------------------------------------

 SCF Done:  E(RHF) =  -318.998480564     A.U. after    2 cycles

 The electronic state is 1-A.
 Alpha  occ. eigenvalues --  -15.79463 -15.77401 -15.72763 -11.50269 -11.46626
 Alpha  occ. eigenvalues --  -11.45417 -11.41744  -1.56158  -1.35352  -1.28512
 Alpha  occ. eigenvalues --   -1.12419  -0.93988  -0.84141  -0.80429  -0.70331
 Alpha  occ. eigenvalues --   -0.64457  -0.61829  -0.59069  -0.54619  -0.52547
 Alpha  occ. eigenvalues --   -0.50656  -0.45647  -0.38758  -0.37560  -0.21377
 Alpha virt. eigenvalues --    0.02221   0.04227   0.05307   0.06180   0.06548
 Alpha virt. eigenvalues --    0.07444   0.09387   0.09804   0.10218   0.11341
 Alpha virt. eigenvalues --    0.12660   0.13092   0.13248   0.14113   0.15240

 Mulliken charges:
               1
     1  N   -2.203193
     2  C    0.713432
     3  C    2.074640
     4  C   -2.639479
     5  N   -2.519190
     6  C    1.435212
     7  N   -3.120636
     8  H    1.167727
     9  H    1.418654
    10  H    1.273423
    11  H    1.643450
    12  H    0.755961
 Sum of Mulliken charges =   0.00000

 Dipole moment (field-independent basis, Debye):
    X=             -1.6125    Y=             -2.0188    Z=              0.1233  Tot=              2.5867

 Test job not archived.
 1\1\GINC-SE048\SP\RHF\Aug-CC-pVDZ\C4H5N3\OHZDE\09-Apr-2025\0\\#t hf au
 g-cc-pvdz iop(5/13=1,5/36=2,99/5=2) pseudo=read geom=check guess=(read
 ,tcheck) scf=(maxcycle=1)\\title\\0,1\N,0,2.92445749,-0.92118141,0.040
 72069\C,0,1.75604233,-0.54370161,0.0040585\C,0,0.43694541,-0.21485792,
 0.2443102\C,0,-0.79679484,-0.93205699,-0.26853241\N,0,-1.84161482,0.09
 583843,-0.29710883\C,0,-1.33311936,1.14972763,0.19200082\N,0,0.0069564
 9,1.08381694,0.52461064\H,0,2.05765149,-0.37070802,-1.08357624\H,0,-0.
 66438091,-1.3755361,-1.25726687\H,0,-1.10987094,-1.74173287,0.40214237

 Normal termination of Gaussian 16 at Wed Apr  9 19:04:44 2025.
