 Gaussian 16, Revision C.01,

 ----------------------------------------------------------------------
 #t hf aug-cc-pvdz symm=none int=(grid=ultrafine) guess=(read,tcheck) s
 table=(opt,rrhf)
 ----------------------------------------------------------------------
 -----
 title
 -----
 Symbolic Z-matrix:
 Charge =  0 Multiplicity = 1

 SCF Done:  E(RHF) =  -358.516225339     A.U. after   15 cycles
 Normal termination of Gaussian 16 at Wed Apr  9 04:04:03 2025.
 Gaussian 16:  ES64L-G16RevC.01  3-Jul-2019

 ----------------------------------------------------------------------
 #t hf aug-cc-pvdz iop(5/13=1,5/36=2,99/5=2) pseudo=read geom=check gue
 ss=(read,tcheck) scf=(maxcycle=1)
 ----------------------------------------------------------------------
 -----
 title
 -----
 Structure from the checkpoint file:  "Grambow2020_wb97xd3_009141_forward_mol1.chk"
 Charge =  0 Multiplicity = 1

                         Standard orientation:
 ---------------------------------------------------------------------
 Center     Atomic      Atomic             Coordinates (Angstroms)
 Number     Number       Type             X           Y           Z
 ---------------------------------------------------------------------
      1          6           0        2.438637   -0.409297   -0.103340
      2          6           0        1.021097    0.015673    0.090391
      3          6           0        0.502939    1.329631   -0.059604
      4          8           0       -0.860978    1.140786   -0.038612
      5          6           0       -1.221072   -0.190375   -0.017779
      6          8           0       -2.338059   -0.598856   -0.042186
      7          7           0       -0.035388   -0.884596    0.052206
      8          1           0        2.737454   -1.174853    0.613682
      9          1           0        2.559452   -0.809894   -1.110402
     10          1           0        3.089336    0.457268    0.002963
     11          1           0        1.007856    0.785989    1.110760
     12          1           0       -0.003698   -1.875569    0.205944
 ---------------------------------------------------------------------

 SCF Done:  E(RHF) =  -360.082224483     A.U. after    2 cycles

 The electronic state is 1-A.
 Alpha  occ. eigenvalues --  -21.11966 -21.05647 -15.81024 -11.54181 -11.50379
 Alpha  occ. eigenvalues --  -11.43644 -11.42370  -1.89381  -1.69841  -1.45527
 Alpha  occ. eigenvalues --   -1.20105  -1.04491  -0.87913  -0.81665  -0.73457
 Alpha  occ. eigenvalues --   -0.68006  -0.60858  -0.59604  -0.58520  -0.52967
 Alpha  occ. eigenvalues --   -0.51350  -0.44532  -0.43663  -0.40230  -0.31858
 Alpha  occ. eigenvalues --   -0.30338
 Alpha virt. eigenvalues --    0.02077   0.04585   0.05080   0.05182   0.05872
 Alpha virt. eigenvalues --    0.09438   0.09703   0.10396   0.10725   0.11652
 Alpha virt. eigenvalues --    0.12574   0.13451   0.13847   0.14717   0.15253

 Mulliken charges:
               1
     1  C   -4.226469
     2  C    2.045204
     3  C   -0.331854
     4  O   -2.840861
     5  C    5.848348
     6  O   -3.321674
     7  N   -3.031880
     8  H    1.136707
     9  H    1.118667
    10  H    1.210233
    11  H    1.593644
    12  H    0.799936
 Sum of Mulliken charges =  -0.00000

 Dipole moment (field-independent basis, Debye):
    X=              3.0446    Y=             -3.3604    Z=              0.5712  Tot=              4.5704

 Test job not archived.
 1\1\GINC-SE177\SP\RHF\Aug-CC-pVDZ\C4H5N1O2\OHZDE\09-Apr-2025\0\\#t hf
 aug-cc-pvdz iop(5/13=1,5/36=2,99/5=2) pseudo=read geom=check guess=(re
 ad,tcheck) scf=(maxcycle=1)\\title\\0,1\C,0,-1.60453326,-0.21938758,-0
 .5958483\C,0,-0.26080972,0.20442953,-0.10357216\C,0,0.06364242,1.44260
 419,0.51216165\O,0,1.33025298,1.23119675,1.00953132\C,0,1.75701182,-0.
 07202076,0.86258145\O,0,2.79466287,-0.50190281,1.25449023\N,0,0.749143
 54,-0.70706965,0.17439425\H,0,-1.53763116,-0.80486255,-1.51357951\H,0,
 -2.09276703,-0.82513911,0.16831203\H,0,-2.2142883,0.66452368,-0.776249

 Normal termination of Gaussian 16 at Wed Apr  9 04:04:08 2025.
