 Gaussian 16, Revision C.01,

 ----------------------------------------------------------------------
 #t hf aug-cc-pvdz symm=none int=(grid=ultrafine) guess=(read,tcheck) s
 table=(opt,rrhf)
 ----------------------------------------------------------------------
 -----
 title
 -----
 Symbolic Z-matrix:
 Charge =  0 Multiplicity = 1

 SCF Done:  E(RHF) =  -353.419709760     A.U. after   17 cycles
 Normal termination of Gaussian 16 at Wed Apr  9 18:53:25 2025.
 Gaussian 16:  ES64L-G16RevC.01  3-Jul-2019

 ----------------------------------------------------------------------
 #t hf aug-cc-pvdz iop(5/13=1,5/36=2,99/5=2) pseudo=read geom=check gue
 ss=(read,tcheck) scf=(maxcycle=1)
 ----------------------------------------------------------------------
 -----
 title
 -----
 Structure from the checkpoint file:  "Grambow2020_wb97xd3_007767_reverse_mol1.chk"
 Charge =  0 Multiplicity = 1

                         Standard orientation:
 ---------------------------------------------------------------------
 Center     Atomic      Atomic             Coordinates (Angstroms)
 Number     Number       Type             X           Y           Z
 ---------------------------------------------------------------------
      1          8           0        2.461665   -0.432648    0.072072
      2          6           0        1.650469    0.432608   -0.080337
      3          7           0        0.323416    0.159240   -0.436037
      4          6           0       -0.407836   -0.746020    0.230686
      5          7           0       -1.721165   -0.916912   -0.213613
      6          6           0       -1.885678    0.358772    0.003637
      7          7           0       -0.718821    1.050097    0.269967
      8          1           0        1.851391    1.511375   -0.024353
      9          1           0       -0.031874   -1.247149    1.123396
     10          1           0       -2.838583    0.877827    0.058244
 ---------------------------------------------------------------------

 SCF Done:  E(RHF) =  -354.940911619     A.U. after    2 cycles

 The electronic state is 1-A.
 Alpha  occ. eigenvalues --  -21.09009 -15.81089 -15.76467 -15.74720 -11.58202
 Alpha  occ. eigenvalues --  -11.52143 -11.49127  -1.76517  -1.67302  -1.37157
 Alpha  occ. eigenvalues --   -1.19176  -1.00871  -0.85572  -0.84645  -0.71966
 Alpha  occ. eigenvalues --   -0.67498  -0.66138  -0.58302  -0.54457  -0.51896
 Alpha  occ. eigenvalues --   -0.48792  -0.41680  -0.39291  -0.33629  -0.30481
 Alpha virt. eigenvalues --    0.03638   0.04864   0.05637   0.07127   0.09550
 Alpha virt. eigenvalues --    0.09877   0.10392   0.10828   0.10908   0.12421
 Alpha virt. eigenvalues --    0.13181   0.14110   0.15029   0.15694   0.16429

 Mulliken charges:
               1
     1  O   -2.610278
     2  C    2.130495
     3  N   -1.993123
     4  C    0.463323
     5  N   -2.544954
     6  C    1.600516
     7  N   -1.518024
     8  H    1.588721
     9  H    1.534064
    10  H    1.349258
 Sum of Mulliken charges =   0.00000

 Dipole moment (field-independent basis, Debye):
    X=              0.0100    Y=              0.4404    Z=              0.7598  Tot=              0.8783

 Test job not archived.
 1\1\GINC-SE454\SP\RHF\Aug-CC-pVDZ\C3H3N3O1\OHZDE\09-Apr-2025\0\\#t hf
 aug-cc-pvdz iop(5/13=1,5/36=2,99/5=2) pseudo=read geom=check guess=(re
 ad,tcheck) scf=(maxcycle=1)\\title\\0,1\O,0,2.55175314,0.61115278,0.33
 89339\C,0,1.75829431,-0.28281267,0.37335214\N,0,0.39068986,-0.06123034
 ,0.58043634\C,0,-0.28960666,0.84107887,-0.14190677\N,0,-1.65026344,0.9
 5800119,0.15199716\C,0,-1.74534861,-0.31491383,-0.11684729\N,0,-0.5328
 4216,-0.96169827,-0.26488729\H,0,2.00083792,-1.35270441,0.31214628\H,0
 ,0.16900655,1.38047134,-0.97144719\H,0,-2.66751992,-0.86103866,-0.2951

 Normal termination of Gaussian 16 at Wed Apr  9 18:53:29 2025.
