 Gaussian 16, Revision C.01,

 ----------------------------------------------------------------------
 #t hf aug-cc-pvdz symm=none int=(grid=ultrafine) guess=(read,tcheck) s
 table=(opt,rrhf)
 ----------------------------------------------------------------------
 -----
 title
 -----
 Symbolic Z-matrix:
 Charge =  0 Multiplicity = 1

 SCF Done:  E(RHF) =  -306.885362229     A.U. after   16 cycles

 1\1\GINC-SE095\Stability\RHF\Aug-CC-pVDZ\C4H10O2\OHZDE\09-Apr-2025\0\\
 #t hf aug-cc-pvdz symm=none int=(grid=ultrafine) guess=(read,tcheck) s
 table=(opt,rrhf)\\title\\0,1\C,0,2.56568973,-0.91693926,-0.14604151\O,
 0,1.7442387,0.07755932,0.43951083\C,0,-0.25052054,0.51753631,-1.033376
 27\C,0,-0.99158275,0.2530843,0.20578483\C,0,-2.52652275,0.5312784,0.08
 675855\O,0,-0.62902686,-0.74362058,0.98612618\H,0,2.03125764,-1.523503
 ,-0.90365495\H,0,3.41224798,-0.41849363,-0.63657801\H,0,2.95828945,-1.
 61592716,0.61327116\H,0,0.41875499,-0.20055189,-1.49989229\H,0,-0.3327

 Normal termination of Gaussian 16 at Wed Apr  9 03:07:44 2025.
 Gaussian 16:  ES64L-G16RevC.01  3-Jul-2019

 ----------------------------------------------------------------------
 #t hf aug-cc-pvdz iop(5/13=1,5/36=2,99/5=2) pseudo=read geom=check gue
 ss=(read,tcheck) scf=(maxcycle=1)
 ----------------------------------------------------------------------
 -----
 title
 -----
 Structure from the checkpoint file:  "Grambow2020_b97d3_006574_forward_mol1.chk"
 Charge =  0 Multiplicity = 1

                         Standard orientation:
 ---------------------------------------------------------------------
 Center     Atomic      Atomic             Coordinates (Angstroms)
 Number     Number       Type             X           Y           Z
 ---------------------------------------------------------------------
      1          6           0       -2.663958    0.012125    0.301949
      2          8           0       -1.621966   -0.051941   -0.655563
      3          6           0        0.391693    1.205949    0.184038
      4          6           0        1.074241   -0.060485   -0.107340
      5          6           0        2.629136    0.018514    0.046477
      6          8           0        0.504126   -1.202038    0.217661
      7          1           0       -2.300536    0.276932    1.314528
      8          1           0       -3.380058    0.779713   -0.020146
      9          1           0       -3.194194   -0.952619    0.387934
     10          1           0       -0.435549    1.297446    0.882977
     11          1           0        0.691732    2.108673   -0.351827
     12          1           0        0.920130    0.147712   -1.237784
     13          1           0        3.055375   -0.850090   -0.467002
     14          1           0        2.870162   -0.044437    1.114025
     15          1           0        3.057880    0.941429   -0.366938
     16          1           0       -0.928897   -0.729531   -0.303289
 ---------------------------------------------------------------------

 SCF Done:  E(RHF) =  -308.301911210     A.U. after    2 cycles

 The electronic state is 1-A.
 Alpha  occ. eigenvalues --  -21.02682 -20.94798 -11.54147 -11.44963 -11.39329
 Alpha  occ. eigenvalues --  -11.38994  -1.68471  -1.61107  -1.17805  -1.02934
 Alpha  occ. eigenvalues --   -0.95798  -0.83139  -0.69282  -0.64531  -0.62658
 Alpha  occ. eigenvalues --   -0.59056  -0.57997  -0.55007  -0.50948  -0.50247
 Alpha  occ. eigenvalues --   -0.42799  -0.40218  -0.31327  -0.24018  -0.22954
 Alpha virt. eigenvalues --    0.00118   0.03790   0.04534   0.04765   0.05852
 Alpha virt. eigenvalues --    0.06258   0.06520   0.06579   0.07527   0.08668
 Alpha virt. eigenvalues --    0.10964   0.11371   0.12857   0.13909   0.14888

 Mulliken charges:
               1
     1  C   -2.576968
     2  O   -2.533780
     3  C   -2.760727
     4  C    1.691251
     5  C   -4.027264
     6  O   -2.968746
     7  H    1.270639
     8  H    1.261982
     9  H    1.275283
    10  H    1.545801
    11  H    1.370800
    12  H    1.549093
    13  H    1.149291
    14  H    1.205634
    15  H    1.147463
    16  H    1.400249
 Sum of Mulliken charges =  -0.00000

 Dipole moment (field-independent basis, Debye):
    X=              0.4690    Y=              3.8682    Z=              0.2218  Tot=              3.9028

 Test job not archived.
 1\1\GINC-SE095\SP\RHF\Aug-CC-pVDZ\C4H10O2\OHZDE\09-Apr-2025\0\\#t hf a
 ug-cc-pvdz iop(5/13=1,5/36=2,99/5=2) pseudo=read geom=check guess=(rea
 d,tcheck) scf=(maxcycle=1)\\title\\0,1\C,0,2.56568973,-0.91693926,-0.1
 4604151\O,0,1.7442387,0.07755932,0.43951083\C,0,-0.25052054,0.51753631
 ,-1.03337627\C,0,-0.99158275,0.2530843,0.20578483\C,0,-2.52652275,0.53
 12784,0.08675855\O,0,-0.62902686,-0.74362058,0.98612618\H,0,2.03125764
 ,-1.523503,-0.90365495\H,0,3.41224798,-0.41849363,-0.63657801\H,0,2.95
 828945,-1.61592716,0.61327116\H,0,0.41875499,-0.20055189,-1.49989229\H

 Normal termination of Gaussian 16 at Wed Apr  9 03:07:48 2025.
