 Gaussian 16, Revision C.01,

 ----------------------------------------------------------------------
 #t hf aug-cc-pvdz symm=none int=(grid=ultrafine) guess=(read,tcheck) s
 table=(opt,rrhf)
 ----------------------------------------------------------------------
 -----
 title
 -----
 Symbolic Z-matrix:
 Charge =  0 Multiplicity = 1

 SCF Done:  E(RHF) =  -308.800632576     A.U. after   18 cycles

 1\1\GINC-SE159\Stability\RHF\Aug-CC-pVDZ\C6H12O1\OHZDE\09-Apr-2025\0\\
 #t hf aug-cc-pvdz symm=none int=(grid=ultrafine) guess=(read,tcheck) s
 table=(opt,rrhf)\\title\\0,1\C,0,1.67566738,1.29639085,0.00723532\C,0,
 0.56206766,0.34322929,0.3247615\C,0,0.95161947,-1.49874065,-0.30676313
 \C,0,-0.72961697,0.29137906,-0.43173812\C,0,-1.00100114,-1.17450165,-0
 .43820765\C,0,-1.80865349,1.03594394,0.16511554\O,0,-2.26542764,0.8694
 1098,1.4299164\H,0,1.64236058,2.22192488,0.58679331\H,0,2.63300421,0.8
 1666036,0.2365325\H,0,1.67814286,1.5559025,-1.05406875\H,0,0.43666138,

 Normal termination of Gaussian 16 at Wed Apr  9 03:53:14 2025.
 Gaussian 16:  ES64L-G16RevC.01  3-Jul-2019

 ----------------------------------------------------------------------
 #t hf aug-cc-pvdz iop(5/13=1,5/36=2,99/5=2) pseudo=read geom=check gue
 ss=(read,tcheck) scf=(maxcycle=1)
 ----------------------------------------------------------------------
 -----
 title
 -----
 Structure from the checkpoint file:  "Grambow2020_wb97xd3_008299_forward_mol1.chk"
 Charge =  0 Multiplicity = 1

                         Standard orientation:
 ---------------------------------------------------------------------
 Center     Atomic      Atomic             Coordinates (Angstroms)
 Number     Number       Type             X           Y           Z
 ---------------------------------------------------------------------
      1          6           0        1.569803   -1.688596    0.071059
      2          6           0        0.702521   -0.521662   -0.297085
      3          6           0        1.715746    1.186089   -0.316871
      4          6           0       -0.279571    0.112903    0.638998
      5          6           0       -0.144828    1.550226    0.266915
      6          6           0       -1.634901   -0.354522    0.499268
      7          8           0       -2.352535   -0.334352   -0.649945
      8          1           0        1.141271   -2.657623   -0.195317
      9          1           0        2.522156   -1.608813   -0.463611
     10          1           0        1.787437   -1.692189    1.141733
     11          1           0        0.348909   -0.549632   -1.329972
     12          1           0        2.316103    0.709952   -1.110939
     13          1           0        2.270531    1.110688    0.617108
     14          1           0        1.732876    2.244150   -0.626624
     15          1           0        0.035359   -0.043998    1.672508
     16          1           0       -0.222509    2.329137    1.027342
     17          1           0       -0.635482    1.839209   -0.662553
     18          1           0       -2.195635   -0.816407    1.301355
     19          1           0       -1.853358    0.103719   -1.345178
 ---------------------------------------------------------------------

 SCF Done:  E(RHF) =  -310.336038040     A.U. after    2 cycles

 The electronic state is 1-A.
 Alpha  occ. eigenvalues --  -21.10375 -11.47302 -11.45546 -11.41981 -11.39225
 Alpha  occ. eigenvalues --  -11.37979 -11.36359  -1.75265  -1.29493  -1.09054
 Alpha  occ. eigenvalues --   -1.01588  -0.91948  -0.88468  -0.78544  -0.68897
 Alpha  occ. eigenvalues --   -0.63157  -0.60249  -0.58298  -0.57179  -0.54609
 Alpha  occ. eigenvalues --   -0.52635  -0.51775  -0.49087  -0.46477  -0.44151
 Alpha  occ. eigenvalues --   -0.41270  -0.34638  -0.16338
 Alpha virt. eigenvalues --    0.04006   0.04788   0.05140   0.05180   0.05454
 Alpha virt. eigenvalues --    0.05656   0.06172   0.06677   0.06877   0.08592
 Alpha virt. eigenvalues --    0.09054   0.09217   0.10028   0.11856   0.12394

 Mulliken charges:
               1
     1  C   -4.073478
     2  C   -0.054828
     3  C   -3.965063
     4  C   -2.363573
     5  C   -2.759501
     6  C    0.869747
     7  O   -3.370226
     8  H    1.186847
     9  H    1.208633
    10  H    1.258720
    11  H    1.711085
    12  H    1.079212
    13  H    1.360811
    14  H    0.991165
    15  H    1.510730
    16  H    1.328436
    17  H    1.543782
    18  H    1.581129
    19  H    0.956373
 Sum of Mulliken charges =   0.00000

 Dipole moment (field-independent basis, Debye):
    X=             -0.1477    Y=             -0.8898    Z=             -0.4274  Tot=              0.9981

 Test job not archived.
 1\1\GINC-SE159\SP\RHF\Aug-CC-pVDZ\C6H12O1\OHZDE\09-Apr-2025\0\\#t hf a
 ug-cc-pvdz iop(5/13=1,5/36=2,99/5=2) pseudo=read geom=check guess=(rea
 d,tcheck) scf=(maxcycle=1)\\title\\0,1\C,0,1.67566738,1.29639085,0.007
 23532\C,0,0.56206766,0.34322929,0.3247615\C,0,0.95161947,-1.49874065,-
 0.30676313\C,0,-0.72961697,0.29137906,-0.43173812\C,0,-1.00100114,-1.1
 7450165,-0.43820765\C,0,-1.80865349,1.03594394,0.16511554\O,0,-2.26542
 764,0.86941098,1.4299164\H,0,1.64236058,2.22192488,0.58679331\H,0,2.63
 300421,0.81666036,0.2365325\H,0,1.67814286,1.5559025,-1.05406875\H,0,0

 Normal termination of Gaussian 16 at Wed Apr  9 03:53:22 2025.
