 Gaussian 16, Revision C.01,

 ----------------------------------------------------------------------
 #t hf aug-cc-pvdz symm=none int=(grid=ultrafine) guess=(read,tcheck) s
 table=(opt,rrhf)
 ----------------------------------------------------------------------
 -----
 title
 -----
 Symbolic Z-matrix:
 Charge =  0 Multiplicity = 1

 SCF Done:  E(RHF) =  -375.614258711     A.U. after   17 cycles
 Normal termination of Gaussian 16 at Wed Apr  9 18:56:39 2025.
 Gaussian 16:  ES64L-G16RevC.01  3-Jul-2019

 ----------------------------------------------------------------------
 #t hf aug-cc-pvdz iop(5/13=1,5/36=2,99/5=2) pseudo=read geom=check gue
 ss=(read,tcheck) scf=(maxcycle=1)
 ----------------------------------------------------------------------
 -----
 title
 -----
 Structure from the checkpoint file:  "Grambow2020_wb97xd3_007867_reverse_mol1.chk"
 Charge =  0 Multiplicity = 1

                         Standard orientation:
 ---------------------------------------------------------------------
 Center     Atomic      Atomic             Coordinates (Angstroms)
 Number     Number       Type             X           Y           Z
 ---------------------------------------------------------------------
      1          7           0        1.894661    0.946716   -0.320963
      2          6           0        1.400368   -0.258247    0.015282
      3          8           0        1.983078   -1.318226   -0.045913
      4          6           0       -0.058997   -0.163766    0.491428
      5          8           0       -0.611477    1.018065    0.603043
      6          6           0       -1.811220    0.034517   -0.560152
      7          7           0       -2.882112   -0.376887   -0.172422
      8          1           0        2.864613    1.039026   -0.562198
      9          1           0        1.324114    1.753576   -0.123314
     10          1           0       -0.260569   -0.932529    1.256028
     11          1           0       -0.640079   -0.773532   -0.474365
     12          1           0       -1.450858    0.681620   -1.342634
     13          1           0       -3.078774   -1.030687    0.563785
 ---------------------------------------------------------------------

 SCF Done:  E(RHF) =  -377.293925889     A.U. after    2 cycles

 The electronic state is 1-A.
 Alpha  occ. eigenvalues --  -21.03615 -21.00992 -15.78704 -15.78418 -11.56809
 Alpha  occ. eigenvalues --  -11.52651 -11.46671  -1.73411  -1.68612  -1.38224
 Alpha  occ. eigenvalues --   -1.35356  -1.03423  -0.94714  -0.82607  -0.74157
 Alpha  occ. eigenvalues --   -0.72832  -0.66673  -0.61529  -0.55942  -0.54382
 Alpha  occ. eigenvalues --   -0.52216  -0.47435  -0.43413  -0.33815  -0.33599
 Alpha  occ. eigenvalues --   -0.29147  -0.25807
 Alpha virt. eigenvalues --    0.03347   0.04545   0.05181   0.06571   0.06792
 Alpha virt. eigenvalues --    0.07116   0.08659   0.10044   0.11102   0.12064
 Alpha virt. eigenvalues --    0.12737   0.13107   0.14446   0.14777   0.15861

 Mulliken charges:
               1
     1  N   -2.775435
     2  C    5.025182
     3  O   -3.336070
     4  C   -0.168709
     5  O   -2.700961
     6  C    0.959667
     7  N   -3.321329
     8  H    0.718894
     9  H    0.806775
    10  H    1.240070
    11  H    1.637871
    12  H    1.198270
    13  H    0.715774
 Sum of Mulliken charges =  -0.00000

 Dipole moment (field-independent basis, Debye):
    X=             -0.3673    Y=              1.2135    Z=             -0.4940  Tot=              1.3607

 Test job not archived.
 1\1\GINC-SE362\SP\RHF\Aug-CC-pVDZ\C3H6N2O2\OHZDE\09-Apr-2025\0\\#t hf
 aug-cc-pvdz iop(5/13=1,5/36=2,99/5=2) pseudo=read geom=check guess=(re
 ad,tcheck) scf=(maxcycle=1)\\title\\0,1\N,0,-2.06822498,0.78694558,-0.
 1436381\C,0,-1.45382997,-0.2424713,0.4663963\O,0,-1.88253642,-0.887501
 19,1.39752391\C,0,-0.07283616,-0.52771738,-0.14750819\O,0,0.3050477,0.
 15721917,-1.19749941\C,0,1.73133114,0.42335739,0.08883695\N,0,2.804581
 08,-0.12584138,-0.02479656\H,0,-3.01389128,1.01934583,0.09973109\H,0,-
 1.63126048,1.16414758,-0.96970872\H,0,0.15360753,-1.60558095,-0.091179

 Normal termination of Gaussian 16 at Wed Apr  9 18:56:42 2025.
