 Gaussian 16, Revision C.01,

 ----------------------------------------------------------------------
 #t hf aug-cc-pvdz symm=none int=(grid=ultrafine) guess=(read,tcheck) s
 table=(opt,rrhf)
 ----------------------------------------------------------------------
 -----
 title
 -----
 Symbolic Z-matrix:
 Charge =  0 Multiplicity = 1

 SCF Done:  E(RHF) =  -245.622201972     A.U. after   18 cycles
 Normal termination of Gaussian 16 at Wed Apr  9 17:35:21 2025.
 Gaussian 16:  ES64L-G16RevC.01  3-Jul-2019

 ----------------------------------------------------------------------
 #t hf aug-cc-pvdz iop(5/13=1,5/36=2,99/5=2) pseudo=read geom=check gue
 ss=(read,tcheck) scf=(maxcycle=1)
 ----------------------------------------------------------------------
 -----
 title
 -----
 Structure from the checkpoint file:  "Grambow2020_b97d3_007195_forward_mol1.chk"
 Charge =  0 Multiplicity = 1

                         Standard orientation:
 ---------------------------------------------------------------------
 Center     Atomic      Atomic             Coordinates (Angstroms)
 Number     Number       Type             X           Y           Z
 ---------------------------------------------------------------------
      1          8           0        1.932340   -0.287921   -0.251091
      2          6           0        1.013576    0.162105    0.351623
      3          6           0       -0.595777   -0.148934    0.482350
      4          6           0       -0.848283    1.143770   -0.254446
      5          7           0       -1.329732   -1.110525   -0.133825
      6          1           0        0.639825    1.426385    0.361564
      7          1           0       -0.820414   -0.034023    1.554288
      8          1           0       -1.741567    1.724106    0.000790
      9          1           0       -0.606336    1.152675   -1.322345
     10          1           0       -1.039203   -1.133748   -1.125956
 ---------------------------------------------------------------------

 SCF Done:  E(RHF) =  -246.747758308     A.U. after    2 cycles

 The electronic state is 1-A.
 Alpha  occ. eigenvalues --  -21.11772 -15.76028 -11.52066 -11.48660 -11.44778
 Alpha  occ. eigenvalues --   -1.75052  -1.37503  -1.10681  -0.91463  -0.80239
 Alpha  occ. eigenvalues --   -0.66175  -0.62493  -0.60111  -0.58062  -0.51839
 Alpha  occ. eigenvalues --   -0.47867  -0.42989  -0.32236  -0.30479
 Alpha virt. eigenvalues --    0.03444   0.03644   0.05456   0.05642   0.06061
 Alpha virt. eigenvalues --    0.07205   0.10092   0.10555   0.11419   0.12121
 Alpha virt. eigenvalues --    0.13237   0.14595   0.14788   0.15372   0.16956

 Mulliken charges:
               1
     1  O   -2.593870
     2  C    2.459083
     3  C   -0.547206
     4  C   -2.334557
     5  N   -2.555049
     6  H    0.874432
     7  H    1.703688
     8  H    1.201461
     9  H    1.284379
    10  H    0.507638
 Sum of Mulliken charges =  -0.00000

 Dipole moment (field-independent basis, Debye):
    X=              0.9960    Y=              1.3034    Z=             -0.6198  Tot=              1.7536

 Test job not archived.
 1\1\GINC-SE340\SP\RHF\Aug-CC-pVDZ\C3H5N1O1\OHZDE\09-Apr-2025\0\\#t hf
 aug-cc-pvdz iop(5/13=1,5/36=2,99/5=2) pseudo=read geom=check guess=(re
 ad,tcheck) scf=(maxcycle=1)\\title\\0,1\O,0,1.68650841,-0.38107926,1.5
 8569023\C,0,1.27335407,-0.34999417,0.47292244\C,0,0.20994657,0.5692039
 8,-0.38036154\C,0,-0.71606484,-0.62232621,-0.40203598\N,0,-0.51964432,
 1.63530752,0.03694089\H,0,0.72685782,-1.35813256,-0.17760869\H,0,0.683
 23826,0.70985766,-1.36470258\H,0,-1.35423715,-0.77148458,-1.27974955\H
 ,0,-1.20038478,-0.88189641,0.54510886\H,0,-0.91334704,1.39769704,0.963

 Normal termination of Gaussian 16 at Wed Apr  9 17:35:23 2025.
