 Gaussian 16, Revision C.01,

 ----------------------------------------------------------------------
 #t hf aug-cc-pvdz symm=none int=(grid=ultrafine) guess=(read,tcheck) s
 table=(opt,rrhf)
 ----------------------------------------------------------------------
 -----
 title
 -----
 Symbolic Z-matrix:
 Charge =  0 Multiplicity = 1

 SCF Done:  E(RHF) =  -344.765764415     A.U. after   14 cycles

 1\1\GINC-SE322\Stability\RHF\Aug-CC-pVDZ\C5H10O2\OHZDE\09-Apr-2025\0\\
 #t hf aug-cc-pvdz symm=none int=(grid=ultrafine) guess=(read,tcheck) s
 table=(opt,rrhf)\\title\\0,1\C,0,2.02023898,1.2966944,-0.33667881\O,0,
 0.67158317,0.96880072,-0.13425157\C,0,0.38763062,-0.38070397,-0.475810
 94\C,0,0.84701606,-1.49214807,0.44603119\O,0,-0.80828288,-1.31624841,1
 .13034738\C,0,-1.07197693,-0.67784011,-0.17925979\C,0,-2.03994755,0.46
 072589,-0.03115243\H,0,2.68632602,0.69478058,0.29394067\H,0,2.31180327
 ,1.15174823,-1.38594659\H,0,2.14705635,2.34676711,-0.0763452\H,0,0.673

 Normal termination of Gaussian 16 at Wed Apr  9 03:27:31 2025.
 Gaussian 16:  ES64L-G16RevC.01  3-Jul-2019

 ----------------------------------------------------------------------
 #t hf aug-cc-pvdz iop(5/13=1,5/36=2,99/5=2) pseudo=read geom=check gue
 ss=(read,tcheck) scf=(maxcycle=1)
 ----------------------------------------------------------------------
 -----
 title
 -----
 Structure from the checkpoint file:  "Grambow2020_wb97xd3_006656_reverse_mol2.chk"
 Charge =  0 Multiplicity = 1

                         Standard orientation:
 ---------------------------------------------------------------------
 Center     Atomic      Atomic             Coordinates (Angstroms)
 Number     Number       Type             X           Y           Z
 ---------------------------------------------------------------------
      1          6           0       -2.484836    0.248061   -0.156859
      2          8           0       -1.126973    0.593499   -0.222009
      3          6           0       -0.318636   -0.240143    0.596579
      4          6           0       -0.029179   -1.659911    0.153174
      5          8           0        1.450318   -0.910854   -0.546288
      6          6           0        1.138585    0.155251    0.432698
      7          6           0        1.476332    1.507252   -0.126996
      8          1           0       -2.665020   -0.771661   -0.519287
      9          1           0       -2.865572    0.322911    0.870964
     10          1           0       -3.033305    0.945537   -0.788696
     11          1           0       -0.686053   -0.177022    1.629084
     12          1           0       -0.549604   -1.861494   -0.793266
     13          1           0        2.157548   -1.470275   -0.215803
     14          1           0        1.690645   -0.059123    1.347761
     15          1           0        1.177458    2.279121    0.583929
     16          1           0        2.550751    1.589606   -0.300245
     17          1           0        0.942793    1.678181   -1.059645
 ---------------------------------------------------------------------

 SCF Done:  E(RHF) =  -346.348596874     A.U. after    2 cycles

 The electronic state is 1-A.
 Alpha  occ. eigenvalues --  -21.10909 -21.03706 -11.49733 -11.43177 -11.39950
 Alpha  occ. eigenvalues --  -11.39318 -11.36349  -1.80490  -1.73152  -1.17239
 Alpha  occ. eigenvalues --   -1.07130  -0.96707  -0.88691  -0.78179  -0.71198
 Alpha  occ. eigenvalues --   -0.64115  -0.61203  -0.60609  -0.57016  -0.55057
 Alpha  occ. eigenvalues --   -0.54360  -0.49588  -0.47019  -0.42524  -0.40101
 Alpha  occ. eigenvalues --   -0.38515  -0.30472  -0.26171
 Alpha virt. eigenvalues --    0.03753   0.05004   0.05136   0.05471   0.05715
 Alpha virt. eigenvalues --    0.06001   0.06455   0.07129   0.08721   0.08926
 Alpha virt. eigenvalues --    0.09623   0.12057   0.12993   0.13668   0.14537

 Mulliken charges:
               1
     1  C   -2.972904
     2  O   -3.586546
     3  C    0.642199
     4  C   -1.385682
     5  O   -2.659094
     6  C    0.791960
     7  C   -3.902510
     8  H    1.337506
     9  H    1.306665
    10  H    1.361344
    11  H    1.822390
    12  H    1.290496
    13  H    0.745496
    14  H    1.570888
    15  H    1.247120
    16  H    1.146692
    17  H    1.243980
 Sum of Mulliken charges =   0.00000

 Dipole moment (field-independent basis, Debye):
    X=              1.5816    Y=              2.2680    Z=             -0.7310  Tot=              2.8600

 Test job not archived.
 1\1\GINC-SE322\SP\RHF\Aug-CC-pVDZ\C5H10O2\OHZDE\09-Apr-2025\0\\#t hf a
 ug-cc-pvdz iop(5/13=1,5/36=2,99/5=2) pseudo=read geom=check guess=(rea
 d,tcheck) scf=(maxcycle=1)\\title\\0,1\C,0,2.02023898,1.2966944,-0.336
 67881\O,0,0.67158317,0.96880072,-0.13425157\C,0,0.38763062,-0.38070397
 ,-0.47581094\C,0,0.84701606,-1.49214807,0.44603119\O,0,-0.80828288,-1.
 31624841,1.13034738\C,0,-1.07197693,-0.67784011,-0.17925979\C,0,-2.039
 94755,0.46072589,-0.03115243\H,0,2.68632602,0.69478058,0.29394067\H,0,
 2.31180327,1.15174823,-1.38594659\H,0,2.14705635,2.34676711,-0.0763452

 Normal termination of Gaussian 16 at Wed Apr  9 03:27:38 2025.
