 Gaussian 16, Revision C.01,

 ----------------------------------------------------------------------
 #t hf aug-cc-pvdz symm=none int=(grid=ultrafine) guess=(read,tcheck) s
 table=(opt,rrhf)
 ----------------------------------------------------------------------
 -----
 title
 -----
 Symbolic Z-matrix:
 Charge =  0 Multiplicity = 1

 SCF Done:  E(RHF) =  -338.741808119     A.U. after   14 cycles
 Normal termination of Gaussian 16 at Wed Apr  9 03:52:31 2025.
 Gaussian 16:  ES64L-G16RevC.01  3-Jul-2019

 ----------------------------------------------------------------------
 #t hf aug-cc-pvdz iop(5/13=1,5/36=2,99/5=2) pseudo=read geom=check gue
 ss=(read,tcheck) scf=(maxcycle=1)
 ----------------------------------------------------------------------
 -----
 title
 -----
 Structure from the checkpoint file:  "Grambow2020_wb97xd3_008314_reverse_mol2.chk"
 Charge =  0 Multiplicity = 1

                         Standard orientation:
 ---------------------------------------------------------------------
 Center     Atomic      Atomic             Coordinates (Angstroms)
 Number     Number       Type             X           Y           Z
 ---------------------------------------------------------------------
      1          6           0       -2.465364   -0.329115   -0.001463
      2          8           0       -1.449450    0.669819    0.000811
      3          6           0       -0.205515    0.215298    0.001777
      4          6           0        0.946696    1.139071   -0.000181
      5          7           0        2.030079    0.475442   -0.001127
      6          6           0        1.617813   -0.919727   -0.000490
      7          7           0        0.174669   -1.000573    0.001766
      8          1           0       -2.372704   -0.961594   -0.885324
      9          1           0       -3.410579    0.207138   -0.009958
     10          1           0       -2.384427   -0.952794    0.889755
     11          1           0        0.899916    2.221981   -0.000115
     12          1           0        2.032412   -1.414916   -0.883202
     13          1           0        2.035968   -1.415614    0.880032
 ---------------------------------------------------------------------

 SCF Done:  E(RHF) =  -340.269169944     A.U. after    2 cycles

 The electronic state is 1-A.
 Alpha  occ. eigenvalues --  -21.09993 -15.75019 -15.72249 -11.49503 -11.43129
 Alpha  occ. eigenvalues --  -11.41914 -11.40814  -1.82709  -1.51816  -1.26133
 Alpha  occ. eigenvalues --   -1.07809  -0.99514  -0.84027  -0.77057  -0.71453
 Alpha  occ. eigenvalues --   -0.67062  -0.62229  -0.59870  -0.57618  -0.53529
 Alpha  occ. eigenvalues --   -0.49923  -0.43405  -0.40748  -0.40723  -0.38238
 Alpha  occ. eigenvalues --   -0.31559
 Alpha virt. eigenvalues --    0.03570   0.05183   0.05862   0.06211   0.06470
 Alpha virt. eigenvalues --    0.06786   0.09317   0.10321   0.10515   0.11846
 Alpha virt. eigenvalues --    0.12815   0.14214   0.14273   0.15145   0.15175

 Mulliken charges:
               1
     1  C   -3.027312
     2  O   -3.946609
     3  C    6.727143
     4  C   -1.244426
     5  N   -2.503257
     6  C   -1.484332
     7  N   -3.188004
     8  H    1.328725
     9  H    1.386791
    10  H    1.328825
    11  H    1.487670
    12  H    1.567424
    13  H    1.567362
 Sum of Mulliken charges =  -0.00000

 Dipole moment (field-independent basis, Debye):
    X=             -1.7349    Y=              0.6075    Z=             -0.0032  Tot=              1.8382

 Test job not archived.
 1\1\GINC-SE292\SP\RHF\Aug-CC-pVDZ\C4H6N2O1\OHZDE\09-Apr-2025\0\\#t hf
 aug-cc-pvdz iop(5/13=1,5/36=2,99/5=2) pseudo=read geom=check guess=(re
 ad,tcheck) scf=(maxcycle=1)\\title\\0,1\C,0,2.21390554,0.37987075,-0.4
 3237137\O,0,1.32366542,-0.69863218,-0.15986817\C,0,0.05147594,-0.36177
 761,-0.01145936\C,0,-0.98154325,-1.37885606,0.27027492\N,0,-2.11882498
 ,-0.82112248,0.3684918\C,0,-1.86462916,0.59472512,0.15119269\N,0,-0.45
 413792,0.8052482,-0.08417933\H,0,1.92454247,0.88621078,-1.354171\H,0,3
 .20014481,-0.06566398,-0.53188221\H,0,2.1974882,1.09994368,0.38678742\

 Normal termination of Gaussian 16 at Wed Apr  9 03:52:35 2025.
