 Gaussian 16, Revision C.01,

 ----------------------------------------------------------------------
 #t hf aug-cc-pvdz symm=none int=(grid=ultrafine) guess=(read,tcheck) s
 table=(opt,rrhf)
 ----------------------------------------------------------------------
 -----
 title
 -----
 Symbolic Z-matrix:
 Charge =  0 Multiplicity = 1

 SCF Done:  E(RHF) =  -186.879215857     A.U. after   14 cycles
 Normal termination of Gaussian 16 at Wed Apr  9 15:40:32 2025.
 Gaussian 16:  ES64L-G16RevC.01  3-Jul-2019

 ----------------------------------------------------------------------
 #t hf aug-cc-pvdz iop(5/13=1,5/36=2,99/5=2) pseudo=read geom=check gue
 ss=(read,tcheck) scf=(maxcycle=1)
 ----------------------------------------------------------------------
 -----
 title
 -----
 Structure from the checkpoint file:  "Grambow2020_b97d3_006605_forward_mol1.chk"
 Charge =  0 Multiplicity = 1

                         Standard orientation:
 ---------------------------------------------------------------------
 Center     Atomic      Atomic             Coordinates (Angstroms)
 Number     Number       Type             X           Y           Z
 ---------------------------------------------------------------------
      1          7           0        1.134861   -0.660680   -0.024015
      2          6           0        1.206643    0.631223    0.140548
      3          6           0       -1.345650    0.615396   -0.322253
      4          7           0       -1.652054   -0.420169    0.175276
      5          1           0        0.212750   -1.071936    0.243778
      6          1           0        1.713356   -1.145722   -0.705581
      7          1           0        2.002397    1.197179   -0.341328
      8          1           0        0.525883    1.106703    0.834532
 ---------------------------------------------------------------------

 SCF Done:  E(RHF) =  -187.739268074     A.U. after    2 cycles

 The electronic state is 1-A.
 Alpha  occ. eigenvalues --  -15.88182 -15.65885 -11.54733 -11.29298  -1.47198
 Alpha  occ. eigenvalues --   -1.19725  -1.01048  -0.81795  -0.72103  -0.64326
 Alpha  occ. eigenvalues --   -0.56265  -0.51920  -0.36326  -0.35795  -0.35407
 Alpha virt. eigenvalues --    0.01214   0.03087   0.04021   0.05854   0.07588
 Alpha virt. eigenvalues --    0.08992   0.10364   0.13054   0.13691   0.13881
 Alpha virt. eigenvalues --    0.15133   0.15792   0.17250   0.19458   0.20144

 Mulliken charges:
               1
     1  N   -2.146557
     2  C   -1.361291
     3  C    0.265079
     4  N   -1.258646
     5  H    0.799366
     6  H    0.736806
     7  H    1.397228
     8  H    1.568015
 Sum of Mulliken charges =  -0.00000

 Dipole moment (field-independent basis, Debye):
    X=              9.1867    Y=             -0.9190    Z=              0.1718  Tot=              9.2342

 Test job not archived.
 1\1\GINC-SE163\SP\RHF\Aug-CC-pVDZ\C2H4N2\OHZDE\09-Apr-2025\0\\#t hf au
 g-cc-pvdz iop(5/13=1,5/36=2,99/5=2) pseudo=read geom=check guess=(read
 ,tcheck) scf=(maxcycle=1)\\title\\0,1\N,0,-0.78154063,-0.45198727,0.30
 667383\C,0,-0.48736656,0.80914619,0.15094534\C,0,1.88752289,-0.0413280
 9,-0.45339633\N,0,1.62143049,-1.06068421,-1.00468851\H,0,-0.22456258,-
 1.09552389,-0.2989402\H,0,-1.17282506,-0.80624476,1.1760719\H,0,-0.801
 86472,1.53686419,0.89743852\H,0,-0.01586984,1.12423884,-0.77075856\\Ve
 rsion=ES64L-G16RevC.01\State=1-A\HF=-187.7392681\RMSD=5.212e-02\Dipole

 Normal termination of Gaussian 16 at Wed Apr  9 15:40:34 2025.
