 Gaussian 16, Revision C.01,

 ----------------------------------------------------------------------
 #t hf aug-cc-pvdz symm=none int=(grid=ultrafine) guess=(read,tcheck) s
 table=(opt,rrhf)
 ----------------------------------------------------------------------
 -----
 title
 -----
 Symbolic Z-matrix:
 Charge =  0 Multiplicity = 1

 SCF Done:  E(RHF) =  -322.553583956     A.U. after   15 cycles
 Normal termination of Gaussian 16 at Wed Apr  9 04:04:43 2025.
 Gaussian 16:  ES64L-G16RevC.01  3-Jul-2019

 ----------------------------------------------------------------------
 #t hf aug-cc-pvdz iop(5/13=1,5/36=2,99/5=2) pseudo=read geom=check gue
 ss=(read,tcheck) scf=(maxcycle=1)
 ----------------------------------------------------------------------
 -----
 title
 -----
 Structure from the checkpoint file:  "Grambow2020_wb97xd3_009201_reverse_mol1.chk"
 Charge =  0 Multiplicity = 1

                         Standard orientation:
 ---------------------------------------------------------------------
 Center     Atomic      Atomic             Coordinates (Angstroms)
 Number     Number       Type             X           Y           Z
 ---------------------------------------------------------------------
      1          8           0        1.992500   -0.968108   -0.274348
      2          6           0        1.812544    0.329757    0.236502
      3          6           0        0.540587    0.967713   -0.134776
      4          6           0       -0.489135    1.635369   -0.389326
      5          6           0       -1.030297    0.307322    0.482335
      6          6           0       -2.187361   -0.364556   -0.153677
      7          7           0       -0.972354   -1.117878    0.070593
      8          1           0        1.449242   -1.573161    0.238321
      9          1           0        1.916198    0.348847    1.327438
     10          1           0        2.603061    0.961273   -0.175094
     11          1           0       -1.060481    0.453180    1.554262
     12          1           0       -2.431086   -0.054184   -1.161795
     13          1           0       -3.027523   -0.635844    0.475355
     14          1           0       -0.460950   -1.183729   -0.804190
 ---------------------------------------------------------------------

 SCF Done:  E(RHF) =  -324.046920696     A.U. after    2 cycles

 The electronic state is 1-A.
 Alpha  occ. eigenvalues --  -21.09598 -15.75794 -11.50980 -11.48635 -11.43095
 Alpha  occ. eigenvalues --  -11.41984 -11.38426  -1.74425  -1.48522  -1.20943
 Alpha  occ. eigenvalues --   -1.03339  -0.95553  -0.86077  -0.71492  -0.69660
 Alpha  occ. eigenvalues --   -0.67800  -0.65170  -0.60003  -0.52363  -0.50283
 Alpha  occ. eigenvalues --   -0.47200  -0.44118  -0.42627  -0.36631  -0.35100
 Alpha  occ. eigenvalues --   -0.33678
 Alpha virt. eigenvalues --    0.03741   0.05019   0.05527   0.05954   0.06258
 Alpha virt. eigenvalues --    0.06816   0.07778   0.09538   0.10283   0.10964
 Alpha virt. eigenvalues --    0.11483   0.12561   0.13373   0.13764   0.14778

 Mulliken charges:
               1
     1  O   -2.508542
     2  C   -1.836544
     3  C    2.967322
     4  C   -1.952392
     5  C   -0.586698
     6  C   -2.397320
     7  N   -1.842521
     8  H    0.801528
     9  H    1.266532
    10  H    1.163290
    11  H    1.363999
    12  H    1.374209
    13  H    1.360535
    14  H    0.826602
 Sum of Mulliken charges =  -0.00000

 Dipole moment (field-independent basis, Debye):
    X=              1.0146    Y=             -2.0133    Z=              1.1296  Tot=              2.5217

 Test job not archived.
 1\1\GINC-SE362\SP\RHF\Aug-CC-pVDZ\C5H7N1O1\OHZDE\09-Apr-2025\0\\#t hf
 aug-cc-pvdz iop(5/13=1,5/36=2,99/5=2) pseudo=read geom=check guess=(re
 ad,tcheck) scf=(maxcycle=1)\\title\\0,1\O,0,1.63939399,-1.06778622,1.5
 1097962\C,0,1.91198414,-0.39559379,0.3061317\C,0,0.77131587,-0.2972973
 4,-0.61686487\C,0,-0.10446754,-0.15853389,-1.50266168\C,0,-0.68059078,
 0.69424789,-0.17706627\C,0,-2.0903032,0.37201554,0.14481492\N,0,-1.069
 66449,0.13973372,1.14400218\H,0,1.1313695,-0.48009324,2.07717344\H,0,2
 .31051862,0.60887436,0.48906393\H,0,2.68456735,-0.95950732,-0.22136995

 Normal termination of Gaussian 16 at Wed Apr  9 04:04:47 2025.
