 Gaussian 16, Revision C.01,

 ----------------------------------------------------------------------
 #t hf aug-cc-pvdz symm=none int=(grid=ultrafine) guess=(read,tcheck) s
 table=(opt,rrhf)
 ----------------------------------------------------------------------
 -----
 title
 -----
 Symbolic Z-matrix:
 Charge =  0 Multiplicity = 1

 SCF Done:  E(RHF) =  -317.712857159     A.U. after   15 cycles
 Normal termination of Gaussian 16 at Wed Apr  9 19:04:38 2025.
 Gaussian 16:  ES64L-G16RevC.01  3-Jul-2019

 ----------------------------------------------------------------------
 #t hf aug-cc-pvdz iop(5/13=1,5/36=2,99/5=2) pseudo=read geom=check gue
 ss=(read,tcheck) scf=(maxcycle=1)
 ----------------------------------------------------------------------
 -----
 title
 -----
 Structure from the checkpoint file:  "Grambow2020_wb97xd3_008055_reverse_mol2.chk"
 Charge =  0 Multiplicity = 1

                         Standard orientation:
 ---------------------------------------------------------------------
 Center     Atomic      Atomic             Coordinates (Angstroms)
 Number     Number       Type             X           Y           Z
 ---------------------------------------------------------------------
      1          7           0        2.159864   -1.182058    0.474040
      2          6           0        1.637964   -0.287067   -0.020218
      3          6           0       -1.673686   -0.448434    0.302883
      4          6           0       -0.845617    0.711089    0.801344
      5          7           0       -0.103769    1.355983   -0.253749
      6          6           0        0.996679    0.869629   -0.623772
      7          7           0       -1.481298   -0.977627   -0.822346
      8          1           0       -2.429345   -0.793787    1.017380
      9          1           0       -1.515305    1.446169    1.252376
     10          1           0       -0.197865    0.325893    1.602074
     11          1           0        1.540049    1.335022   -1.441796
     12          1           0       -2.113156   -1.758676   -0.977066
 ---------------------------------------------------------------------

 SCF Done:  E(RHF) =  -319.159154274     A.U. after    2 cycles

 The electronic state is 1-A.
 Alpha  occ. eigenvalues --  -15.77981 -15.77422 -15.75309 -11.49040 -11.46989
 Alpha  occ. eigenvalues --  -11.44209 -11.41481  -1.45783  -1.34615  -1.30487
 Alpha  occ. eigenvalues --   -1.10086  -0.94477  -0.82216  -0.73721  -0.70433
 Alpha  occ. eigenvalues --   -0.66940  -0.58496  -0.56541  -0.54601  -0.50665
 Alpha  occ. eigenvalues --   -0.46022  -0.43898  -0.41239  -0.39972  -0.38580
 Alpha virt. eigenvalues --    0.03260   0.05062   0.05479   0.05798   0.06734
 Alpha virt. eigenvalues --    0.08852   0.09433   0.10558   0.11007   0.11129
 Alpha virt. eigenvalues --    0.12532   0.13264   0.14302   0.14363   0.14735

 Mulliken charges:
               1
     1  N   -2.518578
     2  C    2.256593
     3  C    0.804078
     4  C   -2.074672
     5  N   -2.775274
     6  C    0.481474
     7  N   -2.869049
     8  H    1.505439
     9  H    1.289126
    10  H    1.598851
    11  H    1.578042
    12  H    0.723970
 Sum of Mulliken charges =   0.00000

 Dipole moment (field-independent basis, Debye):
    X=             -2.1770    Y=              0.7804    Z=              0.6170  Tot=              2.3935

 Test job not archived.
 1\1\GINC-SE029\SP\RHF\Aug-CC-pVDZ\C4H5N3\OHZDE\09-Apr-2025\0\\#t hf au
 g-cc-pvdz iop(5/13=1,5/36=2,99/5=2) pseudo=read geom=check guess=(read
 ,tcheck) scf=(maxcycle=1)\\title\\0,1\N,0,1.4783298,-0.65722735,2.2924
 0571\C,0,0.47044393,-0.24897903,1.92473974\C,0,0.44143542,0.19476278,-
 1.37673187\C,0,-0.53967359,-0.69188917,-0.6487699\N,0,-1.31274599,0.02
 702016,0.33356365\C,0,-0.82310941,0.23774943,1.47386675\N,0,0.76441033
 ,1.33326829,-0.9493087\H,0,0.8565348,-0.2551021,-2.28563723\H,0,-1.225
 69246,-1.12311785,-1.38066701\H,0,0.03534859,-1.5215822,-0.21278122\H,

 Normal termination of Gaussian 16 at Wed Apr  9 19:04:43 2025.
