 Gaussian 16, Revision C.01,

 ----------------------------------------------------------------------
 #t hf aug-cc-pvdz symm=none int=(grid=ultrafine) guess=(read,tcheck) s
 table=(opt,rrhf)
 ----------------------------------------------------------------------
 -----
 title
 -----
 Symbolic Z-matrix:
 Charge =  0 Multiplicity = 1

 SCF Done:  E(RHF) =  -322.624658764     A.U. after   16 cycles
 Normal termination of Gaussian 16 at Wed Apr  9 18:40:33 2025.
 Gaussian 16:  ES64L-G16RevC.01  3-Jul-2019

 ----------------------------------------------------------------------
 #t hf aug-cc-pvdz iop(5/13=1,5/36=2,99/5=2) pseudo=read geom=check gue
 ss=(read,tcheck) scf=(maxcycle=1)
 ----------------------------------------------------------------------
 -----
 title
 -----
 Structure from the checkpoint file:  "Grambow2020_wb97xd3_007393_reverse_mol2.chk"
 Charge =  0 Multiplicity = 1

                         Standard orientation:
 ---------------------------------------------------------------------
 Center     Atomic      Atomic             Coordinates (Angstroms)
 Number     Number       Type             X           Y           Z
 ---------------------------------------------------------------------
      1          6           0       -1.777205    1.442256   -0.084390
      2          6           0       -2.164385    0.200632    0.153462
      3          6           0       -1.335694   -1.025445   -0.083085
      4          8           0       -0.018590   -0.754378   -0.522882
      5          6           0        0.848606   -0.401687    0.456877
      6          7           0        1.959104    0.101382    0.167412
      7          6           0        3.116132    0.406530   -0.169265
      8          1           0       -0.795640    1.664868   -0.485489
      9          1           0       -2.435656    2.279444    0.108617
     10          1           0       -3.158420    0.004135    0.547381
     11          1           0       -1.786236   -1.637743   -0.867049
     12          1           0       -1.309060   -1.640598    0.826134
     13          1           0        0.561058   -0.577814    1.488317
     14          1           0        3.234221    1.499347   -0.248328
 ---------------------------------------------------------------------

 SCF Done:  E(RHF) =  -324.095542033     A.U. after    2 cycles

 The electronic state is 1-A.
 Alpha  occ. eigenvalues --  -21.09223 -15.80110 -11.49100 -11.46477 -11.42225
 Alpha  occ. eigenvalues --  -11.39932 -11.38598  -1.81916  -1.41228  -1.19562
 Alpha  occ. eigenvalues --   -1.04687  -0.97632  -0.80372  -0.79214  -0.68771
 Alpha  occ. eigenvalues --   -0.66330  -0.65334  -0.59682  -0.57131  -0.53506
 Alpha  occ. eigenvalues --   -0.51888  -0.45222  -0.41169  -0.40577  -0.36732
 Alpha  occ. eigenvalues --   -0.25712
 Alpha virt. eigenvalues --    0.03131   0.04914   0.05115   0.05545   0.05771
 Alpha virt. eigenvalues --    0.05896   0.07877   0.09800   0.10216   0.10629
 Alpha virt. eigenvalues --    0.11958   0.12193   0.13216   0.13692   0.13931

 Mulliken charges:
               1
     1  C   -2.867267
     2  C   -0.564562
     3  C   -2.038210
     4  O   -3.018095
     5  C    2.656787
     6  N   -2.699170
     7  C   -1.660882
     8  H    1.665153
     9  H    1.363171
    10  H    1.349723
    11  H    1.273587
    12  H    1.429478
    13  H    1.567551
    14  H    1.542735
 Sum of Mulliken charges =   0.00000

 Dipole moment (field-independent basis, Debye):
    X=             -4.0736    Y=              0.1636    Z=              0.9303  Tot=              4.1817

 Test job not archived.
 1\1\GINC-SE162\SP\RHF\Aug-CC-pVDZ\C5H7N1O1\OHZDE\09-Apr-2025\0\\#t hf
 aug-cc-pvdz iop(5/13=1,5/36=2,99/5=2) pseudo=read geom=check guess=(re
 ad,tcheck) scf=(maxcycle=1)\\title\\0,1\C,0,-1.82992067,0.57419787,-0.
 34354813\C,0,-0.91727304,1.52987229,-0.30026114\C,0,0.43296832,1.40980
 534,0.33878616\O,0,0.71657288,0.12066257,0.84804116\C,0,1.11523384,-0.
 78376685,-0.07900982\N,0,1.14909678,-2.00437954,0.2021154\C,0,1.356496
 02,-3.16877124,0.58468458\H,0,-1.65629365,-0.39846656,0.10106889\H,0,-
 2.78750796,0.7374178,-0.82112345\H,0,-1.12060528,2.50029906,-0.7461513

 Normal termination of Gaussian 16 at Wed Apr  9 18:40:38 2025.
