 Gaussian 16, Revision C.01,

 ----------------------------------------------------------------------
 #t hf aug-cc-pvdz symm=none int=(grid=ultrafine) guess=(read,tcheck) s
 table=(opt,rrhf)
 ----------------------------------------------------------------------
 -----
 title
 -----
 Symbolic Z-matrix:
 Charge =  0 Multiplicity = 1

 SCF Done:  E(RHF) =  -320.550079060     A.U. after   16 cycles
 Normal termination of Gaussian 16 at Wed Apr  9 17:26:10 2025.
 Gaussian 16:  ES64L-G16RevC.01  3-Jul-2019

 ----------------------------------------------------------------------
 #t hf aug-cc-pvdz iop(5/13=1,5/36=2,99/5=2) pseudo=read geom=check gue
 ss=(read,tcheck) scf=(maxcycle=1)
 ----------------------------------------------------------------------
 -----
 title
 -----
 Structure from the checkpoint file:  "Grambow2020_b97d3_007134_forward_mol1.chk"
 Charge =  0 Multiplicity = 1

                         Standard orientation:
 ---------------------------------------------------------------------
 Center     Atomic      Atomic             Coordinates (Angstroms)
 Number     Number       Type             X           Y           Z
 ---------------------------------------------------------------------
      1          8           0       -1.169307   -1.436285   -0.409794
      2          6           0       -0.925041   -0.383732    0.060975
      3          7           0       -1.035120    0.825027    0.500121
      4          6           0       -0.120995    1.460137   -0.423191
      5          6           0        1.647473   -0.109045   -0.363347
      6          8           0        1.310375   -0.667339    0.699433
      7          1           0       -1.335114    1.085664    1.448149
      8          1           0       -0.635396    1.951278   -1.251612
      9          1           0        0.642042    2.057173    0.075731
     10          1           0        2.428224    0.682400   -0.375068
     11          1           0        1.408913   -0.526872   -1.361784
 ---------------------------------------------------------------------

 SCF Done:  E(RHF) =  -321.974094959     A.U. after    2 cycles

 The electronic state is 1-A.
 Alpha  occ. eigenvalues --  -21.16324 -21.02587 -15.84525 -11.62460 -11.46177
 Alpha  occ. eigenvalues --  -11.36370  -1.79647  -1.67374  -1.47653  -0.97206
 Alpha  occ. eigenvalues --   -0.88493  -0.85666  -0.67394  -0.66663  -0.64592
 Alpha  occ. eigenvalues --   -0.60954  -0.53925  -0.51135  -0.49464  -0.42396
 Alpha  occ. eigenvalues --   -0.38986  -0.27910  -0.26560
 Alpha virt. eigenvalues --    0.03257   0.04945   0.05696   0.05902   0.07078
 Alpha virt. eigenvalues --    0.08806   0.10006   0.11587   0.12404   0.12603
 Alpha virt. eigenvalues --    0.13602   0.14220   0.14715   0.15178   0.16659

 Mulliken charges:
               1
     1  O   -2.674481
     2  C    4.552901
     3  N   -2.426817
     4  C   -2.567566
     5  C   -0.735735
     6  O   -2.148979
     7  H    0.797604
     8  H    1.239661
     9  H    1.318718
    10  H    1.228049
    11  H    1.416645
 Sum of Mulliken charges =  -0.00000

 Dipole moment (field-independent basis, Debye):
    X=             -1.8654    Y=             -0.2752    Z=              0.9744  Tot=              2.1225

 Test job not archived.
 1\1\GINC-SE051\SP\RHF\Aug-CC-pVDZ\C3H5N1O2\OHZDE\09-Apr-2025\0\\#t hf
 aug-cc-pvdz iop(5/13=1,5/36=2,99/5=2) pseudo=read geom=check guess=(re
 ad,tcheck) scf=(maxcycle=1)\\title\\0,1\O,0,1.98576625,0.00124833,-1.2
 5972017\C,0,1.33983017,-0.32195091,-0.32834136\N,0,0.8039433,-1.017484
 83,0.6177679\C,0,-0.57335418,-0.91645999,0.18842002\C,0,-0.64854695,1.
 38668732,-0.3437926\O,0,0.37015067,1.71672902,0.29507924\H,0,1.2176919
 5,-1.17280536,1.54586929\H,0,-0.91044872,-1.80341948,-0.35174695\H,0,-
 1.24007742,-0.56432166,0.97523544\H,0,-1.66501132,1.51335545,0.0884691

 Normal termination of Gaussian 16 at Wed Apr  9 17:26:13 2025.
