 Gaussian 16, Revision C.01,

 ----------------------------------------------------------------------
 #t hf aug-cc-pvdz symm=none int=(grid=ultrafine) guess=(read,tcheck) s
 table=(opt,rrhf)
 ----------------------------------------------------------------------
 -----
 title
 -----
 Symbolic Z-matrix:
 Charge =  0 Multiplicity = 1

 SCF Done:  E(RHF) =  -266.680114754     A.U. after   15 cycles
 Normal termination of Gaussian 16 at Wed Apr  9 03:04:06 2025.
 Gaussian 16:  ES64L-G16RevC.01  3-Jul-2019

 ----------------------------------------------------------------------
 #t hf aug-cc-pvdz iop(5/13=1,5/36=2,99/5=2) pseudo=read geom=check gue
 ss=(read,tcheck) scf=(maxcycle=1)
 ----------------------------------------------------------------------
 -----
 title
 -----
 Structure from the checkpoint file:  "Grambow2020_b97d3_006472_forward_mol1.chk"
 Charge =  0 Multiplicity = 1

                         Standard orientation:
 ---------------------------------------------------------------------
 Center     Atomic      Atomic             Coordinates (Angstroms)
 Number     Number       Type             X           Y           Z
 ---------------------------------------------------------------------
      1          8           0        1.574381   -0.776332   -0.143299
      2          6           0        1.181617    0.563169    0.021266
      3          6           0       -0.329308    0.740164   -0.158882
      4          6           0       -1.662604   -0.586306   -0.447964
      5          8           0       -1.007461   -0.140547    0.739962
      6          1           0        0.936489   -1.304407    0.379290
      7          1           0        1.418188    0.958453    1.028726
      8          1           0        1.722064    1.161699   -0.723344
      9          1           0       -0.720416    1.764573   -0.120047
     10          1           0       -0.546764    0.270038   -1.213625
     11          1           0       -2.483145    0.182512   -0.610825
 ---------------------------------------------------------------------

 SCF Done:  E(RHF) =  -267.861886980     A.U. after    2 cycles

 The electronic state is 1-A.
 Alpha  occ. eigenvalues --  -21.08920 -21.07565 -11.49635 -11.45745 -11.42608
 Alpha  occ. eigenvalues --   -1.81115  -1.70928  -1.09690  -0.93782  -0.86680
 Alpha  occ. eigenvalues --   -0.70697  -0.66387  -0.59061  -0.57175  -0.51169
 Alpha  occ. eigenvalues --   -0.46889  -0.43945  -0.41387  -0.33326  -0.29010
 Alpha virt. eigenvalues --    0.03626   0.05095   0.05223   0.05694   0.06816
 Alpha virt. eigenvalues --    0.07396   0.09696   0.10717   0.11278   0.12626
 Alpha virt. eigenvalues --    0.14298   0.14584   0.14809   0.16390   0.17653

 Mulliken charges:
               1
     1  O   -2.538461
     2  C   -0.457515
     3  C   -1.592690
     4  C   -0.929971
     5  O   -2.275906
     6  H    0.842938
     7  H    1.299373
     8  H    1.283412
     9  H    1.338064
    10  H    1.851862
    11  H    1.178895
 Sum of Mulliken charges =  -0.00000

 Dipole moment (field-independent basis, Debye):
    X=              0.3969    Y=              2.2943    Z=              0.9922  Tot=              2.5309

 Test job not archived.
 1\1\GINC-SE023\SP\RHF\Aug-CC-pVDZ\C3H6O2\OHZDE\09-Apr-2025\0\\#t hf au
 g-cc-pvdz iop(5/13=1,5/36=2,99/5=2) pseudo=read geom=check guess=(read
 ,tcheck) scf=(maxcycle=1)\\title\\0,1\O,0,-1.79240114,-0.42507504,-0.3
 6906385\C,0,-1.00877134,0.69885576,-0.05551787\C,0,0.45005778,0.318497
 59,0.21618058\C,0,1.28883252,-1.38340267,0.07208148\O,0,0.95660494,-0.
 40152515,-0.91007122\H,0,-1.27175714,-0.93570015,-1.02256276\H,0,-0.98
 325116,1.4452542,-0.87370395\H,0,-1.44629289,1.17138058,0.8333359\H,0,
 1.1236808,1.1216776,0.54025065\H,0,0.3783433,-0.50361013,1.05271156\H,

 Normal termination of Gaussian 16 at Wed Apr  9 03:04:08 2025.
