 Gaussian 16, Revision C.01,

 ----------------------------------------------------------------------
 #t hf aug-cc-pvdz symm=none int=(grid=ultrafine) guess=(read,tcheck) s
 table=(opt,rrhf)
 ----------------------------------------------------------------------
 -----
 title
 -----
 Symbolic Z-matrix:
 Charge =  0 Multiplicity = 1

 SCF Done:  E(RHF) =  -375.778180394     A.U. after   14 cycles
 Normal termination of Gaussian 16 at Wed Apr  9 18:56:39 2025.
 Gaussian 16:  ES64L-G16RevC.01  3-Jul-2019

 ----------------------------------------------------------------------
 #t hf aug-cc-pvdz iop(5/13=1,5/36=2,99/5=2) pseudo=read geom=check gue
 ss=(read,tcheck) scf=(maxcycle=1)
 ----------------------------------------------------------------------
 -----
 title
 -----
 Structure from the checkpoint file:  "Grambow2020_wb97xd3_007859_reverse_mol2.chk"
 Charge =  0 Multiplicity = 1

                         Standard orientation:
 ---------------------------------------------------------------------
 Center     Atomic      Atomic             Coordinates (Angstroms)
 Number     Number       Type             X           Y           Z
 ---------------------------------------------------------------------
      1          7           0       -0.883911    1.334439   -0.182128
      2          6           0       -1.274945    0.046963    0.050099
      3          8           0        1.963686    0.807035    0.418830
      4          6           0       -0.177534   -0.884550    0.515879
      5          8           0        0.906566   -0.996140   -0.423254
      6          6           0        1.901922   -0.126859   -0.333269
      7          7           0       -2.439251   -0.449838   -0.076146
      8          1           0       -1.579014    2.028254   -0.387692
      9          1           0        0.008932    1.648071    0.160727
     10          1           0       -0.599923   -1.880346    0.595633
     11          1           0        0.216342   -0.558020    1.480622
     12          1           0        2.681313   -0.385959   -1.060817
     13          1           0       -3.124196    0.255305   -0.341414
 ---------------------------------------------------------------------

 SCF Done:  E(RHF) =  -377.421686148     A.U. after    2 cycles

 The electronic state is 1-A.
 Alpha  occ. eigenvalues --  -21.11669 -21.07349 -15.77010 -15.71502 -11.52474
 Alpha  occ. eigenvalues --  -11.49534 -11.43036  -1.86819  -1.69053  -1.43405
 Alpha  occ. eigenvalues --   -1.24094  -1.07388  -0.87385  -0.80141  -0.72888
 Alpha  occ. eigenvalues --   -0.70814  -0.67104  -0.61162  -0.57303  -0.55924
 Alpha  occ. eigenvalues --   -0.51999  -0.51077  -0.43464  -0.39040  -0.33975
 Alpha  occ. eigenvalues --   -0.33294  -0.32484
 Alpha virt. eigenvalues --    0.03515   0.04835   0.06064   0.06244   0.06709
 Alpha virt. eigenvalues --    0.08201   0.09764   0.10323   0.11496   0.12224
 Alpha virt. eigenvalues --    0.12804   0.13375   0.15203   0.15997   0.16791

 Mulliken charges:
               1
     1  N   -2.999264
     2  C    4.168495
     3  O   -2.537435
     4  C   -1.471273
     5  O   -2.776013
     6  C    2.503525
     7  N   -3.331654
     8  H    0.696219
     9  H    0.740153
    10  H    1.148444
    11  H    1.503987
    12  H    1.663334
    13  H    0.691481
 Sum of Mulliken charges =   0.00000

 Dipole moment (field-independent basis, Debye):
    X=              0.9870    Y=              1.5481    Z=             -0.1339  Tot=              1.8409

 Test job not archived.
 1\1\GINC-SE114\SP\RHF\Aug-CC-pVDZ\C3H6N2O2\OHZDE\09-Apr-2025\0\\#t hf
 aug-cc-pvdz iop(5/13=1,5/36=2,99/5=2) pseudo=read geom=check guess=(re
 ad,tcheck) scf=(maxcycle=1)\\title\\0,1\N,0,-1.04866381,0.35121619,-0.
 99742635\C,0,0.02209376,-0.49576308,-0.9742237\O,0,-1.01421605,0.82295
 996,1.92222808\C,0,0.58214378,-0.78710606,0.40070977\O,0,1.03476824,0.
 39233705,1.08899881\C,0,0.15850232,1.06092199,1.82359625\N,0,0.5916443
 1,-1.06087889,-1.96144835\H,0,-1.53593897,0.50162632,-1.86157007\H,0,-
 1.53462384,0.55530161,-0.13994502\H,0,1.46186596,-1.40896267,0.2751383

 Normal termination of Gaussian 16 at Wed Apr  9 18:56:43 2025.
