 Gaussian 16, Revision C.01,

 ----------------------------------------------------------------------
 #t hf aug-cc-pvdz symm=none int=(grid=ultrafine) guess=(read,tcheck) s
 table=(opt,rrhf)
 ----------------------------------------------------------------------
 -----
 title
 -----
 Symbolic Z-matrix:
 Charge =  0 Multiplicity = 1

 SCF Done:  E(RHF) =  -302.746167411     A.U. after   15 cycles
 Normal termination of Gaussian 16 at Wed Apr  9 19:24:07 2025.
 Gaussian 16:  ES64L-G16RevC.01  3-Jul-2019

 ----------------------------------------------------------------------
 #t hf aug-cc-pvdz iop(5/13=1,5/36=2,99/5=2) pseudo=read geom=check gue
 ss=(read,tcheck) scf=(maxcycle=1)
 ----------------------------------------------------------------------
 -----
 title
 -----
 Structure from the checkpoint file:  "Grambow2020_wb97xd3_008920_forward_mol1.chk"
 Charge =  0 Multiplicity = 1

                         Standard orientation:
 ---------------------------------------------------------------------
 Center     Atomic      Atomic             Coordinates (Angstroms)
 Number     Number       Type             X           Y           Z
 ---------------------------------------------------------------------
      1          6           0        2.209390   -0.826114    0.022847
      2          7           0        0.054576   -0.742309   -0.023659
      3          6           0       -1.227261   -1.182720   -0.013216
      4          6           0       -2.078417   -0.087028    0.011252
      5          6           0       -1.267688    1.073462    0.014091
      6          6           0        0.024763    0.589714   -0.009396
      7          7           0        1.341072    1.109329   -0.019263
      8          1           0        3.079673   -0.252162   -0.268677
      9          1           0        2.177795   -1.073676    1.072581
     10          1           0        2.013710   -1.654358   -0.637261
     11          1           0       -1.468410   -2.235247   -0.018172
     12          1           0       -3.158061   -0.120144    0.027274
     13          1           0       -1.588381    2.103591    0.027434
     14          1           0        1.600723    1.617060   -0.856856
     15          1           0        1.608697    1.641903    0.800664
 ---------------------------------------------------------------------

 SCF Done:  E(RHF) =  -304.221715088     A.U. after    2 cycles

 The electronic state is 1-A.
 Alpha  occ. eigenvalues --  -15.79418 -15.67294 -11.50546 -11.41909 -11.37372
 Alpha  occ. eigenvalues --  -11.35007 -11.30237  -1.47727  -1.31114  -1.08639
 Alpha  occ. eigenvalues --   -1.02429  -0.96832  -0.76031  -0.71993  -0.70164
 Alpha  occ. eigenvalues --   -0.68342  -0.63498  -0.62332  -0.51816  -0.50436
 Alpha  occ. eigenvalues --   -0.49974  -0.45926  -0.39272  -0.33855  -0.26680
 Alpha  occ. eigenvalues --   -0.24324
 Alpha virt. eigenvalues --    0.01778   0.03640   0.04934   0.05437   0.06149
 Alpha virt. eigenvalues --    0.06757   0.06924   0.07284   0.09044   0.10987
 Alpha virt. eigenvalues --    0.11904   0.12859   0.13639   0.14016   0.15063

 Mulliken charges:
               1
     1  C   -3.618755
     2  N   -3.226525
     3  C    0.057796
     4  C   -0.680633
     5  C   -2.545347
     6  C    4.425381
     7  N   -3.531996
     8  H    1.284746
     9  H    1.366331
    10  H    1.330850
    11  H    1.409771
    12  H    1.351020
    13  H    1.350120
    14  H    0.491572
    15  H    0.535671
 Sum of Mulliken charges =  -0.00000

 Dipole moment (field-independent basis, Debye):
    X=              6.0963    Y=              0.8388    Z=              0.1014  Tot=              6.1545

 Test job not archived.
 1\1\GINC-SE454\SP\RHF\Aug-CC-pVDZ\C5H8N2\OHZDE\09-Apr-2025\0\\#t hf au
 g-cc-pvdz iop(5/13=1,5/36=2,99/5=2) pseudo=read geom=check guess=(read
 ,tcheck) scf=(maxcycle=1)\\title\\0,1\C,0,-1.92120917,-0.9220151,0.302
 84745\N,0,0.22117885,-0.67472307,0.26506719\C,0,1.53259185,-1.00255812
 ,0.36455717\C,0,2.29858328,0.08394652,-0.03340288\C,0,1.40256359,1.120
 45216,-0.38953726\C,0,0.15034204,0.5797003,-0.17853332\N,0,-1.20142355
 ,0.97963585,-0.30322174\H,0,-2.8320215,-0.348034,0.41583541\H,0,-1.872
 14489,-1.49277807,-0.61150993\H,0,-1.66285791,-1.47621859,1.18948956\H

 Normal termination of Gaussian 16 at Wed Apr  9 19:24:12 2025.
