 Gaussian 16, Revision C.01,

 ----------------------------------------------------------------------
 #t hf aug-cc-pvdz symm=none int=(grid=ultrafine) guess=(read,tcheck) s
 table=(opt,rrhf)
 ----------------------------------------------------------------------
 -----
 title
 -----
 Symbolic Z-matrix:
 Charge =  0 Multiplicity = 1

 SCF Done:  E(RHF) =  -304.594529094     A.U. after   15 cycles
 Normal termination of Gaussian 16 at Wed Apr  9 03:14:27 2025.
 Gaussian 16:  ES64L-G16RevC.01  3-Jul-2019

 ----------------------------------------------------------------------
 #t hf aug-cc-pvdz iop(5/13=1,5/36=2,99/5=2) pseudo=read geom=check gue
 ss=(read,tcheck) scf=(maxcycle=1)
 ----------------------------------------------------------------------
 -----
 title
 -----
 Structure from the checkpoint file:  "Grambow2020_b97d3_006925_reverse_mol2.chk"
 Charge =  0 Multiplicity = 1

                         Standard orientation:
 ---------------------------------------------------------------------
 Center     Atomic      Atomic             Coordinates (Angstroms)
 Number     Number       Type             X           Y           Z
 ---------------------------------------------------------------------
      1          8           0       -0.913410    1.305849   -0.330932
      2          6           0       -0.850197   -0.042451   -0.101338
      3          6           0       -1.766002   -0.771969    0.561434
      4          6           0        1.680673    0.268952    0.993839
      5          8           0        1.652149   -0.156132   -0.252251
      6          6           0        0.348995   -0.644344   -0.765125
      7          1           0       -1.621990    1.679205    0.227242
      8          1           0       -2.670079   -0.327149    0.979271
      9          1           0       -1.613196   -1.835618    0.722487
     10          1           0        2.774273    0.542824    1.083817
     11          1           0        0.360050   -1.732334   -0.649640
     12          1           0        0.380208   -0.385800   -1.830568
 ---------------------------------------------------------------------

 SCF Done:  E(RHF) =  -305.943379755     A.U. after    2 cycles

 The electronic state is 1-A.
 Alpha  occ. eigenvalues --  -21.11504 -21.10536 -11.48526 -11.43990 -11.41143
 Alpha  occ. eigenvalues --  -11.38247  -1.80437  -1.74534  -1.15617  -1.01751
 Alpha  occ. eigenvalues --   -0.84691  -0.77122  -0.67642  -0.65141  -0.59883
 Alpha  occ. eigenvalues --   -0.57359  -0.54270  -0.48076  -0.46401  -0.44455
 Alpha  occ. eigenvalues --   -0.41620  -0.31732  -0.29169
 Alpha virt. eigenvalues --    0.03465   0.05327   0.05542   0.05684   0.06307
 Alpha virt. eigenvalues --    0.07166   0.09392   0.10591   0.10909   0.12674
 Alpha virt. eigenvalues --    0.13248   0.13855   0.14572   0.15195   0.15408

 Mulliken charges:
               1
     1  O   -3.673512
     2  C    3.970240
     3  C   -3.902096
     4  C   -0.962018
     5  O   -2.066815
     6  C   -1.507990
     7  H    0.873166
     8  H    1.482667
     9  H    1.451670
    10  H    1.594935
    11  H    1.403368
    12  H    1.336383
 Sum of Mulliken charges =  -0.00000

 Dipole moment (field-independent basis, Debye):
    X=             -0.0017    Y=             -0.1135    Z=             -1.8271  Tot=              1.8306

 Test job not archived.
 1\1\GINC-SE106\SP\RHF\Aug-CC-pVDZ\C4H6O2\OHZDE\09-Apr-2025\0\\#t hf au
 g-cc-pvdz iop(5/13=1,5/36=2,99/5=2) pseudo=read geom=check guess=(read
 ,tcheck) scf=(maxcycle=1)\\title\\0,1\O,0,0.02349026,-1.21830306,-1.17
 445273\C,0,-0.09213413,-0.68657761,0.0819398\C,0,-0.98220138,-1.063923
 89,1.01764868\C,0,-0.28155552,1.85444657,-1.01760818\O,0,0.90374569,1.
 53008336,-0.54421686\C,0,0.97245878,0.33564298,0.33224984\H,0,-0.76243
 688,-1.77104804,-1.34716785\H,0,-1.70671851,-1.86005645,0.84141781\H,0
 ,-1.01970396,-0.55936469,1.97923633\H,0,-0.01161543,2.78096208,-1.6073

 Normal termination of Gaussian 16 at Wed Apr  9 03:14:31 2025.
