 Gaussian 16, Revision C.01,

 ----------------------------------------------------------------------
 #t hf aug-cc-pvdz symm=none int=(grid=ultrafine) guess=(read,tcheck) s
 table=(opt,rrhf)
 ----------------------------------------------------------------------
 -----
 title
 -----
 Symbolic Z-matrix:
 Charge =  0 Multiplicity = 1

 SCF Done:  E(RHF) =  -343.524093282     A.U. after   15 cycles
 Normal termination of Gaussian 16 at Wed Apr  9 19:31:17 2025.
 Gaussian 16:  ES64L-G16RevC.01  3-Jul-2019

 ----------------------------------------------------------------------
 #t hf aug-cc-pvdz iop(5/13=1,5/36=2,99/5=2) pseudo=read geom=check gue
 ss=(read,tcheck) scf=(maxcycle=1)
 ----------------------------------------------------------------------
 -----
 title
 -----
 Structure from the checkpoint file:  "Grambow2020_wb97xd3_009107_forward_mol1.chk"
 Charge =  0 Multiplicity = 1

                         Standard orientation:
 ---------------------------------------------------------------------
 Center     Atomic      Atomic             Coordinates (Angstroms)
 Number     Number       Type             X           Y           Z
 ---------------------------------------------------------------------
      1          6           0       -1.754383   -0.640527   -0.103307
      2          6           0       -0.375183   -0.780830    0.358609
      3          8           0        0.696557   -1.238783   -0.255073
      4          6           0        1.767698   -0.308109    0.033461
      5          6           0        1.080332    1.097329    0.149294
      6          8           0       -0.157890    0.931664   -0.469789
      7          6           0       -1.529670    0.846238    0.284568
      8          1           0       -1.884854   -0.904942   -1.155141
      9          1           0       -2.481146   -1.130158    0.545737
     10          1           0       -0.244024   -0.561616    1.416708
     11          1           0        2.447668   -0.385089   -0.811028
     12          1           0        2.279702   -0.596851    0.953961
     13          1           0        0.956472    1.399028    1.194904
     14          1           0        1.662533    1.854184   -0.379781
     15          1           0       -2.178444    1.497788   -0.302211
 ---------------------------------------------------------------------

 SCF Done:  E(RHF) =  -345.093623378     A.U. after    2 cycles

 The electronic state is 1-A.
 Alpha  occ. eigenvalues --  -21.11536 -21.03188 -11.55103 -11.48662 -11.42172
 Alpha  occ. eigenvalues --  -11.40972 -11.33743  -1.87894  -1.71670  -1.22032
 Alpha  occ. eigenvalues --   -1.07360  -0.95062  -0.85935  -0.79308  -0.70167
 Alpha  occ. eigenvalues --   -0.69087  -0.67056  -0.63426  -0.56505  -0.55456
 Alpha  occ. eigenvalues --   -0.47888  -0.45841  -0.44223  -0.40298  -0.38700
 Alpha  occ. eigenvalues --   -0.29219  -0.23857
 Alpha virt. eigenvalues --    0.03903   0.04531   0.04913   0.05595   0.05830
 Alpha virt. eigenvalues --    0.06250   0.06970   0.07617   0.09423   0.10629
 Alpha virt. eigenvalues --    0.11776   0.12397   0.13070   0.13820   0.14267

 Mulliken charges:
               1
     1  C   -3.371562
     2  C    2.313037
     3  O   -3.680853
     4  C   -1.719933
     5  C   -1.518943
     6  O   -2.359000
     7  C   -0.703179
     8  H    1.206365
     9  H    1.356876
    10  H    1.659864
    11  H    1.378275
    12  H    1.416626
    13  H    1.570448
    14  H    1.233164
    15  H    1.218815
 Sum of Mulliken charges =   0.00000

 Dipole moment (field-independent basis, Debye):
    X=              3.1060    Y=             -1.8752    Z=             -1.1589  Tot=              3.8087

 Test job not archived.
 1\1\GINC-SE162\SP\RHF\Aug-CC-pVDZ\C5H8O2\OHZDE\09-Apr-2025\0\\#t hf au
 g-cc-pvdz iop(5/13=1,5/36=2,99/5=2) pseudo=read geom=check guess=(read
 ,tcheck) scf=(maxcycle=1)\\title\\0,1\C,0,-1.77421358,-0.2192735,0.696
 29688\C,0,-0.8429602,0.39930581,-0.24464481\O,0,-0.11232747,1.49046216
 ,-0.14214632\C,0,1.20780038,1.15166166,-0.63125317\C,0,1.4196508,-0.35
 591008,-0.25245188\O,0,0.46278819,-0.60599326,0.73028742\C,0,-0.842045
 81,-1.44767094,0.51321563\H,0,-1.80803941,0.28688895,1.66374053\H,0,-2
 .76628628,-0.38892378,0.27654555\H,0,-0.83520187,-0.07199348,-1.225790

 Normal termination of Gaussian 16 at Wed Apr  9 19:31:22 2025.
