 Gaussian 16, Revision C.01,

 ----------------------------------------------------------------------
 #t hf aug-cc-pvdz symm=none int=(grid=ultrafine) guess=(read,tcheck) s
 table=(opt,rrhf)
 ----------------------------------------------------------------------
 -----
 title
 -----
 Symbolic Z-matrix:
 Charge =  0 Multiplicity = 1

 SCF Done:  E(RHF) =  -245.802295430     A.U. after   15 cycles
 Normal termination of Gaussian 16 at Wed Apr  9 17:35:09 2025.
 Gaussian 16:  ES64L-G16RevC.01  3-Jul-2019

 ----------------------------------------------------------------------
 #t hf aug-cc-pvdz iop(5/13=1,5/36=2,99/5=2) pseudo=read geom=check gue
 ss=(read,tcheck) scf=(maxcycle=1)
 ----------------------------------------------------------------------
 -----
 title
 -----
 Structure from the checkpoint file:  "Grambow2020_b97d3_007188_forward_mol2.chk"
 Charge =  0 Multiplicity = 1

                         Standard orientation:
 ---------------------------------------------------------------------
 Center     Atomic      Atomic             Coordinates (Angstroms)
 Number     Number       Type             X           Y           Z
 ---------------------------------------------------------------------
      1          8           0       -1.643026   -0.604847    0.110245
      2          6           0       -1.117877    0.497103    0.016266
      3          6           0        0.340078    0.690231   -0.214942
      4          6           0        1.261347   -0.095810    0.687395
      5          7           0        1.119356   -0.459578   -0.711895
      6          1           0       -1.715072    1.435325    0.098397
      7          1           0        0.660176    1.672758   -0.566355
      8          1           0        2.212831    0.360677    0.964071
      9          1           0        0.786604   -0.713033    1.453192
     10          1           0        0.462892   -1.249052   -0.780312
 ---------------------------------------------------------------------

 SCF Done:  E(RHF) =  -246.903175685     A.U. after    2 cycles

 The electronic state is 1-A.
 Alpha  occ. eigenvalues --  -21.07136 -15.75340 -11.50411 -11.46789 -11.41096
 Alpha  occ. eigenvalues --   -1.71485  -1.45787  -1.02127  -0.93238  -0.80965
 Alpha  occ. eigenvalues --   -0.72929  -0.64653  -0.58588  -0.51178  -0.49368
 Alpha  occ. eigenvalues --   -0.47364  -0.43998  -0.34856  -0.31208
 Alpha virt. eigenvalues --    0.03706   0.05168   0.05634   0.06350   0.07293
 Alpha virt. eigenvalues --    0.09805   0.10486   0.11091   0.12016   0.12756
 Alpha virt. eigenvalues --    0.14217   0.15033   0.15857   0.16461   0.17793

 Mulliken charges:
               1
     1  O   -2.697764
     2  C    0.936245
     3  C   -0.492045
     4  C   -1.930089
     5  N   -2.089246
     6  H    1.488917
     7  H    1.422491
     8  H    1.327378
     9  H    1.293598
    10  H    0.740516
 Sum of Mulliken charges =   0.00000

 Dipole moment (field-independent basis, Debye):
    X=              0.1564    Y=              0.6876    Z=              0.7663  Tot=              1.0414

 Test job not archived.
 1\1\GINC-SE219\SP\RHF\Aug-CC-pVDZ\C3H5N1O1\OHZDE\09-Apr-2025\0\\#t hf
 aug-cc-pvdz iop(5/13=1,5/36=2,99/5=2) pseudo=read geom=check guess=(re
 ad,tcheck) scf=(maxcycle=1)\\title\\0,1\O,0,1.14355326,-0.34823919,1.6
 3689496\C,0,1.27900971,-0.38504859,0.42067019\C,0,0.2896245,0.19362046
 ,-0.52940768\C,0,-1.15256836,-0.18801019,-0.2943614\N,0,-0.69321002,1.
 15866663,-0.00118465\H,0,2.16967989,-0.86186149,-0.05156251\H,0,0.6279
 03,0.36696373,-1.5525563\H,0,-1.80028181,-0.2883159,-1.16651869\H,0,-1
 .34782629,-0.87941704,0.52820836\H,0,-0.51588389,1.2316416,1.00981773\

 Normal termination of Gaussian 16 at Wed Apr  9 17:35:12 2025.
