 Gaussian 16, Revision C.01,

 ----------------------------------------------------------------------
 #t hf aug-cc-pvdz symm=none int=(grid=ultrafine) guess=(read,tcheck) s
 table=(opt,rrhf)
 ----------------------------------------------------------------------
 -----
 title
 -----
 Symbolic Z-matrix:
 Charge =  0 Multiplicity = 1

 SCF Done:  E(RHF) =  -358.381092447     A.U. after   15 cycles
 Normal termination of Gaussian 16 at Wed Apr  9 03:33:40 2025.
 Gaussian 16:  ES64L-G16RevC.01  3-Jul-2019

 ----------------------------------------------------------------------
 #t hf aug-cc-pvdz iop(5/13=1,5/36=2,99/5=2) pseudo=read geom=check gue
 ss=(read,tcheck) scf=(maxcycle=1)
 ----------------------------------------------------------------------
 -----
 title
 -----
 Structure from the checkpoint file:  "Grambow2020_wb97xd3_007064_reverse_mol1.chk"
 Charge =  0 Multiplicity = 1

                         Standard orientation:
 ---------------------------------------------------------------------
 Center     Atomic      Atomic             Coordinates (Angstroms)
 Number     Number       Type             X           Y           Z
 ---------------------------------------------------------------------
      1          8           0       -2.214812   -0.232987    0.036187
      2          6           0       -1.041694    0.036414   -0.042956
      3          7           0       -0.471691    1.278935    0.083853
      4          6           0        0.915003    1.149623   -0.161092
      5          6           0        1.305982   -0.289610   -0.418287
      6          8           0        0.994974   -1.091310    0.699954
      7          6           0        0.035721   -1.004403   -0.354379
      8          1           0        0.743507    1.446926    1.073643
      9          1           0        1.655896    1.377602    0.954861
     10          1           0        1.381903    1.943610   -0.746713
     11          1           0        2.172230   -0.558120   -1.009994
     12          1           0       -0.183062   -1.920322   -0.887606
 ---------------------------------------------------------------------

 SCF Done:  E(RHF) =  -359.963438972     A.U. after    2 cycles

 The electronic state is 1-A.
 Alpha  occ. eigenvalues --  -21.10831 -21.01597 -15.70365 -11.59796 -11.53236
 Alpha  occ. eigenvalues --  -11.48906 -11.44678  -1.85230  -1.68354  -1.42339
 Alpha  occ. eigenvalues --   -1.09358  -1.05354  -0.91752  -0.80482  -0.75970
 Alpha  occ. eigenvalues --   -0.73005  -0.62526  -0.58862  -0.54476  -0.49113
 Alpha  occ. eigenvalues --   -0.46625  -0.43194  -0.40133  -0.34966  -0.29441
 Alpha  occ. eigenvalues --   -0.25796
 Alpha virt. eigenvalues --    0.02228   0.03559   0.04391   0.05080   0.06526
 Alpha virt. eigenvalues --    0.09135   0.09545   0.10910   0.11431   0.11824
 Alpha virt. eigenvalues --    0.12345   0.13724   0.13960   0.14625   0.14875

 Mulliken charges:
               1
     1  O   -3.316870
     2  C    5.151024
     3  N   -2.648710
     4  C   -2.017482
     5  C    1.339639
     6  O   -2.723762
     7  C   -1.639236
     8  H    1.549472
     9  H    0.039787
    10  H    1.425457
    11  H    1.371556
    12  H    1.469124
 Sum of Mulliken charges =   0.00000

 Dipole moment (field-independent basis, Debye):
    X=              5.4608    Y=              0.0734    Z=             -0.2608  Tot=              5.4675

 Test job not archived.
 1\1\GINC-SE273\SP\RHF\Aug-CC-pVDZ\C4H5N1O2\OHZDE\09-Apr-2025\0\\#t hf
 aug-cc-pvdz iop(5/13=1,5/36=2,99/5=2) pseudo=read geom=check guess=(re
 ad,tcheck) scf=(maxcycle=1)\\title\\0,1\O,0,0.80942542,2.51751027,0.47
 769235\C,0,0.50356509,1.38652247,0.19070181\N,0,1.3000712,0.44644372,-
 0.4148348\C,0,0.51749191,-0.71014996,-0.63732301\C,0,-0.88610681,-0.54
 894835,-0.09480073\O,0,-0.85243385,-0.31932147,1.2966198\C,0,-0.895079
 43,0.81319405,0.42775505\H,0,1.40638057,-0.9810153,0.24521938\H,0,0.92
 391528,-1.75839438,0.12573196\H,0,0.66756651,-1.22372586,-1.58867916\H

 Normal termination of Gaussian 16 at Wed Apr  9 03:33:45 2025.
