 Gaussian 16, Revision C.01,

 ----------------------------------------------------------------------
 #t hf aug-cc-pvdz symm=none int=(grid=ultrafine) guess=(read,tcheck) s
 table=(opt,rrhf)
 ----------------------------------------------------------------------
 -----
 title
 -----
 Symbolic Z-matrix:
 Charge =  0 Multiplicity = 1

 SCF Done:  E(RHF) =  -337.467031922     A.U. after   16 cycles
 Normal termination of Gaussian 16 at Wed Apr  9 04:04:29 2025.
 Gaussian 16:  ES64L-G16RevC.01  3-Jul-2019

 ----------------------------------------------------------------------
 #t hf aug-cc-pvdz iop(5/13=1,5/36=2,99/5=2) pseudo=read geom=check gue
 ss=(read,tcheck) scf=(maxcycle=1)
 ----------------------------------------------------------------------
 -----
 title
 -----
 Structure from the checkpoint file:  "Grambow2020_wb97xd3_009179_forward_mol1.chk"
 Charge =  0 Multiplicity = 1

                         Standard orientation:
 ---------------------------------------------------------------------
 Center     Atomic      Atomic             Coordinates (Angstroms)
 Number     Number       Type             X           Y           Z
 ---------------------------------------------------------------------
      1          8           0        2.268248    0.030146    0.140506
      2          6           0        1.075585    0.032749   -0.022839
      3          6           0        0.238215    1.228115   -0.092443
      4          6           0       -1.095980    1.125247   -0.000644
      5          7           0       -1.701216   -0.103937    0.111707
      6          6           0       -0.992846   -1.242794   -0.047981
      7          7           0        0.335928   -1.174041   -0.189706
      8          1           0        0.721549    2.192118   -0.162277
      9          1           0       -1.754820    1.985276   -0.012031
     10          1           0       -2.696835   -0.169045    0.227818
     11          1           0       -0.208722   -2.163570    0.351874
 ---------------------------------------------------------------------

 SCF Done:  E(RHF) =  -338.961935894     A.U. after    2 cycles

 The electronic state is 1-A.
 Alpha  occ. eigenvalues --  -21.03608 -15.82340 -15.75843 -11.51088 -11.49269
 Alpha  occ. eigenvalues --  -11.44338 -11.40656  -1.71335  -1.53607  -1.34958
 Alpha  occ. eigenvalues --   -1.17364  -0.93885  -0.92182  -0.79999  -0.70004
 Alpha  occ. eigenvalues --   -0.64416  -0.62831  -0.59149  -0.55592  -0.49694
 Alpha  occ. eigenvalues --   -0.46692  -0.42907  -0.36774  -0.29920  -0.27530
 Alpha virt. eigenvalues --    0.02322   0.04555   0.04973   0.06801   0.08837
 Alpha virt. eigenvalues --    0.09503   0.09638   0.10564   0.11744   0.12378
 Alpha virt. eigenvalues --    0.13330   0.13511   0.13854   0.14068   0.14906

 Mulliken charges:
               1
     1  O   -3.277932
     2  C    3.766800
     3  C   -0.629953
     4  C    0.073604
     5  N   -2.866645
     6  C    0.522695
     7  N   -2.607354
     8  H    1.373374
     9  H    1.431280
    10  H    0.777264
    11  H    1.436866
 Sum of Mulliken charges =   0.00000

 Dipole moment (field-independent basis, Debye):
    X=             -3.9452    Y=              2.1459    Z=              0.6737  Tot=              4.5413

 Test job not archived.
 1\1\GINC-SE247\SP\RHF\Aug-CC-pVDZ\C4H4N2O1\OHZDE\09-Apr-2025\0\\#t hf
 aug-cc-pvdz iop(5/13=1,5/36=2,99/5=2) pseudo=read geom=check guess=(re
 ad,tcheck) scf=(maxcycle=1)\\title\\0,1\O,0,2.20329516,-1.43533329,0.0
 3531035\C,0,1.17463774,-0.82382761,-0.09529886\C,0,1.05320558,0.632171
 71,-0.07935494\C,0,-0.15160851,1.20882445,0.04303467\N,0,-1.29374423,0
 .44642575,0.1070741\C,0,-1.25462441,-0.88245768,-0.13130106\N,0,-0.071
 51898,-1.48286058,-0.30517172\H,0,1.95637615,1.22465542,-0.11156665\H,
 0,-0.28780302,2.28243337,0.09465648\H,0,-2.1870909,0.88398578,0.246540

 Normal termination of Gaussian 16 at Wed Apr  9 04:04:33 2025.
