 Gaussian 16, Revision C.01,

 ----------------------------------------------------------------------
 #t hf aug-cc-pvdz symm=none int=(grid=ultrafine) guess=(read,tcheck) s
 table=(opt,rrhf)
 ----------------------------------------------------------------------
 -----
 title
 -----
 Symbolic Z-matrix:
 Charge =  0 Multiplicity = 1

 SCF Done:  E(RHF) =  -345.910039010     A.U. after   15 cycles

 1\1\GINC-SE035\Stability\RHF\Aug-CC-pVDZ\C5H12O2\OHZDE\09-Apr-2025\0\\
 #t hf aug-cc-pvdz symm=none int=(grid=ultrafine) guess=(read,tcheck) s
 table=(opt,rrhf)\\title\\0,1\C,0,-1.27090893,-1.36246859,1.23207513\O,
 0,-0.19869101,0.36190499,1.17205621\C,0,-0.19079809,0.82652598,-0.1882
 158\C,0,0.00480736,2.32871034,-0.18858576\C,0,0.89551843,0.07241077,-0
 .95530672\C,0,0.82271114,-1.43667153,-0.69447147\O,0,0.72300728,-1.704
 69924,0.67141688\H,0,-2.03553343,-0.6129243,1.38657252\H,0,-0.98488681
 ,-1.90315262,2.12137272\H,0,-1.41484074,-1.97089243,0.35004019\H,0,-1.

 Normal termination of Gaussian 16 at Wed Apr  9 19:03:18 2025.
 Gaussian 16:  ES64L-G16RevC.01  3-Jul-2019

 ----------------------------------------------------------------------
 #t hf aug-cc-pvdz iop(5/13=1,5/36=2,99/5=2) pseudo=read geom=check gue
 ss=(read,tcheck) scf=(maxcycle=1)
 ----------------------------------------------------------------------
 -----
 title
 -----
 Structure from the checkpoint file:  "Grambow2020_wb97xd3_008019_forward_mol1.chk"
 Charge =  0 Multiplicity = 1

                         Standard orientation:
 ---------------------------------------------------------------------
 Center     Atomic      Atomic             Coordinates (Angstroms)
 Number     Number       Type             X           Y           Z
 ---------------------------------------------------------------------
      1          6           0       -1.473938   -1.470049    0.453939
      2          8           0        0.243197   -1.011726   -0.529982
      3          6           0        1.000457   -0.117289    0.302373
      4          6           0        2.468552   -0.254227   -0.045138
      5          6           0        0.461067    1.300529    0.112501
      6          6           0       -1.069340    1.335498    0.197928
      7          8           0       -1.638306    0.339738   -0.597164
      8          1           0       -0.794891   -2.231699    0.813273
      9          1           0       -2.193499   -1.815510   -0.272620
     10          1           0       -1.872584   -0.827664    1.226794
     11          1           0        0.855073   -0.428727    1.346337
     12          1           0        2.636594    0.023142   -1.087613
     13          1           0        2.799284   -1.284407    0.092522
     14          1           0        3.076997    0.394459    0.588953
     15          1           0        0.764571    1.650738   -0.879820
     16          1           0        0.910921    1.972361    0.848006
     17          1           0       -1.383683    1.226744    1.253442
     18          1           0       -1.432430    2.321669   -0.119572
     19          1           0       -0.526267   -0.391971   -0.922155
 ---------------------------------------------------------------------

 SCF Done:  E(RHF) =  -347.550477837     A.U. after    2 cycles

 The electronic state is 1-A.
 Alpha  occ. eigenvalues --  -21.03379 -20.95726 -11.50586 -11.44901 -11.41818
 Alpha  occ. eigenvalues --  -11.38259 -11.34979  -1.74242  -1.59302  -1.18207
 Alpha  occ. eigenvalues --   -1.04349  -1.03912  -0.87856  -0.82313  -0.66464
 Alpha  occ. eigenvalues --   -0.66025  -0.63918  -0.62396  -0.58984  -0.57204
 Alpha  occ. eigenvalues --   -0.52031  -0.51398  -0.47951  -0.45733  -0.41990
 Alpha  occ. eigenvalues --   -0.37706  -0.37364  -0.23662  -0.20533
 Alpha virt. eigenvalues --    0.03029   0.04591   0.04920   0.05050   0.05608
 Alpha virt. eigenvalues --    0.05742   0.06442   0.07054   0.07272   0.08577
 Alpha virt. eigenvalues --    0.09416   0.09951   0.11082   0.12073   0.13132

 Mulliken charges:
               1
     1  C   -3.715228
     2  O   -2.903837
     3  C    0.782817
     4  C   -4.370926
     5  C   -2.764321
     6  C   -1.238238
     7  O   -2.568127
     8  H    1.319574
     9  H    1.143841
    10  H    1.373108
    11  H    1.935953
    12  H    1.201157
    13  H    1.233933
    14  H    1.153012
    15  H    1.330142
    16  H    1.409760
    17  H    1.571089
    18  H    0.965329
    19  H    2.140961
 Sum of Mulliken charges =   0.00000

 Dipole moment (field-independent basis, Debye):
    X=              0.3590    Y=             -2.0014    Z=              1.1557  Tot=              2.3388

 Test job not archived.
 1\1\GINC-SE035\SP\RHF\Aug-CC-pVDZ\C5H12O2\OHZDE\09-Apr-2025\0\\#t hf a
 ug-cc-pvdz iop(5/13=1,5/36=2,99/5=2) pseudo=read geom=check guess=(rea
 d,tcheck) scf=(maxcycle=1)\\title\\0,1\C,0,-1.27090893,-1.36246859,1.2
 3207513\O,0,-0.19869101,0.36190499,1.17205621\C,0,-0.19079809,0.826525
 98,-0.1882158\C,0,0.00480736,2.32871034,-0.18858576\C,0,0.89551843,0.0
 7241077,-0.95530672\C,0,0.82271114,-1.43667153,-0.69447147\O,0,0.72300
 728,-1.70469924,0.67141688\H,0,-2.03553343,-0.6129243,1.38657252\H,0,-
 0.98488681,-1.90315262,2.12137272\H,0,-1.41484074,-1.97089243,0.350040

 Normal termination of Gaussian 16 at Wed Apr  9 19:03:25 2025.
