 Gaussian 16, Revision C.01,

 ----------------------------------------------------------------------
 #t hf aug-cc-pvdz symm=none int=(grid=ultrafine) guess=(read,tcheck) s
 table=(opt,rrhf)
 ----------------------------------------------------------------------
 -----
 title
 -----
 Symbolic Z-matrix:
 Charge =  0 Multiplicity = 1

 SCF Done:  E(RHF) =  -359.633043796     A.U. after   15 cycles
 Normal termination of Gaussian 16 at Wed Apr  9 18:06:39 2025.
 Gaussian 16:  ES64L-G16RevC.01  3-Jul-2019

 ----------------------------------------------------------------------
 #t hf aug-cc-pvdz iop(5/13=1,5/36=2,99/5=2) pseudo=read geom=check gue
 ss=(read,tcheck) scf=(maxcycle=1)
 ----------------------------------------------------------------------
 -----
 title
 -----
 Structure from the checkpoint file:  "Grambow2020_wb97xd3_006595_forward_mol1.chk"
 Charge =  0 Multiplicity = 1

                         Standard orientation:
 ---------------------------------------------------------------------
 Center     Atomic      Atomic             Coordinates (Angstroms)
 Number     Number       Type             X           Y           Z
 ---------------------------------------------------------------------
      1          6           0       -2.234337   -0.678831   -0.116239
      2          7           0       -0.983889   -0.287428   -0.730747
      3          6           0       -0.333598    0.644177   -0.087299
      4          6           0        1.065874    0.827345   -0.659863
      5          8           0        1.878563   -0.358682   -0.190898
      6          6           0        1.346228   -1.130363    0.619885
      7          8           0       -0.567174    1.217566    0.997677
      8          1           0       -2.956842    0.144374   -0.116253
      9          1           0       -2.664216   -1.515314   -0.668347
     10          1           0       -2.115763   -0.973242    0.937083
     11          1           0        1.598327    1.688025   -0.262955
     12          1           0        1.141154    0.742455   -1.740005
     13          1           0        1.926594   -2.018580    0.862009
     14          1           0        0.401857   -0.900767    1.110560
 ---------------------------------------------------------------------

 SCF Done:  E(RHF) =  -361.238988564     A.U. after    2 cycles

 The electronic state is 1-A.
 Alpha  occ. eigenvalues --  -21.21302 -20.97651 -15.65828 -11.58642 -11.49130
 Alpha  occ. eigenvalues --  -11.41874 -11.34544  -1.91391  -1.65021  -1.30117
 Alpha  occ. eigenvalues --   -1.11947  -1.00340  -0.92131  -0.79694  -0.73015
 Alpha  occ. eigenvalues --   -0.67297  -0.64492  -0.60035  -0.56289  -0.53482
 Alpha  occ. eigenvalues --   -0.51171  -0.48583  -0.46477  -0.43202  -0.32399
 Alpha  occ. eigenvalues --   -0.24673  -0.23984
 Alpha virt. eigenvalues --    0.01802   0.04175   0.04995   0.05658   0.05928
 Alpha virt. eigenvalues --    0.06900   0.07693   0.08142   0.09176   0.10314
 Alpha virt. eigenvalues --    0.10981   0.12222   0.13057   0.13613   0.15096

 Mulliken charges:
               1
     1  C   -3.660342
     2  N   -2.892022
     3  C    5.753953
     4  C   -2.211277
     5  O   -2.700901
     6  C   -1.357173
     7  O   -3.338798
     8  H    1.260067
     9  H    1.266204
    10  H    1.316598
    11  H    1.529754
    12  H    1.577269
    13  H    1.483491
    14  H    1.973178
 Sum of Mulliken charges =  -0.00000

 Dipole moment (field-independent basis, Debye):
    X=              6.0939    Y=             -2.4232    Z=              0.5085  Tot=              6.5778

 Test job not archived.
 1\1\GINC-SE219\SP\RHF\Aug-CC-pVDZ\C4H7N1O2\OHZDE\09-Apr-2025\0\\#t hf
 aug-cc-pvdz iop(5/13=1,5/36=2,99/5=2) pseudo=read geom=check guess=(re
 ad,tcheck) scf=(maxcycle=1)\\title\\0,1\C,0,2.01547511,-0.64125999,-0.
 4307821\N,0,0.99457745,0.22352627,0.12089534\C,0,0.13968723,0.67790117
 ,-0.75517421\C,0,-1.02669449,1.37593603,-0.06800386\O,0,-1.89076005,0.
 2842632,0.52249966\C,0,-1.59635161,-0.88789123,0.24751331\O,0,0.007794
 53,0.45227723,-1.97673181\H,0,2.66725888,-0.1007286,-1.12553729\H,0,2.
 62869776,-1.04092152,0.37764301\H,0,1.59588233,-1.48045891,-1.00516107

 Normal termination of Gaussian 16 at Wed Apr  9 18:06:44 2025.
