 Gaussian 16, Revision C.01,

 ----------------------------------------------------------------------
 #t hf aug-cc-pvdz symm=none int=(grid=ultrafine) guess=(read,tcheck) s
 table=(opt,rrhf)
 ----------------------------------------------------------------------
 -----
 title
 -----
 Symbolic Z-matrix:
 Charge =  0 Multiplicity = 1

 SCF Done:  E(RHF) =  -306.582726065     A.U. after   16 cycles
 Normal termination of Gaussian 16 at Wed Apr  9 18:38:35 2025.
 Gaussian 16:  ES64L-G16RevC.01  3-Jul-2019

 ----------------------------------------------------------------------
 #t hf aug-cc-pvdz iop(5/13=1,5/36=2,99/5=2) pseudo=read geom=check gue
 ss=(read,tcheck) scf=(maxcycle=1)
 ----------------------------------------------------------------------
 -----
 title
 -----
 Structure from the checkpoint file:  "Grambow2020_wb97xd3_007356_reverse_mol2.chk"
 Charge =  0 Multiplicity = 1

                         Standard orientation:
 ---------------------------------------------------------------------
 Center     Atomic      Atomic             Coordinates (Angstroms)
 Number     Number       Type             X           Y           Z
 ---------------------------------------------------------------------
      1          6           0        2.024041   -0.122880   -0.754985
      2          6           0        2.016099   -0.075871    0.712749
      3          6           0        0.689436   -0.000717   -0.030153
      4          6           0       -0.345486    1.114031   -0.080203
      5          6           0       -1.308709   -0.032982    0.324529
      6          8           0       -2.614711   -0.091598   -0.150993
      7          6           0       -0.293694   -1.082150   -0.025871
      8          1           0        2.329661    0.760302   -1.300225
      9          1           0        2.201517   -1.069342   -1.246685
     10          1           0        2.204547   -0.984161    1.267640
     11          1           0        2.308752    0.842720    1.205161
     12          1           0       -0.259790    1.961796    0.600484
     13          1           0       -0.534104    1.467857   -1.092792
     14          1           0       -1.286313   -0.078167    1.431423
     15          1           0       -2.736707   -0.964815   -0.533461
 ---------------------------------------------------------------------

 SCF Done:  E(RHF) =  -308.012954171     A.U. after    2 cycles

 The electronic state is 1-A.
 Alpha  occ. eigenvalues --  -21.07335 -11.48655 -11.45677 -11.42684 -11.41289
 Alpha  occ. eigenvalues --  -11.39747 -11.36859  -1.72445  -1.38439  -1.19378
 Alpha  occ. eigenvalues --   -0.93984  -0.88168  -0.85960  -0.71844  -0.68221
 Alpha  occ. eigenvalues --   -0.64830  -0.60767  -0.56437  -0.54047  -0.52380
 Alpha  occ. eigenvalues --   -0.49938  -0.43617  -0.40858  -0.37083  -0.31753
 Alpha  occ. eigenvalues --   -0.30937
 Alpha virt. eigenvalues --    0.03787   0.04878   0.04993   0.05691   0.06015
 Alpha virt. eigenvalues --    0.06378   0.06784   0.07466   0.08643   0.09787
 Alpha virt. eigenvalues --    0.11147   0.12414   0.12914   0.13535   0.14233

 Mulliken charges:
               1
     1  C   -2.145194
     2  C   -2.286842
     3  C    2.734560
     4  C   -3.767993
     5  C    1.471646
     6  O   -3.298981
     7  C   -2.176608
     8  H    1.170507
     9  H    1.263996
    10  H    1.234251
    11  H    1.167226
    12  H    1.230890
    13  H    1.243302
    14  H    1.522381
    15  H    0.636860
 Sum of Mulliken charges =   0.00000

 Dipole moment (field-independent basis, Debye):
    X=              1.6925    Y=              1.8861    Z=              0.3867  Tot=              2.5635

 Test job not archived.
 1\1\GINC-SE028\SP\RHF\Aug-CC-pVDZ\C6H8O1\OHZDE\09-Apr-2025\0\\#t hf au
 g-cc-pvdz iop(5/13=1,5/36=2,99/5=2) pseudo=read geom=check guess=(read
 ,tcheck) scf=(maxcycle=1)\\title\\0,1\C,0,-1.78017358,0.12079157,-0.66
 772586\C,0,-1.65519583,-0.29110814,0.73628044\C,0,-0.3922634,0.0476383
 1,-0.04336095\C,0,0.79597316,-0.82766734,-0.41506726\C,0,1.59770897,0.
 32657764,0.24233881\O,0,2.83960889,0.7222228,-0.2438172\C,0,0.40924981
 ,1.24325645,0.20988556\H,0,-1.98542839,-0.63572925,-1.41354537\H,0,-2.
 13824548,1.11639327,-0.89048025\H,0,-1.93981838,0.4035409,1.51400825\H

 Normal termination of Gaussian 16 at Wed Apr  9 18:38:39 2025.
