 Gaussian 16, Revision C.01,

 ----------------------------------------------------------------------
 #t hf aug-cc-pvdz symm=none int=(grid=ultrafine) guess=(read,tcheck) s
 table=(opt,rrhf)
 ----------------------------------------------------------------------
 -----
 title
 -----
 Symbolic Z-matrix:
 Charge =  0 Multiplicity = 1

 SCF Done:  E(RHF) =  -323.765685485     A.U. after   15 cycles
 Normal termination of Gaussian 16 at Wed Apr  9 18:19:25 2025.
 Gaussian 16:  ES64L-G16RevC.01  3-Jul-2019

 ----------------------------------------------------------------------
 #t hf aug-cc-pvdz iop(5/13=1,5/36=2,99/5=2) pseudo=read geom=check gue
 ss=(read,tcheck) scf=(maxcycle=1)
 ----------------------------------------------------------------------
 -----
 title
 -----
 Structure from the checkpoint file:  "Grambow2020_wb97xd3_006868_reverse_mol2.chk"
 Charge =  0 Multiplicity = 1

                         Standard orientation:
 ---------------------------------------------------------------------
 Center     Atomic      Atomic             Coordinates (Angstroms)
 Number     Number       Type             X           Y           Z
 ---------------------------------------------------------------------
      1          6           0       -2.875659   -0.559574   -0.004873
      2          7           0       -1.695308    0.263898    0.026889
      3          6           0        2.177645   -1.422653    0.012856
      4          6           0       -0.563413   -0.319082   -0.013379
      5          6           0        0.658766    0.424245   -0.007311
      6          8           0        1.816609   -0.180850   -0.008766
      7          6           0        0.706957    1.910900    0.000654
      8          1           0       -3.492623   -0.280052   -0.862827
      9          1           0       -3.475665   -0.370154    0.889044
     10          1           0       -2.660760   -1.636370   -0.061502
     11          1           0        3.242553   -1.578016   -0.008337
     12          1           0        1.450134   -2.218551    0.054748
     13          1           0       -0.495941   -1.414005   -0.065372
     14          1           0        1.739178    2.250749   -0.076309
     15          1           0        0.132659    2.324791   -0.831178
     16          1           0        0.268972    2.318101    0.915949
 ---------------------------------------------------------------------

 SCF Done:  E(RHF) =  -325.324754749     A.U. after    2 cycles

 The electronic state is 1-A.
 Alpha  occ. eigenvalues --  -21.19591 -15.72234 -11.48037 -11.42216 -11.41441
 Alpha  occ. eigenvalues --  -11.38276 -11.37302  -1.88612  -1.38664  -1.15227
 Alpha  occ. eigenvalues --   -1.02422  -0.97530  -0.87818  -0.75171  -0.69242
 Alpha  occ. eigenvalues --   -0.67237  -0.60937  -0.59783  -0.57719  -0.55706
 Alpha  occ. eigenvalues --   -0.53153  -0.52114  -0.51476  -0.41971  -0.41544
 Alpha  occ. eigenvalues --   -0.36167  -0.24781
 Alpha virt. eigenvalues --    0.03544   0.04963   0.05257   0.05772   0.06366
 Alpha virt. eigenvalues --    0.06500   0.06744   0.08011   0.08221   0.08608
 Alpha virt. eigenvalues --    0.11026   0.12831   0.12879   0.13077   0.14608

 Mulliken charges:
               1
     1  C   -3.465423
     2  N   -3.197429
     3  C   -2.163095
     4  C   -0.508735
     5  C    5.324289
     6  O   -4.684934
     7  C   -4.382665
     8  H    1.353106
     9  H    1.348554
    10  H    1.194500
    11  H    1.581404
    12  H    1.700529
    13  H    1.971720
    14  H    1.428391
    15  H    1.245932
    16  H    1.253857
 Sum of Mulliken charges =   0.00000

 Dipole moment (field-independent basis, Debye):
    X=              0.4728    Y=             -0.8921    Z=             -0.0438  Tot=              1.0106

 Test job not archived.
 1\1\GINC-SE041\SP\RHF\Aug-CC-pVDZ\C5H9N1O1\OHZDE\09-Apr-2025\0\\#t hf
 aug-cc-pvdz iop(5/13=1,5/36=2,99/5=2) pseudo=read geom=check guess=(re
 ad,tcheck) scf=(maxcycle=1)\\title\\0,1\C,0,1.28695754,0.60762104,-2.3
 8143039\N,0,0.34860692,0.80863001,-1.30838024\C,0,-0.17499918,-2.07002
 36,1.73852172\C,0,0.27275332,-0.09097114,-0.40969314\C,0,-0.61769716,0
 .0391549,0.70226955\O,0,-0.71948761,-0.90509654,1.59936032\C,0,-1.4782
 5975,1.23264988,0.92028501\H,0,1.99462613,1.44029993,-2.40812186\H,0,0
 .75501451,0.61619482,-3.33638518\H,0,1.85191218,-0.33235018,-2.3029490

 Normal termination of Gaussian 16 at Wed Apr  9 18:19:30 2025.
