 Gaussian 16, Revision C.01,

 ----------------------------------------------------------------------
 #t hf aug-cc-pvdz symm=none int=(grid=ultrafine) guess=(read,tcheck) s
 table=(opt,rrhf)
 ----------------------------------------------------------------------
 -----
 title
 -----
 Symbolic Z-matrix:
 Charge =  0 Multiplicity = 1

 SCF Done:  E(RHF) =  -288.003580612     A.U. after   15 cycles

 1\1\GINC-SE014\Stability\RHF\Aug-CC-pVDZ\C6H11N1\OHZDE\09-Apr-2025\0\\
 #t hf aug-cc-pvdz symm=none int=(grid=ultrafine) guess=(read,tcheck) s
 table=(opt,rrhf)\\title\\0,1\C,0,2.28523992,0.04178837,0.37331896\C,0,
 2.01233968,-1.13218527,0.91857253\C,0,-1.32751528,0.65037598,0.2058944
 3\C,0,-1.71265689,-0.75132808,-0.16492845\C,0,-1.31531916,1.68575888,-
 0.62667817\C,0,-0.93520432,0.8533762,1.57731619\N,0,-0.62108973,0.9838
 8002,2.67477231\H,0,1.97790081,0.96740275,0.84652306\H,0,0.72225366,-0
 .49131368,-2.15939145\H,0,2.82907805,0.12273133,-0.56124474\H,0,1.4758

 Normal termination of Gaussian 16 at Wed Apr  9 18:41:56 2025.
 Gaussian 16:  ES64L-G16RevC.01  3-Jul-2019

 ----------------------------------------------------------------------
 #t hf aug-cc-pvdz iop(5/13=1,5/36=2,99/5=2) pseudo=read geom=check gue
 ss=(read,tcheck) scf=(maxcycle=1)
 ----------------------------------------------------------------------
 -----
 title
 -----
 Structure from the checkpoint file:  "Grambow2020_wb97xd3_007527_reverse_mol2.chk"
 Charge =  0 Multiplicity = 1

                         Standard orientation:
 ---------------------------------------------------------------------
 Center     Atomic      Atomic             Coordinates (Angstroms)
 Number     Number       Type             X           Y           Z
 ---------------------------------------------------------------------
      1          6           0        2.323924   -0.178496   -0.763324
      2          6           0        2.542037    0.032157    0.524326
      3          6           0       -1.266536   -0.175812   -0.015660
      4          6           0       -1.162600   -0.908728    1.289196
      5          6           0       -1.706126   -0.700360   -1.154499
      6          6           0       -0.838117    1.199742   -0.000761
      7          7           0       -0.483756    2.291942    0.039697
      8          1           0        1.755982    0.525589   -1.360691
      9          1           0        0.809810   -2.761055   -0.339536
     10          1           0        2.707804   -1.057282   -1.269380
     11          1           0        2.162267    0.918210    1.020854
     12          1           0        3.115839   -0.664490    1.125534
     13          1           0       -0.123824   -0.936575    1.625057
     14          1           0       -1.746824   -0.405228    2.061531
     15          1           0       -1.524248   -1.930220    1.181886
     16          1           0       -2.028191   -1.733551   -1.195663
     17          1           0       -1.751532   -0.119448   -2.066090
     18          1           0        0.653716   -3.490563   -0.337044
 ---------------------------------------------------------------------

 SCF Done:  E(RHF) =  -289.434239154     A.U. after    2 cycles

 The electronic state is 1-A.
 Alpha  occ. eigenvalues --  -15.75985 -11.47510 -11.43609 -11.42054 -11.40707
 Alpha  occ. eigenvalues --  -11.39716 -11.37002  -1.33805  -1.22516  -1.13602
 Alpha  occ. eigenvalues --   -1.03085  -0.88804  -0.82124  -0.69631  -0.64436
 Alpha  occ. eigenvalues --   -0.62369  -0.62283  -0.59772  -0.57546  -0.55726
 Alpha  occ. eigenvalues --   -0.53151  -0.49739  -0.49358  -0.48499  -0.43769
 Alpha  occ. eigenvalues --   -0.36288  -0.35989
 Alpha virt. eigenvalues --    0.03463   0.04629   0.05035   0.05154   0.05451
 Alpha virt. eigenvalues --    0.06206   0.06862   0.07725   0.08140   0.08383
 Alpha virt. eigenvalues --    0.09362   0.10270   0.11712   0.12243   0.12540

 Mulliken charges:
               1
     1  C   -2.865179
     2  C   -2.960719
     3  C    3.209896
     4  C   -4.527225
     5  C   -4.303526
     6  C    0.860536
     7  N   -2.318171
     8  H    1.490188
     9  H   -0.209970
    10  H    1.422268
    11  H    1.475080
    12  H    1.360716
    13  H    1.379609
    14  H    1.238098
    15  H    1.396857
    16  H    1.602555
    17  H    1.639967
    18  H    0.109020
 Sum of Mulliken charges =   0.00000

 Dipole moment (field-independent basis, Debye):
    X=             -0.8886    Y=             -3.3040    Z=             -0.0698  Tot=              3.4221

 Test job not archived.
 1\1\GINC-SE014\SP\RHF\Aug-CC-pVDZ\C6H11N1\OHZDE\09-Apr-2025\0\\#t hf a
 ug-cc-pvdz iop(5/13=1,5/36=2,99/5=2) pseudo=read geom=check guess=(rea
 d,tcheck) scf=(maxcycle=1)\\title\\0,1\C,0,2.28523992,0.04178837,0.373
 31896\C,0,2.01233968,-1.13218527,0.91857253\C,0,-1.32751528,0.65037598
 ,0.20589443\C,0,-1.71265689,-0.75132808,-0.16492845\C,0,-1.31531916,1.
 68575888,-0.62667817\C,0,-0.93520432,0.8533762,1.57731619\N,0,-0.62108
 973,0.98388002,2.67477231\H,0,1.97790081,0.96740275,0.84652306\H,0,0.7
 2225366,-0.49131368,-2.15939145\H,0,2.82907805,0.12273133,-0.56124474\

 Normal termination of Gaussian 16 at Wed Apr  9 18:42:02 2025.
