 Gaussian 16, Revision C.01,

 ----------------------------------------------------------------------
 #t hf aug-cc-pvdz symm=none int=(grid=ultrafine) guess=(read,tcheck) s
 table=(opt,rrhf)
 ----------------------------------------------------------------------
 -----
 title
 -----
 Symbolic Z-matrix:
 Charge =  0 Multiplicity = 1

 SCF Done:  E(RHF) =  -299.410355000     A.U. after   18 cycles
 Normal termination of Gaussian 16 at Wed Apr  9 17:34:22 2025.
 Gaussian 16:  ES64L-G16RevC.01  3-Jul-2019

 ----------------------------------------------------------------------
 #t hf aug-cc-pvdz iop(5/13=1,5/36=2,99/5=2) pseudo=read geom=check gue
 ss=(read,tcheck) scf=(maxcycle=1)
 ----------------------------------------------------------------------
 -----
 title
 -----
 Structure from the checkpoint file:  "Grambow2020_b97d3_007186_reverse_mol1.chk"
 Charge =  0 Multiplicity = 1

                         Standard orientation:
 ---------------------------------------------------------------------
 Center     Atomic      Atomic             Coordinates (Angstroms)
 Number     Number       Type             X           Y           Z
 ---------------------------------------------------------------------
      1          6           0        1.740117   -0.003691    0.373837
      2          6           0        0.645374   -0.001612   -0.524686
      3          7           0       -0.093608   -1.175425   -0.328860
      4          8           0       -1.200658   -0.738365    0.221677
      5          6           0       -0.990335    0.755308    0.349403
      6          7           0       -0.124928    1.135277   -0.562706
      7          1           0        2.311296   -0.914435    0.557356
      8          1           0        2.201420    0.949213    0.626977
      9          1           0        0.159408    0.406979    1.426585
     10          1           0       -1.908041    1.246164    0.665304
 ---------------------------------------------------------------------

 SCF Done:  E(RHF) =  -300.775148513     A.U. after    2 cycles

 The electronic state is 1-A.
 Alpha  occ. eigenvalues --  -21.18319 -15.87445 -15.72342 -11.51864 -11.48194
 Alpha  occ. eigenvalues --  -11.44380  -1.95199  -1.43067  -1.25181  -1.04805
 Alpha  occ. eigenvalues --   -0.89062  -0.81147  -0.71279  -0.69970  -0.63457
 Alpha  occ. eigenvalues --   -0.55085  -0.53645  -0.47286  -0.44358  -0.40182
 Alpha  occ. eigenvalues --   -0.36770  -0.31313
 Alpha virt. eigenvalues --    0.02911   0.05029   0.05761   0.06667   0.07412
 Alpha virt. eigenvalues --    0.08703   0.09404   0.09965   0.11384   0.11708
 Alpha virt. eigenvalues --    0.12868   0.13898   0.15238   0.16422   0.17403

 Mulliken charges:
               1
     1  C   -1.899957
     2  C    1.813573
     3  N    0.082416
     4  O   -2.290765
     5  C    0.386810
     6  N   -2.604728
     7  H    1.409890
     8  H    1.401918
     9  H    0.491740
    10  H    1.209103
 Sum of Mulliken charges =   0.00000

 Dipole moment (field-independent basis, Debye):
    X=             -0.5563    Y=             -1.0776    Z=              0.8315  Tot=              1.4704

 Test job not archived.
 1\1\GINC-SE340\SP\RHF\Aug-CC-pVDZ\C3H4N2O1\OHZDE\09-Apr-2025\0\\#t hf
 aug-cc-pvdz iop(5/13=1,5/36=2,99/5=2) pseudo=read geom=check guess=(re
 ad,tcheck) scf=(maxcycle=1)\\title\\0,1\C,0,-1.46323299,-0.17555768,-0
 .0415398\C,0,-0.22894907,-0.86345248,0.05413282\N,0,0.39329776,-0.8381
 8387,-1.20063817\O,0,1.4096814,-0.03191646,-1.00941399\C,0,1.26865727,
 0.41238999,0.43083342\N,0,0.60171511,-0.50805223,1.08903095\H,0,-2.110
 57443,-0.3063226,-0.90942774\H,0,-1.90490184,0.22078281,0.87101119\H,0
 ,-0.07162546,1.18052323,-0.03518904\H,0,2.14357625,0.97668329,0.745486

 Normal termination of Gaussian 16 at Wed Apr  9 17:34:24 2025.
