 Gaussian 16, Revision C.01,

 ----------------------------------------------------------------------
 #t hf aug-cc-pvdz symm=none int=(grid=ultrafine) guess=(read,tcheck) s
 table=(opt,rrhf)
 ----------------------------------------------------------------------
 -----
 title
 -----
 Symbolic Z-matrix:
 Charge =  0 Multiplicity = 1

 SCF Done:  E(RHF) =  -345.941039760     A.U. after   14 cycles

 1\1\GINC-SE018\Stability\RHF\Aug-CC-pVDZ\C5H12O2\OHZDE\09-Apr-2025\0\\
 #t hf aug-cc-pvdz symm=none int=(grid=ultrafine) guess=(read,tcheck) s
 table=(opt,rrhf)\\title\\0,1\C,0,2.2101903,0.07199387,1.39893331\C,0,0
 .85010196,0.63860659,1.03554456\C,0,0.0815056,-0.2247971,0.06149232\O,
 0,0.08145463,-1.54332362,0.26213126\C,0,-1.27929149,0.32894294,-0.4140
 6716\C,0,-1.63918647,-0.09899289,-1.82517893\O,0,-2.19583656,-0.159297
 31,0.53585076\H,0,2.10806096,-0.93709052,1.79568801\H,0,2.86026794,0.0
 2464499,0.51986061\H,0,2.70611726,0.69528626,2.14315678\H,0,0.19804989

 Normal termination of Gaussian 16 at Wed Apr  9 19:06:15 2025.
 Gaussian 16:  ES64L-G16RevC.01  3-Jul-2019

 ----------------------------------------------------------------------
 #t hf aug-cc-pvdz iop(5/13=1,5/36=2,99/5=2) pseudo=read geom=check gue
 ss=(read,tcheck) scf=(maxcycle=1)
 ----------------------------------------------------------------------
 -----
 title
 -----
 Structure from the checkpoint file:  "Grambow2020_wb97xd3_008069_forward_mol1.chk"
 Charge =  0 Multiplicity = 1

                         Standard orientation:
 ---------------------------------------------------------------------
 Center     Atomic      Atomic             Coordinates (Angstroms)
 Number     Number       Type             X           Y           Z
 ---------------------------------------------------------------------
      1          6           0        2.762649   -0.115708   -0.132488
      2          6           0        1.435305    0.438682   -0.615965
      3          6           0        0.238494   -0.227878    0.023038
      4          8           0        0.280942   -0.460560    1.335602
      5          6           0       -1.147367    0.231858   -0.479542
      6          6           0       -2.196884   -0.863354   -0.425561
      7          8           0       -1.470895    1.315153    0.358659
      8          1           0        2.831788   -0.045155    0.952103
      9          1           0        2.869267   -1.169040   -0.409500
     10          1           0        3.597030    0.428284   -0.575418
     11          1           0        1.327008    1.491374   -0.331620
     12          1           0        1.345399    0.390144   -1.704937
     13          1           0        0.328004   -1.498057   -0.593399
     14          1           0        0.355724   -1.483903    0.360417
     15          1           0       -1.063573    0.630807   -1.493759
     16          1           0       -2.220275   -1.313300    0.569827
     17          1           0       -3.176806   -0.434364   -0.632984
     18          1           0       -1.999605   -1.644685   -1.163710
     19          1           0       -1.227511    1.029545    1.252006
 ---------------------------------------------------------------------

 SCF Done:  E(RHF) =  -347.596041375     A.U. after    2 cycles

 The electronic state is 1-A.
 Alpha  occ. eigenvalues --  -21.06329 -20.99577 -11.54897 -11.46565 -11.42368
 Alpha  occ. eigenvalues --  -11.38605 -11.36930  -1.74685  -1.66509  -1.21288
 Alpha  occ. eigenvalues --   -1.12932  -0.99693  -0.88964  -0.85462  -0.72349
 Alpha  occ. eigenvalues --   -0.67439  -0.62777  -0.61197  -0.57737  -0.55472
 Alpha  occ. eigenvalues --   -0.53030  -0.50201  -0.49603  -0.48305  -0.43963
 Alpha  occ. eigenvalues --   -0.40707  -0.32937  -0.30332  -0.27082
 Alpha virt. eigenvalues --    0.03814   0.04614   0.04779   0.05128   0.05526
 Alpha virt. eigenvalues --    0.05675   0.06490   0.07348   0.07429   0.08406
 Alpha virt. eigenvalues --    0.08757   0.09411   0.12626   0.13131   0.13801

 Mulliken charges:
               1
     1  C   -4.033792
     2  C   -3.546584
     3  C    3.216889
     4  O   -2.958864
     5  C    0.818746
     6  C   -4.131709
     7  O   -3.233556
     8  H    1.328682
     9  H    1.269142
    10  H    1.046631
    11  H    1.368924
    12  H    1.357457
    13  H    0.424621
    14  H    1.094410
    15  H    1.801923
    16  H    1.244095
    17  H    1.051514
    18  H    1.208301
    19  H    0.673170
 Sum of Mulliken charges =   0.00000

 Dipole moment (field-independent basis, Debye):
    X=              0.4464    Y=             -0.1191    Z=             -1.0991  Tot=              1.1922

 Test job not archived.
 1\1\GINC-SE018\SP\RHF\Aug-CC-pVDZ\C5H12O2\OHZDE\09-Apr-2025\0\\#t hf a
 ug-cc-pvdz iop(5/13=1,5/36=2,99/5=2) pseudo=read geom=check guess=(rea
 d,tcheck) scf=(maxcycle=1)\\title\\0,1\C,0,2.2101903,0.07199387,1.3989
 3331\C,0,0.85010196,0.63860659,1.03554456\C,0,0.0815056,-0.2247971,0.0
 6149232\O,0,0.08145463,-1.54332362,0.26213126\C,0,-1.27929149,0.328942
 94,-0.41406716\C,0,-1.63918647,-0.09899289,-1.82517893\O,0,-2.19583656
 ,-0.15929731,0.53585076\H,0,2.10806096,-0.93709052,1.79568801\H,0,2.86
 026794,0.02464499,0.51986061\H,0,2.70611726,0.69528626,2.14315678\H,0,

 Normal termination of Gaussian 16 at Wed Apr  9 19:06:22 2025.
