 Gaussian 16, Revision C.01,

 ----------------------------------------------------------------------
 #t hf aug-cc-pvdz symm=none int=(grid=ultrafine) guess=(read,tcheck) s
 table=(opt,rrhf)
 ----------------------------------------------------------------------
 -----
 title
 -----
 Symbolic Z-matrix:
 Charge =  0 Multiplicity = 1

 SCF Done:  E(RHF) =  -335.594446517     A.U. after   14 cycles
 Normal termination of Gaussian 16 at Wed Apr  9 16:09:38 2025.
 Gaussian 16:  ES64L-G16RevC.01  3-Jul-2019

 ----------------------------------------------------------------------
 #t hf aug-cc-pvdz iop(5/13=1,5/36=2,99/5=2) pseudo=read geom=check gue
 ss=(read,tcheck) scf=(maxcycle=1)
 ----------------------------------------------------------------------
 -----
 title
 -----
 Structure from the checkpoint file:  "Grambow2020_b97d3_006735_reverse_mol2.chk"
 Charge =  0 Multiplicity = 1

                         Standard orientation:
 ---------------------------------------------------------------------
 Center     Atomic      Atomic             Coordinates (Angstroms)
 Number     Number       Type             X           Y           Z
 ---------------------------------------------------------------------
      1          8           0       -0.976330   -1.235834    0.040866
      2          6           0       -1.639838   -0.260282    0.007088
      3          7           0        2.095527   -0.767338   -0.114912
      4          6           0        1.581300    0.474390   -0.001548
      5          7           0        1.119383    1.555793    0.030006
      6          8           0       -2.324374    0.691046   -0.025773
      7          1           0        2.875472   -0.955533    0.512857
      8          1           0        1.377016   -1.489993   -0.072497
 ---------------------------------------------------------------------

 SCF Done:  E(RHF) =  -336.985614458     A.U. after    2 cycles

 The electronic state is 1-A.
 Alpha  occ. eigenvalues --  -21.16727 -21.16620 -15.82539 -15.75890 -11.64055
 Alpha  occ. eigenvalues --  -11.46506  -1.84368  -1.75112  -1.41971  -1.25503
 Alpha  occ. eigenvalues --   -0.77719  -0.74578  -0.72151  -0.63224  -0.63201
 Alpha  occ. eigenvalues --   -0.60588  -0.55750  -0.52223  -0.44048  -0.38329
 Alpha  occ. eigenvalues --   -0.38135  -0.37148
 Alpha virt. eigenvalues --    0.02837   0.05667   0.07315   0.10021   0.10746
 Alpha virt. eigenvalues --    0.11394   0.11813   0.12199   0.13698   0.14403
 Alpha virt. eigenvalues --    0.15949   0.17367   0.18618   0.19145   0.19262

 Mulliken charges:
               1
     1  O   -1.959799
     2  C    3.962613
     3  N   -2.412143
     4  C    3.016304
     5  N   -2.136632
     6  O   -2.001023
     7  H    0.731179
     8  H    0.799501
 Sum of Mulliken charges =   0.00000

 Dipole moment (field-independent basis, Debye):
    X=              0.9135    Y=             -3.4788    Z=              0.7585  Tot=              3.6758

 Test job not archived.
 1\1\GINC-SE097\SP\RHF\Aug-CC-pVDZ\C2H2N2O2\OHZDE\09-Apr-2025\0\\#t hf
 aug-cc-pvdz iop(5/13=1,5/36=2,99/5=2) pseudo=read geom=check guess=(re
 ad,tcheck) scf=(maxcycle=1)\\title\\0,1\O,0,1.72890926,0.29143911,0.61
 587698\C,0,1.85827299,-0.83625779,0.9393741\N,0,-1.0570988,1.03389592,
 -0.55330121\C,0,-1.2145268,-0.23119922,-0.11293653\N,0,-1.3220135,-1.3
 5630339,0.21322786\O,0,2.01631277,-1.95054539,1.26813022\H,0,-1.799822
 64,1.6706863,-0.26925092\H,0,-0.12796528,1.40238947,-0.3502955\\Versio
 n=ES64L-G16RevC.01\State=1-A\HF=-336.9856145\RMSD=4.398e-02\Dipole=0.2

 Normal termination of Gaussian 16 at Wed Apr  9 16:09:41 2025.
