 Gaussian 16, Revision C.01,

 ----------------------------------------------------------------------
 #t hf aug-cc-pvdz symm=none int=(grid=ultrafine) guess=(read,tcheck) s
 table=(opt,rrhf)
 ----------------------------------------------------------------------
 -----
 title
 -----
 Symbolic Z-matrix:
 Charge =  0 Multiplicity = 1

 SCF Done:  E(RHF) =  -302.799937409     A.U. after   14 cycles
 Normal termination of Gaussian 16 at Wed Apr  9 18:32:30 2025.
 Gaussian 16:  ES64L-G16RevC.01  3-Jul-2019

 ----------------------------------------------------------------------
 #t hf aug-cc-pvdz iop(5/13=1,5/36=2,99/5=2) pseudo=read geom=check gue
 ss=(read,tcheck) scf=(maxcycle=1)
 ----------------------------------------------------------------------
 -----
 title
 -----
 Structure from the checkpoint file:  "Grambow2020_wb97xd3_007243_reverse_mol2.chk"
 Charge =  0 Multiplicity = 1

                         Standard orientation:
 ---------------------------------------------------------------------
 Center     Atomic      Atomic             Coordinates (Angstroms)
 Number     Number       Type             X           Y           Z
 ---------------------------------------------------------------------
      1          6           0       -2.221742   -0.595671    0.439149
      2          7           0       -1.114445   -0.120298   -0.417631
      3          6           0       -0.623342    1.224058   -0.077994
      4          7           0        0.614075    1.208340    0.135727
      5          6           0        1.061814   -0.146963   -0.038622
      6          6           0        2.511154   -0.422696    0.170707
      7          6           0        0.103671   -1.043594   -0.363994
      8          1           0       -2.474731   -1.606883    0.132445
      9          1           0       -1.865183   -0.611472    1.466685
     10          1           0       -3.083259    0.066333    0.345842
     11          1           0       -1.301086    2.066461   -0.029981
     12          1           0        3.126476    0.149986   -0.527194
     13          1           0        2.821868   -0.148227    1.181744
     14          1           0        2.706033   -1.483296    0.019926
     15          1           0       -1.416855   -0.140002   -1.391609
 ---------------------------------------------------------------------

 SCF Done:  E(RHF) =  -304.254153985     A.U. after    2 cycles

 The electronic state is 1-A.
 Alpha  occ. eigenvalues --  -15.83674 -15.75510 -11.44259 -11.43372 -11.39515
 Alpha  occ. eigenvalues --  -11.35508 -11.32726  -1.57755  -1.34163  -1.12438
 Alpha  occ. eigenvalues --   -1.04575  -0.96857  -0.84513  -0.74891  -0.72970
 Alpha  occ. eigenvalues --   -0.67098  -0.60900  -0.58676  -0.56619  -0.55343
 Alpha  occ. eigenvalues --   -0.49197  -0.46843  -0.45790  -0.40562  -0.31070
 Alpha  occ. eigenvalues --   -0.29847
 Alpha virt. eigenvalues --    0.02571   0.04510   0.04929   0.05542   0.06189
 Alpha virt. eigenvalues --    0.06460   0.07641   0.08019   0.09444   0.10583
 Alpha virt. eigenvalues --    0.11390   0.11696   0.12190   0.13557   0.14103

 Mulliken charges:
               1
     1  C   -3.565874
     2  N   -1.753312
     3  C    1.700357
     4  N   -3.820118
     5  C    5.437823
     6  C   -4.583879
     7  C   -3.419236
     8  H    1.345169
     9  H    1.311352
    10  H    1.335472
    11  H    1.580655
    12  H    1.232289
    13  H    1.185680
    14  H    1.254732
    15  H    0.758889
 Sum of Mulliken charges =  -0.00000

 Dipole moment (field-independent basis, Debye):
    X=             -4.3987    Y=              2.2508    Z=             -0.0619  Tot=              4.9415

 Test job not archived.
 1\1\GINC-SE173\SP\RHF\Aug-CC-pVDZ\C5H8N2\OHZDE\09-Apr-2025\0\\#t hf au
 g-cc-pvdz iop(5/13=1,5/36=2,99/5=2) pseudo=read geom=check guess=(read
 ,tcheck) scf=(maxcycle=1)\\title\\0,1\C,0,-2.16230396,-0.08217862,-0.5
 5946844\N,0,-1.009298,0.54091577,0.12499466\C,0,-0.56330957,-0.1761171
 8,1.32948012\N,0,0.65760657,-0.46068566,1.25525307\C,0,1.13771931,0.03
 716743,-0.00544048\C,0,2.57458692,-0.18830662,-0.32948941\C,0,0.217547
 25,0.6528667,-0.78135809\H,0,-2.37827823,0.49860602,-1.45202945\H,0,-1
 .87337928,-1.09010563,-0.84898677\H,0,-3.0265259,-0.11049965,0.1049745

 Normal termination of Gaussian 16 at Wed Apr  9 18:32:34 2025.
