 Gaussian 16, Revision C.01,

 ----------------------------------------------------------------------
 #t hf aug-cc-pvdz symm=none int=(grid=ultrafine) guess=(read,tcheck) s
 table=(opt,rrhf)
 ----------------------------------------------------------------------
 -----
 title
 -----
 Symbolic Z-matrix:
 Charge =  0 Multiplicity = 1

 SCF Done:  E(RHF) =  -302.809452915     A.U. after   14 cycles
 Normal termination of Gaussian 16 at Wed Apr  9 19:22:02 2025.
 Gaussian 16:  ES64L-G16RevC.01  3-Jul-2019

 ----------------------------------------------------------------------
 #t hf aug-cc-pvdz iop(5/13=1,5/36=2,99/5=2) pseudo=read geom=check gue
 ss=(read,tcheck) scf=(maxcycle=1)
 ----------------------------------------------------------------------
 -----
 title
 -----
 Structure from the checkpoint file:  "Grambow2020_wb97xd3_008840_reverse_mol2.chk"
 Charge =  0 Multiplicity = 1

                         Standard orientation:
 ---------------------------------------------------------------------
 Center     Atomic      Atomic             Coordinates (Angstroms)
 Number     Number       Type             X           Y           Z
 ---------------------------------------------------------------------
      1          6           0        0.424023    1.580938   -0.136908
      2          6           0        0.516549    0.083937    0.003180
      3          6           0       -0.778043   -0.656890    0.158093
      4          6           0       -2.026502   -0.016672    0.500241
      5          7           0       -1.958325   -0.273983   -0.718229
      6          6           0        1.643799   -0.628247   -0.636275
      7          7           0        1.586708   -0.491312    0.818692
      8          1           0       -0.184609    1.854956   -1.000115
      9          1           0       -0.030343    2.029365    0.751244
     10          1           0        1.415228    2.018355   -0.268587
     11          1           0       -0.651646   -1.720083    0.347436
     12          1           0       -2.718396    0.437913    1.196412
     13          1           0        2.365863   -0.036658   -1.188975
     14          1           0        1.506215   -1.638095   -1.006213
     15          1           0        2.220060    0.232911    1.135570
 ---------------------------------------------------------------------

 SCF Done:  E(RHF) =  -304.243923485     A.U. after    2 cycles

 The electronic state is 1-A.
 Alpha  occ. eigenvalues --  -15.76076 -15.73096 -11.50259 -11.46094 -11.42853
 Alpha  occ. eigenvalues --  -11.40561 -11.38092  -1.50239  -1.42682  -1.09348
 Alpha  occ. eigenvalues --   -0.96791  -0.92432  -0.83104  -0.79165  -0.68745
 Alpha  occ. eigenvalues --   -0.66231  -0.62615  -0.58454  -0.54674  -0.51889
 Alpha  occ. eigenvalues --   -0.50060  -0.45725  -0.42939  -0.39387  -0.35983
 Alpha  occ. eigenvalues --   -0.32391
 Alpha virt. eigenvalues --    0.03691   0.04745   0.05501   0.05922   0.06051
 Alpha virt. eigenvalues --    0.06518   0.06918   0.07932   0.09601   0.10843
 Alpha virt. eigenvalues --    0.11313   0.13175   0.13747   0.13874   0.14188

 Mulliken charges:
               1
     1  C   -4.634188
     2  C    2.322346
     3  C   -1.106138
     4  C    0.397428
     5  N   -1.664066
     6  C   -2.356287
     7  N   -2.357770
     8  H    1.258567
     9  H    1.174963
    10  H    1.186565
    11  H    1.299426
    12  H    1.039236
    13  H    1.378240
    14  H    1.452655
    15  H    0.609023
 Sum of Mulliken charges =   0.00000

 Dipole moment (field-independent basis, Debye):
    X=              0.3911    Y=              1.4132    Z=              0.8477  Tot=              1.6937

 Test job not archived.
 1\1\GINC-SE340\SP\RHF\Aug-CC-pVDZ\C5H8N2\OHZDE\09-Apr-2025\0\\#t hf au
 g-cc-pvdz iop(5/13=1,5/36=2,99/5=2) pseudo=read geom=check guess=(read
 ,tcheck) scf=(maxcycle=1)\\title\\0,1\C,0,-0.72152748,1.23872876,0.217
 19811\C,0,-0.1901834,-0.16039746,0.04597902\C,0,1.2720921,-0.29015901,
 -0.26013088\C,0,2.0927989,0.80983482,-0.70962802\N,0,2.26600882,0.5695
 3423,0.50189101\C,0,-0.84051475,-1.26933456,0.77681948\N,0,-0.99766888
 ,-1.14709662,-0.6720761\H,0,-0.19848135,1.75882942,1.02128862\H,0,-0.5
 9267461,1.82080228,-0.69982819\H,0,-1.78519972,1.22059729,0.46098546\H

 Normal termination of Gaussian 16 at Wed Apr  9 19:22:07 2025.
