 Gaussian 16, Revision C.01,

 ----------------------------------------------------------------------
 #t hf aug-cc-pvdz symm=none int=(grid=ultrafine) guess=(read,tcheck) s
 table=(opt,rrhf)
 ----------------------------------------------------------------------
 -----
 title
 -----
 Symbolic Z-matrix:
 Charge =  0 Multiplicity = 1

 SCF Done:  E(RHF) =  -344.690070157     A.U. after   15 cycles

 1\1\GINC-SE329\Stability\RHF\Aug-CC-pVDZ\C5H10O2\OHZDE\09-Apr-2025\0\\
 #t hf aug-cc-pvdz symm=none int=(grid=ultrafine) guess=(read,tcheck) s
 table=(opt,rrhf)\\title\\0,1\C,0,1.49319945,1.46985433,-0.58988685\O,0
 ,1.34486161,0.50070893,0.27112727\C,0,0.49787916,-0.46160907,0.2430542
 9\C,0,0.14419004,-1.38879351,1.36006831\O,0,-1.18322053,-1.48786991,0.
 80725772\C,0,-0.92267455,-0.53567861,-0.2515617\C,0,-1.78323933,0.7064
 8863,-0.13225348\H,0,1.90396161,-0.34799132,-1.97748309\H,0,0.73969596
 ,1.63723621,-1.34378152\H,0,2.29827384,2.14742729,-0.36724144\H,0,1.59

 Normal termination of Gaussian 16 at Wed Apr  9 03:27:35 2025.
 Gaussian 16:  ES64L-G16RevC.01  3-Jul-2019

 ----------------------------------------------------------------------
 #t hf aug-cc-pvdz iop(5/13=1,5/36=2,99/5=2) pseudo=read geom=check gue
 ss=(read,tcheck) scf=(maxcycle=1)
 ----------------------------------------------------------------------
 -----
 title
 -----
 Structure from the checkpoint file:  "Grambow2020_wb97xd3_006660_reverse_mol2.chk"
 Charge =  0 Multiplicity = 1

                         Standard orientation:
 ---------------------------------------------------------------------
 Center     Atomic      Atomic             Coordinates (Angstroms)
 Number     Number       Type             X           Y           Z
 ---------------------------------------------------------------------
      1          6           0       -2.324057    0.285556   -0.139653
      2          8           0       -1.367031   -0.574342   -0.357066
      3          6           0       -0.182501   -0.582726    0.133893
      4          6           0        0.985059   -1.389650   -0.333190
      5          8           0        1.850173   -0.326884    0.113510
      6          6           0        0.755891    0.532520    0.513037
      7          6           0        0.704376    1.812252   -0.297775
      8          1           0       -2.010430   -0.500999    2.024067
      9          1           0       -2.106374    1.213531    0.365935
     10          1           0       -3.247513    0.065196   -0.645114
     11          1           0       -1.314206   -0.809063    2.074847
     12          1           0        1.054059   -1.556608   -1.415282
     13          1           0        1.191033   -2.326025    0.193538
     14          1           0        0.822861    0.760791    1.582889
     15          1           0       -0.096212    2.469709    0.045186
     16          1           0        1.650829    2.340949   -0.176478
     17          1           0        0.558206    1.604615   -1.359014
 ---------------------------------------------------------------------

 SCF Done:  E(RHF) =  -346.319909901     A.U. after    2 cycles

 The electronic state is 1-A.
 Alpha  occ. eigenvalues --  -21.19565 -21.04454 -11.48694 -11.46961 -11.41693
 Alpha  occ. eigenvalues --  -11.41305 -11.38328  -1.89352  -1.77230  -1.14212
 Alpha  occ. eigenvalues --   -1.08657  -0.95778  -0.92377  -0.76570  -0.71474
 Alpha  occ. eigenvalues --   -0.67543  -0.66501  -0.62412  -0.59168  -0.58314
 Alpha  occ. eigenvalues --   -0.52933  -0.52496  -0.50537  -0.47212  -0.40956
 Alpha  occ. eigenvalues --   -0.37561  -0.30746  -0.26213
 Alpha virt. eigenvalues --    0.03970   0.04745   0.05048   0.05540   0.05803
 Alpha virt. eigenvalues --    0.06350   0.06589   0.07355   0.08319   0.09982
 Alpha virt. eigenvalues --    0.10520   0.11321   0.12519   0.13093   0.13432

 Mulliken charges:
               1
     1  C   -2.182023
     2  O   -3.730272
     3  C    3.539646
     4  C   -2.026935
     5  O   -2.867875
     6  C   -0.273690
     7  C   -3.631111
     8  H    0.158755
     9  H    1.596093
    10  H    1.370666
    11  H   -0.448797
    12  H    1.451131
    13  H    1.506216
    14  H    1.722711
    15  H    1.376074
    16  H    1.151758
    17  H    1.287654
 Sum of Mulliken charges =  -0.00000

 Dipole moment (field-independent basis, Debye):
    X=              0.0793    Y=              0.4569    Z=             -0.6376  Tot=              0.7884

 Test job not archived.
 1\1\GINC-SE329\SP\RHF\Aug-CC-pVDZ\C5H10O2\OHZDE\09-Apr-2025\0\\#t hf a
 ug-cc-pvdz iop(5/13=1,5/36=2,99/5=2) pseudo=read geom=check guess=(rea
 d,tcheck) scf=(maxcycle=1)\\title\\0,1\C,0,1.49319945,1.46985433,-0.58
 988685\O,0,1.34486161,0.50070893,0.27112727\C,0,0.49787916,-0.46160907
 ,0.24305429\C,0,0.14419004,-1.38879351,1.36006831\O,0,-1.18322053,-1.4
 8786991,0.80725772\C,0,-0.92267455,-0.53567861,-0.2515617\C,0,-1.78323
 933,0.70648863,-0.13225348\H,0,1.90396161,-0.34799132,-1.97748309\H,0,
 0.73969596,1.63723621,-1.34378152\H,0,2.29827384,2.14742729,-0.3672414

 Normal termination of Gaussian 16 at Wed Apr  9 03:27:41 2025.
