 Gaussian 16, Revision C.01,

 ----------------------------------------------------------------------
 #t hf aug-cc-pvdz symm=none int=(grid=ultrafine) guess=(read,tcheck) s
 table=(opt,rrhf)
 ----------------------------------------------------------------------
 -----
 title
 -----
 Symbolic Z-matrix:
 Charge =  0 Multiplicity = 1

 SCF Done:  E(RHF) =  -268.647857911     A.U. after   16 cycles
 Normal termination of Gaussian 16 at Wed Apr  9 17:56:32 2025.
 Gaussian 16:  ES64L-G16RevC.01  3-Jul-2019

 ----------------------------------------------------------------------
 #t hf aug-cc-pvdz iop(5/13=1,5/36=2,99/5=2) pseudo=read geom=check gue
 ss=(read,tcheck) scf=(maxcycle=1)
 ----------------------------------------------------------------------
 -----
 title
 -----
 Structure from the checkpoint file:  "Grambow2020_wb97xd3_006260_forward_mol1.chk"
 Charge =  0 Multiplicity = 1

                         Standard orientation:
 ---------------------------------------------------------------------
 Center     Atomic      Atomic             Coordinates (Angstroms)
 Number     Number       Type             X           Y           Z
 ---------------------------------------------------------------------
      1          6           0       -1.612843   -1.016780    0.244710
      2          6           0       -1.029574    0.186898   -0.449450
      3          6           0       -0.507084    1.353022    0.337746
      4          6           0        0.429828    0.434672   -0.491039
      5          6           0        1.403281   -0.234038    0.774405
      6          8           0        1.586960   -0.727959   -0.425381
      7          1           0       -1.062976   -1.234686    1.158181
      8          1           0       -2.661588   -0.839225    0.490330
      9          1           0       -1.557781   -1.891948   -0.404684
     10          1           0       -1.521986    0.444948   -1.382045
     11          1           0       -0.482411    1.270087    1.411816
     12          1           0       -0.623251    2.354878   -0.060790
     13          1           0        0.849211    0.939976   -1.349461
     14          1           0        2.263457    0.436999    1.041469
 ---------------------------------------------------------------------

 SCF Done:  E(RHF) =  -269.917853276     A.U. after    2 cycles

 The electronic state is 1-A.
 Alpha  occ. eigenvalues --  -21.10236 -11.49206 -11.45154 -11.40846 -11.40469
 Alpha  occ. eigenvalues --  -11.37792  -1.77250  -1.32738  -1.05421  -0.88320
 Alpha  occ. eigenvalues --   -0.85039  -0.80872  -0.72022  -0.61671  -0.59335
 Alpha  occ. eigenvalues --   -0.56867  -0.54191  -0.49914  -0.46898  -0.45502
 Alpha  occ. eigenvalues --   -0.41575  -0.38999  -0.23944
 Alpha virt. eigenvalues --    0.03738   0.04986   0.05297   0.05450   0.05894
 Alpha virt. eigenvalues --    0.06300   0.06670   0.07661   0.09876   0.11605
 Alpha virt. eigenvalues --    0.12729   0.13671   0.13736   0.14002   0.14429

 Mulliken charges:
               1
     1  C   -4.553391
     2  C   -0.837036
     3  C   -2.216522
     4  C    0.537456
     5  C   -1.069419
     6  O   -2.137253
     7  H    1.371226
     8  H    1.127113
     9  H    1.232766
    10  H    1.294414
    11  H    1.572567
    12  H    1.210345
    13  H    1.118128
    14  H    1.349605
 Sum of Mulliken charges =   0.00000

 Dipole moment (field-independent basis, Debye):
    X=             -0.8488    Y=              0.9505    Z=             -1.7236  Tot=              2.1435

 Test job not archived.
 1\1\GINC-SE131\SP\RHF\Aug-CC-pVDZ\C5H8O1\OHZDE\09-Apr-2025\0\\#t hf au
 g-cc-pvdz iop(5/13=1,5/36=2,99/5=2) pseudo=read geom=check guess=(read
 ,tcheck) scf=(maxcycle=1)\\title\\0,1\C,0,-1.33785952,-0.92229732,-0.5
 3712543\C,0,-0.53821212,0.35415126,-0.58344775\C,0,-0.17741654,1.08417
 703,0.67727002\C,0,0.89377155,0.39381944,-0.20817798\C,0,1.47767566,-0
 .80590627,0.89447486\O,0,1.93716364,-0.86759859,-0.33118659\H,0,-1.050
 91437,-1.5217744,0.32459089\H,0,-2.40451554,-0.69733544,-0.47917476\H,
 0,-1.16186663,-1.51220484,-1.43806905\H,0,-0.76282145,0.98946507,-1.43

 Normal termination of Gaussian 16 at Wed Apr  9 17:56:36 2025.
