 Gaussian 16, Revision C.01,

 ----------------------------------------------------------------------
 #t hf aug-cc-pvdz symm=none int=(grid=ultrafine) guess=(read,tcheck) s
 table=(opt,rrhf)
 ----------------------------------------------------------------------
 -----
 title
 -----
 Symbolic Z-matrix:
 Charge =  0 Multiplicity = 1

 SCF Done:  E(RHF) =  -325.081619391     A.U. after   13 cycles
 Normal termination of Gaussian 16 at Wed Apr  9 19:07:09 2025.
 Gaussian 16:  ES64L-G16RevC.01  3-Jul-2019

 ----------------------------------------------------------------------
 #t hf aug-cc-pvdz iop(5/13=1,5/36=2,99/5=2) pseudo=read geom=check gue
 ss=(read,tcheck) scf=(maxcycle=1)
 ----------------------------------------------------------------------
 -----
 title
 -----
 Structure from the checkpoint file:  "Grambow2020_wb97xd3_008109_reverse_mol2.chk"
 Charge =  0 Multiplicity = 1

                         Standard orientation:
 ---------------------------------------------------------------------
 Center     Atomic      Atomic             Coordinates (Angstroms)
 Number     Number       Type             X           Y           Z
 ---------------------------------------------------------------------
      1          6           0       -2.368979   -0.630696    0.620870
      2          6           0       -1.772223    0.057069   -0.588930
      3          7           0        0.726631   -0.816863   -0.200530
      4          6           0        2.051535   -1.358540   -0.023696
      5          6           0        0.518579    0.416963   -0.054039
      6          8           0       -0.710414    0.943069   -0.229160
      7          6           0        1.504581    1.494012    0.310748
      8          1           0       -3.231312   -1.228378    0.317981
      9          1           0       -2.702945    0.104268    1.355299
     10          1           0       -1.638831   -1.292521    1.085273
     11          1           0       -2.507143    0.700329   -1.074327
     12          1           0       -1.401010   -0.673366   -1.309123
     13          1           0        2.257365   -2.064835   -0.829988
     14          1           0        2.856958   -0.615825   -0.010482
     15          1           0        2.096869   -1.923287    0.911977
     16          1           0        0.988605    2.444013    0.424243
     17          1           0        2.262683    1.598650   -0.467025
     18          1           0        2.014703    1.251590    1.243438
 ---------------------------------------------------------------------

 SCF Done:  E(RHF) =  -326.640792021     A.U. after    2 cycles

 The electronic state is 1-A.
 Alpha  occ. eigenvalues --  -21.06345 -15.69587 -11.48041 -11.42505 -11.38154
 Alpha  occ. eigenvalues --  -11.37901 -11.35499  -1.79602  -1.35790  -1.13569
 Alpha  occ. eigenvalues --   -1.07315  -0.98959  -0.88340  -0.72338  -0.66970
 Alpha  occ. eigenvalues --   -0.64209  -0.62206  -0.57602  -0.57081  -0.56386
 Alpha  occ. eigenvalues --   -0.54256  -0.52413  -0.50402  -0.47606  -0.43467
 Alpha  occ. eigenvalues --   -0.38945  -0.34757  -0.28834
 Alpha virt. eigenvalues --    0.03750   0.05301   0.05492   0.05670   0.06073
 Alpha virt. eigenvalues --    0.06350   0.06417   0.06513   0.07331   0.08878
 Alpha virt. eigenvalues --    0.09050   0.10994   0.12299   0.12579   0.13778

 Mulliken charges:
               1
     1  C   -3.897964
     2  C   -1.919459
     3  N   -3.308810
     4  C   -3.103833
     5  C    5.697032
     6  O   -3.803320
     7  C   -4.721870
     8  H    1.170988
     9  H    1.394242
    10  H    1.389766
    11  H    1.360575
    12  H    1.713601
    13  H    1.369058
    14  H    1.438124
    15  H    1.389841
    16  H    1.360364
    17  H    1.226455
    18  H    1.245211
 Sum of Mulliken charges =   0.00000

 Dipole moment (field-independent basis, Debye):
    X=              0.2580    Y=              1.0555    Z=              0.1596  Tot=              1.0982

 Test job not archived.
 1\1\GINC-SE219\SP\RHF\Aug-CC-pVDZ\C5H11N1O1\OHZDE\09-Apr-2025\0\\#t hf
  aug-cc-pvdz iop(5/13=1,5/36=2,99/5=2) pseudo=read geom=check guess=(r
 ead,tcheck) scf=(maxcycle=1)\\title\\0,1\C,0,-2.24321168,0.36694727,-1
 .13036239\C,0,-1.53613903,-0.92494428,-0.7784855\N,0,0.15396325,0.1568
 1811,0.9913251\C,0,1.00507535,0.73921783,1.99952772\C,0,0.64755009,-0.
 28811315,-0.07894615\O,0,-0.13093878,-0.84862738,-1.02639394\C,0,2.090
 26093,-0.30246889,-0.50752755\H,0,-3.32165733,0.24160582,-1.01276843\H
 ,0,-2.042005,0.64569816,-2.16617429\H,0,-1.91795879,1.17359511,-0.4743

 Normal termination of Gaussian 16 at Wed Apr  9 19:07:15 2025.
