 Gaussian 16, Revision C.01,

 ----------------------------------------------------------------------
 #t hf aug-cc-pvdz symm=none int=(grid=ultrafine) guess=(read,tcheck) s
 table=(opt,rrhf)
 ----------------------------------------------------------------------
 -----
 title
 -----
 Symbolic Z-matrix:
 Charge =  0 Multiplicity = 1

 SCF Done:  E(RHF) =  -302.891344307     A.U. after   14 cycles
 Normal termination of Gaussian 16 at Wed Apr  9 19:29:14 2025.
 Gaussian 16:  ES64L-G16RevC.01  3-Jul-2019

 ----------------------------------------------------------------------
 #t hf aug-cc-pvdz iop(5/13=1,5/36=2,99/5=2) pseudo=read geom=check gue
 ss=(read,tcheck) scf=(maxcycle=1)
 ----------------------------------------------------------------------
 -----
 title
 -----
 Structure from the checkpoint file:  "Grambow2020_wb97xd3_009044_forward_mol2.chk"
 Charge =  0 Multiplicity = 1

                         Standard orientation:
 ---------------------------------------------------------------------
 Center     Atomic      Atomic             Coordinates (Angstroms)
 Number     Number       Type             X           Y           Z
 ---------------------------------------------------------------------
      1          7           0        0.747389    1.780941    0.022681
      2          6           0        0.423281    0.403820   -0.308798
      3          6           0        1.553927   -0.529702   -0.079909
      4          7           0        2.447983   -1.222927    0.113777
      5          6           0       -0.789963   -0.073938    0.454029
      6          6           0       -1.672223   -1.124044   -0.145491
      7          6           0       -2.148579    0.295038   -0.047015
      8          1           0        1.570041    2.092691   -0.476143
      9          1           0        0.937591    1.873761    1.012366
     10          1           0        0.196929    0.360683   -1.378499
     11          1           0       -0.649392   -0.108185    1.529270
     12          1           0       -1.408564   -1.505031   -1.124411
     13          1           0       -2.102432   -1.862472    0.516848
     14          1           0       -2.909937    0.532783    0.683122
     15          1           0       -2.200498    0.882627   -0.954653
 ---------------------------------------------------------------------

 SCF Done:  E(RHF) =  -304.336400725     A.U. after    2 cycles

 The electronic state is 1-A.
 Alpha  occ. eigenvalues --  -15.75757 -15.75610 -11.50683 -11.43683 -11.43160
 Alpha  occ. eigenvalues --  -11.41626 -11.37498  -1.42384  -1.29382  -1.28319
 Alpha  occ. eigenvalues --   -1.04224  -0.87872  -0.85665  -0.74293  -0.69529
 Alpha  occ. eigenvalues --   -0.67581  -0.61682  -0.59030  -0.53243  -0.51960
 Alpha  occ. eigenvalues --   -0.51662  -0.44833  -0.43521  -0.40688  -0.39813
 Alpha  occ. eigenvalues --   -0.37907
 Alpha virt. eigenvalues --    0.03802   0.05041   0.05282   0.05478   0.05770
 Alpha virt. eigenvalues --    0.05889   0.06449   0.08695   0.09757   0.10688
 Alpha virt. eigenvalues --    0.12035   0.12914   0.13708   0.13939   0.14404

 Mulliken charges:
               1
     1  N   -2.660453
     2  C   -2.113065
     3  C    2.990563
     4  N   -2.673235
     5  C    0.176553
     6  C   -2.303890
     7  C   -2.674032
     8  H    0.613664
     9  H    0.600723
    10  H    1.654440
    11  H    1.301283
    12  H    1.335620
    13  H    1.256190
    14  H    1.211104
    15  H    1.284533
 Sum of Mulliken charges =  -0.00000

 Dipole moment (field-independent basis, Debye):
    X=             -2.2978    Y=              1.7343    Z=             -0.1137  Tot=              2.8811

 Test job not archived.
 1\1\GINC-SE028\SP\RHF\Aug-CC-pVDZ\C5H8N2\OHZDE\09-Apr-2025\0\\#t hf au
 g-cc-pvdz iop(5/13=1,5/36=2,99/5=2) pseudo=read geom=check guess=(read
 ,tcheck) scf=(maxcycle=1)\\title\\0,1\N,0,1.87240622,-0.7563682,-0.001
 15034\C,0,0.81270813,0.15133851,0.40442907\C,0,1.25363521,1.56690215,0
 .46750836\N,0,1.62829411,2.65131553,0.50049075\C,0,-0.38806421,0.03524
 367,-0.50484899\C,0,-1.75333587,0.32734984,0.03481547\C,0,-1.35441376,
 -1.08307678,-0.28450284\H,0,2.68150827,-0.66428852,0.59855385\H,0,2.17
 005761,-0.5561773,-0.94751021\H,0,0.50540652,-0.12342059,1.4180513\H,0

 Normal termination of Gaussian 16 at Wed Apr  9 19:29:19 2025.
