 Gaussian 16, Revision C.01,

 ----------------------------------------------------------------------
 #t hf aug-cc-pvdz symm=none int=(grid=ultrafine) guess=(read,tcheck) s
 table=(opt,rrhf)
 ----------------------------------------------------------------------
 -----
 title
 -----
 Symbolic Z-matrix:
 Charge =  0 Multiplicity = 1

 SCF Done:  E(RHF) =  -342.547312092     A.U. after   14 cycles
 Normal termination of Gaussian 16 at Wed Apr  9 19:30:02 2025.
 Gaussian 16:  ES64L-G16RevC.01  3-Jul-2019

 ----------------------------------------------------------------------
 #t hf aug-cc-pvdz iop(5/13=1,5/36=2,99/5=2) pseudo=read geom=check gue
 ss=(read,tcheck) scf=(maxcycle=1)
 ----------------------------------------------------------------------
 -----
 title
 -----
 Structure from the checkpoint file:  "Grambow2020_wb97xd3_009066_reverse_mol2.chk"
 Charge =  0 Multiplicity = 1

                         Standard orientation:
 ---------------------------------------------------------------------
 Center     Atomic      Atomic             Coordinates (Angstroms)
 Number     Number       Type             X           Y           Z
 ---------------------------------------------------------------------
      1          8           0        0.412700    1.480159   -1.224691
      2          6           0        0.239102    1.589312   -0.086934
      3          6           0       -2.207033   -1.182370    0.561784
      4          6           0       -2.223475   -0.758770   -0.691042
      5          6           0        1.557709   -1.577040    0.009749
      6          8           0        2.635961   -1.271283    0.082640
      7          6           0        0.054252    1.710762    1.201381
      8          1           0       -3.019436   -0.965706    1.246750
      9          1           0       -1.379462   -1.766073    0.948752
     10          1           0       -3.048065   -0.175445   -1.084988
     11          1           0       -1.411847   -0.980229   -1.374672
     12          1           0        0.704023    2.356456    1.770919
     13          1           0       -0.757824    1.168621    1.660021
 ---------------------------------------------------------------------

 SCF Done:  E(RHF) =  -344.060003658     A.U. after    2 cycles

 The electronic state is 1-A.
 Alpha  occ. eigenvalues --  -21.17772 -21.13694 -11.54924 -11.50858 -11.41104
 Alpha  occ. eigenvalues --  -11.39573 -11.37388  -1.80571  -1.77525  -1.14025
 Alpha  occ. eigenvalues --   -1.12354  -0.82467  -0.72544  -0.72116  -0.64689
 Alpha  occ. eigenvalues --   -0.63869  -0.58786  -0.56545  -0.56208  -0.52877
 Alpha  occ. eigenvalues --   -0.52640  -0.50866  -0.49589  -0.47313  -0.36639
 Alpha  occ. eigenvalues --   -0.29404
 Alpha virt. eigenvalues --    0.03614   0.05184   0.05707   0.06298   0.06992
 Alpha virt. eigenvalues --    0.07348   0.09022   0.09821   0.11016   0.11473
 Alpha virt. eigenvalues --    0.12489   0.13091   0.13380   0.13897   0.14346

 Mulliken charges:
               1
     1  O   -2.329168
     2  C    1.604811
     3  C   -2.960725
     4  C   -2.836766
     5  C    1.023268
     6  O   -1.075940
     7  C   -2.094696
     8  H    1.346961
     9  H    1.534381
    10  H    1.334540
    11  H    1.507088
    12  H    1.368716
    13  H    1.577530
 Sum of Mulliken charges =  -0.00000

 Dipole moment (field-independent basis, Debye):
    X=              1.5045    Y=              0.3820    Z=             -0.3353  Tot=              1.5880

 Test job not archived.
 1\1\GINC-SE131\SP\RHF\Aug-CC-pVDZ\C5H6O2\OHZDE\09-Apr-2025\0\\#t hf au
 g-cc-pvdz iop(5/13=1,5/36=2,99/5=2) pseudo=read geom=check guess=(read
 ,tcheck) scf=(maxcycle=1)\\title\\0,1\O,0,1.34103687,-0.36098818,1.888
 64758\C,0,1.54891879,-0.68546524,0.79867414\C,0,-1.79473118,-0.0999568
 1,-0.80251867\C,0,-1.87201193,-0.29460684,0.50339782\C,0,0.77543939,2.
 5845269,0.10387958\O,0,1.80980872,2.9995645,0.24262878\C,0,1.79220367,
 -1.04400578,-0.43458834\H,0,-2.13419519,-0.84786558,-1.51069743\H,0,-1
 .39093936,0.81876511,-1.21267691\H,0,-2.27541766,-1.21038879,0.9205512

 Normal termination of Gaussian 16 at Wed Apr  9 19:30:06 2025.
