 Gaussian 16, Revision C.01,

 ----------------------------------------------------------------------
 #t hf aug-cc-pvdz symm=none int=(grid=ultrafine) guess=(read,tcheck) s
 table=(opt,rrhf)
 ----------------------------------------------------------------------
 -----
 title
 -----
 Symbolic Z-matrix:
 Charge =  0 Multiplicity = 1

 SCF Done:  E(RHF) =  -338.687325831     A.U. after   15 cycles
 Normal termination of Gaussian 16 at Wed Apr  9 19:14:55 2025.
 Gaussian 16:  ES64L-G16RevC.01  3-Jul-2019

 ----------------------------------------------------------------------
 #t hf aug-cc-pvdz iop(5/13=1,5/36=2,99/5=2) pseudo=read geom=check gue
 ss=(read,tcheck) scf=(maxcycle=1)
 ----------------------------------------------------------------------
 -----
 title
 -----
 Structure from the checkpoint file:  "Grambow2020_wb97xd3_008466_reverse_mol2.chk"
 Charge =  0 Multiplicity = 1

                         Standard orientation:
 ---------------------------------------------------------------------
 Center     Atomic      Atomic             Coordinates (Angstroms)
 Number     Number       Type             X           Y           Z
 ---------------------------------------------------------------------
      1          7           0       -0.378754    2.004547   -0.010600
      2          6           0        0.012809    0.809508   -0.015096
      3          6           0       -0.821027   -0.442358    0.008693
      4          8           0       -2.150281   -0.336717    0.040261
      5          6           0        0.021431   -1.480778   -0.009006
      6          6           0        1.357448   -0.861641   -0.041937
      7          7           0        1.376338    0.421209   -0.045552
      8          1           0        3.984169    0.488939    0.181670
      9          1           0       -1.398173    2.034785    0.013652
     10          1           0       -2.558235   -1.206280    0.054621
     11          1           0       -0.193440   -2.538703   -0.000678
     12          1           0        2.281972   -1.430900   -0.062264
     13          1           0        4.678896    0.217213    0.228050
 ---------------------------------------------------------------------

 SCF Done:  E(RHF) =  -340.218287921     A.U. after    2 cycles

 The electronic state is 1-A.
 Alpha  occ. eigenvalues --  -21.14928 -15.75941 -15.72813 -11.52512 -11.46946
 Alpha  occ. eigenvalues --  -11.45458 -11.40671  -1.80683  -1.49089  -1.30639
 Alpha  occ. eigenvalues --   -1.13209  -0.97600  -0.83704  -0.75972  -0.71957
 Alpha  occ. eigenvalues --   -0.64714  -0.60031  -0.59792  -0.57870  -0.54863
 Alpha  occ. eigenvalues --   -0.48351  -0.48161  -0.42212  -0.40065  -0.36838
 Alpha  occ. eigenvalues --   -0.30193
 Alpha virt. eigenvalues --    0.02609   0.04485   0.05192   0.05844   0.06458
 Alpha virt. eigenvalues --    0.07580   0.09111   0.10236   0.11151   0.12327
 Alpha virt. eigenvalues --    0.12977   0.13388   0.13881   0.14194   0.14750

 Mulliken charges:
               1
     1  N   -3.330490
     2  C    3.552434
     3  C    4.838840
     4  O   -4.129583
     5  C   -2.626334
     6  C    0.214827
     7  N   -3.141174
     8  H   -0.443259
     9  H    0.685835
    10  H    1.023643
    11  H    1.312571
    12  H    1.699366
    13  H    0.343324
 Sum of Mulliken charges =   0.00000

 Dipole moment (field-independent basis, Debye):
    X=             -3.1669    Y=             -3.4078    Z=              0.0760  Tot=              4.6528

 Test job not archived.
 1\1\GINC-SE048\SP\RHF\Aug-CC-pVDZ\C4H6N2O1\OHZDE\09-Apr-2025\0\\#t hf
 aug-cc-pvdz iop(5/13=1,5/36=2,99/5=2) pseudo=read geom=check guess=(re
 ad,tcheck) scf=(maxcycle=1)\\title\\0,1\N,0,2.15389949,-0.23645586,0.8
 6987279\C,0,0.9788623,-0.1657629,0.42743751\C,0,-0.0399274,-1.26678056
 ,0.31410877\O,0,0.28520505,-2.49627593,0.7162334\C,0,-1.14736513,-0.73
 043436,-0.2096088\C,0,-0.80099551,0.68653667,-0.41351932\N,0,0.3860295
 ,1.02514856,-0.06367896\H,0,0.09990079,3.43759984,-1.04102556\H,0,2.35
 610574,-1.19204541,1.16428444\H,0,-0.45107291,-3.09972367,0.58770978\H

 Normal termination of Gaussian 16 at Wed Apr  9 19:14:58 2025.
