 Gaussian 16, Revision C.01,

 ----------------------------------------------------------------------
 #t hf aug-cc-pvdz symm=none int=(grid=ultrafine) guess=(read,tcheck) s
 table=(opt,rrhf)
 ----------------------------------------------------------------------
 -----
 title
 -----
 Symbolic Z-matrix:
 Charge =  0 Multiplicity = 1

 SCF Done:  E(RHF) =  -283.667137784     A.U. after   15 cycles
 Normal termination of Gaussian 16 at Wed Apr  9 17:31:12 2025.
 Gaussian 16:  ES64L-G16RevC.01  3-Jul-2019

 ----------------------------------------------------------------------
 #t hf aug-cc-pvdz iop(5/13=1,5/36=2,99/5=2) pseudo=read geom=check gue
 ss=(read,tcheck) scf=(maxcycle=1)
 ----------------------------------------------------------------------
 -----
 title
 -----
 Structure from the checkpoint file:  "Grambow2020_b97d3_007167_forward_mol2.chk"
 Charge =  0 Multiplicity = 1

                         Standard orientation:
 ---------------------------------------------------------------------
 Center     Atomic      Atomic             Coordinates (Angstroms)
 Number     Number       Type             X           Y           Z
 ---------------------------------------------------------------------
      1          6           0        2.255880   -0.430432    0.012334
      2          7           0        0.823241   -0.671872   -0.022035
      3          6           0       -0.099096    0.344479   -0.006383
      4          8           0        0.179550    1.544033    0.000506
      5          6           0       -1.480950   -0.138307   -0.002902
      6          6           0       -2.651438   -0.475158    0.008448
      7          1           0        2.758427   -0.963772   -0.806708
      8          1           0        2.692059   -0.749865    0.970851
      9          1           0        2.408373    0.646330   -0.107218
     10          1           0        0.479676   -1.626033    0.005641
     11          1           0       -3.683994   -0.759300    0.018650
 ---------------------------------------------------------------------

 SCF Done:  E(RHF) =  -284.942510687     A.U. after    2 cycles

 The electronic state is 1-A.
 Alpha  occ. eigenvalues --  -21.03645 -15.77613 -11.53958 -11.44784 -11.43014
 Alpha  occ. eigenvalues --  -11.40720  -1.70763  -1.39974  -1.13680  -1.02692
 Alpha  occ. eigenvalues --   -0.87367  -0.77034  -0.70616  -0.62617  -0.60212
 Alpha  occ. eigenvalues --   -0.55717  -0.52663  -0.50430  -0.39988  -0.38712
 Alpha  occ. eigenvalues --   -0.31453  -0.30363
 Alpha virt. eigenvalues --    0.02879   0.04359   0.05645   0.05870   0.07572
 Alpha virt. eigenvalues --    0.09279   0.10124   0.10676   0.11150   0.13012
 Alpha virt. eigenvalues --    0.13519   0.13664   0.14333   0.15352   0.16213

 Mulliken charges:
               1
     1  C   -3.302307
     2  N   -2.729443
     3  C    5.319871
     4  O   -3.218216
     5  C    1.492797
     6  C   -3.038793
     7  H    1.310820
     8  H    1.306286
     9  H    1.352862
    10  H    0.749414
    11  H    0.756709
 Sum of Mulliken charges =  -0.00000

 Dipole moment (field-independent basis, Debye):
    X=              0.2824    Y=             -2.4185    Z=              0.0494  Tot=              2.4355

 Test job not archived.
 1\1\GINC-SE226\SP\RHF\Aug-CC-pVDZ\C4H5N1O1\OHZDE\09-Apr-2025\0\\#t hf
 aug-cc-pvdz iop(5/13=1,5/36=2,99/5=2) pseudo=read geom=check guess=(re
 ad,tcheck) scf=(maxcycle=1)\\title\\0,1\C,0,-1.89175995,0.1173983,-0.3
 7909925\N,0,-0.44259,0.04923282,-0.46387728\C,0,0.35577348,-0.12625064
 ,0.63872864\O,0,-0.05966093,-0.27896197,1.78795171\C,0,1.78368874,-0.1
 1976524,0.31681157\C,0,2.98510311,-0.11636131,0.11622773\H,0,-2.354637
 31,-0.59102791,-1.08032022\H,0,-2.25759284,1.13183937,-0.59846265\H,0,
 -2.17170426,-0.14865724,0.64452685\H,0,0.00994215,0.19760065,-1.359660

 Normal termination of Gaussian 16 at Wed Apr  9 17:31:15 2025.
