 Gaussian 16, Revision C.01,

 ----------------------------------------------------------------------
 #t hf aug-cc-pvdz symm=none int=(grid=ultrafine) guess=(read,tcheck) s
 table=(opt,rrhf)
 ----------------------------------------------------------------------
 -----
 title
 -----
 Symbolic Z-matrix:
 Charge =  0 Multiplicity = 1

 SCF Done:  E(RHF) =  -375.779839041     A.U. after   14 cycles
 Normal termination of Gaussian 16 at Wed Apr  9 03:46:22 2025.
 Gaussian 16:  ES64L-G16RevC.01  3-Jul-2019

 ----------------------------------------------------------------------
 #t hf aug-cc-pvdz iop(5/13=1,5/36=2,99/5=2) pseudo=read geom=check gue
 ss=(read,tcheck) scf=(maxcycle=1)
 ----------------------------------------------------------------------
 -----
 title
 -----
 Structure from the checkpoint file:  "Grambow2020_wb97xd3_007906_forward_mol2.chk"
 Charge =  0 Multiplicity = 1

                         Standard orientation:
 ---------------------------------------------------------------------
 Center     Atomic      Atomic             Coordinates (Angstroms)
 Number     Number       Type             X           Y           Z
 ---------------------------------------------------------------------
      1          6           0       -2.738576   -0.315253    0.001962
      2          8           0       -1.390598   -0.748879   -0.002629
      3          6           0       -0.435907    0.202774   -0.001521
      4          7           0       -0.550089    1.458562    0.000012
      5          7           0        0.797245   -0.427572    0.000897
      6          6           0        2.007595    0.225290    0.000194
      7          8           0        3.058018   -0.360510    0.000492
      8          1           0       -3.342812   -1.218448    0.000886
      9          1           0       -2.965810    0.273105   -0.890467
     10          1           0       -2.960768    0.268289    0.898818
     11          1           0       -1.509825    1.775237   -0.002057
     12          1           0        0.811529   -1.434776   -0.000242
     13          1           0        1.899562    1.317917   -0.000023
 ---------------------------------------------------------------------

 SCF Done:  E(RHF) =  -377.423765477     A.U. after    2 cycles

 The electronic state is 1-A.
 Alpha  occ. eigenvalues --  -21.11343 -21.04671 -15.78877 -15.73136 -11.51901
 Alpha  occ. eigenvalues --  -11.49101 -11.44241  -1.84918  -1.71768  -1.43294
 Alpha  occ. eigenvalues --   -1.29071  -1.05510  -0.89981  -0.84551  -0.70970
 Alpha  occ. eigenvalues --   -0.68732  -0.66691  -0.61441  -0.59738  -0.59598
 Alpha  occ. eigenvalues --   -0.50790  -0.49477  -0.48667  -0.39057  -0.35133
 Alpha  occ. eigenvalues --   -0.32688  -0.30243
 Alpha virt. eigenvalues --    0.02705   0.05029   0.05576   0.05734   0.06714
 Alpha virt. eigenvalues --    0.07040   0.09024   0.10648   0.12159   0.12693
 Alpha virt. eigenvalues --    0.13182   0.13762   0.14425   0.14646   0.16118

 Mulliken charges:
               1
     1  C   -3.100608
     2  O   -3.055056
     3  C    5.553818
     4  N   -2.760934
     5  N   -2.469433
     6  C    1.787850
     7  O   -2.679044
     8  H    1.413298
     9  H    1.259149
    10  H    1.260541
    11  H    0.625367
    12  H    0.613617
    13  H    1.551435
 Sum of Mulliken charges =  -0.00000

 Dipole moment (field-independent basis, Debye):
    X=             -3.8778    Y=             -1.6469    Z=             -0.0028  Tot=              4.2130

 Test job not archived.
 1\1\GINC-SE398\SP\RHF\Aug-CC-pVDZ\C3H6N2O2\OHZDE\09-Apr-2025\0\\#t hf
 aug-cc-pvdz iop(5/13=1,5/36=2,99/5=2) pseudo=read geom=check guess=(re
 ad,tcheck) scf=(maxcycle=1)\\title\\0,1\C,0,-1.8322934,0.0187471,-1.05
 658333\O,0,-1.16923517,-0.03758575,0.19332828\C,0,0.17807299,0.0031453
 7,0.17987729\N,0,0.97201426,0.08293146,-0.79651182\N,0,0.62151111,-0.0
 5594288,1.49055524\C,0,1.94358676,-0.03995551,1.86875645\O,0,2.2872940
 1,-0.09500746,3.02000988\H,0,-2.89483844,-0.02564027,-0.83321945\H,0,-
 1.55902802,-0.83193539,-1.68578653\H,0,-1.61027862,0.95335414,-1.57760

 Normal termination of Gaussian 16 at Wed Apr  9 03:46:26 2025.
