 Gaussian 16, Revision C.01,

 ----------------------------------------------------------------------
 #t hf aug-cc-pvdz symm=none int=(grid=ultrafine) guess=(read,tcheck) s
 table=(opt,rrhf)
 ----------------------------------------------------------------------
 -----
 title
 -----
 Symbolic Z-matrix:
 Charge =  0 Multiplicity = 1

 SCF Done:  E(RHF) =  -307.902388136     A.U. after   14 cycles

 1\1\GINC-SE219\Stability\RHF\Aug-CC-pVDZ\C6H10O1\OHZDE\09-Apr-2025\0\\
 #t hf aug-cc-pvdz symm=none int=(grid=ultrafine) guess=(read,tcheck) s
 table=(opt,rrhf)\\title\\0,1\C,0,-1.59448043,-1.41549818,0.54223363\C,
 0,-1.31072642,0.59567697,-0.83523285\O,0,-1.22649121,1.72830412,-0.449
 68033\C,0,2.20523976,1.57674124,-0.25485193\C,0,1.77991539,0.32471084,
 -0.20297857\C,0,0.61826767,-0.15583475,0.61481141\C,0,-0.57285366,-0.5
 8412254,-0.24293302\H,0,-1.94498708,-0.86394875,1.41722209\H,0,-1.1433
 3669,-2.3473295,0.88527379\H,0,-2.46403929,-1.66922841,-0.06823493\H,0

 Normal termination of Gaussian 16 at Wed Apr  9 18:20:30 2025.
 Gaussian 16:  ES64L-G16RevC.01  3-Jul-2019

 ----------------------------------------------------------------------
 #t hf aug-cc-pvdz iop(5/13=1,5/36=2,99/5=2) pseudo=read geom=check gue
 ss=(read,tcheck) scf=(maxcycle=1)
 ----------------------------------------------------------------------
 -----
 title
 -----
 Structure from the checkpoint file:  "Grambow2020_wb97xd3_006906_reverse_mol2.chk"
 Charge =  0 Multiplicity = 1

                         Standard orientation:
 ---------------------------------------------------------------------
 Center     Atomic      Atomic             Coordinates (Angstroms)
 Number     Number       Type             X           Y           Z
 ---------------------------------------------------------------------
      1          6           0        2.182451   -0.885223   -0.178391
      2          6           0        0.906501    1.126606    0.410891
      3          8           0        0.331920    1.862805   -0.341744
      4          6           0       -2.615652    0.110391   -0.061436
      5          6           0       -1.655289   -0.730130    0.288421
      6          6           0       -0.351825   -0.895844   -0.434525
      7          6           0        0.841948   -0.383869    0.372143
      8          1           0        2.294162   -0.604158   -1.227767
      9          1           0        2.239433   -1.972172   -0.109029
     10          1           0        3.027630   -0.469554    0.374850
     11          1           0        1.588378    1.541116    1.185106
     12          1           0       -3.533618    0.188619    0.508539
     13          1           0       -2.509346    0.759256   -0.923859
     14          1           0       -1.792594   -1.351211    1.172008
     15          1           0       -0.386020   -0.371475   -1.391945
     16          1           0       -0.191110   -1.956794   -0.650745
     17          1           0        0.758917   -0.717653    1.414171
 ---------------------------------------------------------------------

 SCF Done:  E(RHF) =  -309.369355575     A.U. after    2 cycles

 The electronic state is 1-A.
 Alpha  occ. eigenvalues --  -21.06031 -11.48133 -11.44757 -11.41641 -11.39970
 Alpha  occ. eigenvalues --  -11.38044 -11.36212  -1.71224  -1.27847  -1.14227
 Alpha  occ. eigenvalues --   -0.99596  -0.93597  -0.80362  -0.76976  -0.68443
 Alpha  occ. eigenvalues --   -0.64112  -0.58599  -0.58187  -0.56115  -0.53889
 Alpha  occ. eigenvalues --   -0.50248  -0.49647  -0.46323  -0.45115  -0.41476
 Alpha  occ. eigenvalues --   -0.34221  -0.28675
 Alpha virt. eigenvalues --    0.03767   0.04881   0.05149   0.05364   0.05412
 Alpha virt. eigenvalues --    0.06280   0.06572   0.07232   0.08012   0.09114
 Alpha virt. eigenvalues --    0.11105   0.11814   0.11959   0.13117   0.13986

 Mulliken charges:
               1
     1  C   -3.726389
     2  C    1.853709
     3  O   -2.940775
     4  C   -3.167848
     5  C   -0.404340
     6  C   -3.811475
     7  C   -1.961890
     8  H    1.325433
     9  H    1.205151
    10  H    1.228846
    11  H    1.514662
    12  H    1.373786
    13  H    1.425472
    14  H    1.367405
    15  H    1.459390
    16  H    1.450027
    17  H    1.808835
 Sum of Mulliken charges =  -0.00000

 Dipole moment (field-independent basis, Debye):
    X=              0.6437    Y=             -1.0794    Z=              0.4517  Tot=              1.3354

 Test job not archived.
 1\1\GINC-SE219\SP\RHF\Aug-CC-pVDZ\C6H10O1\OHZDE\09-Apr-2025\0\\#t hf a
 ug-cc-pvdz iop(5/13=1,5/36=2,99/5=2) pseudo=read geom=check guess=(rea
 d,tcheck) scf=(maxcycle=1)\\title\\0,1\C,0,-1.59448043,-1.41549818,0.5
 4223363\C,0,-1.31072642,0.59567697,-0.83523285\O,0,-1.22649121,1.72830
 412,-0.44968033\C,0,2.20523976,1.57674124,-0.25485193\C,0,1.77991539,0
 .32471084,-0.20297857\C,0,0.61826767,-0.15583475,0.61481141\C,0,-0.572
 85366,-0.58412254,-0.24293302\H,0,-1.94498708,-0.86394875,1.41722209\H
 ,0,-1.14333669,-2.3473295,0.88527379\H,0,-2.46403929,-1.66922841,-0.06

 Normal termination of Gaussian 16 at Wed Apr  9 18:20:36 2025.
