 Gaussian 16, Revision C.01,

 ----------------------------------------------------------------------
 #t hf aug-cc-pvdz symm=none int=(grid=ultrafine) guess=(read,tcheck) s
 table=(opt,rrhf)
 ----------------------------------------------------------------------
 -----
 title
 -----
 Symbolic Z-matrix:
 Charge =  0 Multiplicity = 1

 SCF Done:  E(RHF) =  -338.720805909     A.U. after   14 cycles
 Normal termination of Gaussian 16 at Wed Apr  9 03:28:16 2025.
 Gaussian 16:  ES64L-G16RevC.01  3-Jul-2019

 ----------------------------------------------------------------------
 #t hf aug-cc-pvdz iop(5/13=1,5/36=2,99/5=2) pseudo=read geom=check gue
 ss=(read,tcheck) scf=(maxcycle=1)
 ----------------------------------------------------------------------
 -----
 title
 -----
 Structure from the checkpoint file:  "Grambow2020_wb97xd3_006693_reverse_mol2.chk"
 Charge =  0 Multiplicity = 1

                         Standard orientation:
 ---------------------------------------------------------------------
 Center     Atomic      Atomic             Coordinates (Angstroms)
 Number     Number       Type             X           Y           Z
 ---------------------------------------------------------------------
      1          6           0       -1.176381    1.501585   -0.207198
      2          6           0       -0.560667    0.149353    0.026395
      3          6           0       -1.286387   -0.929652    0.667433
      4          7           0       -1.247233   -1.085022   -0.566391
      5          6           0        0.947556    0.123262    0.040706
      6          7           0        1.517357   -1.096258   -0.155117
      7          8           0        1.592020    1.129993    0.243123
      8          1           0       -0.832097    1.921835   -1.153254
      9          1           0       -2.263124    1.424811   -0.229992
     10          1           0       -0.883006    2.192790    0.582817
     11          1           0       -1.687336   -1.411239    1.549176
     12          1           0        2.515504   -1.115721   -0.266259
     13          1           0        0.978306   -1.850752   -0.540939
 ---------------------------------------------------------------------

 SCF Done:  E(RHF) =  -340.249964895     A.U. after    2 cycles

 The electronic state is 1-A.
 Alpha  occ. eigenvalues --  -21.02587 -15.78238 -15.77646 -11.51852 -11.49061
 Alpha  occ. eigenvalues --  -11.44700 -11.38021  -1.71206  -1.49859  -1.33855
 Alpha  occ. eigenvalues --   -1.10997  -0.94217  -0.85609  -0.77752  -0.73090
 Alpha  occ. eigenvalues --   -0.66216  -0.61349  -0.57496  -0.54305  -0.53403
 Alpha  occ. eigenvalues --   -0.52782  -0.47222  -0.42493  -0.36879  -0.32758
 Alpha  occ. eigenvalues --   -0.28195
 Alpha virt. eigenvalues --    0.03309   0.04552   0.05687   0.06527   0.06893
 Alpha virt. eigenvalues --    0.07336   0.09250   0.09340   0.10267   0.11867
 Alpha virt. eigenvalues --    0.12981   0.13397   0.13540   0.14980   0.15590

 Mulliken charges:
               1
     1  C   -4.832084
     2  C    0.969415
     3  C    0.483116
     4  N   -1.664461
     5  C    5.499064
     6  N   -3.197580
     7  O   -3.586570
     8  H    1.150967
     9  H    1.350033
    10  H    1.198339
    11  H    1.087178
    12  H    0.773433
    13  H    0.769149
 Sum of Mulliken charges =  -0.00000

 Dipole moment (field-independent basis, Debye):
    X=             -0.8889    Y=             -1.7664    Z=              0.8369  Tot=              2.1473

 Test job not archived.
 1\1\GINC-SE106\SP\RHF\Aug-CC-pVDZ\C4H6N2O1\OHZDE\09-Apr-2025\0\\#t hf
 aug-cc-pvdz iop(5/13=1,5/36=2,99/5=2) pseudo=read geom=check guess=(re
 ad,tcheck) scf=(maxcycle=1)\\title\\0,1\C,0,-1.69610301,0.39057335,-0.
 34787135\C,0,-0.31451021,-0.19782708,-0.26310093\C,0,-0.08496623,-1.62
 894448,-0.23049347\N,0,0.14391254,-1.16261604,-1.36104408\C,0,0.743894
 34,0.72329641,0.29091535\N,0,2.02955122,0.38027065,0.00866274\O,0,0.44
 882328,1.68651163,0.96542558\H,0,-1.69219782,1.29241634,-0.96173436\H,
 0,-2.38899461,-0.32923605,-0.78284369\H,0,-2.04905041,0.67260376,0.644

 Normal termination of Gaussian 16 at Wed Apr  9 03:28:20 2025.
