 Gaussian 16, Revision C.01,

 ----------------------------------------------------------------------
 #t hf aug-cc-pvdz symm=none int=(grid=ultrafine) guess=(read,tcheck) s
 table=(opt,rrhf)
 ----------------------------------------------------------------------
 -----
 title
 -----
 Symbolic Z-matrix:
 Charge =  0 Multiplicity = 1

 SCF Done:  E(RHF) =  -338.643536389     A.U. after   15 cycles
 Normal termination of Gaussian 16 at Wed Apr  9 19:22:01 2025.
 Gaussian 16:  ES64L-G16RevC.01  3-Jul-2019

 ----------------------------------------------------------------------
 #t hf aug-cc-pvdz iop(5/13=1,5/36=2,99/5=2) pseudo=read geom=check gue
 ss=(read,tcheck) scf=(maxcycle=1)
 ----------------------------------------------------------------------
 -----
 title
 -----
 Structure from the checkpoint file:  "Grambow2020_wb97xd3_008812_reverse_mol1.chk"
 Charge =  0 Multiplicity = 1

                         Standard orientation:
 ---------------------------------------------------------------------
 Center     Atomic      Atomic             Coordinates (Angstroms)
 Number     Number       Type             X           Y           Z
 ---------------------------------------------------------------------
      1          7           0        1.858301   -0.951802    0.011916
      2          6           0        0.468617   -0.625396   -0.020472
      3          6           0        0.101333    0.694191   -0.019261
      4          8           0        0.869976    1.779897    0.012778
      5          7           0       -1.247656    0.800317   -0.016341
      6          6           0       -1.745537   -0.500572   -0.017140
      7          6           0       -0.689846   -1.460489   -0.106298
      8          1           0        2.121146   -1.495811   -0.799011
      9          1           0        2.081983   -1.509836    0.825164
     10          1           0        1.778246    1.440988    0.029976
     11          1           0       -1.759330    1.660414    0.066457
     12          1           0       -2.799025   -0.669368   -0.190126
     13          1           0       -1.464745   -1.251568    0.975314
 ---------------------------------------------------------------------

 SCF Done:  E(RHF) =  -340.182487110     A.U. after    2 cycles

 The electronic state is 1-A.
 Alpha  occ. eigenvalues --  -21.12390 -15.79313 -15.73918 -11.49113 -11.44364
 Alpha  occ. eigenvalues --  -11.39484 -11.34929  -1.79576  -1.50337  -1.31935
 Alpha  occ. eigenvalues --   -1.13458  -1.03410  -0.80295  -0.79950  -0.73177
 Alpha  occ. eigenvalues --   -0.66480  -0.62886  -0.60027  -0.56311  -0.54317
 Alpha  occ. eigenvalues --   -0.47956  -0.47251  -0.37582  -0.35986  -0.31214
 Alpha  occ. eigenvalues --   -0.28491
 Alpha virt. eigenvalues --    0.03348   0.05371   0.05493   0.06218   0.06544
 Alpha virt. eigenvalues --    0.06989   0.09650   0.10847   0.11558   0.12094
 Alpha virt. eigenvalues --    0.13955   0.14322   0.14446   0.14734   0.16047

 Mulliken charges:
               1
     1  N   -3.205595
     2  C    3.190498
     3  C    4.239233
     4  O   -3.529620
     5  N   -3.162547
     6  C   -0.557958
     7  C   -2.115580
     8  H    0.458066
     9  H    0.412680
    10  H    0.658096
    11  H    0.859551
    12  H    1.477041
    13  H    1.276136
 Sum of Mulliken charges =   0.00000

 Dipole moment (field-independent basis, Debye):
    X=             -0.9249    Y=              3.7028    Z=              0.5821  Tot=              3.8607

 Test job not archived.
 1\1\GINC-SE026\SP\RHF\Aug-CC-pVDZ\C4H6N2O1\OHZDE\09-Apr-2025\0\\#t hf
 aug-cc-pvdz iop(5/13=1,5/36=2,99/5=2) pseudo=read geom=check guess=(re
 ad,tcheck) scf=(maxcycle=1)\\title\\0,1\N,0,-1.96617255,0.53226358,-0.
 02915833\C,0,-0.54646838,0.38908089,-0.08159467\C,0,-0.00938774,-0.870
 53379,-0.04805901\O,0,-0.62838172,-2.04559056,0.03369342\N,0,1.3417148
 8,-0.7995824,-0.07105356\C,0,1.66465916,0.55440372,-0.12230214\C,0,0.4
 9083951,1.36489069,-0.21787302\H,0,-2.31216513,1.01020338,-0.85043704\
 H,0,-2.24687318,1.08293222,0.77132838\H,0,-1.5728052,-1.82770782,0.060

 Normal termination of Gaussian 16 at Wed Apr  9 19:22:05 2025.
