 Gaussian 16, Revision C.01,

 ----------------------------------------------------------------------
 #t hf aug-cc-pvdz symm=none int=(grid=ultrafine) guess=(read,tcheck) s
 table=(opt,rrhf)
 ----------------------------------------------------------------------
 -----
 title
 -----
 Symbolic Z-matrix:
 Charge =  0 Multiplicity = 1

 SCF Done:  E(RHF) =  -344.803886178     A.U. after   15 cycles

 1\1\GINC-SE424\Stability\RHF\Aug-CC-pVDZ\C5H10O2\OHZDE\09-Apr-2025\0\\
 #t hf aug-cc-pvdz symm=none int=(grid=ultrafine) guess=(read,tcheck) s
 table=(opt,rrhf)\\title\\0,1\C,0,-2.10028243,-0.71843132,-0.55599046\C
 ,0,-1.09612811,0.41098611,-0.71851705\C,0,-0.07771922,0.5195568,0.3590
 2308\O,0,0.82690717,-1.24056803,0.12498466\C,0,1.13685296,1.2122953,0.
 19462714\C,0,2.02785952,-0.29164662,-0.16045957\O,0,2.9989694,-0.49949
 702,0.54900334\H,0,-2.85393346,-0.67946839,-1.34309576\H,0,-1.59659347
 ,-1.68329069,-0.60618674\H,0,-2.61795253,-0.65254567,0.40362341\H,0,-0

 Normal termination of Gaussian 16 at Wed Apr  9 03:45:43 2025.
 Gaussian 16:  ES64L-G16RevC.01  3-Jul-2019

 ----------------------------------------------------------------------
 #t hf aug-cc-pvdz iop(5/13=1,5/36=2,99/5=2) pseudo=read geom=check gue
 ss=(read,tcheck) scf=(maxcycle=1)
 ----------------------------------------------------------------------
 -----
 title
 -----
 Structure from the checkpoint file:  "Grambow2020_wb97xd3_007838_reverse_mol1.chk"
 Charge =  0 Multiplicity = 1

                         Standard orientation:
 ---------------------------------------------------------------------
 Center     Atomic      Atomic             Coordinates (Angstroms)
 Number     Number       Type             X           Y           Z
 ---------------------------------------------------------------------
      1          6           0        2.619423   -0.603233   -0.009014
      2          6           0        1.670289    0.533425    0.333736
      3          6           0        0.454010    0.627498   -0.515885
      4          8           0       -0.385525   -1.124086   -0.070583
      5          6           0       -0.701121    1.328537   -0.120519
      6          6           0       -1.502477   -0.164824    0.435827
      7          8           0       -2.597809   -0.380812   -0.057317
      8          1           0        3.517505   -0.553744    0.607461
      9          1           0        2.135686   -1.564759    0.160224
     10          1           0        2.931045   -0.556708   -1.054915
     11          1           0        1.365718    0.496032    1.383445
     12          1           0        2.175584    1.500935    0.207343
     13          1           0        0.583871    0.371083   -1.562783
     14          1           0       -0.806149   -1.538512   -0.834100
     15          1           0       -1.339095    1.718533   -0.903132
     16          1           0       -0.612024    1.970980    0.749828
     17          1           0       -1.326204   -0.133079    1.524960
 ---------------------------------------------------------------------

 SCF Done:  E(RHF) =  -346.423405812     A.U. after    2 cycles

 The electronic state is 1-A.
 Alpha  occ. eigenvalues --  -21.06285 -20.97439 -11.54013 -11.47971 -11.44762
 Alpha  occ. eigenvalues --  -11.39961 -11.38574  -1.74672  -1.59729  -1.27660
 Alpha  occ. eigenvalues --   -1.12249  -0.95841  -0.87021  -0.81671  -0.67916
 Alpha  occ. eigenvalues --   -0.65397  -0.63339  -0.60298  -0.55121  -0.54669
 Alpha  occ. eigenvalues --   -0.52634  -0.51124  -0.50354  -0.49124  -0.42885
 Alpha  occ. eigenvalues --   -0.34461  -0.24052  -0.23409
 Alpha virt. eigenvalues --    0.03258   0.04154   0.04465   0.05041   0.05204
 Alpha virt. eigenvalues --    0.05622   0.06506   0.07282   0.07705   0.08328
 Alpha virt. eigenvalues --    0.10138   0.11783   0.12692   0.13375   0.13810

 Mulliken charges:
               1
     1  C   -3.793348
     2  C   -3.466289
     3  C    0.565173
     4  O   -1.879054
     5  C   -4.188604
     6  C    3.230940
     7  O   -3.119649
     8  H    1.097590
     9  H    1.417064
    10  H    1.305926
    11  H    1.439617
    12  H    1.296550
    13  H    1.477180
    14  H    0.618301
    15  H    1.221172
    16  H    1.304300
    17  H    1.473130
 Sum of Mulliken charges =   0.00000

 Dipole moment (field-independent basis, Debye):
    X=              4.2337    Y=              0.5625    Z=             -0.3740  Tot=              4.2873

 Test job not archived.
 1\1\GINC-SE424\SP\RHF\Aug-CC-pVDZ\C5H10O2\OHZDE\09-Apr-2025\0\\#t hf a
 ug-cc-pvdz iop(5/13=1,5/36=2,99/5=2) pseudo=read geom=check guess=(rea
 d,tcheck) scf=(maxcycle=1)\\title\\0,1\C,0,-2.10028243,-0.71843132,-0.
 55599046\C,0,-1.09612811,0.41098611,-0.71851705\C,0,-0.07771922,0.5195
 568,0.35902308\O,0,0.82690717,-1.24056803,0.12498466\C,0,1.13685296,1.
 2122953,0.19462714\C,0,2.02785952,-0.29164662,-0.16045957\O,0,2.998969
 4,-0.49949702,0.54900334\H,0,-2.85393346,-0.67946839,-1.34309576\H,0,-
 1.59659347,-1.68329069,-0.60618674\H,0,-2.61795253,-0.65254567,0.40362

 Normal termination of Gaussian 16 at Wed Apr  9 03:45:49 2025.
