 Gaussian 16, Revision C.01,

 ----------------------------------------------------------------------
 #t hf aug-cc-pvdz symm=none int=(grid=ultrafine) guess=(read,tcheck) s
 table=(opt,rrhf)
 ----------------------------------------------------------------------
 -----
 title
 -----
 Symbolic Z-matrix:
 Charge =  0 Multiplicity = 1

 SCF Done:  E(RHF) =  -232.867036050     A.U. after   17 cycles
 Normal termination of Gaussian 16 at Wed Apr  9 03:15:12 2025.
 Gaussian 16:  ES64L-G16RevC.01  3-Jul-2019

 ----------------------------------------------------------------------
 #t hf aug-cc-pvdz iop(5/13=1,5/36=2,99/5=2) pseudo=read geom=check gue
 ss=(read,tcheck) scf=(maxcycle=1)
 ----------------------------------------------------------------------
 -----
 title
 -----
 Structure from the checkpoint file:  "Grambow2020_b97d3_006954_forward_mol1.chk"
 Charge =  0 Multiplicity = 1

                         Standard orientation:
 ---------------------------------------------------------------------
 Center     Atomic      Atomic             Coordinates (Angstroms)
 Number     Number       Type             X           Y           Z
 ---------------------------------------------------------------------
      1          6           0        2.093225    0.691162   -0.171943
      2          6           0        1.127655   -0.257103    0.460878
      3          6           0        0.359491   -1.287124   -0.256001
      4          6           0       -1.096060   -1.032646    0.063016
      5          6           0       -1.742808    0.208316   -0.056604
      6          6           0       -1.209350    1.475334    0.023621
      7          1           0        2.113334    1.679517    0.310362
      8          1           0        1.889626    0.833597   -1.240501
      9          1           0        3.124406    0.286073   -0.084877
     10          1           0        1.032063   -0.253763    1.546988
     11          1           0        0.550765   -1.281962   -1.340709
     12          1           0        0.613500   -2.297726    0.112211
     13          1           0       -1.681550   -1.883752    0.424501
     14          1           0       -2.817784    0.133174   -0.279144
     15          1           0       -1.712869    2.334926   -0.421520
     16          1           0       -0.304403    1.662280    0.594890
 ---------------------------------------------------------------------

 SCF Done:  E(RHF) =  -234.039268028     A.U. after    2 cycles

 The electronic state is 1-A.
 Alpha  occ. eigenvalues --  -11.47232 -11.42539 -11.41818 -11.39196 -11.38045
 Alpha  occ. eigenvalues --  -11.35176  -1.26923  -1.13544  -1.04679  -0.91420
 Alpha  occ. eigenvalues --   -0.82088  -0.73987  -0.65600  -0.61708  -0.58253
 Alpha  occ. eigenvalues --   -0.57046  -0.55928  -0.51597  -0.49981  -0.46768
 Alpha  occ. eigenvalues --   -0.45687  -0.35041  -0.20355
 Alpha virt. eigenvalues --    0.03691   0.04354   0.05135   0.05493   0.05721
 Alpha virt. eigenvalues --    0.06126   0.06252   0.06508   0.06811   0.08264
 Alpha virt. eigenvalues --    0.08636   0.12695   0.12814   0.13487   0.13891

 Mulliken charges:
               1
     1  C   -4.160606
     2  C   -0.418979
     3  C   -4.005610
     4  C   -1.248406
     5  C    0.043340
     6  C   -3.510640
     7  H    1.278014
     8  H    1.317466
     9  H    1.206102
    10  H    1.559051
    11  H    1.196572
    12  H    1.278508
    13  H    1.228990
    14  H    1.263658
    15  H    1.305508
    16  H    1.667032
 Sum of Mulliken charges =  -0.00000

 Dipole moment (field-independent basis, Debye):
    X=              1.9981    Y=             -0.7764    Z=              0.0414  Tot=              2.1441

 Test job not archived.
 1\1\GINC-SE458\SP\RHF\Aug-CC-pVDZ\C6H10\OHZDE\09-Apr-2025\0\\#t hf aug
 -cc-pvdz iop(5/13=1,5/36=2,99/5=2) pseudo=read geom=check guess=(read,
 tcheck) scf=(maxcycle=1)\\title\\0,1\C,0,2.02046557,-0.33962754,-0.083
 65877\C,0,0.6733537,-0.87659931,0.27542845\C,0,-0.41587193,-1.13753181
 ,-0.67874013\C,0,-1.6110005,-0.35380965,-0.18618669\C,0,-1.5971286,1.0
 0866908,0.15445743\C,0,-0.54807194,1.77943865,0.60361608\H,0,2.4516463
 1,0.31040821,0.69184392\H,0,2.00291755,0.21705423,-1.02883329\H,0,2.73
 504345,-1.18116428,-0.21096439\H,0,0.49277078,-1.17963549,1.30709866\H

 Normal termination of Gaussian 16 at Wed Apr  9 03:15:17 2025.
