 Gaussian 16, Revision C.01,

 ----------------------------------------------------------------------
 #t hf aug-cc-pvdz symm=none int=(grid=ultrafine) guess=(read,tcheck) s
 table=(opt,rrhf)
 ----------------------------------------------------------------------
 -----
 title
 -----
 Symbolic Z-matrix:
 Charge =  0 Multiplicity = 1

 SCF Done:  E(RHF) =  -323.912914964     A.U. after   13 cycles
 Normal termination of Gaussian 16 at Wed Apr  9 03:52:42 2025.
 Gaussian 16:  ES64L-G16RevC.01  3-Jul-2019

 ----------------------------------------------------------------------
 #t hf aug-cc-pvdz iop(5/13=1,5/36=2,99/5=2) pseudo=read geom=check gue
 ss=(read,tcheck) scf=(maxcycle=1)
 ----------------------------------------------------------------------
 -----
 title
 -----
 Structure from the checkpoint file:  "Grambow2020_wb97xd3_008322_reverse_mol2.chk"
 Charge =  0 Multiplicity = 1

                         Standard orientation:
 ---------------------------------------------------------------------
 Center     Atomic      Atomic             Coordinates (Angstroms)
 Number     Number       Type             X           Y           Z
 ---------------------------------------------------------------------
      1          7           0       -2.570888   -0.028292    0.326228
      2          6           0       -1.375489   -0.131408   -0.057856
      3          6           0       -0.541364    1.093406   -0.332541
      4          6           0        0.827157    1.109665    0.367588
      5          6           0        1.852697    0.233745   -0.289833
      6          6           0        2.447463   -0.807462    0.277783
      7          8           0       -0.790513   -1.336634   -0.268038
      8          1           0       -2.984542   -0.951225    0.444180
      9          1           0       -0.399357    1.178903   -1.415729
     10          1           0       -1.138373    1.946246   -0.017066
     11          1           0        0.711674    0.830690    1.418166
     12          1           0        1.195861    2.139072    0.353237
     13          1           0        0.153595   -1.237438   -0.444918
     14          1           0        2.108639    0.490827   -1.316451
     15          1           0        2.223985   -1.096461    1.299817
     16          1           0        3.186045   -1.397175   -0.251372
 ---------------------------------------------------------------------

 SCF Done:  E(RHF) =  -325.432259064     A.U. after    2 cycles

 The electronic state is 1-A.
 Alpha  occ. eigenvalues --  -21.09971 -15.71069 -11.48686 -11.45854 -11.42456
 Alpha  occ. eigenvalues --  -11.40067 -11.38225  -1.76910  -1.31255  -1.24873
 Alpha  occ. eigenvalues --   -1.10608  -0.95616  -0.81375  -0.78036  -0.69113
 Alpha  occ. eigenvalues --   -0.66215  -0.62997  -0.61766  -0.56528  -0.53384
 Alpha  occ. eigenvalues --   -0.51857  -0.47309  -0.47213  -0.43671  -0.37957
 Alpha  occ. eigenvalues --   -0.35896  -0.31880
 Alpha virt. eigenvalues --    0.03501   0.04740   0.05051   0.05271   0.06360
 Alpha virt. eigenvalues --    0.06472   0.06650   0.07586   0.08135   0.10137
 Alpha virt. eigenvalues --    0.11566   0.12359   0.12559   0.13618   0.14556

 Mulliken charges:
               1
     1  N   -3.666243
     2  C    6.034622
     3  C   -3.186501
     4  C   -3.844736
     5  C   -0.499074
     6  C   -3.142443
     7  O   -3.715943
     8  H    0.712244
     9  H    1.482093
    10  H    1.287253
    11  H    1.498598
    12  H    1.277610
    13  H    1.579508
    14  H    1.372051
    15  H    1.424918
    16  H    1.386044
 Sum of Mulliken charges =   0.00000

 Dipole moment (field-independent basis, Debye):
    X=              2.9523    Y=             -0.3308    Z=             -0.5615  Tot=              3.0233

 Test job not archived.
 1\1\GINC-SE424\SP\RHF\Aug-CC-pVDZ\C5H9N1O1\OHZDE\09-Apr-2025\0\\#t hf
 aug-cc-pvdz iop(5/13=1,5/36=2,99/5=2) pseudo=read geom=check guess=(re
 ad,tcheck) scf=(maxcycle=1)\\title\\0,1\N,0,2.88404078,0.06398205,-0.1
 2909708\C,0,1.6460883,0.14902996,-0.34674781\C,0,0.74935688,-1.0535902
 7,-0.20195873\C,0,-0.49236472,-0.8278628,0.67580522\C,0,-1.58650422,-0
 .06398219,-0.01013533\C,0,-2.05909176,1.11285099,0.37944561\O,0,1.0651
 7674,1.30802366,-0.74451513\H,0,3.33362908,0.96292269,-0.29220502\H,0,
 0.43712188,-1.37417362,-1.20221206\H,0,1.36732592,-1.8468758,0.2128815

 Normal termination of Gaussian 16 at Wed Apr  9 03:52:47 2025.
