 Gaussian 16, Revision C.01,

 ----------------------------------------------------------------------
 #t hf aug-cc-pvdz symm=none int=(grid=ultrafine) guess=(read,tcheck) s
 table=(opt,rrhf)
 ----------------------------------------------------------------------
 -----
 title
 -----
 Symbolic Z-matrix:
 Charge =  0 Multiplicity = 1

 SCF Done:  E(RHF) =  -325.084331334     A.U. after   13 cycles
 Normal termination of Gaussian 16 at Wed Apr  9 19:07:14 2025.
 Gaussian 16:  ES64L-G16RevC.01  3-Jul-2019

 ----------------------------------------------------------------------
 #t hf aug-cc-pvdz iop(5/13=1,5/36=2,99/5=2) pseudo=read geom=check gue
 ss=(read,tcheck) scf=(maxcycle=1)
 ----------------------------------------------------------------------
 -----
 title
 -----
 Structure from the checkpoint file:  "Grambow2020_wb97xd3_008102_reverse_mol2.chk"
 Charge =  0 Multiplicity = 1

                         Standard orientation:
 ---------------------------------------------------------------------
 Center     Atomic      Atomic             Coordinates (Angstroms)
 Number     Number       Type             X           Y           Z
 ---------------------------------------------------------------------
      1          6           0        2.851387    0.018954    0.692879
      2          6           0        2.905850    0.014489   -0.629893
      3          7           0       -0.530036    0.685477   -0.081125
      4          6           0       -1.366701    1.858743    0.006767
      5          6           0       -0.943588   -0.606535   -0.024975
      6          8           0       -0.148865   -1.528913   -0.046229
      7          6           0       -2.435209   -0.833534    0.056651
      8          1           0        3.495024    0.656600    1.289027
      9          1           0        2.161809   -0.631731    1.219664
     10          1           0        0.471711    0.802533   -0.094384
     11          1           0        2.260378   -0.638804   -1.207062
     12          1           0        3.595264    0.649450   -1.175488
     13          1           0       -0.752298    2.736554   -0.185689
     14          1           0       -2.163490    1.843631   -0.739567
     15          1           0       -1.820679    1.977281    0.995314
     16          1           0       -2.617067   -1.902662    0.117684
     17          1           0       -2.939572   -0.431151   -0.824202
     18          1           0       -2.860337   -0.341439    0.933841
 ---------------------------------------------------------------------

 SCF Done:  E(RHF) =  -326.629975773     A.U. after    2 cycles

 The electronic state is 1-A.
 Alpha  occ. eigenvalues --  -21.01026 -15.75001 -11.49359 -11.40940 -11.39843
 Alpha  occ. eigenvalues --  -11.38537 -11.36382  -1.69639  -1.38978  -1.13067
 Alpha  occ. eigenvalues --   -1.09521  -1.01088  -0.81415  -0.79192  -0.64534
 Alpha  occ. eigenvalues --   -0.64265  -0.63828  -0.62949  -0.57718  -0.56048
 Alpha  occ. eigenvalues --   -0.54979  -0.52725  -0.48762  -0.46888  -0.46462
 Alpha  occ. eigenvalues --   -0.35902  -0.29901  -0.27746
 Alpha virt. eigenvalues --    0.03174   0.04868   0.04966   0.05419   0.05555
 Alpha virt. eigenvalues --    0.06425   0.07310   0.07731   0.07895   0.08020
 Alpha virt. eigenvalues --    0.09375   0.10483   0.11065   0.12742   0.13262

 Mulliken charges:
               1
     1  C   -2.874211
     2  C   -2.881578
     3  N   -2.888687
     4  C   -3.270788
     5  C    5.113286
     6  O   -3.275067
     7  C   -4.388327
     8  H    1.301617
     9  H    1.491375
    10  H    0.893104
    11  H    1.447590
    12  H    1.307558
    13  H    1.420486
    14  H    1.461501
    15  H    1.418924
    16  H    1.133061
    17  H    1.305130
    18  H    1.285027
 Sum of Mulliken charges =   0.00000

 Dipole moment (field-independent basis, Debye):
    X=             -1.0243    Y=              2.3882    Z=              0.0860  Tot=              2.6000

 Test job not archived.
 1\1\GINC-SE159\SP\RHF\Aug-CC-pVDZ\C5H11N1O1\OHZDE\09-Apr-2025\0\\#t hf
  aug-cc-pvdz iop(5/13=1,5/36=2,99/5=2) pseudo=read geom=check guess=(r
 ead,tcheck) scf=(maxcycle=1)\\title\\0,1\C,0,-2.82286843,0.27311116,-0
 .90127123\C,0,-2.86601103,-0.92220054,-0.33375087\N,0,0.4115435,0.1269
 3368,0.5110219\C,0,1.04635202,0.77658257,1.63319023\C,0,1.02855992,-0.
 34740802,-0.60152654\O,0,0.3939859,-0.82575359,-1.5241957\C,0,2.536598
 98,-0.256144,-0.62627779\H,0,-3.56575694,1.03395665,-0.68800024\H,0,-2
 .04091742,0.51971876,-1.61130628\H,0,-0.5958053,0.08774817,0.47802865\

 Normal termination of Gaussian 16 at Wed Apr  9 19:07:20 2025.
