 Gaussian 16, Revision C.01,

 ----------------------------------------------------------------------
 #t hf aug-cc-pvdz symm=none int=(grid=ultrafine) guess=(read,tcheck) s
 table=(opt,rrhf)
 ----------------------------------------------------------------------
 -----
 title
 -----
 Symbolic Z-matrix:
 Charge =  0 Multiplicity = 1

 SCF Done:  E(RHF) =  -288.041867791     A.U. after   14 cycles

 1\1\GINC-SE362\Stability\RHF\Aug-CC-pVDZ\C6H11N1\OHZDE\09-Apr-2025\0\\
 #t hf aug-cc-pvdz symm=none int=(grid=ultrafine) guess=(read,tcheck) s
 table=(opt,rrhf)\\title\\0,1\C,0,2.22060685,-0.33493601,0.08074718\C,0
 ,1.42771937,0.9546661,0.25620224\C,0,0.6994539,1.40064736,-1.00441028\
 C,0,-1.58931833,-1.19975465,-0.06742947\C,0,-2.75895151,-0.92439595,0.
 8367913\C,0,-0.95913599,-0.26982621,-0.73913859\N,0,-0.43424782,0.5821
 6365,-1.42696343\H,0,2.73029021,-0.61105017,1.00518828\H,0,2.97867215,
 -0.223064,-0.6982342\H,0,1.5746467,-1.16839221,-0.19922159\H,0,0.70347

 Normal termination of Gaussian 16 at Wed Apr  9 03:46:11 2025.
 Gaussian 16:  ES64L-G16RevC.01  3-Jul-2019

 ----------------------------------------------------------------------
 #t hf aug-cc-pvdz iop(5/13=1,5/36=2,99/5=2) pseudo=read geom=check gue
 ss=(read,tcheck) scf=(maxcycle=1)
 ----------------------------------------------------------------------
 -----
 title
 -----
 Structure from the checkpoint file:  "Grambow2020_wb97xd3_007882_reverse_mol2.chk"
 Charge =  0 Multiplicity = 1

                         Standard orientation:
 ---------------------------------------------------------------------
 Center     Atomic      Atomic             Coordinates (Angstroms)
 Number     Number       Type             X           Y           Z
 ---------------------------------------------------------------------
      1          6           0       -1.985908    1.311706   -0.344859
      2          6           0       -1.705509    0.279217    0.740439
      3          6           0       -1.391509   -1.108255    0.197541
      4          6           0        1.805838    0.369719   -0.488803
      5          6           0        2.914714    0.342453    0.526643
      6          6           0        0.784375   -0.448348   -0.467158
      7          7           0       -0.114261   -1.264584   -0.493796
      8          1           0       -2.212518    2.286460    0.090011
      9          1           0       -2.840413    1.011743   -0.956279
     10          1           0       -1.129222    1.439615   -1.008202
     11          1           0       -0.876397    0.614747    1.371276
     12          1           0       -2.577082    0.190389    1.395311
     13          1           0       -1.388948   -1.843589    1.006238
     14          1           0       -2.166267   -1.428698   -0.504044
     15          1           0        1.839985    1.095172   -1.293700
     16          1           0        3.879520    0.154834    0.049387
     17          1           0        2.989253    1.294231    1.058062
     18          1           0        2.749913   -0.441764    1.265698
 ---------------------------------------------------------------------

 SCF Done:  E(RHF) =  -289.478030418     A.U. after    2 cycles

 The electronic state is 1-A.
 Alpha  occ. eigenvalues --  -15.74436 -11.46217 -11.43685 -11.40446 -11.39430
 Alpha  occ. eigenvalues --  -11.36997 -11.35432  -1.40798  -1.19526  -1.15076
 Alpha  occ. eigenvalues --   -1.00928  -0.93447  -0.85612  -0.68789  -0.65125
 Alpha  occ. eigenvalues --   -0.63848  -0.60724  -0.57466  -0.56804  -0.53955
 Alpha  occ. eigenvalues --   -0.52186  -0.51226  -0.47646  -0.47327  -0.43815
 Alpha  occ. eigenvalues --   -0.39373  -0.28462
 Alpha virt. eigenvalues --    0.03516   0.05085   0.05345   0.05658   0.05957
 Alpha virt. eigenvalues --    0.06193   0.06429   0.06760   0.07559   0.08390
 Alpha virt. eigenvalues --    0.09037   0.10675   0.11169   0.12369   0.12793

 Mulliken charges:
               1
     1  C   -3.725020
     2  C   -3.192898
     3  C   -2.209687
     4  C   -1.124895
     5  C   -4.210693
     6  C    2.464838
     7  N   -3.081801
     8  H    1.204874
     9  H    1.259268
    10  H    1.479919
    11  H    1.615421
    12  H    1.262971
    13  H    1.450879
    14  H    1.527141
    15  H    1.450458
    16  H    1.267611
    17  H    1.248427
    18  H    1.313185
 Sum of Mulliken charges =   0.00000

 Dipole moment (field-independent basis, Debye):
    X=             -0.6586    Y=              0.8363    Z=              0.9144  Tot=              1.4033

 Test job not archived.
 1\1\GINC-SE362\SP\RHF\Aug-CC-pVDZ\C6H11N1\OHZDE\09-Apr-2025\0\\#t hf a
 ug-cc-pvdz iop(5/13=1,5/36=2,99/5=2) pseudo=read geom=check guess=(rea
 d,tcheck) scf=(maxcycle=1)\\title\\0,1\C,0,2.22060685,-0.33493601,0.08
 074718\C,0,1.42771937,0.9546661,0.25620224\C,0,0.6994539,1.40064736,-1
 .00441028\C,0,-1.58931833,-1.19975465,-0.06742947\C,0,-2.75895151,-0.9
 2439595,0.8367913\C,0,-0.95913599,-0.26982621,-0.73913859\N,0,-0.43424
 782,0.58216365,-1.42696343\H,0,2.73029021,-0.61105017,1.00518828\H,0,2
 .97867215,-0.223064,-0.6982342\H,0,1.5746467,-1.16839221,-0.19922159\H

 Normal termination of Gaussian 16 at Wed Apr  9 03:46:16 2025.
