 Gaussian 16, Revision C.01,

 ----------------------------------------------------------------------
 #t hf aug-cc-pvdz symm=none int=(grid=ultrafine) guess=(read,tcheck) s
 table=(opt,rrhf)
 ----------------------------------------------------------------------
 -----
 title
 -----
 Symbolic Z-matrix:
 Charge =  0 Multiplicity = 1

 SCF Done:  E(RHF) =  -338.505468745     A.U. after   17 cycles
 Normal termination of Gaussian 16 at Wed Apr  9 19:14:58 2025.
 Gaussian 16:  ES64L-G16RevC.01  3-Jul-2019

 ----------------------------------------------------------------------
 #t hf aug-cc-pvdz iop(5/13=1,5/36=2,99/5=2) pseudo=read geom=check gue
 ss=(read,tcheck) scf=(maxcycle=1)
 ----------------------------------------------------------------------
 -----
 title
 -----
 Structure from the checkpoint file:  "Grambow2020_wb97xd3_008476_forward_mol1.chk"
 Charge =  0 Multiplicity = 1

                         Standard orientation:
 ---------------------------------------------------------------------
 Center     Atomic      Atomic             Coordinates (Angstroms)
 Number     Number       Type             X           Y           Z
 ---------------------------------------------------------------------
      1          7           0       -0.624025    1.647736    0.415903
      2          6           0       -0.292533    0.657638   -0.391676
      3          6           0        0.856533   -0.210375   -0.164167
      4          8           0        2.106451    0.276020   -0.187199
      5          6           0        0.291563   -1.338684    0.303156
      6          6           0       -1.198006   -1.271412    0.195915
      7          7           0       -1.342749   -0.143252   -0.687448
      8          1           0        0.186718    2.094776    0.833856
      9          1           0       -1.124455    0.730526    1.271098
     10          1           0        2.712401   -0.376319    0.174493
     11          1           0        0.798502   -2.152376    0.804922
     12          1           0       -1.355901   -0.364914    1.316019
     13          1           0       -2.246805    0.305754   -0.661354
 ---------------------------------------------------------------------

 SCF Done:  E(RHF) =  -340.079793459     A.U. after    2 cycles

 The electronic state is 1-A.
 Alpha  occ. eigenvalues --  -21.14364 -15.78943 -15.76804 -11.51858 -11.47761
 Alpha  occ. eigenvalues --  -11.42482 -11.38563  -1.80038  -1.55973  -1.31037
 Alpha  occ. eigenvalues --   -1.15432  -0.98647  -0.83690  -0.80264  -0.73789
 Alpha  occ. eigenvalues --   -0.69947  -0.62384  -0.59786  -0.54795  -0.51887
 Alpha  occ. eigenvalues --   -0.50073  -0.46003  -0.42943  -0.38662  -0.32367
 Alpha  occ. eigenvalues --   -0.28343
 Alpha virt. eigenvalues --    0.03199   0.05018   0.05550   0.06494   0.07237
 Alpha virt. eigenvalues --    0.07311   0.08384   0.09530   0.10412   0.11292
 Alpha virt. eigenvalues --    0.11911   0.12535   0.13489   0.14191   0.15027

 Mulliken charges:
               1
     1  N   -2.665049
     2  C    1.609784
     3  C    5.255112
     4  O   -3.785280
     5  C   -0.482548
     6  C   -2.198425
     7  N   -2.190427
     8  H    0.607810
     9  H    0.552394
    10  H    0.937110
    11  H    1.495776
    12  H    0.211088
    13  H    0.652653
 Sum of Mulliken charges =  -0.00000

 Dipole moment (field-independent basis, Debye):
    X=              3.7099    Y=              2.8495    Z=              0.0270  Tot=              4.6780

 Test job not archived.
 1\1\GINC-SE212\SP\RHF\Aug-CC-pVDZ\C4H6N2O1\OHZDE\09-Apr-2025\0\\#t hf
 aug-cc-pvdz iop(5/13=1,5/36=2,99/5=2) pseudo=read geom=check guess=(re
 ad,tcheck) scf=(maxcycle=1)\\title\\0,1\N,0,1.47632327,0.94348155,0.11
 545801\C,0,0.58748687,0.32179956,-0.63677004\C,0,0.03518332,-0.9866503
 1,-0.30740683\O,0,0.81606984,-2.07651233,-0.2647211\C,0,-1.19091499,-0
 .68554817,0.15808624\C,0,-1.4969084,0.76317921,-0.04782313\N,0,-0.4532
 3633,1.11852599,-0.9743786\H,0,2.11671172,0.29966529,0.5706896\H,0,0.4
 7649824,1.2617267,0.96524154\H,0,0.3399291,-2.79734138,0.15627605\H,0,

 Normal termination of Gaussian 16 at Wed Apr  9 19:15:02 2025.
