 Gaussian 16, Revision C.01,

 ----------------------------------------------------------------------
 #t hf aug-cc-pvdz symm=none int=(grid=ultrafine) guess=(read,tcheck) s
 table=(opt,rrhf)
 ----------------------------------------------------------------------
 -----
 title
 -----
 Symbolic Z-matrix:
 Charge =  0 Multiplicity = 1

 SCF Done:  E(RHF) =  -283.606576545     A.U. after   15 cycles
 Normal termination of Gaussian 16 at Wed Apr  9 16:06:41 2025.
 Gaussian 16:  ES64L-G16RevC.01  3-Jul-2019

 ----------------------------------------------------------------------
 #t hf aug-cc-pvdz iop(5/13=1,5/36=2,99/5=2) pseudo=read geom=check gue
 ss=(read,tcheck) scf=(maxcycle=1)
 ----------------------------------------------------------------------
 -----
 title
 -----
 Structure from the checkpoint file:  "Grambow2020_b97d3_006723_reverse_mol2.chk"
 Charge =  0 Multiplicity = 1

                         Standard orientation:
 ---------------------------------------------------------------------
 Center     Atomic      Atomic             Coordinates (Angstroms)
 Number     Number       Type             X           Y           Z
 ---------------------------------------------------------------------
      1          6           0        2.475635    0.238909    0.209700
      2          6           0        1.197816    0.293874   -0.188126
      3          8           0        0.370410   -0.799064   -0.138689
      4          6           0       -1.011022   -0.598723   -0.272439
      5          7           0       -1.771163    0.127391    0.829038
      6          6           0       -1.653611    0.687459   -0.311073
      7          1           0        2.902863   -0.670406    0.628287
      8          1           0        3.110207    1.115725    0.107804
      9          1           0        0.754711    1.202064   -0.605363
     10          1           0       -1.455660   -1.509043   -0.671872
     11          1           0       -1.930162    1.633329   -0.780982
 ---------------------------------------------------------------------

 SCF Done:  E(RHF) =  -284.874784458     A.U. after    2 cycles

 The electronic state is 1-A.
 Alpha  occ. eigenvalues --  -21.08620 -15.78347 -11.52341 -11.45612 -11.45297
 Alpha  occ. eigenvalues --  -11.37646  -1.80313  -1.45045  -1.11150  -0.90951
 Alpha  occ. eigenvalues --   -0.85602  -0.80597  -0.69722  -0.67557  -0.57867
 Alpha  occ. eigenvalues --   -0.56727  -0.52827  -0.47678  -0.44701  -0.41155
 Alpha  occ. eigenvalues --   -0.37502  -0.27032
 Alpha virt. eigenvalues --    0.03372   0.04748   0.05500   0.06139   0.07020
 Alpha virt. eigenvalues --    0.09175   0.10183   0.11012   0.11282   0.11915
 Alpha virt. eigenvalues --    0.12975   0.13666   0.14854   0.15198   0.15595

 Mulliken charges:
               1
     1  C   -3.467180
     2  C    1.201222
     3  O   -3.905510
     4  C    1.264275
     5  N   -1.677331
     6  C   -0.358334
     7  H    1.459278
     8  H    1.298108
     9  H    1.680001
    10  H    1.537127
    11  H    0.968344
 Sum of Mulliken charges =  -0.00000

 Dipole moment (field-independent basis, Debye):
    X=             -0.7764    Y=              0.7776    Z=             -1.6818  Tot=              2.0089

 Test job not archived.
 1\1\GINC-SE113\SP\RHF\Aug-CC-pVDZ\C4H5N1O1\OHZDE\09-Apr-2025\0\\#t hf
 aug-cc-pvdz iop(5/13=1,5/36=2,99/5=2) pseudo=read geom=check guess=(re
 ad,tcheck) scf=(maxcycle=1)\\title\\0,1\C,0,-1.83182214,0.7911188,-1.0
 0221468\C,0,-0.77897835,0.11710265,-0.52124524\O,0,0.48792197,0.642941
 56,-0.5251729\C,0,1.4708109,0.02545145,0.2616018\N,0,1.36231948,0.0886
 0538,1.77901672\C,0,1.22385064,-1.03836465,1.1975424\H,0,-1.73247205,1
 .80600493,-1.38264517\H,0,-2.81032889,0.31795328,-1.02475965\H,0,-0.86
 573575,-0.90060762,-0.13140215\H,0,2.44540269,0.22822848,-0.17996845\H

 Normal termination of Gaussian 16 at Wed Apr  9 16:06:44 2025.
