 Gaussian 16, Revision C.01,

 ----------------------------------------------------------------------
 #t hf aug-cc-pvdz symm=none int=(grid=ultrafine) guess=(read,tcheck) s
 table=(opt,rrhf)
 ----------------------------------------------------------------------
 -----
 title
 -----
 Symbolic Z-matrix:
 Charge =  0 Multiplicity = 1

 SCF Done:  E(RHF) =  -323.739740303     A.U. after   15 cycles
 Normal termination of Gaussian 16 at Wed Apr  9 18:24:50 2025.
 Gaussian 16:  ES64L-G16RevC.01  3-Jul-2019

 ----------------------------------------------------------------------
 #t hf aug-cc-pvdz iop(5/13=1,5/36=2,99/5=2) pseudo=read geom=check gue
 ss=(read,tcheck) scf=(maxcycle=1)
 ----------------------------------------------------------------------
 -----
 title
 -----
 Structure from the checkpoint file:  "Grambow2020_wb97xd3_006973_forward_mol1.chk"
 Charge =  0 Multiplicity = 1

                         Standard orientation:
 ---------------------------------------------------------------------
 Center     Atomic      Atomic             Coordinates (Angstroms)
 Number     Number       Type             X           Y           Z
 ---------------------------------------------------------------------
      1          6           0       -2.746351   -0.894799   -0.100674
      2          6           0       -0.564248   -0.716510    0.385533
      3          6           0       -0.313895    0.538734   -0.345534
      4          8           0       -1.150625    1.491124   -0.071253
      5          6           0        1.152949    0.826568    0.294557
      6          6           0        2.182104   -0.160061    0.003191
      7          7           0        2.956031   -0.971244   -0.243732
      8          1           0       -3.121055   -0.943941   -1.122384
      9          1           0       -2.227792   -1.845875    0.075632
     10          1           0       -3.550255   -0.862612    0.634716
     11          1           0       -0.128128   -1.664629    0.076254
     12          1           0       -0.826113   -0.614202    1.434224
     13          1           0       -0.100195    0.318667   -1.413421
     14          1           0       -2.269746    0.145037   -0.027765
     15          1           0        1.062927    0.996633    1.367518
     16          1           0        1.409780    1.777049   -0.171068
 ---------------------------------------------------------------------

 SCF Done:  E(RHF) =  -325.268537376     A.U. after    2 cycles

 The electronic state is 1-A.
 Alpha  occ. eigenvalues --  -20.95041 -15.76900 -11.55054 -11.48450 -11.45368
 Alpha  occ. eigenvalues --  -11.42911 -11.39464  -1.64088  -1.33274  -1.21026
 Alpha  occ. eigenvalues --   -1.10834  -1.02867  -0.86051  -0.73570  -0.71191
 Alpha  occ. eigenvalues --   -0.65362  -0.63503  -0.59503  -0.58095  -0.56706
 Alpha  occ. eigenvalues --   -0.53618  -0.51684  -0.44996  -0.43504  -0.42583
 Alpha  occ. eigenvalues --   -0.25358  -0.24866
 Alpha virt. eigenvalues --    0.02067   0.02687   0.04396   0.04818   0.05566
 Alpha virt. eigenvalues --    0.06521   0.06767   0.07282   0.07661   0.09254
 Alpha virt. eigenvalues --    0.10320   0.10959   0.12056   0.13213   0.13403

 Mulliken charges:
               1
     1  C   -5.369620
     2  C   -2.555743
     3  C    2.094764
     4  O   -3.177770
     5  C   -3.489408
     6  C    2.430095
     7  N   -2.492557
     8  H    0.944316
     9  H    1.320434
    10  H    0.952344
    11  H    1.605186
    12  H    1.226747
    13  H    1.542221
    14  H    2.178892
    15  H    1.439232
    16  H    1.350867
 Sum of Mulliken charges =  -0.00000

 Dipole moment (field-independent basis, Debye):
    X=             -2.3891    Y=             -1.9863    Z=              1.3550  Tot=              3.3896

 Test job not archived.
 1\1\GINC-SE131\SP\RHF\Aug-CC-pVDZ\C5H9N1O1\OHZDE\09-Apr-2025\0\\#t hf
 aug-cc-pvdz iop(5/13=1,5/36=2,99/5=2) pseudo=read geom=check guess=(re
 ad,tcheck) scf=(maxcycle=1)\\title\\0,1\C,0,2.22589896,-0.74816071,0.1
 8004299\C,0,0.14278378,-0.05674198,0.64083113\C,0,-0.31164648,0.102316
 57,-0.75235483\O,0,-0.08996527,-0.92959799,-1.50628107\C,0,-1.89217866
 ,0.26297927,-0.40551406\C,0,-2.25587727,1.42143095,0.39648683\N,0,-2.4
 9146966,2.34202447,1.04065651\H,0,2.92797233,-0.15615097,-0.40589733\H
 ,0,2.10968942,-0.21912995,1.13458702\H,0,2.62548283,-1.7286239,0.43912

 Normal termination of Gaussian 16 at Wed Apr  9 18:24:55 2025.
