 Gaussian 16, Revision C.01,

 ----------------------------------------------------------------------
 #t hf aug-cc-pvdz symm=none int=(grid=ultrafine) guess=(read,tcheck) s
 table=(opt,rrhf)
 ----------------------------------------------------------------------
 -----
 title
 -----
 Symbolic Z-matrix:
 Charge =  0 Multiplicity = 1

 SCF Done:  E(RHF) =  -344.738212727     A.U. after   15 cycles

 1\1\GINC-SE184\Stability\RHF\Aug-CC-pVDZ\C5H10O2\OHZDE\09-Apr-2025\0\\
 #t hf aug-cc-pvdz symm=none int=(grid=ultrafine) guess=(read,tcheck) s
 table=(opt,rrhf)\\title\\0,1\C,0,1.95481295,-0.03864582,-0.62510659\C,
 0,1.02545142,-0.20221013,0.53422859\O,0,-0.07287372,1.83007168,-0.1171
 8153\C,0,-1.16014693,1.20606649,-0.33762584\C,0,-1.62396186,0.26765169
 ,0.66133294\C,0,0.01907103,-1.11959322,0.57190381\O,0,-0.2914113,-1.94
 661321,-0.47877436\H,0,2.48185305,0.90956741,-0.56496267\H,0,1.4234116
 5,-0.03505844,-1.58079974\H,0,2.68903568,-0.85196151,-0.64926737\H,0,1

 Normal termination of Gaussian 16 at Wed Apr  9 03:39:41 2025.
 Gaussian 16:  ES64L-G16RevC.01  3-Jul-2019

 ----------------------------------------------------------------------
 #t hf aug-cc-pvdz iop(5/13=1,5/36=2,99/5=2) pseudo=read geom=check gue
 ss=(read,tcheck) scf=(maxcycle=1)
 ----------------------------------------------------------------------
 -----
 title
 -----
 Structure from the checkpoint file:  "Grambow2020_wb97xd3_007407_reverse_mol1.chk"
 Charge =  0 Multiplicity = 1

                         Standard orientation:
 ---------------------------------------------------------------------
 Center     Atomic      Atomic             Coordinates (Angstroms)
 Number     Number       Type             X           Y           Z
 ---------------------------------------------------------------------
      1          6           0        1.575163    1.340688   -0.190973
      2          6           0        0.841255    0.427057    0.737025
      3          8           0       -1.224334    1.372352   -0.037944
      4          6           0       -1.593901    0.250186   -0.511552
      5          6           0       -1.452350   -0.923520    0.322739
      6          6           0        0.690837   -0.909239    0.519079
      7          8           0        1.139681   -1.547535   -0.610259
      8          1           0        1.336455    2.378911    0.022589
      9          1           0        1.302215    1.171088   -1.236193
     10          1           0        2.657800    1.198724   -0.096670
     11          1           0        0.567223    0.801368    1.712660
     12          1           0       -1.512202    0.042602   -1.595469
     13          1           0       -2.724407   -0.109585   -0.247349
     14          1           0       -1.655522   -0.780896    1.378372
     15          1           0       -1.632883   -1.912313   -0.092811
     16          1           0        0.551483   -1.605667    1.337218
     17          1           0        1.421036   -0.893799   -1.254629
 ---------------------------------------------------------------------

 SCF Done:  E(RHF) =  -346.354964423     A.U. after    2 cycles

 The electronic state is 1-A.
 Alpha  occ. eigenvalues --  -21.09639 -20.96339 -11.49280 -11.46711 -11.42125
 Alpha  occ. eigenvalues --  -11.41672 -11.38117  -1.74960  -1.63026  -1.19122
 Alpha  occ. eigenvalues --   -1.13646  -0.99670  -0.83451  -0.80026  -0.68555
 Alpha  occ. eigenvalues --   -0.67009  -0.62371  -0.61117  -0.56907  -0.56551
 Alpha  occ. eigenvalues --   -0.52600  -0.49820  -0.46201  -0.44360  -0.43399
 Alpha  occ. eigenvalues --   -0.28122  -0.25696  -0.24492
 Alpha virt. eigenvalues --    0.03688   0.04627   0.04744   0.05123   0.05697
 Alpha virt. eigenvalues --    0.06108   0.06330   0.06853   0.07518   0.08935
 Alpha virt. eigenvalues --    0.10487   0.11771   0.12354   0.13265   0.13805

 Mulliken charges:
               1
     1  C   -4.234999
     2  C   -0.889229
     3  O   -2.674965
     4  C    0.404633
     5  C   -2.858344
     6  C    1.191306
     7  O   -3.616532
     8  H    1.314250
     9  H    1.308120
    10  H    1.123185
    11  H    1.524268
    12  H    1.449814
    13  H    0.813008
    14  H    1.379665
    15  H    1.382333
    16  H    1.586820
    17  H    0.796666
 Sum of Mulliken charges =  -0.00000

 Dipole moment (field-independent basis, Debye):
    X=              0.9181    Y=             -1.3886    Z=              0.5507  Tot=              1.7534

 Test job not archived.
 1\1\GINC-SE184\SP\RHF\Aug-CC-pVDZ\C5H10O2\OHZDE\09-Apr-2025\0\\#t hf a
 ug-cc-pvdz iop(5/13=1,5/36=2,99/5=2) pseudo=read geom=check guess=(rea
 d,tcheck) scf=(maxcycle=1)\\title\\0,1\C,0,1.95481295,-0.03864582,-0.6
 2510659\C,0,1.02545142,-0.20221013,0.53422859\O,0,-0.07287372,1.830071
 68,-0.11718153\C,0,-1.16014693,1.20606649,-0.33762584\C,0,-1.62396186,
 0.26765169,0.66133294\C,0,0.01907103,-1.11959322,0.57190381\O,0,-0.291
 4113,-1.94661321,-0.47877436\H,0,2.48185305,0.90956741,-0.56496267\H,0
 ,1.42341165,-0.03505844,-1.58079974\H,0,2.68903568,-0.85196151,-0.6492

 Normal termination of Gaussian 16 at Wed Apr  9 03:39:47 2025.
