 Gaussian 16, Revision C.01,

 ----------------------------------------------------------------------
 #t hf aug-cc-pvdz symm=none int=(grid=ultrafine) guess=(read,tcheck) s
 table=(opt,rrhf)
 ----------------------------------------------------------------------
 -----
 title
 -----
 Symbolic Z-matrix:
 Charge =  0 Multiplicity = 1

 SCF Done:  E(RHF) =  -339.837424665     A.U. after   15 cycles
 Normal termination of Gaussian 16 at Wed Apr  9 18:01:11 2025.
 Gaussian 16:  ES64L-G16RevC.01  3-Jul-2019

 ----------------------------------------------------------------------
 #t hf aug-cc-pvdz iop(5/13=1,5/36=2,99/5=2) pseudo=read geom=check gue
 ss=(read,tcheck) scf=(maxcycle=1)
 ----------------------------------------------------------------------
 -----
 title
 -----
 Structure from the checkpoint file:  "Grambow2020_wb97xd3_006550_forward_mol1.chk"
 Charge =  0 Multiplicity = 1

                         Standard orientation:
 ---------------------------------------------------------------------
 Center     Atomic      Atomic             Coordinates (Angstroms)
 Number     Number       Type             X           Y           Z
 ---------------------------------------------------------------------
      1          6           0        1.886967   -1.421994   -0.075070
      2          7           0        0.605806   -0.938634    0.402068
      3          6           0       -0.102504   -0.079696   -0.307388
      4          6           0       -1.469100    0.330013    0.178218
      5          8           0       -2.393563   -0.649310   -0.247594
      6          6           0        1.206620    1.654427   -0.516113
      7          7           0        0.587223    2.030212    0.404375
      8          1           0        2.606880   -0.597760   -0.093430
      9          1           0        2.239530   -2.220192    0.574481
     10          1           0        1.775537   -1.810782   -1.085994
     11          1           0        0.509430   -0.859784    1.403947
     12          1           0        0.016815   -0.140535   -1.380869
     13          1           0       -1.752422    1.270758   -0.281992
     14          1           0       -1.469855    0.468506    1.263188
     15          1           0       -2.260515   -1.453274    0.258443
 ---------------------------------------------------------------------

 SCF Done:  E(RHF) =  -341.416505195     A.U. after    2 cycles

 The electronic state is 1-A.
 Alpha  occ. eigenvalues --  -21.10264 -15.81443 -15.69866 -11.54088 -11.45097
 Alpha  occ. eigenvalues --  -11.42746 -11.32428  -1.74973  -1.48218  -1.25449
 Alpha  occ. eigenvalues --   -1.12384  -1.00389  -0.91039  -0.71953  -0.70705
 Alpha  occ. eigenvalues --   -0.66506  -0.63596  -0.59480  -0.58163  -0.57307
 Alpha  occ. eigenvalues --   -0.54428  -0.50325  -0.43582  -0.39881  -0.38461
 Alpha  occ. eigenvalues --   -0.36545  -0.35293
 Alpha virt. eigenvalues --    0.02815   0.04054   0.04585   0.05282   0.06464
 Alpha virt. eigenvalues --    0.06809   0.07189   0.07943   0.10208   0.11224
 Alpha virt. eigenvalues --    0.11829   0.12635   0.13122   0.13662   0.14021

 Mulliken charges:
               1
     1  C   -3.497943
     2  N   -2.878240
     3  C    0.415842
     4  C   -1.114314
     5  O   -2.600846
     6  C    0.365186
     7  N   -1.174852
     8  H    1.483956
     9  H    1.309055
    10  H    1.369486
    11  H    0.708793
    12  H    2.027841
    13  H    1.430873
    14  H    1.434290
    15  H    0.720874
 Sum of Mulliken charges =  -0.00000

 Dipole moment (field-independent basis, Debye):
    X=             -1.5610    Y=             -5.9659    Z=              1.4162  Tot=              6.3273

 Test job not archived.
 1\1\GINC-SE113\SP\RHF\Aug-CC-pVDZ\C4H8N2O1\OHZDE\09-Apr-2025\0\\#t hf
 aug-cc-pvdz iop(5/13=1,5/36=2,99/5=2) pseudo=read geom=check guess=(re
 ad,tcheck) scf=(maxcycle=1)\\title\\0,1\C,0,-1.89669553,0.63786689,0.6
 6079139\N,0,-0.52896834,0.16453296,0.74994087\C,0,0.23715415,0.0970610
 3,-0.32304973\C,0,1.67964918,-0.31394584,-0.17627643\O,0,2.42493865,0.
 83302534,0.17588981\C,0,-0.83024911,-1.25654246,-1.66206594\N,0,-0.098
 06333,-2.04027461,-1.19107444\H,0,-2.49449836,-0.07315738,0.08195514\H
 ,0,-2.30752,0.75382057,1.66134877\H,0,-1.91569415,1.60233239,0.1558318

 Normal termination of Gaussian 16 at Wed Apr  9 18:01:16 2025.
