 Gaussian 16, Revision C.01,

 ----------------------------------------------------------------------
 #t hf aug-cc-pvdz symm=none int=(grid=ultrafine) guess=(read,tcheck) s
 table=(opt,rrhf)
 ----------------------------------------------------------------------
 -----
 title
 -----
 Symbolic Z-matrix:
 Charge =  0 Multiplicity = 1

 SCF Done:  E(RHF) =  -267.469957416     A.U. after   19 cycles
 Normal termination of Gaussian 16 at Wed Apr  9 03:20:55 2025.
 Gaussian 16:  ES64L-G16RevC.01  3-Jul-2019

 ----------------------------------------------------------------------
 #t hf aug-cc-pvdz iop(5/13=1,5/36=2,99/5=2) pseudo=read geom=check gue
 ss=(read,tcheck) scf=(maxcycle=1)
 ----------------------------------------------------------------------
 -----
 title
 -----
 Structure from the checkpoint file:  "Grambow2020_wb97xd3_006078_reverse_mol1.chk"
 Charge =  0 Multiplicity = 1

                         Standard orientation:
 ---------------------------------------------------------------------
 Center     Atomic      Atomic             Coordinates (Angstroms)
 Number     Number       Type             X           Y           Z
 ---------------------------------------------------------------------
      1          8           0       -0.214969   -1.215409   -0.171006
      2          6           0       -1.308132   -0.634785    0.238306
      3          6           0       -1.656202    0.598914   -0.239401
      4          6           0        0.411596    1.211667    0.184365
      5          6           0        0.929405   -0.104998   -0.037970
      6          6           0        2.173601   -0.132066   -0.017451
      7          1           0       -1.788997   -1.059592    1.122186
      8          1           0       -2.486161    1.129703    0.211368
      9          1           0       -1.409048    0.869549   -1.256903
     10          1           0        0.498569    1.952336   -0.599844
     11          1           0        0.398332    1.597184    1.197286
     12          1           0        3.205456   -0.398300   -0.073140
 ---------------------------------------------------------------------

 SCF Done:  E(RHF) =  -268.736608790     A.U. after    2 cycles

 The electronic state is 1-A.
 Alpha  occ. eigenvalues --  -21.06231 -11.48124 -11.45662 -11.44153 -11.39786
 Alpha  occ. eigenvalues --  -11.38143  -1.75773  -1.20278  -1.10938  -0.94414
 Alpha  occ. eigenvalues --   -0.82722  -0.75816  -0.67006  -0.64737  -0.61237
 Alpha  occ. eigenvalues --   -0.57343  -0.54010  -0.48469  -0.40636  -0.36171
 Alpha  occ. eigenvalues --   -0.29900  -0.25190
 Alpha virt. eigenvalues --    0.03487   0.05127   0.05386   0.05740   0.06080
 Alpha virt. eigenvalues --    0.06208   0.07396   0.11209   0.11299   0.11602
 Alpha virt. eigenvalues --    0.12152   0.13222   0.13624   0.14597   0.14815

 Mulliken charges:
               1
     1  O   -3.625818
     2  C    0.853750
     3  C   -3.021671
     4  C   -2.987759
     5  C    4.237982
     6  C   -3.082623
     7  H    1.564769
     8  H    1.277833
     9  H    1.345941
    10  H    1.248097
    11  H    1.316176
    12  H    0.873323
 Sum of Mulliken charges =  -0.00000

 Dipole moment (field-independent basis, Debye):
    X=             -0.3946    Y=              0.7071    Z=              0.2456  Tot=              0.8462

 Test job not archived.
 1\1\GINC-SE366\SP\RHF\Aug-CC-pVDZ\C5H6O1\OHZDE\09-Apr-2025\0\\#t hf au
 g-cc-pvdz iop(5/13=1,5/36=2,99/5=2) pseudo=read geom=check guess=(read
 ,tcheck) scf=(maxcycle=1)\\title\\0,1\O,0,-0.46913531,-1.27232293,0.58
 451357\C,0,-1.12674843,-0.31178186,1.17151551\C,0,-1.55379227,0.772244
 08,0.45465214\C,0,0.4783618,0.86945358,-0.37705381\C,0,0.67590718,-0.5
 4450885,-0.26370085\C,0,1.73859891,-0.91620677,-0.79446024\H,0,-1.1132
 8503,-0.30284501,2.26361171\H,0,-1.97141648,1.62482577,0.97662506\H,0,
 -1.84977125,0.64959082,-0.57830009\H,0,0.21312887,1.28987725,-1.338320

 Normal termination of Gaussian 16 at Wed Apr  9 03:20:58 2025.
