 Gaussian 16, Revision C.01,

 ----------------------------------------------------------------------
 #t hf aug-cc-pvdz symm=none int=(grid=ultrafine) guess=(read,tcheck) s
 table=(opt,rrhf)
 ----------------------------------------------------------------------
 -----
 title
 -----
 Symbolic Z-matrix:
 Charge =  0 Multiplicity = 1

 SCF Done:  E(RHF) =  -286.071339159     A.U. after   13 cycles
 Normal termination of Gaussian 16 at Wed Apr  9 03:21:06 2025.
 Gaussian 16:  ES64L-G16RevC.01  3-Jul-2019

 ----------------------------------------------------------------------
 #t hf aug-cc-pvdz iop(5/13=1,5/36=2,99/5=2) pseudo=read geom=check gue
 ss=(read,tcheck) scf=(maxcycle=1)
 ----------------------------------------------------------------------
 -----
 title
 -----
 Structure from the checkpoint file:  "Grambow2020_wb97xd3_006067_reverse_mol2.chk"
 Charge =  0 Multiplicity = 1

                         Standard orientation:
 ---------------------------------------------------------------------
 Center     Atomic      Atomic             Coordinates (Angstroms)
 Number     Number       Type             X           Y           Z
 ---------------------------------------------------------------------
      1          6           0        2.695719   -0.054344    0.011117
      2          6           0        1.268305    0.203727   -0.450106
      3          6           0        0.235207   -0.359195    0.528165
      4          6           0       -1.177568   -0.104078    0.088581
      5          8           0       -1.473385    1.210613    0.093790
      6          7           0       -2.058179   -0.933908   -0.274457
      7          1           0        3.418137    0.348140   -0.700500
      8          1           0        2.892063   -1.124342    0.115221
      9          1           0        2.886915    0.413076    0.980035
     10          1           0        1.100045    1.276484   -0.566474
     11          1           0        1.108094   -0.244983   -1.434902
     12          1           0        0.376613   -1.435307    0.648179
     13          1           0        0.375756    0.101164    1.510652
     14          1           0       -1.708719   -1.884012   -0.232931
     15          1           0       -2.384547    1.285572   -0.214944
 ---------------------------------------------------------------------

 SCF Done:  E(RHF) =  -287.418633624     A.U. after    2 cycles

 The electronic state is 1-A.
 Alpha  occ. eigenvalues --  -21.10328 -15.71995 -11.49092 -11.42805 -11.39344
 Alpha  occ. eigenvalues --  -11.35854  -1.77760  -1.31587  -1.21362  -1.03714
 Alpha  occ. eigenvalues --   -0.87135  -0.79683  -0.68409  -0.65673  -0.60050
 Alpha  occ. eigenvalues --   -0.58436  -0.53721  -0.52881  -0.49005  -0.47694
 Alpha  occ. eigenvalues --   -0.45589  -0.44572  -0.37113  -0.32341
 Alpha virt. eigenvalues --    0.03760   0.05182   0.05581   0.05913   0.06071
 Alpha virt. eigenvalues --    0.06299   0.06943   0.07394   0.08926   0.10876
 Alpha virt. eigenvalues --    0.12391   0.12590   0.13727   0.14596   0.15608

 Mulliken charges:
               1
     1  C   -3.941701
     2  C   -2.865831
     3  C   -3.315757
     4  C    5.890958
     5  O   -3.346544
     6  N   -3.409217
     7  H    1.097572
     8  H    1.263485
     9  H    1.235211
    10  H    1.500222
    11  H    1.496711
    12  H    1.391205
    13  H    1.477206
    14  H    0.619881
    15  H    0.906599
 Sum of Mulliken charges =   0.00000

 Dipole moment (field-independent basis, Debye):
    X=              1.8733    Y=              0.4713    Z=              0.4105  Tot=              1.9748

 Test job not archived.
 1\1\GINC-SE398\SP\RHF\Aug-CC-pVDZ\C4H9N1O1\OHZDE\09-Apr-2025\0\\#t hf
 aug-cc-pvdz iop(5/13=1,5/36=2,99/5=2) pseudo=read geom=check guess=(re
 ad,tcheck) scf=(maxcycle=1)\\title\\0,1\C,0,2.13965108,-0.0679746,-0.4
 8252837\C,0,0.66183372,0.27051758,-0.61787215\C,0,-0.16247087,-0.26506
 432,0.55467204\C,0,-1.62147652,0.06923863,0.43721314\O,0,-1.8391693,1.
 39626513,0.52413682\N,0,-2.60252025,-0.70759423,0.26408508\H,0,2.71055
 301,0.31604934,-1.32921387\H,0,2.29706051,-1.14848937,-0.43786108\H,0,
 2.56111882,0.36581737,0.42743214\H,0,0.52927996,1.35271779,-0.68059579

 Normal termination of Gaussian 16 at Wed Apr  9 03:21:10 2025.
