 Gaussian 16, Revision C.01,

 ----------------------------------------------------------------------
 #t hf aug-cc-pvdz symm=none int=(grid=ultrafine) guess=(read,tcheck) s
 table=(opt,rrhf)
 ----------------------------------------------------------------------
 -----
 title
 -----
 Symbolic Z-matrix:
 Charge =  0 Multiplicity = 1

 SCF Done:  E(RHF) =  -375.737783459     A.U. after   13 cycles
 Normal termination of Gaussian 16 at Wed Apr  9 03:46:27 2025.
 Gaussian 16:  ES64L-G16RevC.01  3-Jul-2019

 ----------------------------------------------------------------------
 #t hf aug-cc-pvdz iop(5/13=1,5/36=2,99/5=2) pseudo=read geom=check gue
 ss=(read,tcheck) scf=(maxcycle=1)
 ----------------------------------------------------------------------
 -----
 title
 -----
 Structure from the checkpoint file:  "Grambow2020_wb97xd3_007905_reverse_mol2.chk"
 Charge =  0 Multiplicity = 1

                         Standard orientation:
 ---------------------------------------------------------------------
 Center     Atomic      Atomic             Coordinates (Angstroms)
 Number     Number       Type             X           Y           Z
 ---------------------------------------------------------------------
      1          6           0       -1.304479   -1.531988    0.019624
      2          8           0       -1.442895   -0.144997   -0.274923
      3          6           0       -0.492060    0.717688    0.088141
      4          7           0       -0.470678    1.935542   -0.186297
      5          7           0        1.739960   -0.422482   -0.878570
      6          6           0        1.621151   -0.244675    0.355634
      7          8           0        0.476991    0.195040    0.922824
      8          1           0       -2.207847   -1.998139   -0.365459
      9          1           0       -1.236101   -1.700912    1.094637
     10          1           0       -0.432788   -1.948111   -0.486423
     11          1           0       -1.262553    2.178655   -0.772480
     12          1           0        2.670008   -0.748882   -1.112996
     13          1           0        2.363862   -0.420518    1.133193
 ---------------------------------------------------------------------

 SCF Done:  E(RHF) =  -377.378105333     A.U. after    2 cycles

 The electronic state is 1-A.
 Alpha  occ. eigenvalues --  -21.11218 -21.09385 -15.74951 -15.72168 -11.50566
 Alpha  occ. eigenvalues --  -11.48528 -11.42240  -1.89828  -1.76370  -1.34053
 Alpha  occ. eigenvalues --   -1.30118  -1.02037  -0.92287  -0.75006  -0.74440
 Alpha  occ. eigenvalues --   -0.69721  -0.64182  -0.63011  -0.58659  -0.55042
 Alpha  occ. eigenvalues --   -0.52693  -0.45856  -0.42619  -0.42010  -0.38268
 Alpha  occ. eigenvalues --   -0.33907  -0.31381
 Alpha virt. eigenvalues --    0.03342   0.04736   0.05264   0.05714   0.06503
 Alpha virt. eigenvalues --    0.06848   0.09966   0.10843   0.11056   0.12824
 Alpha virt. eigenvalues --    0.13791   0.14146   0.14316   0.15385   0.15926

 Mulliken charges:
               1
     1  C   -3.027390
     2  O   -3.107353
     3  C    6.760049
     4  N   -3.449703
     5  N   -2.759422
     6  C    1.819493
     7  O   -3.230101
     8  H    1.288994
     9  H    1.314450
    10  H    1.391575
    11  H    0.563691
    12  H    0.801211
    13  H    1.634507
 Sum of Mulliken charges =  -0.00000

 Dipole moment (field-independent basis, Debye):
    X=              0.1369    Y=             -2.8928    Z=              0.9510  Tot=              3.0482

 Test job not archived.
 1\1\GINC-SE396\SP\RHF\Aug-CC-pVDZ\C3H6N2O2\OHZDE\09-Apr-2025\0\\#t hf
 aug-cc-pvdz iop(5/13=1,5/36=2,99/5=2) pseudo=read geom=check guess=(re
 ad,tcheck) scf=(maxcycle=1)\\title\\0,1\C,0,-1.62748862,0.56377429,-0.
 23552366\O,0,-0.75981161,-0.23673022,-1.03301235\C,0,0.54919138,-0.269
 68391,-0.77697749\N,0,1.38634287,-0.99249568,-1.35634075\N,0,0.6227814
 2,-0.80557602,1.85433981\C,0,1.10634927,0.26850426,1.42830798\O,0,0.98
 373124,0.6650094,0.14304382\H,0,-2.61833548,0.4219599,-0.65951704\H,0,
 -1.3533449,1.61756894,-0.29232269\H,0,-1.62015394,0.22475788,0.8008646

 Normal termination of Gaussian 16 at Wed Apr  9 03:46:31 2025.
