 Gaussian 16, Revision C.01,

 ----------------------------------------------------------------------
 #t hf aug-cc-pvdz symm=none int=(grid=ultrafine) guess=(read,tcheck) s
 table=(opt,rrhf)
 ----------------------------------------------------------------------
 -----
 title
 -----
 Symbolic Z-matrix:
 Charge =  0 Multiplicity = 1

 SCF Done:  E(RHF) =  -321.368717462     A.U. after   18 cycles
 Normal termination of Gaussian 16 at Wed Apr  9 19:09:42 2025.
 Gaussian 16:  ES64L-G16RevC.01  3-Jul-2019

 ----------------------------------------------------------------------
 #t hf aug-cc-pvdz iop(5/13=1,5/36=2,99/5=2) pseudo=read geom=check gue
 ss=(read,tcheck) scf=(maxcycle=1)
 ----------------------------------------------------------------------
 -----
 title
 -----
 Structure from the checkpoint file:  "Grambow2020_wb97xd3_008182_forward_mol1.chk"
 Charge =  0 Multiplicity = 1

                         Standard orientation:
 ---------------------------------------------------------------------
 Center     Atomic      Atomic             Coordinates (Angstroms)
 Number     Number       Type             X           Y           Z
 ---------------------------------------------------------------------
      1          8           0       -1.921129   -1.150930   -0.176220
      2          6           0       -0.568139   -1.354760    0.126478
      3          6           0        0.233701   -0.066227    0.059055
      4          6           0       -0.396176    1.175929    0.003056
      5          6           0       -0.794651    2.364780    0.181671
      6          6           0        1.647752   -0.156136   -0.007015
      7          7           0        2.793357   -0.265064   -0.056456
      8          1           0       -2.339007   -0.666347    0.540306
      9          1           0       -0.436881   -1.791369    1.125304
     10          1           0       -0.185427   -2.075650   -0.597703
     11          1           0       -0.813800    0.671510   -0.965943
     12          1           0       -1.144273    3.143224   -0.476472
 ---------------------------------------------------------------------

 SCF Done:  E(RHF) =  -322.808920947     A.U. after    2 cycles

 The electronic state is 1-A.
 Alpha  occ. eigenvalues --  -21.10954 -15.77772 -11.52516 -11.46886 -11.45799
 Alpha  occ. eigenvalues --  -11.45131 -11.42793  -1.76031  -1.35296  -1.25405
 Alpha  occ. eigenvalues --   -1.09346  -0.96307  -0.84235  -0.70596  -0.70191
 Alpha  occ. eigenvalues --   -0.63210  -0.61709  -0.57444  -0.52975  -0.49491
 Alpha  occ. eigenvalues --   -0.46564  -0.44164  -0.40799  -0.36264  -0.28366
 Alpha virt. eigenvalues --    0.01262   0.03825   0.05012   0.05579   0.05865
 Alpha virt. eigenvalues --    0.06471   0.08881   0.09716   0.10199   0.10772
 Alpha virt. eigenvalues --    0.11725   0.12287   0.12962   0.13565   0.14349

 Mulliken charges:
               1
     1  O   -2.666815
     2  C   -1.199910
     3  C    0.338456
     4  C    2.610362
     5  C   -4.309144
     6  C    2.136181
     7  N   -2.601432
     8  H    0.710960
     9  H    1.201736
    10  H    1.271332
    11  H    1.475365
    12  H    1.032907
 Sum of Mulliken charges =   0.00000

 Dipole moment (field-independent basis, Debye):
    X=             -3.0218    Y=             -1.1931    Z=             -1.0070  Tot=              3.4013

 Test job not archived.
 1\1\GINC-SE162\SP\RHF\Aug-CC-pVDZ\C5H5N1O1\OHZDE\09-Apr-2025\0\\#t hf
 aug-cc-pvdz iop(5/13=1,5/36=2,99/5=2) pseudo=read geom=check guess=(re
 ad,tcheck) scf=(maxcycle=1)\\title\\0,1\O,0,-1.87900924,0.07364186,-0.
 58999717\C,0,-1.08731038,-0.77315809,0.19733868\C,0,0.36328878,-0.3240
 0667,0.24018515\C,0,0.74278401,0.94046162,-0.2069565\C,0,1.21288959,2.
 10803195,-0.34777726\C,0,1.34064383,-1.24724814,0.69228349\N,0,2.10772
 331,-2.02032162,1.06733894\H,0,-1.9871422,0.91679681,-0.14250479\H,0,-
 1.46023468,-0.83524078,1.2281552\H,0,-1.16050992,-1.77148754,-0.236905

 Normal termination of Gaussian 16 at Wed Apr  9 19:09:46 2025.
