 Gaussian 16, Revision C.01,

 ----------------------------------------------------------------------
 #t hf aug-cc-pvdz symm=none int=(grid=ultrafine) guess=(read,tcheck) s
 table=(opt,rrhf)
 ----------------------------------------------------------------------
 -----
 title
 -----
 Symbolic Z-matrix:
 Charge =  0 Multiplicity = 1

 SCF Done:  E(RHF) =  -270.733781984     A.U. after   15 cycles
 Normal termination of Gaussian 16 at Wed Apr  9 19:12:12 2025.
 Gaussian 16:  ES64L-G16RevC.01  3-Jul-2019

 ----------------------------------------------------------------------
 #t hf aug-cc-pvdz iop(5/13=1,5/36=2,99/5=2) pseudo=read geom=check gue
 ss=(read,tcheck) scf=(maxcycle=1)
 ----------------------------------------------------------------------
 -----
 title
 -----
 Structure from the checkpoint file:  "Grambow2020_wb97xd3_008388_reverse_mol2.chk"
 Charge =  0 Multiplicity = 1

                         Standard orientation:
 ---------------------------------------------------------------------
 Center     Atomic      Atomic             Coordinates (Angstroms)
 Number     Number       Type             X           Y           Z
 ---------------------------------------------------------------------
      1          6           0        1.915927    0.873596    0.063886
      2          6           0        1.077788   -0.370960    0.260777
      3          6           0       -0.249640   -0.336551    1.010038
      4          6           0       -0.933002   -1.046982   -0.068487
      5          6           0        0.322732   -1.033284   -0.931847
      6          6           0       -1.425532    0.401047    0.254720
      7          6           0       -1.155334    1.458047   -0.631728
      8          1           0        1.350091    1.635608   -0.471158
      9          1           0        2.237487    1.280359    1.025900
     10          1           0        2.813479    0.636835   -0.512448
     11          1           0       -0.395007   -0.386446    2.081386
     12          1           0        1.680841   -1.141359    0.751053
     13          1           0       -1.696156   -1.811598   -0.020472
     14          1           0        0.254077   -0.432331   -1.835811
     15          1           0        0.684409   -2.033727   -1.167116
     16          1           0       -2.308256    0.358826    0.893995
     17          1           0       -1.938602    2.224350   -0.489485
 ---------------------------------------------------------------------

 SCF Done:  E(RHF) =  -272.079178393     A.U. after    2 cycles

 The electronic state is 1-A.
 Alpha  occ. eigenvalues --  -11.51599 -11.45211 -11.41686 -11.39872 -11.38504
 Alpha  occ. eigenvalues --  -11.37014 -11.35043  -1.42404  -1.13580  -1.03930
 Alpha  occ. eigenvalues --   -0.96133  -0.89661  -0.76361  -0.73249  -0.72478
 Alpha  occ. eigenvalues --   -0.60564  -0.58621  -0.56914  -0.54127  -0.51164
 Alpha  occ. eigenvalues --   -0.48047  -0.42995  -0.42085  -0.38575  -0.36623
 Alpha  occ. eigenvalues --   -0.31611
 Alpha virt. eigenvalues --    0.03948   0.04827   0.05125   0.05374   0.05738
 Alpha virt. eigenvalues --    0.05966   0.06270   0.06951   0.07270   0.08816
 Alpha virt. eigenvalues --    0.09494   0.11548   0.12390   0.13032   0.13776

 Mulliken charges:
               1
     1  C   -4.421867
     2  C   -0.491611
     3  C   -0.197389
     4  C   -0.528141
     5  C   -3.567664
     6  C   -0.030462
     7  C   -3.258158
     8  H    1.350009
     9  H    1.214390
    10  H    1.173670
    11  H    1.157398
    12  H    1.182917
    13  H    1.244406
    14  H    1.620535
    15  H    1.210501
    16  H    1.188225
    17  H    1.153240
 Sum of Mulliken charges =   0.00000

 Dipole moment (field-independent basis, Debye):
    X=             -0.5975    Y=             -1.7530    Z=              1.7143  Tot=              2.5237

 Test job not archived.
 1\1\GINC-SE035\SP\RHF\Aug-CC-pVDZ\C7H10\OHZDE\09-Apr-2025\0\\#t hf aug
 -cc-pvdz iop(5/13=1,5/36=2,99/5=2) pseudo=read geom=check guess=(read,
 tcheck) scf=(maxcycle=1)\\title\\0,1\C,0,1.9559998,-0.277693,0.1852779
 2\C,0,0.56319154,-0.86950258,0.18839631\C,0,-0.59256325,-0.20243711,0.
 92588912\C,0,-1.45458182,-0.28289487,-0.25112564\C,0,-0.32262246,-0.85
 692687,-1.09468923\C,0,-1.10842679,1.14533767,0.28194377\C,0,-0.231487
 46,1.97812314,-0.43464088\H,0,1.94371436,0.72814949,-0.23333356\H,0,2.
 36117949,-0.23517293,1.19935308\H,0,2.62770619,-0.89671454,-0.41425436

 Normal termination of Gaussian 16 at Wed Apr  9 19:12:18 2025.
