 Gaussian 16, Revision C.01,

 ----------------------------------------------------------------------
 #t hf aug-cc-pvdz symm=none int=(grid=ultrafine) guess=(read,tcheck) s
 table=(opt,rrhf)
 ----------------------------------------------------------------------
 -----
 title
 -----
 Symbolic Z-matrix:
 Charge =  0 Multiplicity = 1

 SCF Done:  E(RHF) =  -302.809835568     A.U. after   15 cycles
 Normal termination of Gaussian 16 at Wed Apr  9 18:28:27 2025.
 Gaussian 16:  ES64L-G16RevC.01  3-Jul-2019

 ----------------------------------------------------------------------
 #t hf aug-cc-pvdz iop(5/13=1,5/36=2,99/5=2) pseudo=read geom=check gue
 ss=(read,tcheck) scf=(maxcycle=1)
 ----------------------------------------------------------------------
 -----
 title
 -----
 Structure from the checkpoint file:  "Grambow2020_wb97xd3_007167_reverse_mol2.chk"
 Charge =  0 Multiplicity = 1

                         Standard orientation:
 ---------------------------------------------------------------------
 Center     Atomic      Atomic             Coordinates (Angstroms)
 Number     Number       Type             X           Y           Z
 ---------------------------------------------------------------------
      1          6           0       -0.408730    1.691574    0.601062
      2          6           0       -0.244087    0.504602   -0.344869
      3          6           0        2.011459   -0.042294   -0.820033
      4          7           0        0.972623   -0.280751   -0.024570
      5          6           0        0.910926   -1.059114    1.044931
      6          6           0       -1.440559   -0.347260   -0.339187
      7          7           0       -2.416932   -0.947528   -0.344450
      8          1           0       -0.592266    1.354904    1.619402
      9          1           0       -1.249140    2.304069    0.275454
     10          1           0        0.500995    2.290428    0.578227
     11          1           0       -0.117931    0.863557   -1.365231
     12          1           0        2.948570   -0.526845   -0.601806
     13          1           0        1.880542    0.594527   -1.675872
     14          1           0       -0.022198   -1.151208    1.572330
     15          1           0        1.787538   -1.616518    1.329215
 ---------------------------------------------------------------------

 SCF Done:  E(RHF) =  -304.262764559     A.U. after    2 cycles

 The electronic state is 1-A.
 Alpha  occ. eigenvalues --  -15.86235 -15.77460 -11.52528 -11.45202 -11.41435
 Alpha  occ. eigenvalues --  -11.38737 -11.38388  -1.53625  -1.32345  -1.18945
 Alpha  occ. eigenvalues --   -1.04363  -0.99260  -0.83784  -0.74365  -0.71167
 Alpha  occ. eigenvalues --   -0.64952  -0.62444  -0.59277  -0.57101  -0.56404
 Alpha  occ. eigenvalues --   -0.53785  -0.51256  -0.49636  -0.45193  -0.44144
 Alpha  occ. eigenvalues --   -0.23856
 Alpha virt. eigenvalues --    0.03055   0.05178   0.05327   0.05499   0.05983
 Alpha virt. eigenvalues --    0.06231   0.07458   0.08080   0.08797   0.09781
 Alpha virt. eigenvalues --    0.11005   0.12566   0.13188   0.13321   0.14538

 Mulliken charges:
               1
     1  C   -3.570392
     2  C   -1.515657
     3  C   -2.104966
     4  N   -2.585091
     5  C   -2.302709
     6  C    2.861066
     7  N   -2.649812
     8  H    1.343358
     9  H    1.171165
    10  H    1.390430
    11  H    1.975008
    12  H    1.484770
    13  H    1.482249
    14  H    1.619812
    15  H    1.400771
 Sum of Mulliken charges =   0.00000

 Dipole moment (field-independent basis, Debye):
    X=              1.5825    Y=              2.3590    Z=              0.0848  Tot=              2.8419

 Test job not archived.
 1\1\GINC-SE162\SP\RHF\Aug-CC-pVDZ\C5H8N2\OHZDE\09-Apr-2025\0\\#t hf au
 g-cc-pvdz iop(5/13=1,5/36=2,99/5=2) pseudo=read geom=check guess=(read
 ,tcheck) scf=(maxcycle=1)\\title\\0,1\C,0,-0.95461518,-1.20914035,0.67
 30401\C,0,-0.2487341,-0.50837251,-0.48516961\C,0,-0.42157053,1.8537256
 4,-0.43051848\N,0,0.30790981,0.80196251,-0.06932939\C,0,1.40791821,0.7
 715662,0.66724836\C,0,0.79268587,-1.36511869,-1.06713009\N,0,1.5528397
 ,-2.09122119,-1.52385097\H,0,-0.24684071,-1.47759713,1.45472782\H,0,-1
 .43973085,-2.11505958,0.31050315\H,0,-1.70864988,-0.53920606,1.0845829

 Normal termination of Gaussian 16 at Wed Apr  9 18:28:32 2025.
