 Gaussian 16, Revision C.01,

 ----------------------------------------------------------------------
 #t hf aug-cc-pvdz symm=none int=(grid=ultrafine) guess=(read,tcheck) s
 table=(opt,rrhf)
 ----------------------------------------------------------------------
 -----
 title
 -----
 Symbolic Z-matrix:
 Charge =  0 Multiplicity = 1

 SCF Done:  E(RHF) =  -284.685541195     A.U. after   16 cycles
 Normal termination of Gaussian 16 at Wed Apr  9 03:06:48 2025.
 Gaussian 16:  ES64L-G16RevC.01  3-Jul-2019

 ----------------------------------------------------------------------
 #t hf aug-cc-pvdz iop(5/13=1,5/36=2,99/5=2) pseudo=read geom=check gue
 ss=(read,tcheck) scf=(maxcycle=1)
 ----------------------------------------------------------------------
 -----
 title
 -----
 Structure from the checkpoint file:  "Grambow2020_b97d3_006558_reverse_mol2.chk"
 Charge =  0 Multiplicity = 1

                         Standard orientation:
 ---------------------------------------------------------------------
 Center     Atomic      Atomic             Coordinates (Angstroms)
 Number     Number       Type             X           Y           Z
 ---------------------------------------------------------------------
      1          8           0        1.560472    0.519269   -0.630627
      2          6           0        1.267904   -0.638957   -0.364633
      3          6           0        0.275565   -1.002850    0.716926
      4          7           0       -1.084893   -0.328608    0.669114
      5          6           0       -1.135364    0.976342   -0.078257
      6          6           0       -1.636961   -0.030340   -0.704920
      7          1           0        1.516053    2.314614    1.197511
      8          1           0        1.683590   -1.480765   -0.973153
      9          1           0        0.701994   -0.706390    1.687497
     10          1           0        0.096304   -2.087074    0.738386
     11          1           0        1.452387    2.832339    1.731859
     12          1           0       -0.855700    2.006126    0.085430
     13          1           0       -2.111022   -0.557913   -1.521005
 ---------------------------------------------------------------------

 SCF Done:  E(RHF) =  -286.004787793     A.U. after    2 cycles

 The electronic state is 1-A.
 Alpha  occ. eigenvalues --  -21.07053 -15.74718 -11.49113 -11.46125 -11.43447
 Alpha  occ. eigenvalues --  -11.40642  -1.71016  -1.44473  -1.12118  -0.91661
 Alpha  occ. eigenvalues --   -0.83153  -0.79908  -0.68326  -0.65808  -0.61543
 Alpha  occ. eigenvalues --   -0.60579  -0.54605  -0.51143  -0.43730  -0.43242
 Alpha  occ. eigenvalues --   -0.40883  -0.33246  -0.26522
 Alpha virt. eigenvalues --    0.03505   0.04715   0.05636   0.05958   0.06207
 Alpha virt. eigenvalues --    0.07097   0.08738   0.09496   0.10732   0.11621
 Alpha virt. eigenvalues --    0.12365   0.12960   0.13559   0.13747   0.15032

 Mulliken charges:
               1
     1  O   -2.570262
     2  C    1.157772
     3  C   -2.263617
     4  N   -1.789153
     5  C   -0.288038
     6  C   -0.316275
     7  H   -0.294952
     8  H    1.575343
     9  H    1.394338
    10  H    1.449008
    11  H    0.220501
    12  H    0.877084
    13  H    0.848252
 Sum of Mulliken charges =   0.00000

 Dipole moment (field-independent basis, Debye):
    X=             -0.0804    Y=             -0.1710    Z=             -0.9743  Tot=              0.9924

 Test job not archived.
 1\1\GINC-SE366\SP\RHF\Aug-CC-pVDZ\C4H7N1O1\OHZDE\09-Apr-2025\0\\#t hf
 aug-cc-pvdz iop(5/13=1,5/36=2,99/5=2) pseudo=read geom=check guess=(re
 ad,tcheck) scf=(maxcycle=1)\\title\\0,1\O,0,-1.27327863,-0.97542796,0.
 55693178\C,0,-1.47838539,0.15256697,0.12868461\C,0,-0.39198071,1.20028
 235,0.03412066\N,0,0.89031401,0.81107078,-0.68139962\C,0,1.17338548,-0
 .66528425,-0.74660372\C,0,0.74607348,-0.1433547,-1.84328508\H,0,0.5240
 8119,-1.37252764,2.33994409\H,0,-2.48317448,0.42815193,-0.2789704\H,0,
 -0.07571971,1.45964993,1.05610134\H,0,-0.76615529,2.11303118,-0.450667

 Normal termination of Gaussian 16 at Wed Apr  9 03:06:51 2025.
