 Gaussian 16, Revision C.01,

 ----------------------------------------------------------------------
 #t hf aug-cc-pvdz symm=none int=(grid=ultrafine) guess=(read,tcheck) s
 table=(opt,rrhf)
 ----------------------------------------------------------------------
 -----
 title
 -----
 Symbolic Z-matrix:
 Charge =  0 Multiplicity = 1

 SCF Done:  E(RHF) =  -245.666720219     A.U. after   17 cycles
 Normal termination of Gaussian 16 at Wed Apr  9 17:37:28 2025.
 Gaussian 16:  ES64L-G16RevC.01  3-Jul-2019

 ----------------------------------------------------------------------
 #t hf aug-cc-pvdz iop(5/13=1,5/36=2,99/5=2) pseudo=read geom=check gue
 ss=(read,tcheck) scf=(maxcycle=1)
 ----------------------------------------------------------------------
 -----
 title
 -----
 Structure from the checkpoint file:  "Grambow2020_b97d3_007204_reverse_mol2.chk"
 Charge =  0 Multiplicity = 1

                         Standard orientation:
 ---------------------------------------------------------------------
 Center     Atomic      Atomic             Coordinates (Angstroms)
 Number     Number       Type             X           Y           Z
 ---------------------------------------------------------------------
      1          8           0       -1.384822   -0.946301   -0.221217
      2          6           0       -2.026650    0.018934    0.329019
      3          6           0       -1.412984    1.047631   -0.327498
      4          6           0        2.772114   -0.101340    0.022493
      5          7           0        1.539693    0.212782    0.118222
      6          1           0       -2.910901   -0.079870    0.974363
      7          1           0       -0.399107    1.393557   -0.091243
      8          1           0        3.527407    0.679629    0.181395
      9          1           0        3.161802   -1.107023   -0.209306
     10          1           0        0.926641   -0.596706   -0.057111
 ---------------------------------------------------------------------

 SCF Done:  E(RHF) =  -246.745845098     A.U. after    2 cycles

 The electronic state is 1-A.
 Alpha  occ. eigenvalues --  -21.05689 -15.74859 -11.50028 -11.43594 -11.42519
 Alpha  occ. eigenvalues --   -1.70741  -1.32404  -1.05018  -0.87926  -0.82462
 Alpha  occ. eigenvalues --   -0.66976  -0.65339  -0.57558  -0.52622  -0.48657
 Alpha  occ. eigenvalues --   -0.42743  -0.39953  -0.32710  -0.29386
 Alpha virt. eigenvalues --    0.03524   0.04316   0.05435   0.05991   0.08448
 Alpha virt. eigenvalues --    0.09654   0.09854   0.10160   0.11152   0.12190
 Alpha virt. eigenvalues --    0.13443   0.14097   0.14339   0.15425   0.15989

 Mulliken charges:
               1
     1  O   -2.011242
     2  C    1.409484
     3  C   -2.270739
     4  C   -1.117680
     5  N   -2.419811
     6  H    1.379167
     7  H    1.470540
     8  H    1.401312
     9  H    1.424863
    10  H    0.734107
 Sum of Mulliken charges =  -0.00000

 Dipole moment (field-independent basis, Debye):
    X=              1.0343    Y=             -1.6373    Z=              1.7037  Tot=              2.5794

 Test job not archived.
 1\1\GINC-SE045\SP\RHF\Aug-CC-pVDZ\C3H5N1O1\OHZDE\09-Apr-2025\0\\#t hf
 aug-cc-pvdz iop(5/13=1,5/36=2,99/5=2) pseudo=read geom=check guess=(re
 ad,tcheck) scf=(maxcycle=1)\\title\\0,1\O,0,1.60037373,-0.036243,1.274
 44889\C,0,2.37465568,-0.30159898,0.28629104\C,0,1.88978327,0.63197189,
 -0.58500844\C,0,-2.40291856,0.05037385,-0.14668387\N,0,-1.1381737,0.02
 420278,-0.30927398\H,0,3.25038218,-0.96529485,0.31352817\H,0,0.9352779
 3,0.52337072,-1.114681\H,0,-3.04514818,0.13462734,-1.0332909\H,0,-2.92
 651724,-0.00585782,0.82268036\H,0,-0.64099711,-0.04967193,0.59028272\\

 Normal termination of Gaussian 16 at Wed Apr  9 17:37:33 2025.
