 Gaussian 16, Revision C.01,

 ----------------------------------------------------------------------
 #t hf aug-cc-pvdz symm=none int=(grid=ultrafine) guess=(read,tcheck) s
 table=(opt,rrhf)
 ----------------------------------------------------------------------
 -----
 title
 -----
 Symbolic Z-matrix:
 Charge =  0 Multiplicity = 1

 SCF Done:  E(RHF) =  -360.887712126     A.U. after   14 cycles
 Normal termination of Gaussian 16 at Wed Apr  9 18:13:24 2025.
 Gaussian 16:  ES64L-G16RevC.01  3-Jul-2019

 ----------------------------------------------------------------------
 #t hf aug-cc-pvdz iop(5/13=1,5/36=2,99/5=2) pseudo=read geom=check gue
 ss=(read,tcheck) scf=(maxcycle=1)
 ----------------------------------------------------------------------
 -----
 title
 -----
 Structure from the checkpoint file:  "Grambow2020_wb97xd3_006761_reverse_mol2.chk"
 Charge =  0 Multiplicity = 1

                         Standard orientation:
 ---------------------------------------------------------------------
 Center     Atomic      Atomic             Coordinates (Angstroms)
 Number     Number       Type             X           Y           Z
 ---------------------------------------------------------------------
      1          6           0        0.794080    1.660874    0.770837
      2          7           0       -2.596448   -0.203195    0.173623
      3          6           0       -2.164579    0.561566   -0.559755
      4          8           0        0.726347    1.020152   -0.485402
      5          6           0        1.524042   -0.146088   -0.581170
      6          6           0        0.725454   -1.420461   -0.381049
      7          8           0        0.185334   -1.528701    0.916940
      8          1           0        0.475458    0.999083    1.580640
      9          1           0        1.812307    2.010712    0.977598
     10          1           0        0.132233    2.526559    0.729759
     11          1           0       -1.722700    1.263249   -1.234519
     12          1           0        1.966089   -0.157251   -1.582800
     13          1           0        2.340474   -0.103497    0.148858
     14          1           0       -0.062835   -1.480403   -1.139972
     15          1           0        1.395208   -2.272490   -0.539330
     16          1           0       -0.728529   -1.230553    0.898914
 ---------------------------------------------------------------------

 SCF Done:  E(RHF) =  -362.517575322     A.U. after    2 cycles

 The electronic state is 1-A.
 Alpha  occ. eigenvalues --  -21.05622 -21.04901 -15.78450 -11.45567 -11.45476
 Alpha  occ. eigenvalues --  -11.40428 -11.38854  -1.76505  -1.69623  -1.32438
 Alpha  occ. eigenvalues --   -1.09879  -0.97417  -0.85574  -0.82739  -0.68066
 Alpha  occ. eigenvalues --   -0.65345  -0.62366  -0.58587  -0.57351  -0.55228
 Alpha  occ. eigenvalues --   -0.52407  -0.49131  -0.47737  -0.47566  -0.40112
 Alpha  occ. eigenvalues --   -0.39167  -0.33618  -0.28415
 Alpha virt. eigenvalues --    0.03751   0.04863   0.05045   0.05365   0.05866
 Alpha virt. eigenvalues --    0.06098   0.07482   0.08517   0.08695   0.09541
 Alpha virt. eigenvalues --    0.12072   0.12793   0.13311   0.13826   0.14458

 Mulliken charges:
               1
     1  C   -2.774970
     2  N   -2.242394
     3  C    0.454817
     4  O   -2.843968
     5  C   -1.275456
     6  C   -1.067491
     7  O   -2.736644
     8  H    1.385390
     9  H    1.298980
    10  H    1.333031
    11  H    1.697698
    12  H    1.280210
    13  H    1.707423
    14  H    1.635315
    15  H    1.178442
    16  H    0.969619
 Sum of Mulliken charges =   0.00000

 Dipole moment (field-independent basis, Debye):
    X=              1.0123    Y=              1.8806    Z=             -1.7059  Tot=              2.7334

 Test job not archived.
 1\1\GINC-SE173\SP\RHF\Aug-CC-pVDZ\C4H9N1O2\OHZDE\09-Apr-2025\0\\#t hf
 aug-cc-pvdz iop(5/13=1,5/36=2,99/5=2) pseudo=read geom=check guess=(re
 ad,tcheck) scf=(maxcycle=1)\\title\\0,1\C,0,1.14559376,0.80120776,-1.2
 9207285\N,0,1.31214793,-2.26716882,1.13370919\C,0,1.62057683,-1.208867
 31,1.44043584\O,0,0.47446208,1.02245592,-0.06982913\C,0,-0.93756182,1.
 01448871,-0.17813657\C,0,-1.54941133,-0.31169761,0.23257915\O,0,-1.174
 5025,-1.37286299,-0.61688632\H,0,0.87333805,-0.16043058,-1.73524103\H,
 0,0.92394001,1.59907749,-2.01054163\H,0,2.21549107,0.81232564,-1.08151

 Normal termination of Gaussian 16 at Wed Apr  9 18:13:29 2025.
