 Gaussian 16, Revision C.01,

 ----------------------------------------------------------------------
 #t hf aug-cc-pvdz symm=none int=(grid=ultrafine) guess=(read,tcheck) s
 table=(opt,rrhf)
 ----------------------------------------------------------------------
 -----
 title
 -----
 Symbolic Z-matrix:
 Charge =  0 Multiplicity = 1

 SCF Done:  E(RHF) =  -343.693967649     A.U. after   13 cycles
 Normal termination of Gaussian 16 at Wed Apr  9 19:31:12 2025.
 Gaussian 16:  ES64L-G16RevC.01  3-Jul-2019

 ----------------------------------------------------------------------
 #t hf aug-cc-pvdz iop(5/13=1,5/36=2,99/5=2) pseudo=read geom=check gue
 ss=(read,tcheck) scf=(maxcycle=1)
 ----------------------------------------------------------------------
 -----
 title
 -----
 Structure from the checkpoint file:  "Grambow2020_wb97xd3_009099_forward_mol2.chk"
 Charge =  0 Multiplicity = 1

                         Standard orientation:
 ---------------------------------------------------------------------
 Center     Atomic      Atomic             Coordinates (Angstroms)
 Number     Number       Type             X           Y           Z
 ---------------------------------------------------------------------
      1          6           0        1.686518   -0.042826    0.630407
      2          6           0        0.896021   -0.698856   -0.464462
      3          8           0       -0.263157   -1.434041   -0.227914
      4          6           0       -1.317933   -0.718131    0.387403
      5          6           0       -1.424814    0.684284   -0.166306
      6          8           0       -0.252461    1.418988    0.130124
      7          6           0        0.899948    0.793131   -0.347347
      8          1           0        1.283524   -0.074183    1.634462
      9          1           0        2.766512   -0.061256    0.566224
     10          1           0        1.450113   -1.142615   -1.281485
     11          1           0       -1.168816   -0.670077    1.474052
     12          1           0       -2.228284   -1.285886    0.189758
     13          1           0       -1.593384    0.647584   -1.250462
     14          1           0       -2.252542    1.218747    0.300861
     15          1           0        1.429385    1.382503   -1.089257
 ---------------------------------------------------------------------

 SCF Done:  E(RHF) =  -345.248728723     A.U. after    2 cycles

 The electronic state is 1-A.
 Alpha  occ. eigenvalues --  -21.05151 -21.05041 -11.46651 -11.44609 -11.43472
 Alpha  occ. eigenvalues --  -11.39636 -11.37207  -1.81218  -1.72401  -1.25888
 Alpha  occ. eigenvalues --   -1.07947  -0.92721  -0.85986  -0.77115  -0.73064
 Alpha  occ. eigenvalues --   -0.65596  -0.63391  -0.61287  -0.57637  -0.51350
 Alpha  occ. eigenvalues --   -0.49619  -0.47824  -0.45264  -0.43202  -0.34434
 Alpha  occ. eigenvalues --   -0.30321  -0.26049
 Alpha virt. eigenvalues --    0.03840   0.04839   0.05131   0.05210   0.06084
 Alpha virt. eigenvalues --    0.06427   0.06711   0.08388   0.10141   0.11133
 Alpha virt. eigenvalues --    0.12941   0.13375   0.13626   0.13839   0.14502

 Mulliken charges:
               1
     1  C   -2.953624
     2  C    1.474021
     3  O   -3.770424
     4  C   -1.640388
     5  C   -1.776187
     6  O   -3.597409
     7  C    1.081997
     8  H    1.363134
     9  H    1.315117
    10  H    1.462660
    11  H    1.586485
    12  H    1.323951
    13  H    1.486901
    14  H    1.260932
    15  H    1.382833
 Sum of Mulliken charges =  -0.00000

 Dipole moment (field-independent basis, Debye):
    X=             -0.1809    Y=              0.0546    Z=             -0.2763  Tot=              0.3348

 Test job not archived.
 1\1\GINC-SE048\SP\RHF\Aug-CC-pVDZ\C5H8O2\OHZDE\09-Apr-2025\0\\#t hf au
 g-cc-pvdz iop(5/13=1,5/36=2,99/5=2) pseudo=read geom=check guess=(read
 ,tcheck) scf=(maxcycle=1)\\title\\0,1\C,0,-1.57998029,0.08761029,0.848
 53083\C,0,-1.10545327,-0.00078478,-0.57309094\O,0,-0.22637035,0.919871
 57,-1.13855434\C,0,1.03593325,1.01781091,-0.50555059\C,0,1.54733852,-0
 .34223431,-0.08898715\O,0,0.68788522,-0.91373441,0.87889729\C,0,-0.630
 01149,-1.00557073,0.42896634\H,0,-1.14762695,0.85302715,1.47997568\H,0
 ,-2.61211672,-0.15741235,1.06184529\H,0,-1.81985946,-0.32879052,-1.317

 Normal termination of Gaussian 16 at Wed Apr  9 19:31:17 2025.
