 Gaussian 16, Revision C.01,

 ----------------------------------------------------------------------
 #t hf aug-cc-pvdz symm=none int=(grid=ultrafine) guess=(read,tcheck) s
 table=(opt,rrhf)
 ----------------------------------------------------------------------
 -----
 title
 -----
 Symbolic Z-matrix:
 Charge =  0 Multiplicity = 1

 SCF Done:  E(RHF) =  -359.596912496     A.U. after   15 cycles
 Normal termination of Gaussian 16 at Wed Apr  9 19:33:49 2025.
 Gaussian 16:  ES64L-G16RevC.01  3-Jul-2019

 ----------------------------------------------------------------------
 #t hf aug-cc-pvdz iop(5/13=1,5/36=2,99/5=2) pseudo=read geom=check gue
 ss=(read,tcheck) scf=(maxcycle=1)
 ----------------------------------------------------------------------
 -----
 title
 -----
 Structure from the checkpoint file:  "Grambow2020_wb97xd3_009389_forward_mol1.chk"
 Charge =  0 Multiplicity = 1

                         Standard orientation:
 ---------------------------------------------------------------------
 Center     Atomic      Atomic             Coordinates (Angstroms)
 Number     Number       Type             X           Y           Z
 ---------------------------------------------------------------------
      1          6           0       -2.089065   -0.713940    0.000902
      2          7           0       -0.680702   -0.381374   -0.002155
      3          6           0        0.269023   -1.288907    0.000179
      4          8           0        1.493772   -1.051173   -0.000737
      5          6           0       -0.174767    1.015960    0.001057
      6          8           0       -1.027381    1.863358   -0.000656
      7          6           0        2.198210    0.695370    0.000734
      8          1           0       -2.215833   -1.797748   -0.013664
      9          1           0       -2.563764   -0.301895    0.891001
     10          1           0       -2.571754   -0.276432   -0.872437
     11          1           0       -0.040620   -2.343884    0.002371
     12          1           0        3.109548    0.106037    0.001611
     13          1           0        2.048350    1.268735    0.900789
     14          1           0        2.047453    1.266429   -0.900678
 ---------------------------------------------------------------------

 SCF Done:  E(RHF) =  -361.219321242     A.U. after    2 cycles

 The electronic state is 1-A.
 Alpha  occ. eigenvalues --  -21.07998 -21.00630 -15.76088 -11.51343 -11.48696
 Alpha  occ. eigenvalues --  -11.40584 -11.38056  -1.76890  -1.66607  -1.41925
 Alpha  occ. eigenvalues --   -1.05677  -1.02711  -0.90487  -0.71667  -0.69538
 Alpha  occ. eigenvalues --   -0.64116  -0.62225  -0.61368  -0.60536  -0.52700
 Alpha  occ. eigenvalues --   -0.52484  -0.48420  -0.41937  -0.41744  -0.38531
 Alpha  occ. eigenvalues --   -0.30647  -0.18354
 Alpha virt. eigenvalues --    0.02690   0.04686   0.05335   0.06174   0.06308
 Alpha virt. eigenvalues --    0.06536   0.07196   0.09749   0.09840   0.10947
 Alpha virt. eigenvalues --    0.12374   0.13517   0.13550   0.14175   0.14717

 Mulliken charges:
               1
     1  C   -3.083489
     2  N   -2.396318
     3  C    1.890025
     4  O   -2.844017
     5  C    2.310831
     6  O   -2.390205
     7  C   -3.609678
     8  H    1.395130
     9  H    1.408264
    10  H    1.410599
    11  H    1.903429
    12  H    1.339021
    13  H    1.332927
    14  H    1.333481
 Sum of Mulliken charges =  -0.00000

 Dipole moment (field-independent basis, Debye):
    X=              1.3583    Y=             -3.3776    Z=             -0.0005  Tot=              3.6405

 Test job not archived.
 1\1\GINC-SE083\SP\RHF\Aug-CC-pVDZ\C4H7N1O2\OHZDE\09-Apr-2025\0\\#t hf
 aug-cc-pvdz iop(5/13=1,5/36=2,99/5=2) pseudo=read geom=check guess=(re
 ad,tcheck) scf=(maxcycle=1)\\title\\0,1\C,0,-1.96756335,-0.69383004,-0
 .60054755\N,0,-0.68275123,-0.18658155,-0.16920723\C,0,-0.53335724,0.98
 096272,0.41399228\O,0,0.55153339,1.46028825,0.80101535\C,0,0.5895267,-
 0.9323721,-0.35258712\O,0,0.47616404,-2.00413468,-0.88504428\C,0,2.196
 41741,0.56542397,0.60046263\H,0,-2.75326081,0.02098372,-0.35026509\H,0
 ,-1.95545379,-0.8622958,-1.67705488\H,0,-2.16924765,-1.64655694,-0.111

 Normal termination of Gaussian 16 at Wed Apr  9 19:33:54 2025.
