 Gaussian 16, Revision C.01,

 ----------------------------------------------------------------------
 #t hf aug-cc-pvdz symm=none int=(grid=ultrafine) guess=(read,tcheck) s
 table=(opt,rrhf)
 ----------------------------------------------------------------------
 -----
 title
 -----
 Symbolic Z-matrix:
 Charge =  0 Multiplicity = 1

 SCF Done:  E(RHF) =  -270.713147517     A.U. after   16 cycles
 Normal termination of Gaussian 16 at Wed Apr  9 19:12:14 2025.
 Gaussian 16:  ES64L-G16RevC.01  3-Jul-2019

 ----------------------------------------------------------------------
 #t hf aug-cc-pvdz iop(5/13=1,5/36=2,99/5=2) pseudo=read geom=check gue
 ss=(read,tcheck) scf=(maxcycle=1)
 ----------------------------------------------------------------------
 -----
 title
 -----
 Structure from the checkpoint file:  "Grambow2020_wb97xd3_008390_forward_mol1.chk"
 Charge =  0 Multiplicity = 1

                         Standard orientation:
 ---------------------------------------------------------------------
 Center     Atomic      Atomic             Coordinates (Angstroms)
 Number     Number       Type             X           Y           Z
 ---------------------------------------------------------------------
      1          6           0       -2.238989   -0.047838    0.122115
      2          6           0       -0.736973   -0.003978    0.057871
      3          6           0        0.059033   -0.751067   -1.012713
      4          6           0        1.349549   -0.455880   -0.229230
      5          6           0        0.886412   -1.088762    1.093580
      6          6           0        1.262744    1.072029   -0.122969
      7          6           0       -0.014610    1.328607    0.122386
      8          1           0       -2.619503    0.456788    1.011330
      9          1           0       -2.643842    0.464190   -0.755831
     10          1           0       -2.608111   -1.073624    0.113892
     11          1           0       -0.018493   -0.295519   -2.001454
     12          1           0       -0.168916   -1.816370   -1.045675
     13          1           0        2.293011   -0.864796   -0.591147
     14          1           0        1.168120   -0.425296    1.927507
     15          1           0       -0.395288   -0.802618    1.001368
     16          1           0        2.089914    1.766449   -0.174385
     17          1           0       -0.499889    2.272131    0.328157
 ---------------------------------------------------------------------

 SCF Done:  E(RHF) =  -272.083079091     A.U. after    2 cycles

 The electronic state is 1-A.
 Alpha  occ. eigenvalues --  -11.49428 -11.44504 -11.42250 -11.40594 -11.40395
 Alpha  occ. eigenvalues --  -11.38150 -11.35649  -1.42332  -1.12108  -1.06536
 Alpha  occ. eigenvalues --   -0.96382  -0.91933  -0.77447  -0.76182  -0.68791
 Alpha  occ. eigenvalues --   -0.65280  -0.59684  -0.57460  -0.54201  -0.50082
 Alpha  occ. eigenvalues --   -0.48339  -0.46281  -0.44493  -0.42314  -0.37215
 Alpha  occ. eigenvalues --   -0.25948
 Alpha virt. eigenvalues --    0.03733   0.04747   0.04854   0.05328   0.05526
 Alpha virt. eigenvalues --    0.05985   0.06606   0.07238   0.07785   0.09116
 Alpha virt. eigenvalues --    0.10138   0.10959   0.11956   0.12751   0.12965

 Mulliken charges:
               1
     1  C   -5.004407
     2  C    0.871511
     3  C   -2.744004
     4  C   -2.890798
     5  C   -2.464461
     6  C   -0.150628
     7  C   -1.600013
     8  H    1.182095
     9  H    1.258714
    10  H    1.317211
    11  H    1.369343
    12  H    1.388320
    13  H    1.658905
    14  H    1.292718
    15  H    1.825356
    16  H    1.284380
    17  H    1.405758
 Sum of Mulliken charges =   0.00000

 Dipole moment (field-independent basis, Debye):
    X=             -1.0762    Y=              2.3825    Z=             -1.4479  Tot=              2.9885

 Test job not archived.
 1\1\GINC-SE083\SP\RHF\Aug-CC-pVDZ\C7H10\OHZDE\09-Apr-2025\0\\#t hf aug
 -cc-pvdz iop(5/13=1,5/36=2,99/5=2) pseudo=read geom=check guess=(read,
 tcheck) scf=(maxcycle=1)\\title\\0,1\C,0,2.06893112,-0.06735265,0.1720
 3564\C,0,0.57445656,0.00542753,0.01921633\C,0,-0.3779193,-0.82945738,0
 .87587612\C,0,-1.53520804,-0.42390788,-0.05290004\C,0,-0.88586374,-0.9
 2706001,-1.35291973\C,0,-1.42101141,1.10427507,0.01745651\C,0,-0.11931
 253,1.35436821,-0.00896659\H,0,2.58149681,0.5175478,-0.59301949\H,0,2.
 34302283,0.34106152,1.14924527\H,0,2.4242826,-1.09697283,0.12551565\H,

 Normal termination of Gaussian 16 at Wed Apr  9 19:12:20 2025.
