 Gaussian 16, Revision C.01,

 ----------------------------------------------------------------------
 #t hf aug-cc-pvdz symm=none int=(grid=ultrafine) guess=(read,tcheck) s
 table=(opt,rrhf)
 ----------------------------------------------------------------------
 -----
 title
 -----
 Symbolic Z-matrix:
 Charge =  0 Multiplicity = 1

 SCF Done:  E(RHF) =  -302.056072577     A.U. after   13 cycles
 Normal termination of Gaussian 16 at Wed Apr  9 17:06:16 2025.
 Gaussian 16:  ES64L-G16RevC.01  3-Jul-2019

 ----------------------------------------------------------------------
 #t hf aug-cc-pvdz iop(5/13=1,5/36=2,99/5=2) pseudo=read geom=check gue
 ss=(read,tcheck) scf=(maxcycle=1)
 ----------------------------------------------------------------------
 -----
 title
 -----
 Structure from the checkpoint file:  "Grambow2020_b97d3_007042_reverse_mol2.chk"
 Charge =  0 Multiplicity = 1

                         Standard orientation:
 ---------------------------------------------------------------------
 Center     Atomic      Atomic             Coordinates (Angstroms)
 Number     Number       Type             X           Y           Z
 ---------------------------------------------------------------------
      1          6           0       -1.259880   -1.293569    0.126296
      2          7           0       -0.601603   -0.026440   -0.184554
      3          6           0       -1.417203    1.168207   -0.040455
      4          6           0        0.767382    0.114938   -0.026464
      5          8           0        1.410576   -1.092951   -0.083941
      6          7           0        1.479203    1.177565    0.120106
      7          1           0       -0.611310   -2.123942   -0.159607
      8          1           0       -1.501091   -1.385418    1.200445
      9          1           0       -2.194067   -1.361152   -0.447631
     10          1           0       -1.021125    1.973642   -0.672364
     11          1           0       -2.433376    0.940747   -0.383569
     12          1           0       -1.474979    1.529962    1.002522
     13          1           0        2.352512   -0.849063    0.022895
     14          1           0        0.913840    2.023506    0.203709
 ---------------------------------------------------------------------

 SCF Done:  E(RHF) =  -303.451689414     A.U. after    2 cycles

 The electronic state is 1-A.
 Alpha  occ. eigenvalues --  -21.10093 -15.74534 -15.70336 -11.48560 -11.40666
 Alpha  occ. eigenvalues --  -11.39745  -1.77602  -1.44136  -1.26725  -1.05153
 Alpha  occ. eigenvalues --   -0.97903  -0.76928  -0.70197  -0.65873  -0.64694
 Alpha  occ. eigenvalues --   -0.57665  -0.56340  -0.53450  -0.52946  -0.52632
 Alpha  occ. eigenvalues --   -0.45625  -0.38287  -0.34037  -0.30588
 Alpha virt. eigenvalues --    0.03392   0.05265   0.05561   0.05972   0.06295
 Alpha virt. eigenvalues --    0.06608   0.07336   0.08745   0.10381   0.12372
 Alpha virt. eigenvalues --    0.13361   0.13976   0.14362   0.15537   0.15832

 Mulliken charges:
               1
     1  C   -3.417911
     2  N   -2.416440
     3  C   -3.420035
     4  C    5.377428
     5  O   -2.869307
     6  N   -2.768584
     7  H    1.419043
     8  H    1.394576
     9  H    1.335186
    10  H    1.261755
    11  H    1.458940
    12  H    1.293332
    13  H    0.707505
    14  H    0.644513
 Sum of Mulliken charges =  -0.00000

 Dipole moment (field-independent basis, Debye):
    X=             -2.6709    Y=             -1.2309    Z=              0.0556  Tot=              2.9415

 Test job not archived.
 1\1\GINC-SE454\SP\RHF\Aug-CC-pVDZ\C3H8N2O1\OHZDE\09-Apr-2025\0\\#t hf
 aug-cc-pvdz iop(5/13=1,5/36=2,99/5=2) pseudo=read geom=check guess=(re
 ad,tcheck) scf=(maxcycle=1)\\title\\0,1\C,0,-1.18386042,-1.04153848,0.
 3152597\N,0,-0.23366083,-0.0644247,-0.21194154\C,0,-0.69152867,1.31475
 411,-0.24900205\C,0,1.13084681,-0.27918889,-0.10660932\O,0,1.42486712,
 -1.61078009,0.02151257\N,0,2.1073216,0.55863021,-0.15025336\H,0,-0.798
 87577,-2.0506889,0.156182\H,0,-1.37191427,-0.89965348,1.39457363\H,0,-
 2.13698353,-0.93843166,-0.22101492\H,0,-0.13669357,1.87586609,-1.01203

 Normal termination of Gaussian 16 at Wed Apr  9 17:06:20 2025.
