 Gaussian 16, Revision C.01,

 ----------------------------------------------------------------------
 #t hf aug-cc-pvdz symm=none int=(grid=ultrafine) guess=(read,tcheck) s
 table=(opt,rrhf)
 ----------------------------------------------------------------------
 -----
 title
 -----
 Symbolic Z-matrix:
 Charge =  0 Multiplicity = 1

 SCF Done:  E(RHF) =  -359.623520493     A.U. after   15 cycles
 Normal termination of Gaussian 16 at Wed Apr  9 19:33:53 2025.
 Gaussian 16:  ES64L-G16RevC.01  3-Jul-2019

 ----------------------------------------------------------------------
 #t hf aug-cc-pvdz iop(5/13=1,5/36=2,99/5=2) pseudo=read geom=check gue
 ss=(read,tcheck) scf=(maxcycle=1)
 ----------------------------------------------------------------------
 -----
 title
 -----
 Structure from the checkpoint file:  "Grambow2020_wb97xd3_009397_forward_mol1.chk"
 Charge =  0 Multiplicity = 1

                         Standard orientation:
 ---------------------------------------------------------------------
 Center     Atomic      Atomic             Coordinates (Angstroms)
 Number     Number       Type             X           Y           Z
 ---------------------------------------------------------------------
      1          8           0        1.693006   -0.377485   -0.881360
      2          6           0        1.016698    0.088235    0.189824
      3          6           0        0.688777    1.437129    0.239770
      4          8           0       -1.512160    1.001035   -0.127249
      5          6           0       -1.564753   -0.216975   -0.448632
      6          7           0       -0.835243   -1.222578   -0.002272
      7          6           0        0.157847   -0.864838    0.980810
      8          1           0        1.364532   -1.269024   -1.055211
      9          1           0        1.832840    0.861116    0.845758
     10          1           0        0.227126    1.820386    1.133795
     11          1           0        0.999614    2.105642   -0.554206
     12          1           0       -2.293832   -0.515172   -1.217923
     13          1           0       -0.237132   -0.347246    1.863166
     14          1           0        0.715363   -1.747361    1.298765
 ---------------------------------------------------------------------

 SCF Done:  E(RHF) =  -361.236987492     A.U. after    2 cycles

 The electronic state is 1-A.
 Alpha  occ. eigenvalues --  -21.13486 -20.98265 -15.66765 -11.56717 -11.50548
 Alpha  occ. eigenvalues --  -11.42676 -11.41400  -1.80858  -1.65553  -1.33924
 Alpha  occ. eigenvalues --   -1.22878  -1.01780  -0.86302  -0.75936  -0.72718
 Alpha  occ. eigenvalues --   -0.69095  -0.66341  -0.61452  -0.58664  -0.52576
 Alpha  occ. eigenvalues --   -0.51045  -0.48005  -0.43740  -0.39634  -0.32895
 Alpha  occ. eigenvalues --   -0.25908  -0.25089
 Alpha virt. eigenvalues --    0.02789   0.04611   0.04995   0.05021   0.06025
 Alpha virt. eigenvalues --    0.06508   0.07162   0.08547   0.10544   0.11784
 Alpha virt. eigenvalues --    0.13083   0.13405   0.13563   0.14376   0.14430

 Mulliken charges:
               1
     1  O   -3.734328
     2  C    2.677012
     3  C   -2.842790
     4  O   -2.620937
     5  C    2.262192
     6  N   -2.261360
     7  C   -2.861426
     8  H    0.831213
     9  H    1.245978
    10  H    1.610457
    11  H    1.371681
    12  H    1.743606
    13  H    1.302161
    14  H    1.276540
 Sum of Mulliken charges =  -0.00000

 Dipole moment (field-independent basis, Debye):
    X=              4.1832    Y=              2.3803    Z=              0.8172  Tot=              4.8819

 Test job not archived.
 1\1\GINC-SE231\SP\RHF\Aug-CC-pVDZ\C4H7N1O2\OHZDE\09-Apr-2025\0\\#t hf
 aug-cc-pvdz iop(5/13=1,5/36=2,99/5=2) pseudo=read geom=check guess=(re
 ad,tcheck) scf=(maxcycle=1)\\title\\0,1\O,0,-1.06132036,-0.57191053,1.
 47297026\C,0,-0.81832726,-0.05639141,0.24948424\C,0,-0.66898687,1.3185
 56,0.12003163\O,0,1.56639342,1.12497186,-0.2468567\C,0,1.84841413,-0.0
 7463079,0.0196394\N,0,1.12532045,-1.15976819,-0.18595893\C,0,-0.162930
 87,-0.9270519,-0.79168715\H,0,-0.60171885,-1.4203265,1.51677117\H,0,-1
 .87907279,0.613692,-0.09618574\H,0,-0.56234886,1.73250578,-0.8681796\H

 Normal termination of Gaussian 16 at Wed Apr  9 19:33:57 2025.
