 Gaussian 16, Revision C.01,

 ----------------------------------------------------------------------
 #t hf aug-cc-pvdz symm=none int=(grid=ultrafine) guess=(read,tcheck) s
 table=(opt,rrhf)
 ----------------------------------------------------------------------
 -----
 title
 -----
 Symbolic Z-matrix:
 Charge =  0 Multiplicity = 1

 SCF Done:  E(RHF) =  -359.720670442     A.U. after   14 cycles
 Normal termination of Gaussian 16 at Wed Apr  9 03:53:01 2025.
 Gaussian 16:  ES64L-G16RevC.01  3-Jul-2019

 ----------------------------------------------------------------------
 #t hf aug-cc-pvdz iop(5/13=1,5/36=2,99/5=2) pseudo=read geom=check gue
 ss=(read,tcheck) scf=(maxcycle=1)
 ----------------------------------------------------------------------
 -----
 title
 -----
 Structure from the checkpoint file:  "Grambow2020_wb97xd3_008363_reverse_mol2.chk"
 Charge =  0 Multiplicity = 1

                         Standard orientation:
 ---------------------------------------------------------------------
 Center     Atomic      Atomic             Coordinates (Angstroms)
 Number     Number       Type             X           Y           Z
 ---------------------------------------------------------------------
      1          8           0        1.796149   -1.965686    0.001833
      2          6           0        1.178658   -0.780708   -0.009848
      3          6           0       -3.403707   -0.367517    0.028445
      4          7           0       -2.148592   -0.450757   -0.030072
      5          6           0        1.857928    0.372743    0.022239
      6          6           0        1.155235    1.646932    0.009933
      7          8           0       -0.048604    1.805090   -0.025270
      8          1           0        1.143790   -2.669084   -0.023677
      9          1           0        0.091767   -0.801577   -0.046278
     10          1           0       -3.952798    0.578658    0.060364
     11          1           0       -4.002161   -1.279836    0.048790
     12          1           0       -1.702929    0.470168   -0.041364
     13          1           0        2.940436    0.375736    0.059316
     14          1           0        1.812993    2.537296    0.036235
 ---------------------------------------------------------------------

 SCF Done:  E(RHF) =  -361.305856505     A.U. after    2 cycles

 The electronic state is 1-A.
 Alpha  occ. eigenvalues --  -21.13241 -21.04280 -15.73889 -11.48913 -11.48037
 Alpha  occ. eigenvalues --  -11.42039 -11.38201  -1.78803  -1.69732  -1.32467
 Alpha  occ. eigenvalues --   -1.15311  -0.91561  -0.87161  -0.77940  -0.71935
 Alpha  occ. eigenvalues --   -0.66758  -0.62394  -0.57964  -0.56155  -0.52579
 Alpha  occ. eigenvalues --   -0.49841  -0.45625  -0.44943  -0.42548  -0.38673
 Alpha  occ. eigenvalues --   -0.29294  -0.28558
 Alpha virt. eigenvalues --    0.03648   0.04633   0.05027   0.05945   0.06382
 Alpha virt. eigenvalues --    0.07841   0.08960   0.10047   0.10517   0.11850
 Alpha virt. eigenvalues --    0.12572   0.12624   0.14245   0.14280   0.15447

 Mulliken charges:
               1
     1  O   -3.524214
     2  C    0.940202
     3  C   -1.195634
     4  N   -2.568921
     5  C   -1.306778
     6  C    1.243613
     7  O   -3.347065
     8  H    0.944764
     9  H    1.982529
    10  H    1.415455
    11  H    1.450737
    12  H    0.955552
    13  H    1.349081
    14  H    1.660676
 Sum of Mulliken charges =   0.00000

 Dipole moment (field-independent basis, Debye):
    X=             -0.8075    Y=             -1.4467    Z=              0.0570  Tot=              1.6578

 Test job not archived.
 1\1\GINC-SE398\SP\RHF\Aug-CC-pVDZ\C4H7N1O2\OHZDE\09-Apr-2025\0\\#t hf
 aug-cc-pvdz iop(5/13=1,5/36=2,99/5=2) pseudo=read geom=check guess=(re
 ad,tcheck) scf=(maxcycle=1)\\title\\0,1\O,0,-0.94784218,-2.53184012,-0
 .75842242\C,0,-0.11556814,-1.53145426,-0.45485577\C,0,-1.58980567,2.71
 661648,0.52022401\N,0,-1.15496266,1.57583846,0.21167412\C,0,1.20749129
 ,-1.71428714,-0.36013984\C,0,2.08678979,-0.60399118,-0.02613009\O,0,1.
 7482605,0.54151903,0.19451802\H,0,-1.85023691,-2.20574377,-0.77676904\
 H,0,-0.57006375,-0.55754239,-0.28745109\H,0,-0.95108233,3.55565903,0.8

 Normal termination of Gaussian 16 at Wed Apr  9 03:53:05 2025.
