 Gaussian 16, Revision C.01,

 ----------------------------------------------------------------------
 #t hf aug-cc-pvdz symm=none int=(grid=ultrafine) guess=(read,tcheck) s
 table=(opt,rrhf)
 ----------------------------------------------------------------------
 -----
 title
 -----
 Symbolic Z-matrix:
 Charge =  0 Multiplicity = 1

 SCF Done:  E(RHF) =  -283.614283220     A.U. after   15 cycles
 Normal termination of Gaussian 16 at Wed Apr  9 03:09:25 2025.
 Gaussian 16:  ES64L-G16RevC.01  3-Jul-2019

 ----------------------------------------------------------------------
 #t hf aug-cc-pvdz iop(5/13=1,5/36=2,99/5=2) pseudo=read geom=check gue
 ss=(read,tcheck) scf=(maxcycle=1)
 ----------------------------------------------------------------------
 -----
 title
 -----
 Structure from the checkpoint file:  "Grambow2020_b97d3_006659_reverse_mol2.chk"
 Charge =  0 Multiplicity = 1

                         Standard orientation:
 ---------------------------------------------------------------------
 Center     Atomic      Atomic             Coordinates (Angstroms)
 Number     Number       Type             X           Y           Z
 ---------------------------------------------------------------------
      1          7           0        0.659243   -1.113831   -0.043112
      2          6           0        1.554470   -0.166902    0.224388
      3          6           0        0.773577    1.137538   -0.014032
      4          6           0       -0.661881    0.765327   -0.377433
      5          6           0       -0.706245   -0.697775   -0.374465
      6          8           0       -1.341187    0.022605    0.678761
      7          1           0        1.269697    1.704159   -0.817684
      8          1           0        0.826117    1.762602    0.890127
      9          1           0       -1.307599    1.380419   -1.007991
     10          1           0       -1.317614   -1.356904   -0.993444
     11          1           0        0.884665   -2.103427    0.049935
 ---------------------------------------------------------------------

 SCF Done:  E(RHF) =  -284.890850605     A.U. after    2 cycles

 The electronic state is 1-A.
 Alpha  occ. eigenvalues --  -21.07272 -15.78963 -11.54140 -11.45776 -11.40718
 Alpha  occ. eigenvalues --  -11.37618  -1.80218  -1.42446  -1.12569  -0.98918
 Alpha  occ. eigenvalues --   -0.86321  -0.81837  -0.74282  -0.61328  -0.59408
 Alpha  occ. eigenvalues --   -0.54821  -0.52354  -0.50374  -0.41485  -0.37368
 Alpha  occ. eigenvalues --   -0.35497  -0.29401
 Alpha virt. eigenvalues --    0.03484   0.04860   0.05606   0.05964   0.06896
 Alpha virt. eigenvalues --    0.09225   0.09989   0.10769   0.11911   0.12754
 Alpha virt. eigenvalues --    0.13129   0.13532   0.14657   0.15530   0.16245

 Mulliken charges:
               1
     1  N   -2.223630
     2  C   -0.479881
     3  C   -2.258601
     4  C    0.190400
     5  C    1.019289
     6  O   -2.706266
     7  H    1.478256
     8  H    1.403098
     9  H    1.461093
    10  H    1.357050
    11  H    0.759192
 Sum of Mulliken charges =  -0.00000

 Dipole moment (field-independent basis, Debye):
    X=             -2.5648    Y=             -0.7031    Z=             -1.2166  Tot=              2.9245

 Test job not archived.
 1\1\GINC-SE054\SP\RHF\Aug-CC-pVDZ\C4H5N1O1\OHZDE\09-Apr-2025\0\\#t hf
 aug-cc-pvdz iop(5/13=1,5/36=2,99/5=2) pseudo=read geom=check guess=(re
 ad,tcheck) scf=(maxcycle=1)\\title\\0,1\N,0,0.74107767,1.02329619,-0.4
 1441628\C,0,1.5573327,-0.02258012,-0.51206104\C,0,0.79071286,-1.140538
 88,0.21640634\C,0,-0.5583692,-0.57571299,0.6546877\C,0,-0.56456237,0.8
 2195353,0.21979311\O,0,-1.3776668,-0.12673608,-0.4659411\H,0,1.3935850
 9,-1.48208134,1.07252714\H,0,0.68230016,-2.00447939,-0.45651475\H,0,-1
 .11119749,-0.93151195,1.52685838\H,0,-1.05218735,1.67548714,0.69419881

 Normal termination of Gaussian 16 at Wed Apr  9 03:09:28 2025.
