 Gaussian 16, Revision C.01,

 ----------------------------------------------------------------------
 #t hf aug-cc-pvdz symm=none int=(grid=ultrafine) guess=(read,tcheck) s
 table=(opt,rrhf)
 ----------------------------------------------------------------------
 -----
 title
 -----
 Symbolic Z-matrix:
 Charge =  0 Multiplicity = 1

 SCF Done:  E(RHF) =  -344.760531602     A.U. after   17 cycles

 1\1\GINC-SE364\Stability\RHF\Aug-CC-pVDZ\C5H10O2\OHZDE\09-Apr-2025\0\\
 #t hf aug-cc-pvdz symm=none int=(grid=ultrafine) guess=(read,tcheck) s
 table=(opt,rrhf)\\title\\0,1\C,0,-2.3758281,-0.55001382,-0.10714622\C,
 0,-0.97700656,-0.06082303,-0.511568\O,0,-1.12238623,1.15171832,-1.1792
 2316\C,0,-0.1755885,0.02951959,0.73145665\C,0,2.28104609,-0.56113193,0
 .52772935\C,0,2.32124677,0.76916663,0.19813715\O,0,1.31449359,1.439000
 22,-0.1736373\H,0,-2.34349788,-1.54466736,0.33767764\H,0,-2.83925524,0
 .14777604,0.59150587\H,0,-2.98745443,-0.58612515,-1.00821345\H,0,-0.53

 Normal termination of Gaussian 16 at Wed Apr  9 03:34:38 2025.
 Gaussian 16:  ES64L-G16RevC.01  3-Jul-2019

 ----------------------------------------------------------------------
 #t hf aug-cc-pvdz iop(5/13=1,5/36=2,99/5=2) pseudo=read geom=check gue
 ss=(read,tcheck) scf=(maxcycle=1)
 ----------------------------------------------------------------------
 -----
 title
 -----
 Structure from the checkpoint file:  "Grambow2020_wb97xd3_007098_forward_mol1.chk"
 Charge =  0 Multiplicity = 1

                         Standard orientation:
 ---------------------------------------------------------------------
 Center     Atomic      Atomic             Coordinates (Angstroms)
 Number     Number       Type             X           Y           Z
 ---------------------------------------------------------------------
      1          6           0       -2.543266   -0.686239    0.063246
      2          6           0       -1.187828   -0.072304   -0.318117
      3          8           0       -1.308489    1.312490   -0.247824
      4          6           0       -0.181855   -0.636210    0.612244
      5          6           0        2.123087   -1.063278   -0.352268
      6          6           0        2.254700    0.248601    0.024022
      7          8           0        1.280430    1.023770    0.248422
      8          1           0       -2.546877   -1.768908   -0.063495
      9          1           0       -2.800550   -0.438167    1.093806
     10          1           0       -3.299261   -0.251910   -0.590317
     11          1           0       -0.946509   -0.402214   -1.339898
     12          1           0       -0.403580    1.657510   -0.214508
     13          1           0       -0.030253   -0.155513    1.567881
     14          1           0       -0.069685   -1.710186    0.598973
     15          1           0        1.303762   -1.307425   -1.017747
     16          1           0        2.970117   -1.737918   -0.356404
     17          1           0        3.258278    0.681242    0.142166
 ---------------------------------------------------------------------

 SCF Done:  E(RHF) =  -346.350004997     A.U. after    2 cycles

 The electronic state is 1-A.
 Alpha  occ. eigenvalues --  -21.06346 -21.00317 -11.54123 -11.46861 -11.44014
 Alpha  occ. eigenvalues --  -11.40402 -11.34122  -1.73665  -1.66638  -1.20707
 Alpha  occ. eigenvalues --   -1.06289  -1.02768  -0.86586  -0.77818  -0.70761
 Alpha  occ. eigenvalues --   -0.66784  -0.63883  -0.62352  -0.56971  -0.53811
 Alpha  occ. eigenvalues --   -0.53723  -0.50865  -0.46837  -0.43981  -0.41518
 Alpha  occ. eigenvalues --   -0.32822  -0.29274  -0.23383
 Alpha virt. eigenvalues --    0.02216   0.04609   0.04904   0.05296   0.05591
 Alpha virt. eigenvalues --    0.05835   0.06214   0.07337   0.07909   0.08536
 Alpha virt. eigenvalues --    0.09099   0.10570   0.12820   0.12921   0.13796

 Mulliken charges:
               1
     1  C   -4.019279
     2  C    1.013794
     3  O   -3.330594
     4  C   -2.397453
     5  C   -3.351451
     6  C    1.524973
     7  O   -2.956073
     8  H    1.271667
     9  H    1.230661
    10  H    1.148618
    11  H    1.850608
    12  H    1.070236
    13  H    1.381011
    14  H    1.466442
    15  H    1.328185
    16  H    1.131039
    17  H    1.637617
 Sum of Mulliken charges =  -0.00000

 Dipole moment (field-independent basis, Debye):
    X=             -2.5706    Y=             -0.7841    Z=              0.7742  Tot=              2.7968

 Test job not archived.
 1\1\GINC-SE364\SP\RHF\Aug-CC-pVDZ\C5H10O2\OHZDE\09-Apr-2025\0\\#t hf a
 ug-cc-pvdz iop(5/13=1,5/36=2,99/5=2) pseudo=read geom=check guess=(rea
 d,tcheck) scf=(maxcycle=1)\\title\\0,1\C,0,-2.3758281,-0.55001382,-0.1
 0714622\C,0,-0.97700656,-0.06082303,-0.511568\O,0,-1.12238623,1.151718
 32,-1.17922316\C,0,-0.1755885,0.02951959,0.73145665\C,0,2.28104609,-0.
 56113193,0.52772935\C,0,2.32124677,0.76916663,0.19813715\O,0,1.3144935
 9,1.43900022,-0.1736373\H,0,-2.34349788,-1.54466736,0.33767764\H,0,-2.
 83925524,0.14777604,0.59150587\H,0,-2.98745443,-0.58612515,-1.00821345

 Normal termination of Gaussian 16 at Wed Apr  9 03:34:44 2025.
