 Gaussian 16, Revision C.01,

 ----------------------------------------------------------------------
 #t hf aug-cc-pvdz symm=none int=(grid=ultrafine) guess=(read,tcheck) s
 table=(opt,rrhf)
 ----------------------------------------------------------------------
 -----
 title
 -----
 Symbolic Z-matrix:
 Charge =  0 Multiplicity = 1

 SCF Done:  E(RHF) =  -321.301681687     A.U. after   19 cycles
 Normal termination of Gaussian 16 at Wed Apr  9 03:40:14 2025.
 Gaussian 16:  ES64L-G16RevC.01  3-Jul-2019

 ----------------------------------------------------------------------
 #t hf aug-cc-pvdz iop(5/13=1,5/36=2,99/5=2) pseudo=read geom=check gue
 ss=(read,tcheck) scf=(maxcycle=1)
 ----------------------------------------------------------------------
 -----
 title
 -----
 Structure from the checkpoint file:  "Grambow2020_wb97xd3_007506_forward_mol1.chk"
 Charge =  0 Multiplicity = 1

                         Standard orientation:
 ---------------------------------------------------------------------
 Center     Atomic      Atomic             Coordinates (Angstroms)
 Number     Number       Type             X           Y           Z
 ---------------------------------------------------------------------
      1          8           0        0.698296    1.842591    0.149590
      2          6           0        0.795750    0.682616   -0.061304
      3          6           0        1.884349   -0.359778    0.031918
      4          6           0        1.189043   -1.432371   -0.022925
      5          6           0       -0.207966   -0.398078   -0.393421
      6          6           0       -1.416357   -0.519199    0.593506
      7          7           0       -2.132618    0.131960   -0.383661
      8          1           0        1.119602   -2.502822    0.053924
      9          1           0       -0.373520   -0.554978   -1.454869
     10          1           0       -1.180418   -0.020110    1.536906
     11          1           0       -1.690970   -1.564021    0.736716
     12          1           0       -2.001644    1.138337   -0.270401
 ---------------------------------------------------------------------

 SCF Done:  E(RHF) =  -322.773824925     A.U. after    2 cycles

 The electronic state is 1-A.
 Alpha  occ. eigenvalues --  -21.09321 -15.77750 -11.54745 -11.49918 -11.48044
 Alpha  occ. eigenvalues --  -11.45000 -11.40697  -1.74711  -1.42444  -1.28343
 Alpha  occ. eigenvalues --   -0.99899  -0.93160  -0.87363  -0.73942  -0.68260
 Alpha  occ. eigenvalues --   -0.63592  -0.60386  -0.60057  -0.55462  -0.50035
 Alpha  occ. eigenvalues --   -0.47925  -0.42552  -0.38788  -0.32383  -0.27476
 Alpha virt. eigenvalues --    0.02805   0.03389   0.04992   0.05169   0.06199
 Alpha virt. eigenvalues --    0.06736   0.08343   0.09870   0.10649   0.11163
 Alpha virt. eigenvalues --    0.11430   0.12761   0.13391   0.14255   0.14484

 Mulliken charges:
               1
     1  O   -3.009178
     2  C    3.686383
     3  C   -1.213181
     4  C    0.076264
     5  C   -1.518358
     6  C   -2.034165
     7  N   -1.921731
     8  H    1.161369
     9  H    1.393124
    10  H    1.272873
    11  H    1.403237
    12  H    0.703363
 Sum of Mulliken charges =  -0.00000

 Dipole moment (field-independent basis, Debye):
    X=             -2.7810    Y=             -1.4284    Z=              0.6138  Tot=              3.1861

 Test job not archived.
 1\1\GINC-SE455\SP\RHF\Aug-CC-pVDZ\C5H5N1O1\OHZDE\09-Apr-2025\0\\#t hf
 aug-cc-pvdz iop(5/13=1,5/36=2,99/5=2) pseudo=read geom=check guess=(re
 ad,tcheck) scf=(maxcycle=1)\\title\\0,1\O,0,0.12818539,0.30409598,2.32
 975271\C,0,0.6663681,0.18775482,1.28269051\C,0,1.97744858,-0.3688141,0
 .7810711\C,0,1.72931507,-0.46516819,-0.47035208\C,0,0.21676774,0.40899
 251,-0.14369016\C,0,-1.09517774,-0.33663786,-0.55810378\N,0,-1.7017930
 8,0.88949738,-0.41491075\H,0,2.00982039,-0.80081482,-1.45282362\H,0,0.
 40382648,1.40601961,-0.53052752\H,0,-1.30351273,-1.14652917,0.14576612

 Normal termination of Gaussian 16 at Wed Apr  9 03:40:19 2025.
