 Gaussian 16, Revision C.01,

 ----------------------------------------------------------------------
 #t hf aug-cc-pvdz symm=none int=(grid=ultrafine) guess=(read,tcheck) s
 table=(opt,rrhf)
 ----------------------------------------------------------------------
 -----
 title
 -----
 Symbolic Z-matrix:
 Charge =  0 Multiplicity = 1

 SCF Done:  E(RHF) =  -339.915544162     A.U. after   14 cycles
 Normal termination of Gaussian 16 at Wed Apr  9 17:59:45 2025.
 Gaussian 16:  ES64L-G16RevC.01  3-Jul-2019

 ----------------------------------------------------------------------
 #t hf aug-cc-pvdz iop(5/13=1,5/36=2,99/5=2) pseudo=read geom=check gue
 ss=(read,tcheck) scf=(maxcycle=1)
 ----------------------------------------------------------------------
 -----
 title
 -----
 Structure from the checkpoint file:  "Grambow2020_wb97xd3_006540_forward_mol2.chk"
 Charge =  0 Multiplicity = 1

                         Standard orientation:
 ---------------------------------------------------------------------
 Center     Atomic      Atomic             Coordinates (Angstroms)
 Number     Number       Type             X           Y           Z
 ---------------------------------------------------------------------
      1          6           0       -1.143406    1.962991   -0.133752
      2          7           0       -0.109420    1.088864    0.399902
      3          6           0        0.038593   -0.171980   -0.301640
      4          6           0        1.345232   -0.841172    0.136602
      5          8           0        2.428926    0.000404   -0.137274
      6          6           0       -1.108124   -1.084264   -0.107434
      7          7           0       -2.004483   -1.774140    0.086529
      8          1           0       -2.139977    1.503345   -0.152106
      9          1           0       -1.189850    2.869299    0.469079
     10          1           0       -0.879102    2.252538   -1.152310
     11          1           0       -0.275212    0.910293    1.382895
     12          1           0        0.111867    0.043935   -1.371497
     13          1           0        1.492777   -1.771396   -0.413080
     14          1           0        1.279113   -1.088386    1.206024
     15          1           0        2.172531    0.880625    0.161508
 ---------------------------------------------------------------------

 SCF Done:  E(RHF) =  -341.479609362     A.U. after    2 cycles

 The electronic state is 1-A.
 Alpha  occ. eigenvalues --  -21.07793 -15.76787 -15.75553 -11.49864 -11.45204
 Alpha  occ. eigenvalues --  -11.42094 -11.40685  -1.73285  -1.43769  -1.30546
 Alpha  occ. eigenvalues --   -1.13541  -0.97760  -0.92002  -0.76011  -0.69618
 Alpha  occ. eigenvalues --   -0.66483  -0.62423  -0.58278  -0.57199  -0.54330
 Alpha  occ. eigenvalues --   -0.53872  -0.51383  -0.46573  -0.44876  -0.40902
 Alpha  occ. eigenvalues --   -0.36898  -0.33036
 Alpha virt. eigenvalues --    0.03490   0.04851   0.05099   0.06052   0.06143
 Alpha virt. eigenvalues --    0.06398   0.06975   0.08190   0.09987   0.10625
 Alpha virt. eigenvalues --    0.12076   0.12979   0.13516   0.13965   0.14421

 Mulliken charges:
               1
     1  C   -3.522068
     2  N   -2.031422
     3  C   -1.933021
     4  C   -0.267517
     5  O   -2.797191
     6  C    2.935145
     7  N   -2.561738
     8  H    1.437789
     9  H    1.264993
    10  H    1.386788
    11  H    0.623320
    12  H    1.936729
    13  H    1.311648
    14  H    1.362305
    15  H    0.854240
 Sum of Mulliken charges =  -0.00000

 Dipole moment (field-independent basis, Debye):
    X=              1.1469    Y=              2.4646    Z=              0.1122  Tot=              2.7207

 Test job not archived.
 1\1\GINC-SE030\SP\RHF\Aug-CC-pVDZ\C4H8N2O1\OHZDE\09-Apr-2025\0\\#t hf
 aug-cc-pvdz iop(5/13=1,5/36=2,99/5=2) pseudo=read geom=check guess=(re
 ad,tcheck) scf=(maxcycle=1)\\title\\0,1\C,0,-1.7670987,0.68909779,0.72
 812573\N,0,-0.39654547,0.20775971,0.81705983\C,0,0.21675446,-0.1114265
 9,-0.45800051\C,0,1.72605935,-0.28542185,-0.26076184\O,0,2.27780918,0.
 88713711,0.26680846\C,0,-0.36856018,-1.30589151,-1.10266945\N,0,-0.831
 53867,-2.25106778,-1.56016688\H,0,-2.44690134,-0.01259374,0.22786257\H
 ,0,-2.14323315,0.88096638,1.73244895\H,0,-1.78199269,1.63273505,0.1799

 Normal termination of Gaussian 16 at Wed Apr  9 17:59:51 2025.
