 Gaussian 16, Revision C.01,

 ----------------------------------------------------------------------
 #t hf aug-cc-pvdz symm=none int=(grid=ultrafine) guess=(read,tcheck) s
 table=(opt,rrhf)
 ----------------------------------------------------------------------
 -----
 title
 -----
 Symbolic Z-matrix:
 Charge =  0 Multiplicity = 1

 SCF Done:  E(RHF) =  -338.713746719     A.U. after   15 cycles
 Normal termination of Gaussian 16 at Wed Apr  9 03:28:15 2025.
 Gaussian 16:  ES64L-G16RevC.01  3-Jul-2019

 ----------------------------------------------------------------------
 #t hf aug-cc-pvdz iop(5/13=1,5/36=2,99/5=2) pseudo=read geom=check gue
 ss=(read,tcheck) scf=(maxcycle=1)
 ----------------------------------------------------------------------
 -----
 title
 -----
 Structure from the checkpoint file:  "Grambow2020_wb97xd3_006692_reverse_mol2.chk"
 Charge =  0 Multiplicity = 1

                         Standard orientation:
 ---------------------------------------------------------------------
 Center     Atomic      Atomic             Coordinates (Angstroms)
 Number     Number       Type             X           Y           Z
 ---------------------------------------------------------------------
      1          6           0        2.477009   -0.274023    0.389572
      2          6           0        1.116785    0.212083   -0.034714
      3          6           0       -0.032549   -0.715373    0.223654
      4          7           0       -1.017248   -0.934911   -0.933714
      5          6           0       -1.374325   -0.228430    0.032670
      6          7           0       -2.398712    0.464943    0.545040
      7          8           0        0.942449    1.286086   -0.557649
      8          1           0        3.230577    0.476875    0.164725
      9          1           0        2.479683   -0.495422    1.459996
     10          1           0        2.711517   -1.206407   -0.129936
     11          1           0        0.163306   -1.583337    0.850028
     12          1           0       -2.182615    1.145588    1.250478
     13          1           0       -3.151857    0.698255   -0.080478
 ---------------------------------------------------------------------

 SCF Done:  E(RHF) =  -340.240820604     A.U. after    2 cycles

 The electronic state is 1-A.
 Alpha  occ. eigenvalues --  -21.04623 -15.80787 -15.74557 -11.52220 -11.49064
 Alpha  occ. eigenvalues --  -11.43186 -11.38754  -1.71040  -1.49685  -1.33537
 Alpha  occ. eigenvalues --   -1.12726  -0.96690  -0.81436  -0.76158  -0.71386
 Alpha  occ. eigenvalues --   -0.66836  -0.62754  -0.59760  -0.56247  -0.52469
 Alpha  occ. eigenvalues --   -0.49361  -0.47039  -0.44090  -0.34981  -0.34364
 Alpha  occ. eigenvalues --   -0.28338
 Alpha virt. eigenvalues --    0.02970   0.04645   0.05391   0.05785   0.06361
 Alpha virt. eigenvalues --    0.06826   0.10200   0.11147   0.11283   0.12249
 Alpha virt. eigenvalues --    0.12579   0.13951   0.14297   0.14597   0.15750

 Mulliken charges:
               1
     1  C   -4.683394
     2  C    4.608352
     3  C   -3.101380
     4  N   -2.089237
     5  C    5.220532
     6  N   -3.402911
     7  O   -3.443578
     8  H    1.240636
     9  H    1.275120
    10  H    1.291063
    11  H    1.709822
    12  H    0.655354
    13  H    0.719621
 Sum of Mulliken charges =   0.00000

 Dipole moment (field-independent basis, Debye):
    X=             -1.3005    Y=              1.0716    Z=              2.2761  Tot=              2.8320

 Test job not archived.
 1\1\GINC-SE015\SP\RHF\Aug-CC-pVDZ\C4H6N2O1\OHZDE\09-Apr-2025\0\\#t hf
 aug-cc-pvdz iop(5/13=1,5/36=2,99/5=2) pseudo=read geom=check guess=(re
 ad,tcheck) scf=(maxcycle=1)\\title\\0,1\C,0,-2.21648938,0.4209719,-0.1
 4715741\C,0,-0.7511887,0.48026762,0.19329006\C,0,0.08628486,-0.6761949
 1,-0.26401607\N,0,1.04762737,-1.28398701,0.76736104\C,0,1.51907342,-0.
 58290463,-0.15282324\N,0,2.65734017,-0.12359253,-0.68764896\O,0,-0.260
 34887,1.39978611,0.80230446\H,0,-2.72349753,1.30923607,0.22189358\H,0,
 -2.34765713,0.33985949,-1.22930785\H,0,-2.65986189,-0.47405091,0.29621

 Normal termination of Gaussian 16 at Wed Apr  9 03:28:19 2025.
