 Gaussian 16, Revision C.01,

 ----------------------------------------------------------------------
 #t hf aug-cc-pvdz symm=none int=(grid=ultrafine) guess=(read,tcheck) s
 table=(opt,rrhf)
 ----------------------------------------------------------------------
 -----
 title
 -----
 Symbolic Z-matrix:
 Charge =  0 Multiplicity = 1

 SCF Done:  E(RHF) =  -269.634699190     A.U. after   14 cycles
 Normal termination of Gaussian 16 at Wed Apr  9 18:06:44 2025.
 Gaussian 16:  ES64L-G16RevC.01  3-Jul-2019

 ----------------------------------------------------------------------
 #t hf aug-cc-pvdz iop(5/13=1,5/36=2,99/5=2) pseudo=read geom=check gue
 ss=(read,tcheck) scf=(maxcycle=1)
 ----------------------------------------------------------------------
 -----
 title
 -----
 Structure from the checkpoint file:  "Grambow2020_wb97xd3_006592_reverse_mol2.chk"
 Charge =  0 Multiplicity = 1

                         Standard orientation:
 ---------------------------------------------------------------------
 Center     Atomic      Atomic             Coordinates (Angstroms)
 Number     Number       Type             X           Y           Z
 ---------------------------------------------------------------------
      1          6           0       -1.003669    1.783077   -0.026063
      2          6           0       -0.516668    0.355237   -0.305160
      3          6           0        0.636550   -0.015124    0.605495
      4          6           0        1.845306   -0.239383    0.184026
      5          6           0        3.050427   -0.467170   -0.247319
      6          6           0       -1.613500   -0.607051   -0.153038
      7          6           0       -2.516454   -1.380659   -0.010138
      8          1           0       -1.337876    1.877190    1.008500
      9          1           0       -0.192736    2.492534   -0.194638
     10          1           0       -1.839727    2.038076   -0.677911
     11          1           0       -0.163139    0.299912   -1.338022
     12          1           0        0.420583   -0.077784    1.668599
     13          1           0        3.365619   -1.467645   -0.520426
     14          1           0        3.772208    0.335642   -0.343851
     15          1           0       -3.316879   -2.071495    0.110933
 ---------------------------------------------------------------------

 SCF Done:  E(RHF) =  -270.958174176     A.U. after    2 cycles

 The electronic state is 1-A.
 Alpha  occ. eigenvalues --  -11.47489 -11.43161 -11.42416 -11.41281 -11.39963
 Alpha  occ. eigenvalues --  -11.39620 -11.37825  -1.29302  -1.14836  -1.05872
 Alpha  occ. eigenvalues --   -1.00457  -0.90030  -0.73545  -0.73197  -0.64774
 Alpha  occ. eigenvalues --   -0.61593  -0.60591  -0.57916  -0.54299  -0.51039
 Alpha  occ. eigenvalues --   -0.50397  -0.38091  -0.36752  -0.34625  -0.34217
 Alpha virt. eigenvalues --    0.03145   0.04781   0.05346   0.05776   0.06118
 Alpha virt. eigenvalues --    0.06625   0.07070   0.07400   0.09918   0.10328
 Alpha virt. eigenvalues --    0.10896   0.11026   0.11752   0.12829   0.13588

 Mulliken charges:
               1
     1  C   -3.848675
     2  C   -3.743002
     3  C   -0.632310
     4  C    2.698218
     5  C   -5.092364
     6  C    5.731018
     7  C   -4.963055
     8  H    1.319571
     9  H    1.301520
    10  H    1.219631
    11  H    1.380017
    12  H    1.357722
    13  H    1.279792
    14  H    1.258652
    15  H    0.733264
 Sum of Mulliken charges =   0.00000

 Dipole moment (field-independent basis, Debye):
    X=              0.2172    Y=              0.3484    Z=             -0.1067  Tot=              0.4242

 Test job not archived.
 1\1\GINC-SE135\SP\RHF\Aug-CC-pVDZ\C7H8\OHZDE\09-Apr-2025\0\\#t hf aug-
 cc-pvdz iop(5/13=1,5/36=2,99/5=2) pseudo=read geom=check guess=(read,t
 check) scf=(maxcycle=1)\\title\\0,1\C,0,-0.35502235,-1.865052,-0.08046
 512\C,0,-0.36165435,-0.40397547,0.38751447\C,0,0.30436049,0.49795083,-
 0.63195791\C,0,1.41554464,1.13577191,-0.41407023\C,0,2.52473683,1.7742
 1478,-0.18528117\C,0,-1.73120215,0.05123263,0.65077491\C,0,-2.85650632
 ,0.41110608,0.84672327\H,0,-0.88682597,-1.9649217,-1.02813683\H,0,0.67
 125077,-2.2062431,-0.22086141\H,0,-0.8448901,-2.50568201,0.65339184\H,

 Normal termination of Gaussian 16 at Wed Apr  9 18:06:49 2025.
