 Gaussian 16, Revision C.01,

 ----------------------------------------------------------------------
 #t hf aug-cc-pvdz symm=none int=(grid=ultrafine) guess=(read,tcheck) s
 table=(opt,rrhf)
 ----------------------------------------------------------------------
 -----
 title
 -----
 Symbolic Z-matrix:
 Charge =  0 Multiplicity = 1

 SCF Done:  E(RHF) =  -307.773280580     A.U. after   15 cycles

 1\1\GINC-SE212\Stability\RHF\Aug-CC-pVDZ\C6H10O1\OHZDE\09-Apr-2025\0\\
 #t hf aug-cc-pvdz symm=none int=(grid=ultrafine) guess=(read,tcheck) s
 table=(opt,rrhf)\\title\\0,1\C,0,2.52185287,-0.03955427,-0.92393418\C,
 0,1.35547029,-0.0987695,-0.04397076\C,0,0.3393915,0.90495052,-0.386741
 21\C,0,-1.08974929,0.56017612,-0.00416983\O,0,-1.53443751,-0.62112176,
 -0.69517861\C,0,-1.74581442,-1.3178626,0.54549947\C,0,-1.32867088,-0.0
 9292423,1.36268594\H,0,3.44110169,-0.42577057,-0.48432736\H,0,2.692339
 27,0.88884241,-1.48829978\H,0,2.20173615,-0.80363134,-1.65891872\H,0,-

 Normal termination of Gaussian 16 at Wed Apr  9 19:16:14 2025.
 Gaussian 16:  ES64L-G16RevC.01  3-Jul-2019

 ----------------------------------------------------------------------
 #t hf aug-cc-pvdz iop(5/13=1,5/36=2,99/5=2) pseudo=read geom=check gue
 ss=(read,tcheck) scf=(maxcycle=1)
 ----------------------------------------------------------------------
 -----
 title
 -----
 Structure from the checkpoint file:  "Grambow2020_wb97xd3_008501_reverse_mol2.chk"
 Charge =  0 Multiplicity = 1

                         Standard orientation:
 ---------------------------------------------------------------------
 Center     Atomic      Atomic             Coordinates (Angstroms)
 Number     Number       Type             X           Y           Z
 ---------------------------------------------------------------------
      1          6           0        2.821255   -0.474174    0.054657
      2          6           0        1.447176   -0.256577    0.505044
      3          6           0        0.795263    0.859142   -0.193200
      4          6           0       -0.719364    0.789497   -0.286616
      5          8           0       -1.133929   -0.367037   -1.035796
      6          6           0       -1.850841   -0.893958    0.094603
      7          6           0       -1.493630    0.322389    0.952029
      8          1           0        3.466762   -0.958338    0.787009
      9          1           0        3.329694    0.353872   -0.460439
     10          1           0        2.613703   -1.245545   -0.712415
     11          1           0       -0.869922    0.104598    1.816102
     12          1           0        1.073230    1.688899    0.486802
     13          1           0        1.230274    1.120321   -1.171525
     14          1           0       -1.104652    1.704311   -0.750211
     15          1           0       -1.423381   -1.841083    0.432076
     16          1           0       -2.912122   -1.026984   -0.131624
     17          1           0       -2.331307    0.958330    1.231488
 ---------------------------------------------------------------------

 SCF Done:  E(RHF) =  -309.230489604     A.U. after    2 cycles

 The electronic state is 1-A.
 Alpha  occ. eigenvalues --  -21.02367 -11.46485 -11.43431 -11.42076 -11.39715
 Alpha  occ. eigenvalues --  -11.37809 -11.36006  -1.76226  -1.23137  -1.10998
 Alpha  occ. eigenvalues --   -1.05192  -0.93604  -0.79961  -0.71961  -0.68528
 Alpha  occ. eigenvalues --   -0.63902  -0.61910  -0.58340  -0.57122  -0.55551
 Alpha  occ. eigenvalues --   -0.50928  -0.48730  -0.45079  -0.40720  -0.34441
 Alpha  occ. eigenvalues --   -0.31816  -0.28241
 Alpha virt. eigenvalues --    0.04141   0.04974   0.05191   0.05538   0.05705
 Alpha virt. eigenvalues --    0.06080   0.06382   0.07026   0.07230   0.08483
 Alpha virt. eigenvalues --    0.10061   0.10772   0.11862   0.12885   0.13291

 Mulliken charges:
               1
     1  C   -4.073591
     2  C   -0.023776
     3  C   -2.989356
     4  C    1.327178
     5  O   -2.774761
     6  C   -1.860661
     7  C   -3.389719
     8  H    1.321937
     9  H    1.219853
    10  H    1.267138
    11  H    1.547380
    12  H    1.430593
    13  H    1.497114
    14  H    1.341852
    15  H    1.572083
    16  H    1.399189
    17  H    1.187547
 Sum of Mulliken charges =   0.00000

 Dipole moment (field-independent basis, Debye):
    X=              0.8283    Y=              1.0591    Z=             -0.3867  Tot=              1.3990

 Test job not archived.
 1\1\GINC-SE212\SP\RHF\Aug-CC-pVDZ\C6H10O1\OHZDE\09-Apr-2025\0\\#t hf a
 ug-cc-pvdz iop(5/13=1,5/36=2,99/5=2) pseudo=read geom=check guess=(rea
 d,tcheck) scf=(maxcycle=1)\\title\\0,1\C,0,2.52185287,-0.03955427,-0.9
 2393418\C,0,1.35547029,-0.0987695,-0.04397076\C,0,0.3393915,0.90495052
 ,-0.38674121\C,0,-1.08974929,0.56017612,-0.00416983\O,0,-1.53443751,-0
 .62112176,-0.69517861\C,0,-1.74581442,-1.3178626,0.54549947\C,0,-1.328
 67088,-0.09292423,1.36268594\H,0,3.44110169,-0.42577057,-0.48432736\H,
 0,2.69233927,0.88884241,-1.48829978\H,0,2.20173615,-0.80363134,-1.6589

 Normal termination of Gaussian 16 at Wed Apr  9 19:16:20 2025.
