 Gaussian 16, Revision C.01,

 ----------------------------------------------------------------------
 #t hf aug-cc-pvdz symm=none int=(grid=ultrafine) guess=(read,tcheck) s
 table=(opt,rrhf)
 ----------------------------------------------------------------------
 -----
 title
 -----
 Symbolic Z-matrix:
 Charge =  0 Multiplicity = 1

 SCF Done:  E(RHF) =  -321.433410670     A.U. after   16 cycles
 Normal termination of Gaussian 16 at Wed Apr  9 03:40:13 2025.
 Gaussian 16:  ES64L-G16RevC.01  3-Jul-2019

 ----------------------------------------------------------------------
 #t hf aug-cc-pvdz iop(5/13=1,5/36=2,99/5=2) pseudo=read geom=check gue
 ss=(read,tcheck) scf=(maxcycle=1)
 ----------------------------------------------------------------------
 -----
 title
 -----
 Structure from the checkpoint file:  "Grambow2020_wb97xd3_007505_reverse_mol2.chk"
 Charge =  0 Multiplicity = 1

                         Standard orientation:
 ---------------------------------------------------------------------
 Center     Atomic      Atomic             Coordinates (Angstroms)
 Number     Number       Type             X           Y           Z
 ---------------------------------------------------------------------
      1          8           0        0.228000    1.653451    0.046374
      2          6           0        0.489493    0.480794   -0.014541
      3          6           0        1.901675   -0.006258    0.101395
      4          6           0        2.287375   -1.227703   -0.091646
      5          6           0       -0.548296   -0.572589   -0.198693
      6          6           0       -1.727569   -0.497368    0.708886
      7          7           0       -1.850488   -0.170365   -0.692238
      8          1           0        2.679756    0.720083    0.335726
      9          1           0       -0.180955   -1.540897   -0.528842
     10          1           0       -1.732435    0.308461    1.434401
     11          1           0       -2.198852   -1.421569    1.019337
     12          1           0       -1.854164    0.837622   -0.818363
 ---------------------------------------------------------------------

 SCF Done:  E(RHF) =  -322.862262646     A.U. after    2 cycles

 The electronic state is 1-A.
 Alpha  occ. eigenvalues --  -21.07970 -15.75723 -11.54616 -11.47988 -11.47542
 Alpha  occ. eigenvalues --  -11.42471 -11.41441  -1.74770  -1.47670  -1.20593
 Alpha  occ. eigenvalues --   -1.00618  -0.94125  -0.83167  -0.77108  -0.69469
 Alpha  occ. eigenvalues --   -0.64809  -0.59128  -0.54426  -0.53265  -0.47783
 Alpha  occ. eigenvalues --   -0.47015  -0.45371  -0.39679  -0.35777  -0.32258
 Alpha virt. eigenvalues --    0.03564   0.04070   0.05352   0.05969   0.06865
 Alpha virt. eigenvalues --    0.06908   0.08906   0.09259   0.09875   0.10868
 Alpha virt. eigenvalues --    0.11753   0.12398   0.13005   0.14455   0.15283

 Mulliken charges:
               1
     1  O   -3.737063
     2  C    4.121214
     3  C    0.421760
     4  C   -2.519414
     5  C   -0.674352
     6  C   -2.176879
     7  N   -2.160893
     8  H    1.682534
     9  H    1.765409
    10  H    1.286131
    11  H    1.284135
    12  H    0.707418
 Sum of Mulliken charges =   0.00000

 Dipole moment (field-independent basis, Debye):
    X=             -0.3569    Y=              1.4408    Z=              1.0855  Tot=              1.8389

 Test job not archived.
 1\1\GINC-SE070\SP\RHF\Aug-CC-pVDZ\C5H5N1O1\OHZDE\09-Apr-2025\0\\#t hf
 aug-cc-pvdz iop(5/13=1,5/36=2,99/5=2) pseudo=read geom=check guess=(re
 ad,tcheck) scf=(maxcycle=1)\\title\\0,1\O,0,0.58442841,0.04973544,1.74
 921747\C,0,0.73809718,0.12110285,0.55820662\C,0,2.09377514,-0.0366189,
 -0.05999928\C,0,2.3713791,0.16319011,-1.30938641\C,0,-0.38541918,0.359
 68541,-0.39117321\C,0,-1.58530163,-0.50663396,-0.21850105\N,0,-1.62559
 707,0.89225485,0.13741341\H,0,2.92669706,-0.31061533,0.58735001\H,0,-0
 .09754779,0.69287942,-1.3849892\H,0,-1.54216139,-1.24500504,0.57440705

 Normal termination of Gaussian 16 at Wed Apr  9 03:40:17 2025.
