 Gaussian 16, Revision C.01,

 ----------------------------------------------------------------------
 #t hf aug-cc-pvdz symm=none int=(grid=ultrafine) guess=(read,tcheck) s
 table=(opt,rrhf)
 ----------------------------------------------------------------------
 -----
 title
 -----
 Symbolic Z-matrix:
 Charge =  0 Multiplicity = 1

 SCF Done:  E(RHF) =  -322.465845550     A.U. after   15 cycles
 Normal termination of Gaussian 16 at Wed Apr  9 18:02:06 2025.
 Gaussian 16:  ES64L-G16RevC.01  3-Jul-2019

 ----------------------------------------------------------------------
 #t hf aug-cc-pvdz iop(5/13=1,5/36=2,99/5=2) pseudo=read geom=check gue
 ss=(read,tcheck) scf=(maxcycle=1)
 ----------------------------------------------------------------------
 -----
 title
 -----
 Structure from the checkpoint file:  "Grambow2020_wb97xd3_006556_reverse_mol1.chk"
 Charge =  0 Multiplicity = 1

                         Standard orientation:
 ---------------------------------------------------------------------
 Center     Atomic      Atomic             Coordinates (Angstroms)
 Number     Number       Type             X           Y           Z
 ---------------------------------------------------------------------
      1          8           0       -2.243407   -0.207858    0.277537
      2          6           0       -1.118665    0.169991   -0.450454
      3          6           0        0.040730    0.891982    0.244366
      4          6           0        0.370422   -0.406946    1.043726
      5          6           0        2.042477   -0.046780    0.130362
      6          7           0        0.973720    0.324673   -0.813928
      7          6           0        0.039556   -0.813912   -0.426667
      8          1           0       -2.817896    0.551544    0.386126
      9          1           0       -1.348637    0.560586   -1.447835
     10          1           0        0.121579    1.929621    0.568138
     11          1           0        1.522771   -0.517005    1.325375
     12          1           0        2.646867    0.791489    0.477990
     13          1           0        2.645958   -0.898796   -0.183542
     14          1           0        0.113456   -1.793295   -0.897049
 ---------------------------------------------------------------------

 SCF Done:  E(RHF) =  -323.965703087     A.U. after    2 cycles

 The electronic state is 1-A.
 Alpha  occ. eigenvalues --  -21.07875 -15.73174 -11.51674 -11.46198 -11.45487
 Alpha  occ. eigenvalues --  -11.43633 -11.38578  -1.74338  -1.57625  -1.14011
 Alpha  occ. eigenvalues --   -1.01348  -0.94740  -0.89929  -0.73712  -0.71440
 Alpha  occ. eigenvalues --   -0.66429  -0.64204  -0.56859  -0.53078  -0.49434
 Alpha  occ. eigenvalues --   -0.45705  -0.43216  -0.42536  -0.40003  -0.31797
 Alpha  occ. eigenvalues --   -0.24129
 Alpha virt. eigenvalues --    0.03685   0.04838   0.05130   0.05479   0.06018
 Alpha virt. eigenvalues --    0.06581   0.07042   0.09991   0.11419   0.11984
 Alpha virt. eigenvalues --    0.12444   0.12760   0.13065   0.13936   0.14108

 Mulliken charges:
               1
     1  O   -3.124243
     2  C    1.815308
     3  C   -1.560941
     4  C   -0.793621
     5  C   -2.330820
     6  N   -1.287855
     7  C   -1.898331
     8  H    0.715282
     9  H    1.542169
    10  H    1.246985
    11  H    1.624698
    12  H    1.364108
    13  H    1.379207
    14  H    1.308054
 Sum of Mulliken charges =  -0.00000

 Dipole moment (field-independent basis, Debye):
    X=              1.1829    Y=              0.9508    Z=             -0.9921  Tot=              1.8131

 Test job not archived.
 1\1\GINC-SE114\SP\RHF\Aug-CC-pVDZ\C5H7N1O1\OHZDE\09-Apr-2025\0\\#t hf
 aug-cc-pvdz iop(5/13=1,5/36=2,99/5=2) pseudo=read geom=check guess=(re
 ad,tcheck) scf=(maxcycle=1)\\title\\0,1\O,0,2.45484988,0.14692165,0.27
 402483\C,0,1.28160105,0.3996138,-0.43125476\C,0,0.20427649,-0.68411264
 ,-0.54593263\C,0,-0.08786048,-0.55517909,0.98145731\C,0,-1.82256073,-0
 .19071379,0.19551849\N,0,-0.82974373,0.41915733,-0.70685281\C,0,0.1056
 1153,0.88159556,0.40232245\H,0,3.05520247,-0.35198722,-0.2820225\H,0,1
 .43490339,0.97011856,-1.35388274\H,0,0.17724396,-1.57642797,-1.1713138

 Normal termination of Gaussian 16 at Wed Apr  9 18:02:11 2025.
