 Gaussian 16, Revision C.01,

 ----------------------------------------------------------------------
 #t hf aug-cc-pvdz symm=none int=(grid=ultrafine) guess=(read,tcheck) s
 table=(opt,rrhf)
 ----------------------------------------------------------------------
 -----
 title
 -----
 Symbolic Z-matrix:
 Charge =  0 Multiplicity = 1

 SCF Done:  E(RHF) =  -283.615190345     A.U. after   16 cycles
 Normal termination of Gaussian 16 at Wed Apr  9 03:09:25 2025.
 Gaussian 16:  ES64L-G16RevC.01  3-Jul-2019

 ----------------------------------------------------------------------
 #t hf aug-cc-pvdz iop(5/13=1,5/36=2,99/5=2) pseudo=read geom=check gue
 ss=(read,tcheck) scf=(maxcycle=1)
 ----------------------------------------------------------------------
 -----
 title
 -----
 Structure from the checkpoint file:  "Grambow2020_b97d3_006658_reverse_mol2.chk"
 Charge =  0 Multiplicity = 1

                         Standard orientation:
 ---------------------------------------------------------------------
 Center     Atomic      Atomic             Coordinates (Angstroms)
 Number     Number       Type             X           Y           Z
 ---------------------------------------------------------------------
      1          7           0       -1.487048    0.117250   -0.094110
      2          6           0       -0.659251    1.000946   -0.298019
      3          6           0        0.782311    0.994207    0.139093
      4          6           0        1.373035   -0.402591    0.290937
      5          6           0       -2.485220   -0.690302    0.029832
      6          8           0        2.398050   -0.772661   -0.247640
      7          1           0        0.802079    1.492911    1.124720
      8          1           0        1.402389    1.592167   -0.539646
      9          1           0        0.756869   -1.087440    0.921620
     10          1           0       -3.136377   -0.608393    0.898295
     11          1           0       -2.665270   -1.442271   -0.736157
 ---------------------------------------------------------------------

 SCF Done:  E(RHF) =  -284.884051814     A.U. after    2 cycles

 The electronic state is 1-A.
 Alpha  occ. eigenvalues --  -21.07486 -15.83983 -11.49154 -11.45514 -11.43532
 Alpha  occ. eigenvalues --  -11.40957  -1.71148  -1.44523  -1.16996  -1.01766
 Alpha  occ. eigenvalues --   -0.84622  -0.74393  -0.67417  -0.65498  -0.62261
 Alpha  occ. eigenvalues --   -0.59716  -0.52906  -0.51069  -0.44469  -0.43610
 Alpha  occ. eigenvalues --   -0.32927  -0.27150
 Alpha virt. eigenvalues --    0.02943   0.04845   0.05369   0.05927   0.06760
 Alpha virt. eigenvalues --    0.08423   0.09745   0.10717   0.10758   0.12047
 Alpha virt. eigenvalues --    0.12624   0.12971   0.13650   0.15053   0.15722

 Mulliken charges:
               1
     1  N   -2.385124
     2  C    0.658158
     3  C   -3.013780
     4  C    1.798390
     5  C   -1.565876
     6  O   -2.728054
     7  H    1.496126
     8  H    1.411343
     9  H    1.443311
    10  H    1.426236
    11  H    1.459270
 Sum of Mulliken charges =  -0.00000

 Dipole moment (field-independent basis, Debye):
    X=             -0.8970    Y=             -0.8311    Z=              1.3206  Tot=              1.7998

 Test job not archived.
 1\1\GINC-SE036\SP\RHF\Aug-CC-pVDZ\C4H5N1O1\OHZDE\09-Apr-2025\0\\#t hf
 aug-cc-pvdz iop(5/13=1,5/36=2,99/5=2) pseudo=read geom=check guess=(re
 ad,tcheck) scf=(maxcycle=1)\\title\\0,1\N,0,0.4468393,1.09764894,-0.37
 887393\C,0,0.98760063,0.02034662,-0.61284031\C,0,0.62188644,-1.3126893
 8,-0.01410551\C,0,-0.83828196,-1.41718239,0.41020956\C,0,0.01485845,2.
 30669675,-0.25459151\O,0,-1.59054712,-2.30378274,0.05565405\H,0,1.2571
 5854,-1.42626658,0.88260306\H,0,0.87404555,-2.13334618,-0.69651087\H,0
 ,-1.18149134,-0.57569085,1.05870052\H,0,0.44233454,2.95272193,0.510169

 Normal termination of Gaussian 16 at Wed Apr  9 03:09:29 2025.
