 Gaussian 16, Revision C.01,

 ----------------------------------------------------------------------
 #t hf aug-cc-pvdz symm=none int=(grid=ultrafine) guess=(read,tcheck) s
 table=(opt,rrhf)
 ----------------------------------------------------------------------
 -----
 title
 -----
 Symbolic Z-matrix:
 Charge =  0 Multiplicity = 1

 SCF Done:  E(RHF) =  -307.777629837     A.U. after   15 cycles

 1\1\GINC-SE340\Stability\RHF\Aug-CC-pVDZ\C6H10O1\OHZDE\09-Apr-2025\0\\
 #t hf aug-cc-pvdz symm=none int=(grid=ultrafine) guess=(read,tcheck) s
 table=(opt,rrhf)\\title\\0,1\C,0,1.86682546,-0.44972923,-0.54717837\C,
 0,0.48562358,-0.69628516,-0.06555836\C,0,-0.10189081,-0.83133181,1.131
 66287\C,0,-1.48307757,-1.07420182,0.55950845\C,0,-0.80218569,-0.909317
 01,-0.83280952\C,0,-0.08305334,2.6728936,-0.37249163\O,0,-0.30715751,2
 .28528427,0.84459932\H,0,1.89202241,0.46381712,-1.14572083\H,0,2.19838
 334,-1.27223989,-1.18618208\H,0,2.56850161,-0.34892109,0.28160785\H,0,

 Normal termination of Gaussian 16 at Wed Apr  9 18:51:46 2025.
 Gaussian 16:  ES64L-G16RevC.01  3-Jul-2019

 ----------------------------------------------------------------------
 #t hf aug-cc-pvdz iop(5/13=1,5/36=2,99/5=2) pseudo=read geom=check gue
 ss=(read,tcheck) scf=(maxcycle=1)
 ----------------------------------------------------------------------
 -----
 title
 -----
 Structure from the checkpoint file:  "Grambow2020_wb97xd3_007728_reverse_mol2.chk"
 Charge =  0 Multiplicity = 1

                         Standard orientation:
 ---------------------------------------------------------------------
 Center     Atomic      Atomic             Coordinates (Angstroms)
 Number     Number       Type             X           Y           Z
 ---------------------------------------------------------------------
      1          6           0       -0.595952    2.029010   -0.112607
      2          6           0       -0.860504    0.569569   -0.090053
      3          6           0       -0.949657   -0.402388   -1.008803
      4          6           0       -1.267328   -1.488608   -0.002208
      5          6           0       -1.155907   -0.360559    1.067578
      6          6           0        2.467189    0.109391    0.605407
      7          8           0        2.138735   -0.526994   -0.475752
      8          1           0        0.284341    2.254511    0.493765
      9          1           0       -1.440615    2.574450    0.316137
     10          1           0       -0.428094    2.390483   -1.127772
     11          1           0       -0.874357   -0.403422   -2.091336
     12          1           0       -0.531287   -2.289971    0.095084
     13          1           0       -2.259095   -1.935868   -0.090644
     14          1           0       -2.083558   -0.146450    1.603017
     15          1           0       -0.343388   -0.471310    1.787828
     16          1           0        3.556164   -0.106376    0.706772
     17          1           0        1.182970   -0.388595   -0.642715
 ---------------------------------------------------------------------

 SCF Done:  E(RHF) =  -309.249849167     A.U. after    2 cycles

 The electronic state is 1-A.
 Alpha  occ. eigenvalues --  -21.13299 -11.48151 -11.42028 -11.41090 -11.40302
 Alpha  occ. eigenvalues --  -11.38307 -11.35519  -1.77927  -1.35033  -1.08501
 Alpha  occ. eigenvalues --   -0.94504  -0.90062  -0.86805  -0.72619  -0.64516
 Alpha  occ. eigenvalues --   -0.63891  -0.58883  -0.58703  -0.56669  -0.56093
 Alpha  occ. eigenvalues --   -0.50214  -0.47206  -0.45688  -0.43695  -0.41224
 Alpha  occ. eigenvalues --   -0.34837  -0.30817
 Alpha virt. eigenvalues --    0.03980   0.04885   0.05333   0.05549   0.05818
 Alpha virt. eigenvalues --    0.06189   0.06630   0.07327   0.07504   0.09516
 Alpha virt. eigenvalues --    0.11029   0.11282   0.12306   0.12771   0.13624

 Mulliken charges:
               1
     1  C   -4.885881
     2  C    4.028414
     3  C   -2.366124
     4  C   -3.474973
     5  C   -3.445450
     6  C   -0.886025
     7  O   -2.578158
     8  H    1.228206
     9  H    1.109468
    10  H    1.306848
    11  H    1.218049
    12  H    1.243484
    13  H    1.232145
    14  H    1.084230
    15  H    1.362298
    16  H    1.561754
    17  H    2.261715
 Sum of Mulliken charges =   0.00000

 Dipole moment (field-independent basis, Debye):
    X=             -0.7020    Y=             -0.5928    Z=             -1.3836  Tot=              1.6609

 Test job not archived.
 1\1\GINC-SE340\SP\RHF\Aug-CC-pVDZ\C6H10O1\OHZDE\09-Apr-2025\0\\#t hf a
 ug-cc-pvdz iop(5/13=1,5/36=2,99/5=2) pseudo=read geom=check guess=(rea
 d,tcheck) scf=(maxcycle=1)\\title\\0,1\C,0,1.86682546,-0.44972923,-0.5
 4717837\C,0,0.48562358,-0.69628516,-0.06555836\C,0,-0.10189081,-0.8313
 3181,1.13166287\C,0,-1.48307757,-1.07420182,0.55950845\C,0,-0.80218569
 ,-0.90931701,-0.83280952\C,0,-0.08305334,2.6728936,-0.37249163\O,0,-0.
 30715751,2.28528427,0.84459932\H,0,1.89202241,0.46381712,-1.14572083\H
 ,0,2.19838334,-1.27223989,-1.18618208\H,0,2.56850161,-0.34892109,0.281

 Normal termination of Gaussian 16 at Wed Apr  9 18:51:51 2025.
