 Gaussian 16, Revision C.01,

 ----------------------------------------------------------------------
 #t hf aug-cc-pvdz symm=none int=(grid=ultrafine) guess=(read,tcheck) s
 table=(opt,rrhf)
 ----------------------------------------------------------------------
 -----
 title
 -----
 Symbolic Z-matrix:
 Charge =  0 Multiplicity = 1

 SCF Done:  E(RHF) =  -307.909318110     A.U. after   13 cycles

 1\1\GINC-SE112\Stability\RHF\Aug-CC-pVDZ\C6H10O1\OHZDE\09-Apr-2025\0\\
 #t hf aug-cc-pvdz symm=none int=(grid=ultrafine) guess=(read,tcheck) s
 table=(opt,rrhf)\\title\\0,1\C,0,2.0434661,-0.07251394,0.05838036\C,0,
 0.62103887,-0.45662654,-0.32000195\C,0,-0.19041609,-1.11295128,0.77213
 234\C,0,-1.46448271,-0.7434214,0.72692367\C,0,-1.71054505,0.22411211,-
 0.40256963\C,0,-0.29325912,0.72353874,-0.73284898\O,0,0.00595836,1.913
 7868,-0.02865756\H,0,2.0628525,0.58171962,0.93080721\H,0,2.53773131,0.
 45455069,-0.75936284\H,0,2.63105486,-0.96283648,0.29189909\H,0,0.22983

 Normal termination of Gaussian 16 at Wed Apr  9 18:52:53 2025.
 Gaussian 16:  ES64L-G16RevC.01  3-Jul-2019

 ----------------------------------------------------------------------
 #t hf aug-cc-pvdz iop(5/13=1,5/36=2,99/5=2) pseudo=read geom=check gue
 ss=(read,tcheck) scf=(maxcycle=1)
 ----------------------------------------------------------------------
 -----
 title
 -----
 Structure from the checkpoint file:  "Grambow2020_wb97xd3_007739_reverse_mol2.chk"
 Charge =  0 Multiplicity = 1

                         Standard orientation:
 ---------------------------------------------------------------------
 Center     Atomic      Atomic             Coordinates (Angstroms)
 Number     Number       Type             X           Y           Z
 ---------------------------------------------------------------------
      1          6           0       -2.118770   -0.317419   -0.021779
      2          6           0       -0.694822   -0.457934    0.494597
      3          6           0        0.187600   -1.412226   -0.275232
      4          6           0        1.439920   -0.977466   -0.342461
      5          6           0        1.596756    0.341816    0.369805
      6          6           0        0.145778    0.842885    0.473747
      7          8           0       -0.183372    1.684178   -0.615286
      8          1           0       -2.136630   -0.019652   -1.070846
      9          1           0       -2.668088    0.436931    0.543911
     10          1           0       -2.653880   -1.265029    0.068540
     11          1           0       -0.171443   -2.350715   -0.681723
     12          1           0        2.261643   -1.505554   -0.810105
     13          1           0       -0.740052   -0.801974    1.536890
     14          1           0        2.035057    0.191696    1.362925
     15          1           0        2.226585    1.064708   -0.152686
     16          1           0       -0.027926    1.451258    1.362040
     17          1           0        0.002935    1.206975   -1.428730
 ---------------------------------------------------------------------

 SCF Done:  E(RHF) =  -309.389407445     A.U. after    2 cycles

 The electronic state is 1-A.
 Alpha  occ. eigenvalues --  -21.05862 -11.46418 -11.45160 -11.40447 -11.39443
 Alpha  occ. eigenvalues --  -11.38110 -11.34793  -1.71446  -1.31745  -1.11085
 Alpha  occ. eigenvalues --   -1.01658  -0.94446  -0.80675  -0.76289  -0.70235
 Alpha  occ. eigenvalues --   -0.63064  -0.60016  -0.57145  -0.55928  -0.51688
 Alpha  occ. eigenvalues --   -0.49104  -0.46883  -0.45295  -0.44076  -0.39013
 Alpha  occ. eigenvalues --   -0.33420  -0.30120
 Alpha virt. eigenvalues --    0.03930   0.04950   0.05016   0.05332   0.05582
 Alpha virt. eigenvalues --    0.06252   0.06495   0.07226   0.08168   0.09127
 Alpha virt. eigenvalues --    0.11489   0.11944   0.12579   0.13529   0.13935

 Mulliken charges:
               1
     1  C   -3.790485
     2  C   -2.509605
     3  C   -0.715033
     4  C   -0.017973
     5  C   -4.331519
     6  C    1.866859
     7  O   -3.438580
     8  H    1.351947
     9  H    1.202623
    10  H    1.144668
    11  H    1.512187
    12  H    1.350077
    13  H    1.516020
    14  H    1.219384
    15  H    1.193627
    16  H    1.717123
    17  H    0.728679
 Sum of Mulliken charges =  -0.00000

 Dipole moment (field-independent basis, Debye):
    X=              0.2855    Y=             -0.6354    Z=              0.2477  Tot=              0.7394

 Test job not archived.
 1\1\GINC-SE112\SP\RHF\Aug-CC-pVDZ\C6H10O1\OHZDE\09-Apr-2025\0\\#t hf a
 ug-cc-pvdz iop(5/13=1,5/36=2,99/5=2) pseudo=read geom=check guess=(rea
 d,tcheck) scf=(maxcycle=1)\\title\\0,1\C,0,2.0434661,-0.07251394,0.058
 38036\C,0,0.62103887,-0.45662654,-0.32000195\C,0,-0.19041609,-1.112951
 28,0.77213234\C,0,-1.46448271,-0.7434214,0.72692367\C,0,-1.71054505,0.
 22411211,-0.40256963\C,0,-0.29325912,0.72353874,-0.73284898\O,0,0.0059
 5836,1.9137868,-0.02865756\H,0,2.0628525,0.58171962,0.93080721\H,0,2.5
 3773131,0.45455069,-0.75936284\H,0,2.63105486,-0.96283648,0.29189909\H

 Normal termination of Gaussian 16 at Wed Apr  9 18:52:59 2025.
