 Gaussian 16, Revision C.01,

 ----------------------------------------------------------------------
 #t hf aug-cc-pvdz symm=none int=(grid=ultrafine) guess=(read,tcheck) s
 table=(opt,rrhf)
 ----------------------------------------------------------------------
 -----
 title
 -----
 Symbolic Z-matrix:
 Charge =  0 Multiplicity = 1

 SCF Done:  E(RHF) =  -359.773083896     A.U. after   14 cycles
 Normal termination of Gaussian 16 at Wed Apr  9 19:10:50 2025.
 Gaussian 16:  ES64L-G16RevC.01  3-Jul-2019

 ----------------------------------------------------------------------
 #t hf aug-cc-pvdz iop(5/13=1,5/36=2,99/5=2) pseudo=read geom=check gue
 ss=(read,tcheck) scf=(maxcycle=1)
 ----------------------------------------------------------------------
 -----
 title
 -----
 Structure from the checkpoint file:  "Grambow2020_wb97xd3_008270_reverse_mol2.chk"
 Charge =  0 Multiplicity = 1

                         Standard orientation:
 ---------------------------------------------------------------------
 Center     Atomic      Atomic             Coordinates (Angstroms)
 Number     Number       Type             X           Y           Z
 ---------------------------------------------------------------------
      1          6           0       -1.655164   -0.256648    1.186581
      2          6           0       -1.363711    0.016480   -0.273930
      3          6           0       -0.410486    1.193858   -0.486740
      4          7           0        0.884662    0.992227    0.103342
      5          6           0        1.678506    0.092711    0.138190
      6          8           0        2.536505   -0.688131    0.246318
      7          8           0       -0.823932   -1.173776   -0.820060
      8          1           0       -0.739999   -0.521034    1.717409
      9          1           0       -2.352995   -1.088669    1.275462
     10          1           0       -2.093259    0.620854    1.664456
     11          1           0       -2.300939    0.276103   -0.786164
     12          1           0       -0.846516    2.096541   -0.055539
     13          1           0       -0.288543    1.377652   -1.559723
     14          1           0       -0.765841   -1.090185   -1.773967
 ---------------------------------------------------------------------

 SCF Done:  E(RHF) =  -361.374310189     A.U. after    2 cycles

 The electronic state is 1-A.
 Alpha  occ. eigenvalues --  -21.10660 -21.08199 -15.75365 -11.56985 -11.47487
 Alpha  occ. eigenvalues --  -11.43961 -11.37450  -1.75772  -1.73542  -1.40439
 Alpha  occ. eigenvalues --   -1.15994  -1.03340  -0.86485  -0.72070  -0.67561
 Alpha  occ. eigenvalues --   -0.66194  -0.63370  -0.59419  -0.57371  -0.55588
 Alpha  occ. eigenvalues --   -0.52794  -0.50823  -0.48493  -0.41791  -0.36279
 Alpha  occ. eigenvalues --   -0.33384  -0.31230
 Alpha virt. eigenvalues --    0.03156   0.05040   0.05116   0.05538   0.05710
 Alpha virt. eigenvalues --    0.06699   0.07498   0.09238   0.10569   0.11959
 Alpha virt. eigenvalues --    0.12807   0.13153   0.13758   0.14511   0.14594

 Mulliken charges:
               1
     1  C   -3.610780
     2  C    0.690829
     3  C   -1.896206
     4  N   -2.460920
     5  C    3.952027
     6  O   -2.661291
     7  O   -2.948153
     8  H    1.359785
     9  H    1.172701
    10  H    1.240868
    11  H    1.599366
    12  H    1.448779
    13  H    1.410181
    14  H    0.702814
 Sum of Mulliken charges =  -0.00000

 Dipole moment (field-independent basis, Debye):
    X=             -1.7725    Y=             -0.0447    Z=             -1.0557  Tot=              2.0636

 Test job not archived.
 1\1\GINC-SE362\SP\RHF\Aug-CC-pVDZ\C4H7N1O2\OHZDE\09-Apr-2025\0\\#t hf
 aug-cc-pvdz iop(5/13=1,5/36=2,99/5=2) pseudo=read geom=check guess=(re
 ad,tcheck) scf=(maxcycle=1)\\title\\0,1\C,0,-1.30729635,-0.93087601,0.
 12322637\C,0,-0.44094429,-0.02226312,-0.72323261\C,0,0.09107468,1.1884
 9455,0.0456406\N,0,0.92835825,0.83353772,1.15884414\C,0,1.83344861,0.0
 6599408,1.33834139\O,0,2.71995808,-0.62345807,1.64870317\O,0,0.6250573
 4,-0.81030377,-1.22219083\H,0,-0.73431636,-1.34105467,0.95548492\H,0,-
 1.6732713,-1.76093697,-0.48025458\H,0,-2.1626906,-0.38579389,0.5250806

 Normal termination of Gaussian 16 at Wed Apr  9 19:10:54 2025.
