 Gaussian 16, Revision C.01,

 ----------------------------------------------------------------------
 #t hf aug-cc-pvdz symm=none int=(grid=ultrafine) guess=(read,tcheck) s
 table=(opt,rrhf)
 ----------------------------------------------------------------------
 -----
 title
 -----
 Symbolic Z-matrix:
 Charge =  0 Multiplicity = 1

 SCF Done:  E(RHF) =  -358.448437174     A.U. after   16 cycles
 Normal termination of Gaussian 16 at Wed Apr  9 18:13:27 2025.
 Gaussian 16:  ES64L-G16RevC.01  3-Jul-2019

 ----------------------------------------------------------------------
 #t hf aug-cc-pvdz iop(5/13=1,5/36=2,99/5=2) pseudo=read geom=check gue
 ss=(read,tcheck) scf=(maxcycle=1)
 ----------------------------------------------------------------------
 -----
 title
 -----
 Structure from the checkpoint file:  "Grambow2020_wb97xd3_006776_reverse_mol1.chk"
 Charge =  0 Multiplicity = 1

                         Standard orientation:
 ---------------------------------------------------------------------
 Center     Atomic      Atomic             Coordinates (Angstroms)
 Number     Number       Type             X           Y           Z
 ---------------------------------------------------------------------
      1          8           0        2.020742   -0.017667   -0.343096
      2          6           0        1.083513   -0.430306    0.382050
      3          6           0        0.436157    0.858168    0.540809
      4          6           0       -0.505713    1.267322   -0.480072
      5          7           0       -1.552414    0.490397    0.208104
      6          6           0       -1.337974   -0.799695    0.077345
      7          8           0       -0.263131   -1.340809   -0.349672
      8          1           0        1.228625   -1.170981    1.172334
      9          1           0        0.685609    1.492133    1.384763
     10          1           0       -0.256265    0.878836   -1.468207
     11          1           0       -0.750285    2.323911   -0.495310
     12          1           0       -2.157580   -1.461808    0.371049
 ---------------------------------------------------------------------

 SCF Done:  E(RHF) =  -360.032443167     A.U. after    2 cycles

 The electronic state is 1-A.
 Alpha  occ. eigenvalues --  -21.05996 -21.04219 -15.74121 -11.55904 -11.51461
 Alpha  occ. eigenvalues --  -11.47833 -11.45276  -1.78828  -1.69439  -1.40918
 Alpha  occ. eigenvalues --   -1.14876  -0.98640  -0.88454  -0.78564  -0.76656
 Alpha  occ. eigenvalues --   -0.65636  -0.62999  -0.60270  -0.57701  -0.53060
 Alpha  occ. eigenvalues --   -0.47237  -0.45069  -0.38324  -0.35098  -0.28790
 Alpha  occ. eigenvalues --   -0.27822
 Alpha virt. eigenvalues --    0.03400   0.04655   0.05003   0.05483   0.06768
 Alpha virt. eigenvalues --    0.07910   0.09469   0.09915   0.10853   0.11857
 Alpha virt. eigenvalues --    0.12490   0.13578   0.14125   0.14395   0.14805

 Mulliken charges:
               1
     1  O   -2.444082
     2  C    1.648630
     3  C   -1.333288
     4  C   -2.791003
     5  N   -2.159882
     6  C    2.522561
     7  O   -2.643919
     8  H    1.409367
     9  H    1.434351
    10  H    1.267490
    11  H    1.341577
    12  H    1.748198
 Sum of Mulliken charges =  -0.00000

 Dipole moment (field-independent basis, Debye):
    X=              0.3116    Y=              0.6311    Z=              0.6640  Tot=              0.9676

 Test job not archived.
 1\1\GINC-SE014\SP\RHF\Aug-CC-pVDZ\C4H5N1O2\OHZDE\09-Apr-2025\0\\#t hf
 aug-cc-pvdz iop(5/13=1,5/36=2,99/5=2) pseudo=read geom=check guess=(re
 ad,tcheck) scf=(maxcycle=1)\\title\\0,1\O,0,1.54750368,0.46514025,-1.4
 6843066\C,0,1.07717119,-0.4391941,-0.73667099\C,0,0.8010609,0.41574857
 ,0.40230862\C,0,-0.46413299,1.11972085,0.42307008\N,0,-1.0983705,-0.08
 585904,0.98618571\C,0,-1.17214245,-1.03893704,0.08417659\O,0,-0.568302
 71,-1.05384886,-1.04080788\H,0,1.50407911,-1.44403058,-0.68914056\H,0,
 1.54198685,0.53509781,1.18536768\H,0,-0.82500518,1.37399557,-0.5742627

 Normal termination of Gaussian 16 at Wed Apr  9 18:13:32 2025.
