 Gaussian 16, Revision C.01,

 ----------------------------------------------------------------------
 #t hf aug-cc-pvdz symm=none int=(grid=ultrafine) guess=(read,tcheck) s
 table=(opt,rrhf)
 ----------------------------------------------------------------------
 -----
 title
 -----
 Symbolic Z-matrix:
 Charge =  0 Multiplicity = 1

 SCF Done:  E(RHF) =  -263.599776781     A.U. after   18 cycles
 Normal termination of Gaussian 16 at Wed Apr  9 16:52:56 2025.
 Gaussian 16:  ES64L-G16RevC.01  3-Jul-2019

 ----------------------------------------------------------------------
 #t hf aug-cc-pvdz iop(5/13=1,5/36=2,99/5=2) pseudo=read geom=check gue
 ss=(read,tcheck) scf=(maxcycle=1)
 ----------------------------------------------------------------------
 -----
 title
 -----
 Structure from the checkpoint file:  "Grambow2020_b97d3_006860_reverse_mol1.chk"
 Charge =  0 Multiplicity = 1

                         Standard orientation:
 ---------------------------------------------------------------------
 Center     Atomic      Atomic             Coordinates (Angstroms)
 Number     Number       Type             X           Y           Z
 ---------------------------------------------------------------------
      1          6           0        2.061785   -0.552646    0.174077
      2          6           0        0.885054    0.236886   -0.177174
      3          6           0       -0.891066   -1.349853   -0.249292
      4          7           0       -1.515456   -0.259934    0.095462
      5          7           0       -0.852182    0.896028    0.528380
      6          6           0        0.181048    1.306424   -0.389077
      7          1           0        2.017928   -0.819452    1.241395
      8          1           0        2.081152   -1.495739   -0.388362
      9          1           0        2.993009    0.017411    0.011574
     10          1           0       -1.621936   -2.093868   -0.631011
     11          1           0       -2.530560   -0.146737    0.201560
     12          1           0        0.212955    2.240860   -0.953257
 ---------------------------------------------------------------------

 SCF Done:  E(RHF) =  -264.856648498     A.U. after    2 cycles

 The electronic state is 1-A.
 Alpha  occ. eigenvalues --  -15.80191 -15.71864 -11.47837 -11.45158 -11.41231
 Alpha  occ. eigenvalues --  -11.37342  -1.51910  -1.24483  -1.12273  -0.97103
 Alpha  occ. eigenvalues --   -0.81123  -0.76839  -0.66406  -0.61717  -0.60016
 Alpha  occ. eigenvalues --   -0.59093  -0.54594  -0.54338  -0.40195  -0.34251
 Alpha  occ. eigenvalues --   -0.33251  -0.26474
 Alpha virt. eigenvalues --    0.03477   0.05230   0.05487   0.06044   0.06719
 Alpha virt. eigenvalues --    0.06879   0.08980   0.10143   0.10685   0.11813
 Alpha virt. eigenvalues --    0.13237   0.13844   0.13987   0.14937   0.15912

 Mulliken charges:
               1
     1  C   -4.245225
     2  C    2.044183
     3  C   -1.148296
     4  N   -0.986305
     5  N   -1.357519
     6  C   -1.210250
     7  H    1.138372
     8  H    1.314870
     9  H    1.117065
    10  H    1.385376
    11  H    0.836882
    12  H    1.110848
 Sum of Mulliken charges =  -0.00000

 Dipole moment (field-independent basis, Debye):
    X=              0.4430    Y=              0.4421    Z=             -0.8502  Tot=              1.0557

 Test job not archived.
 1\1\GINC-SE173\SP\RHF\Aug-CC-pVDZ\C4H6N2\OHZDE\09-Apr-2025\0\\#t hf au
 g-cc-pvdz iop(5/13=1,5/36=2,99/5=2) pseudo=read geom=check guess=(read
 ,tcheck) scf=(maxcycle=1)\\title\\0,1\C,0,-1.85181379,-0.14040808,-0.0
 0137106\C,0,-0.54029535,0.36978274,0.38729227\C,0,0.99576392,-1.242681
 83,-0.4600722\N,0,1.70446667,-0.15028739,-0.49258366\N,0,1.14746051,1.
 1264687,-0.34014819\C,0,0.32546539,1.22421477,0.83988759\H,0,-2.001820
 02,0.02050876,-1.0802039\H,0,-1.91582507,-1.22330887,0.16999333\H,0,-2
 .66319172,0.3869998,0.52972009\H,0,1.66725373,-2.12518363,-0.52114056\

 Normal termination of Gaussian 16 at Wed Apr  9 16:53:00 2025.
