 Gaussian 16, Revision C.01,

 ----------------------------------------------------------------------
 #t hf aug-cc-pvdz symm=none int=(grid=ultrafine) guess=(read,tcheck) s
 table=(opt,rrhf)
 ----------------------------------------------------------------------
 -----
 title
 -----
 Symbolic Z-matrix:
 Charge =  0 Multiplicity = 1

 SCF Done:  E(RHF) =  -299.491612807     A.U. after   16 cycles
 Normal termination of Gaussian 16 at Wed Apr  9 03:07:39 2025.
 Gaussian 16:  ES64L-G16RevC.01  3-Jul-2019

 ----------------------------------------------------------------------
 #t hf aug-cc-pvdz iop(5/13=1,5/36=2,99/5=2) pseudo=read geom=check gue
 ss=(read,tcheck) scf=(maxcycle=1)
 ----------------------------------------------------------------------
 -----
 title
 -----
 Structure from the checkpoint file:  "Grambow2020_b97d3_006600_reverse_mol1.chk"
 Charge =  0 Multiplicity = 1

                         Standard orientation:
 ---------------------------------------------------------------------
 Center     Atomic      Atomic             Coordinates (Angstroms)
 Number     Number       Type             X           Y           Z
 ---------------------------------------------------------------------
      1          6           0        1.677333    0.206799    0.419362
      2          6           0        0.607850    0.222120   -0.482070
      3          7           0       -0.380748    1.185078   -0.385677
      4          6           0       -1.291527    0.453770    0.226347
      5          7           0       -0.928280   -0.873547    0.468198
      6          8           0        0.083007   -1.046076   -0.591447
      7          1           0        2.095330    1.141274    0.789421
      8          1           0        2.309356   -0.679904    0.470434
      9          1           0        0.334609   -0.422412    1.249381
     10          1           0       -2.202099    0.852799    0.662859
 ---------------------------------------------------------------------

 SCF Done:  E(RHF) =  -300.837151495     A.U. after    2 cycles

 The electronic state is 1-A.
 Alpha  occ. eigenvalues --  -21.10314 -15.79977 -15.76050 -11.52166 -11.47065
 Alpha  occ. eigenvalues --  -11.42403  -1.88613  -1.41790  -1.24003  -1.09179
 Alpha  occ. eigenvalues --   -0.87732  -0.78517  -0.71708  -0.68831  -0.61704
 Alpha  occ. eigenvalues --   -0.55135  -0.50096  -0.48582  -0.40794  -0.38778
 Alpha  occ. eigenvalues --   -0.36064  -0.33750
 Alpha virt. eigenvalues --    0.03087   0.04568   0.05916   0.06371   0.07953
 Alpha virt. eigenvalues --    0.09000   0.09480   0.10324   0.11252   0.11673
 Alpha virt. eigenvalues --    0.13242   0.13937   0.15649   0.17221   0.18096

 Mulliken charges:
               1
     1  C   -2.397915
     2  C    2.979783
     3  N   -2.815411
     4  C    1.000436
     5  N   -0.813807
     6  O   -2.602711
     7  H    1.362841
     8  H    1.379708
     9  H    0.480432
    10  H    1.426644
 Sum of Mulliken charges =   0.00000

 Dipole moment (field-independent basis, Debye):
    X=              0.7181    Y=              0.0217    Z=              0.6350  Tot=              0.9588

 Test job not archived.
 1\1\GINC-SE462\SP\RHF\Aug-CC-pVDZ\C3H4N2O1\OHZDE\09-Apr-2025\0\\#t hf
 aug-cc-pvdz iop(5/13=1,5/36=2,99/5=2) pseudo=read geom=check guess=(re
 ad,tcheck) scf=(maxcycle=1)\\title\\0,1\C,0,-1.42608065,0.00384182,0.1
 8462261\C,0,-0.20630777,-0.55072728,0.58613973\N,0,0.77757994,0.243403
 28,1.14759061\C,0,1.532615,0.38686749,0.07602918\N,0,1.08706809,-0.287
 8264,-1.06348265\O,0,0.28787521,-1.34826948,-0.42155843\H,0,-1.8753190
 3,0.81271566,0.75804838\H,0,-2.08516142,-0.58286146,-0.4554508\H,0,-0.
 2846626,0.43518067,-0.9981108\H,0,2.35749322,1.0888277,0.00029516\\Ver

 Normal termination of Gaussian 16 at Wed Apr  9 03:07:42 2025.
