 Gaussian 16, Revision C.01,

 ----------------------------------------------------------------------
 #t hf aug-cc-pvdz symm=none int=(grid=ultrafine) guess=(read,tcheck) s
 table=(opt,rrhf)
 ----------------------------------------------------------------------
 -----
 title
 -----
 Symbolic Z-matrix:
 Charge =  0 Multiplicity = 1

 SCF Done:  E(RHF) =  -302.086196903     A.U. after   13 cycles
 Normal termination of Gaussian 16 at Wed Apr  9 03:15:00 2025.
 Gaussian 16:  ES64L-G16RevC.01  3-Jul-2019

 ----------------------------------------------------------------------
 #t hf aug-cc-pvdz iop(5/13=1,5/36=2,99/5=2) pseudo=read geom=check gue
 ss=(read,tcheck) scf=(maxcycle=1)
 ----------------------------------------------------------------------
 -----
 title
 -----
 Structure from the checkpoint file:  "Grambow2020_b97d3_006938_forward_mol2.chk"
 Charge =  0 Multiplicity = 1

                         Standard orientation:
 ---------------------------------------------------------------------
 Center     Atomic      Atomic             Coordinates (Angstroms)
 Number     Number       Type             X           Y           Z
 ---------------------------------------------------------------------
      1          6           0        2.448995    0.004836   -0.013652
      2          7           0        1.158025   -0.661112    0.105455
      3          6           0       -0.001156    0.105280   -0.005256
      4          8           0       -0.003120    1.335662   -0.004294
      5          7           0       -1.158173   -0.664543   -0.115141
      6          6           0       -2.446216    0.004399    0.026639
      7          1           0        2.702784    0.276791   -1.052123
      8          1           0        3.229504   -0.655245    0.386196
      9          1           0        2.418034    0.924222    0.578661
     10          1           0        1.111531   -1.591310   -0.301173
     11          1           0       -1.106794   -1.591320    0.299263
     12          1           0       -3.237314   -0.667743   -0.329126
     13          1           0       -2.665414    0.304451    1.065151
     14          1           0       -2.436078    0.907361   -0.591080
 ---------------------------------------------------------------------

 SCF Done:  E(RHF) =  -303.477231627     A.U. after    2 cycles

 The electronic state is 1-A.
 Alpha  occ. eigenvalues --  -21.01312 -15.75269 -15.75239 -11.49155 -11.39291
 Alpha  occ. eigenvalues --  -11.39033  -1.70215  -1.41233  -1.33739  -1.03846
 Alpha  occ. eigenvalues --   -0.94616  -0.79279  -0.72986  -0.63639  -0.63185
 Alpha  occ. eigenvalues --   -0.58946  -0.55795  -0.54133  -0.52062  -0.50054
 Alpha  occ. eigenvalues --   -0.47321  -0.34405  -0.31736  -0.28711
 Alpha virt. eigenvalues --    0.03399   0.04569   0.05033   0.06059   0.06536
 Alpha virt. eigenvalues --    0.06928   0.07720   0.07943   0.10877   0.12212
 Alpha virt. eigenvalues --    0.13072   0.14001   0.14482   0.15231   0.16721

 Mulliken charges:
               1
     1  C   -3.651565
     2  N   -2.425837
     3  C    5.746805
     4  O   -2.848533
     5  N   -2.436991
     6  C   -3.669317
     7  H    1.270448
     8  H    1.312287
     9  H    1.334359
    10  H    0.731227
    11  H    0.728646
    12  H    1.315117
    13  H    1.265852
    14  H    1.327500
 Sum of Mulliken charges =  -0.00000

 Dipole moment (field-independent basis, Debye):
    X=              0.0138    Y=             -2.3456    Z=              0.0230  Tot=              2.3458

 Test job not archived.
 1\1\GINC-SE044\SP\RHF\Aug-CC-pVDZ\C3H8N2O1\OHZDE\09-Apr-2025\0\\#t hf
 aug-cc-pvdz iop(5/13=1,5/36=2,99/5=2) pseudo=read geom=check guess=(re
 ad,tcheck) scf=(maxcycle=1)\\title\\0,1\C,0,-2.43353594,0.26662885,0.1
 4395505\N,0,-1.12273038,-0.21703589,0.55884579\C,0,-0.01358498,0.10928
 038,-0.22001778\O,0,-0.09575102,0.61603889,-1.33818092\N,0,1.19820165,
 -0.198988,0.3963716\C,0,2.41233548,-0.1520843,-0.41005196\H,0,-2.58285
 9,1.34109866,0.34397506\H,0,-3.20833439,-0.30775562,0.66792937\H,0,-2.
 534479,0.10611435,-0.93359269\H,0,-0.96588628,-0.23553857,1.5627552\H,

 Normal termination of Gaussian 16 at Wed Apr  9 03:15:04 2025.
