 Gaussian 16, Revision C.01,

 ----------------------------------------------------------------------
 #t hf aug-cc-pvdz symm=none int=(grid=ultrafine) guess=(read,tcheck) s
 table=(opt,rrhf)
 ----------------------------------------------------------------------
 -----
 title
 -----
 Symbolic Z-matrix:
 Charge =  0 Multiplicity = 1

 SCF Done:  E(RHF) =  -284.639570323     A.U. after   17 cycles
 Normal termination of Gaussian 16 at Wed Apr  9 03:06:53 2025.
 Gaussian 16:  ES64L-G16RevC.01  3-Jul-2019

 ----------------------------------------------------------------------
 #t hf aug-cc-pvdz iop(5/13=1,5/36=2,99/5=2) pseudo=read geom=check gue
 ss=(read,tcheck) scf=(maxcycle=1)
 ----------------------------------------------------------------------
 -----
 title
 -----
 Structure from the checkpoint file:  "Grambow2020_b97d3_006538_forward_mol1.chk"
 Charge =  0 Multiplicity = 1

                         Standard orientation:
 ---------------------------------------------------------------------
 Center     Atomic      Atomic             Coordinates (Angstroms)
 Number     Number       Type             X           Y           Z
 ---------------------------------------------------------------------
      1          6           0       -0.577593    1.155525    0.465597
      2          6           0        1.497032    0.580403    0.043395
      3          8           0        1.560891   -0.564095   -0.519327
      4          6           0       -0.152465   -0.998541    0.617446
      5          7           0       -1.184303   -1.004732   -0.049135
      6          6           0       -1.345564    0.356933   -0.592451
      7          1           0       -1.031191    1.075465    1.459134
      8          1           0       -0.337865    2.209097    0.251791
      9          1           0        1.663129    1.484948   -0.579274
     10          1           0        1.798889    0.726957    1.100017
     11          1           0        0.415296   -1.526517    1.371479
     12          1           0       -2.403860    0.619967   -0.744646
     13          1           0       -0.829868    0.390052   -1.563868
 ---------------------------------------------------------------------

 SCF Done:  E(RHF) =  -285.987771197     A.U. after    2 cycles

 The electronic state is 1-A.
 Alpha  occ. eigenvalues --  -21.00053 -15.77358 -11.53956 -11.45829 -11.44301
 Alpha  occ. eigenvalues --  -11.37368  -1.66439  -1.44681  -1.08794  -0.95174
 Alpha  occ. eigenvalues --   -0.88444  -0.81634  -0.67155  -0.66159  -0.62386
 Alpha  occ. eigenvalues --   -0.58913  -0.51571  -0.49801  -0.48682  -0.43452
 Alpha  occ. eigenvalues --   -0.40633  -0.27118  -0.24258
 Alpha virt. eigenvalues --    0.03389   0.04214   0.05446   0.05605   0.05760
 Alpha virt. eigenvalues --    0.06266   0.06932   0.08200   0.10285   0.11418
 Alpha virt. eigenvalues --    0.12614   0.13340   0.13590   0.14514   0.14711

 Mulliken charges:
               1
     1  C   -2.646489
     2  C   -0.537092
     3  O   -2.175284
     4  C    1.103020
     5  N   -2.553347
     6  C   -2.467629
     7  H    1.059203
     8  H    1.269268
     9  H    1.212672
    10  H    1.366618
    11  H    1.447244
    12  H    1.363912
    13  H    1.557904
 Sum of Mulliken charges =   0.00000

 Dipole moment (field-independent basis, Debye):
    X=             -0.0950    Y=              0.1282    Z=              1.1739  Tot=              1.1847

 Test job not archived.
 1\1\GINC-SE106\SP\RHF\Aug-CC-pVDZ\C4H7N1O1\OHZDE\09-Apr-2025\0\\#t hf
 aug-cc-pvdz iop(5/13=1,5/36=2,99/5=2) pseudo=read geom=check guess=(re
 ad,tcheck) scf=(maxcycle=1)\\title\\0,1\C,0,0.64451141,-0.39866277,0.6
 8841401\C,0,-1.10371712,-1.03414329,-0.47474959\O,0,-1.48597822,-0.122
 05106,-1.28257065\C,0,-0.78227757,1.20138054,0.19049385\N,0,0.28509394
 ,1.73124586,-0.10786749\C,0,1.27481155,0.64556369,-0.23857293\H,0,0.58
 049253,-0.05159067,1.72510099\H,0,1.04333328,-1.42511987,0.66552777\H,
 0,-0.56066644,-1.91088437,-0.88697232\H,0,-1.6788153,-1.27884408,0.440

 Normal termination of Gaussian 16 at Wed Apr  9 03:06:57 2025.
