 Gaussian 16, Revision C.01,

 ----------------------------------------------------------------------
 #t hf aug-cc-pvdz symm=none int=(grid=ultrafine) guess=(read,tcheck) s
 table=(opt,rrhf)
 ----------------------------------------------------------------------
 -----
 title
 -----
 Symbolic Z-matrix:
 Charge =  0 Multiplicity = 1

 SCF Done:  E(RHF) =  -305.758426065     A.U. after   15 cycles
 Normal termination of Gaussian 16 at Wed Apr  9 03:05:51 2025.
 Gaussian 16:  ES64L-G16RevC.01  3-Jul-2019

 ----------------------------------------------------------------------
 #t hf aug-cc-pvdz iop(5/13=1,5/36=2,99/5=2) pseudo=read geom=check gue
 ss=(read,tcheck) scf=(maxcycle=1)
 ----------------------------------------------------------------------
 -----
 title
 -----
 Structure from the checkpoint file:  "Grambow2020_b97d3_006525_reverse_mol2.chk"
 Charge =  0 Multiplicity = 1

                         Standard orientation:
 ---------------------------------------------------------------------
 Center     Atomic      Atomic             Coordinates (Angstroms)
 Number     Number       Type             X           Y           Z
 ---------------------------------------------------------------------
      1          8           0       -1.555320   -0.820747    0.602049
      2          6           0       -1.517937    0.175916   -0.420146
      3          6           0       -0.483144    1.215971   -0.520641
      4          6           0        0.567172    1.089431    0.518278
      5          6           0        1.640522    0.092296   -0.040532
      6          8           0        1.152128   -1.247947   -0.197670
      7          1           0       -0.657657   -1.220372    0.601702
      8          1           0       -1.550974   -0.283108   -1.440004
      9          1           0       -2.480676    0.721730   -0.379176
     10          1           0        0.843627   -1.347198   -1.116908
     11          1           0        1.107161    2.036519    0.675411
     12          1           0        0.226956    0.682735    1.489417
     13          1           0        2.448484    0.041326    0.698425
     14          1           0        2.048934    0.476235   -0.985659
 ---------------------------------------------------------------------

 SCF Done:  E(RHF) =  -307.130795685     A.U. after    2 cycles

 The electronic state is 1-A.
 Alpha  occ. eigenvalues --  -21.09875 -21.05661 -11.46566 -11.43992 -11.40958
 Alpha  occ. eigenvalues --  -11.38498  -1.73971  -1.69387  -1.20609  -1.04165
 Alpha  occ. eigenvalues --   -0.91376  -0.75299  -0.69540  -0.64325  -0.61752
 Alpha  occ. eigenvalues --   -0.58819  -0.55523  -0.53277  -0.49058  -0.45383
 Alpha  occ. eigenvalues --   -0.42157  -0.34993  -0.31965  -0.30246
 Alpha virt. eigenvalues --    0.03328   0.04745   0.05202   0.05763   0.05931
 Alpha virt. eigenvalues --    0.06841   0.06881   0.07795   0.07915   0.09904
 Alpha virt. eigenvalues --    0.13036   0.13472   0.13711   0.14948   0.15032

 Mulliken charges:
               1
     1  O   -2.690842
     2  C   -0.624179
     3  C   -1.004842
     4  C   -2.534357
     5  C   -0.823144
     6  O   -2.453183
     7  H    1.115794
     8  H    1.371732
     9  H    1.340091
    10  H    0.756018
    11  H    1.360587
    12  H    1.462296
    13  H    1.254574
    14  H    1.469457
 Sum of Mulliken charges =   0.00000

 Dipole moment (field-independent basis, Debye):
    X=              1.3536    Y=             -1.0354    Z=              0.5483  Tot=              1.7902

 Test job not archived.
 1\1\GINC-SE457\SP\RHF\Aug-CC-pVDZ\C4H8O2\OHZDE\09-Apr-2025\0\\#t hf au
 g-cc-pvdz iop(5/13=1,5/36=2,99/5=2) pseudo=read geom=check guess=(read
 ,tcheck) scf=(maxcycle=1)\\title\\0,1\O,0,-1.95086296,0.4480159,-0.365
 28396\C,0,-1.43899463,-0.8636274,-0.12611689\C,0,-0.05133319,-1.269278
 7,-0.39528776\C,0,0.7929654,-0.15329944,-0.88547215\C,0,1.34823706,0.5
 8591527,0.38096448\O,0,0.3323805,1.24046242,1.15496468\H,0,-1.31765136
 ,1.05394256,0.07900646\H,0,-1.62431568,-1.18874453,0.92833014\H,0,-2.0
 6883784,-1.56973073,-0.70159273\H,0,0.05163172,0.62699535,1.85842712\H

 Normal termination of Gaussian 16 at Wed Apr  9 03:05:55 2025.
