 Gaussian 16, Revision C.01,

 ----------------------------------------------------------------------
 #t hf aug-cc-pvdz symm=none int=(grid=ultrafine) guess=(read,tcheck) s
 table=(opt,rrhf)
 ----------------------------------------------------------------------
 -----
 title
 -----
 Symbolic Z-matrix:
 Charge =  0 Multiplicity = 1

 SCF Done:  E(RHF) =  -308.869337272     A.U. after   15 cycles

 1\1\GINC-SE108\Stability\RHF\Aug-CC-pVDZ\C6H12O1\OHZDE\09-Apr-2025\0\\
 #t hf aug-cc-pvdz symm=none int=(grid=ultrafine) guess=(read,tcheck) s
 table=(opt,rrhf)\\title\\0,1\C,0,2.0968792,-0.35395944,-0.34931653\C,0
 ,0.96608376,0.01220094,0.5986203\O,0,1.5051101,0.04922904,1.90634789\C
 ,0,0.13669504,1.1470983,0.26483759\C,0,-0.75197426,1.12324084,-0.90224
 572\C,0,-1.67624478,0.18429522,-0.1621091\C,0,-1.38168583,-1.2444619,-
 0.15539215\H,0,1.73333984,-0.40462072,-1.37666189\H,0,2.5132216,-1.326
 3699,-0.08068634\H,0,2.88702374,0.39628081,-0.29592722\H,0,0.23119848,

 Normal termination of Gaussian 16 at Wed Apr  9 18:44:04 2025.
 Gaussian 16:  ES64L-G16RevC.01  3-Jul-2019

 ----------------------------------------------------------------------
 #t hf aug-cc-pvdz iop(5/13=1,5/36=2,99/5=2) pseudo=read geom=check gue
 ss=(read,tcheck) scf=(maxcycle=1)
 ----------------------------------------------------------------------
 -----
 title
 -----
 Structure from the checkpoint file:  "Grambow2020_wb97xd3_007565_forward_mol1.chk"
 Charge =  0 Multiplicity = 1

                         Standard orientation:
 ---------------------------------------------------------------------
 Center     Atomic      Atomic             Coordinates (Angstroms)
 Number     Number       Type             X           Y           Z
 ---------------------------------------------------------------------
      1          6           0        1.648491   -0.152125    1.257947
      2          6           0        0.930900    0.092402   -0.059863
      3          8           0        1.905459    0.491229   -1.004979
      4          6           0        0.018390   -0.920579   -0.537861
      5          6           0       -1.231507   -1.214922    0.171720
      6          6           0       -1.810202    0.085273   -0.336516
      7          6           0       -1.509666    1.323163    0.374443
      8          1           0        0.939095   -0.456299    2.028921
      9          1           0        2.149717    0.759299    1.588347
     10          1           0        2.392060   -0.941241    1.137775
     11          1           0        0.227248    1.013739    0.188064
     12          1           0        1.458133    0.651745   -1.837833
     13          1           0        0.124014   -1.282669   -1.553886
     14          1           0       -1.178745   -1.244218    1.261524
     15          1           0       -1.763804   -2.089942   -0.190908
     16          1           0       -2.073136    0.144343   -1.384331
     17          1           0       -1.481862    1.314273    1.457302
     18          1           0       -2.744184    0.642901    0.253842
     19          1           0       -1.570641    2.278967   -0.128203
 ---------------------------------------------------------------------

 SCF Done:  E(RHF) =  -310.405683885     A.U. after    2 cycles

 The electronic state is 1-A.
 Alpha  occ. eigenvalues --  -21.05243 -11.47337 -11.44692 -11.43100 -11.40462
 Alpha  occ. eigenvalues --  -11.37341 -11.34520  -1.70396  -1.31035  -1.12542
 Alpha  occ. eigenvalues --   -1.06277  -0.92630  -0.82731  -0.77413  -0.67913
 Alpha  occ. eigenvalues --   -0.67569  -0.62221  -0.59478  -0.57003  -0.53929
 Alpha  occ. eigenvalues --   -0.52033  -0.49421  -0.49113  -0.45136  -0.44055
 Alpha  occ. eigenvalues --   -0.38665  -0.29593  -0.21521
 Alpha virt. eigenvalues --    0.03750   0.04792   0.05018   0.05071   0.05415
 Alpha virt. eigenvalues --    0.05538   0.06530   0.06895   0.07045   0.08632
 Alpha virt. eigenvalues --    0.08943   0.09968   0.11094   0.12713   0.13416

 Mulliken charges:
               1
     1  C   -4.203788
     2  C    2.355493
     3  O   -3.525100
     4  C   -1.451921
     5  C   -3.546139
     6  C   -1.931762
     7  C   -3.413173
     8  H    1.360507
     9  H    1.101767
    10  H    1.179590
    11  H    2.404306
    12  H    0.643518
    13  H    1.235020
    14  H    1.338381
    15  H    1.265747
    16  H    1.346190
    17  H    1.258932
    18  H    1.293853
    19  H    1.288579
 Sum of Mulliken charges =   0.00000

 Dipole moment (field-independent basis, Debye):
    X=             -2.5569    Y=              0.8207    Z=              0.0960  Tot=              2.6871

 Test job not archived.
 1\1\GINC-SE108\SP\RHF\Aug-CC-pVDZ\C6H12O1\OHZDE\09-Apr-2025\0\\#t hf a
 ug-cc-pvdz iop(5/13=1,5/36=2,99/5=2) pseudo=read geom=check guess=(rea
 d,tcheck) scf=(maxcycle=1)\\title\\0,1\C,0,2.0968792,-0.35395944,-0.34
 931653\C,0,0.96608376,0.01220094,0.5986203\O,0,1.5051101,0.04922904,1.
 90634789\C,0,0.13669504,1.1470983,0.26483759\C,0,-0.75197426,1.1232408
 4,-0.90224572\C,0,-1.67624478,0.18429522,-0.1621091\C,0,-1.38168583,-1
 .2444619,-0.15539215\H,0,1.73333984,-0.40462072,-1.37666189\H,0,2.5132
 216,-1.3263699,-0.08068634\H,0,2.88702374,0.39628081,-0.29592722\H,0,0

 Normal termination of Gaussian 16 at Wed Apr  9 18:44:12 2025.
