 Gaussian 16, Revision C.01,

 ----------------------------------------------------------------------
 #t hf aug-cc-pvdz symm=none int=(grid=ultrafine) guess=(read,tcheck) s
 table=(opt,rrhf)
 ----------------------------------------------------------------------
 -----
 title
 -----
 Symbolic Z-matrix:
 Charge =  0 Multiplicity = 1

 SCF Done:  E(RHF) =  -286.923302087     A.U. after   15 cycles
 Normal termination of Gaussian 16 at Wed Apr  9 19:18:09 2025.
 Gaussian 16:  ES64L-G16RevC.01  3-Jul-2019

 ----------------------------------------------------------------------
 #t hf aug-cc-pvdz iop(5/13=1,5/36=2,99/5=2) pseudo=read geom=check gue
 ss=(read,tcheck) scf=(maxcycle=1)
 ----------------------------------------------------------------------
 -----
 title
 -----
 Structure from the checkpoint file:  "Grambow2020_wb97xd3_008573_forward_mol2.chk"
 Charge =  0 Multiplicity = 1

                         Standard orientation:
 ---------------------------------------------------------------------
 Center     Atomic      Atomic             Coordinates (Angstroms)
 Number     Number       Type             X           Y           Z
 ---------------------------------------------------------------------
      1          6           0        2.549210   -0.533608    0.004727
      2          6           0        1.106614   -0.160816   -0.004590
      3          6           0       -0.018799   -0.941200   -0.006095
      4          6           0       -1.158754   -0.086108   -0.002439
      5          6           0       -2.592631   -0.511368    0.003840
      6          6           0       -0.680017    1.194657    0.000101
      7          7           0        0.690706    1.140107   -0.001182
      8          1           0        3.049837   -0.198413    0.917081
      9          1           0        2.648635   -1.617094   -0.046764
     10          1           0        3.085660   -0.109624   -0.848007
     11          1           0       -0.027946   -2.021438   -0.007433
     12          1           0       -3.260304    0.351246    0.013461
     13          1           0       -2.823256   -1.118244    0.882784
     14          1           0       -2.835696   -1.110235   -0.877223
     15          1           0       -1.204611    2.136970    0.001200
     16          1           0        1.299006    1.936740   -0.000096
 ---------------------------------------------------------------------

 SCF Done:  E(RHF) =  -288.331379393     A.U. after    2 cycles

 The electronic state is 1-A.
 Alpha  occ. eigenvalues --  -15.76891 -11.43757 -11.42014 -11.39955 -11.38778
 Alpha  occ. eigenvalues --  -11.37543 -11.33528  -1.49770  -1.16431  -1.12586
 Alpha  occ. eigenvalues --   -1.01491  -0.94785  -0.78877  -0.75610  -0.68017
 Alpha  occ. eigenvalues --   -0.59912  -0.58302  -0.55747  -0.55591  -0.52783
 Alpha  occ. eigenvalues --   -0.50948  -0.50412  -0.46779  -0.43301  -0.30628
 Alpha  occ. eigenvalues --   -0.26815
 Alpha virt. eigenvalues --    0.03469   0.04797   0.05267   0.05565   0.05991
 Alpha virt. eigenvalues --    0.06461   0.07583   0.07682   0.08264   0.09995
 Alpha virt. eigenvalues --    0.11341   0.12538   0.12738   0.14035   0.14180

 Mulliken charges:
               1
     1  C   -4.993548
     2  C    5.305113
     3  C   -5.376623
     4  C    5.650300
     5  C   -5.381302
     6  C   -1.483198
     7  N   -4.358775
     8  H    1.084255
     9  H    1.189266
    10  H    1.081189
    11  H    1.488210
    12  H    1.378504
    13  H    1.144589
    14  H    1.147837
    15  H    1.327176
    16  H    0.797007
 Sum of Mulliken charges =  -0.00000

 Dipole moment (field-independent basis, Debye):
    X=              1.3848    Y=              1.2695    Z=              0.0166  Tot=              1.8788

 Test job not archived.
 1\1\GINC-SE220\SP\RHF\Aug-CC-pVDZ\C6H9N1\OHZDE\09-Apr-2025\0\\#t hf au
 g-cc-pvdz iop(5/13=1,5/36=2,99/5=2) pseudo=read geom=check guess=(read
 ,tcheck) scf=(maxcycle=1)\\title\\0,1\C,0,2.56820692,-0.37827159,0.011
 76931\C,0,1.1180585,-0.03612026,0.02389673\C,0,0.01267136,-0.81918011,
 -0.17732804\C,0,-1.1472782,-0.00225215,-0.04376829\C,0,-2.56978223,-0.
 44447917,-0.17721323\C,0,-0.70024785,1.25942986,0.23529586\N,0,0.67068
 36,1.22978354,0.27436939\H,0,3.02993764,-0.22642325,0.99111605\H,0,2.6
 9566545,-1.42696468,-0.25370533\H,0,3.12218912,0.21888474,-0.7170689\H

 Normal termination of Gaussian 16 at Wed Apr  9 19:18:14 2025.
