 Gaussian 16, Revision C.01,

 ----------------------------------------------------------------------
 #t hf aug-cc-pvdz symm=none int=(grid=ultrafine) guess=(read,tcheck) s
 table=(opt,rrhf)
 ----------------------------------------------------------------------
 -----
 title
 -----
 Symbolic Z-matrix:
 Charge =  0 Multiplicity = 1

 SCF Done:  E(RHF) =  -284.822806202     A.U. after   14 cycles
 Normal termination of Gaussian 16 at Wed Apr  9 03:06:20 2025.
 Gaussian 16:  ES64L-G16RevC.01  3-Jul-2019

 ----------------------------------------------------------------------
 #t hf aug-cc-pvdz iop(5/13=1,5/36=2,99/5=2) pseudo=read geom=check gue
 ss=(read,tcheck) scf=(maxcycle=1)
 ----------------------------------------------------------------------
 -----
 title
 -----
 Structure from the checkpoint file:  "Grambow2020_b97d3_006531_reverse_mol2.chk"
 Charge =  0 Multiplicity = 1

                         Standard orientation:
 ---------------------------------------------------------------------
 Center     Atomic      Atomic             Coordinates (Angstroms)
 Number     Number       Type             X           Y           Z
 ---------------------------------------------------------------------
      1          6           0        0.647654    1.084808    0.149768
      2          6           0        1.790739    0.170331   -0.324205
      3          8           0        1.001900   -1.026398   -0.086771
      4          6           0       -0.060996   -0.249029    0.514378
      5          7           0       -1.339982   -0.617374   -0.034385
      6          6           0       -2.217454    0.286329   -0.221658
      7          1           0        0.869013    1.762574    0.981790
      8          1           0        0.149912    1.636059   -0.656762
      9          1           0        2.083041    0.257834   -1.381122
     10          1           0        2.691103    0.201562    0.309074
     11          1           0       -0.119461   -0.435738    1.601975
     12          1           0       -2.069960    1.361895   -0.016905
     13          1           0       -3.198636   -0.006013   -0.612876
 ---------------------------------------------------------------------

 SCF Done:  E(RHF) =  -286.130030284     A.U. after    2 cycles

 The electronic state is 1-A.
 Alpha  occ. eigenvalues --  -21.03350 -15.74524 -11.46978 -11.44289 -11.42681
 Alpha  occ. eigenvalues --  -11.37975  -1.76263  -1.36917  -1.11402  -1.00526
 Alpha  occ. eigenvalues --   -0.87154  -0.77600  -0.69293  -0.67334  -0.63439
 Alpha  occ. eigenvalues --   -0.59122  -0.52256  -0.51023  -0.48498  -0.40303
 Alpha  occ. eigenvalues --   -0.37112  -0.34260  -0.29336
 Alpha virt. eigenvalues --    0.03496   0.05024   0.05351   0.05631   0.05963
 Alpha virt. eigenvalues --    0.06649   0.06866   0.09924   0.11431   0.11684
 Alpha virt. eigenvalues --    0.12209   0.13853   0.14026   0.14620   0.14974

 Mulliken charges:
               1
     1  C   -2.952600
     2  C   -1.838980
     3  O   -2.634970
     4  C    2.064916
     5  N   -2.814979
     6  C   -1.595634
     7  H    1.131418
     8  H    1.320369
     9  H    1.424400
    10  H    1.443954
    11  H    1.650569
    12  H    1.428266
    13  H    1.373270
 Sum of Mulliken charges =  -0.00000

 Dipole moment (field-independent basis, Debye):
    X=             -0.2027    Y=              2.0948    Z=              0.2554  Tot=              2.1201

 Test job not archived.
 1\1\GINC-SE149\SP\RHF\Aug-CC-pVDZ\C4H7N1O1\OHZDE\09-Apr-2025\0\\#t hf
 aug-cc-pvdz iop(5/13=1,5/36=2,99/5=2) pseudo=read geom=check guess=(re
 ad,tcheck) scf=(maxcycle=1)\\title\\0,1\C,0,-0.10909429,-0.63475249,0.
 75287233\C,0,-1.28912993,-1.2767984,0.00263414\O,0,-1.45276531,-0.1090
 5867,-0.84613516\C,0,-0.45580466,0.62174232,-0.09285739\N,0,0.49752583
 ,1.24545409,-0.97306682\C,0,1.72083117,1.2996051,-0.62335383\H,0,-0.20
 96033,-0.53409786,1.83933198\H,0,0.86776277,-1.0683638,0.50823942\H,0,
 -1.06356021,-2.17679633,-0.58837458\H,0,-2.17869598,-1.46037195,0.6252

 Normal termination of Gaussian 16 at Wed Apr  9 03:06:23 2025.
