 Gaussian 16, Revision C.01,

 ----------------------------------------------------------------------
 #t hf aug-cc-pvdz symm=none int=(grid=ultrafine) guess=(read,tcheck) s
 table=(opt,rrhf)
 ----------------------------------------------------------------------
 -----
 title
 -----
 Symbolic Z-matrix:
 Charge =  0 Multiplicity = 1

 SCF Done:  E(RHF) =  -359.609243338     A.U. after   16 cycles
 Normal termination of Gaussian 16 at Wed Apr  9 18:35:30 2025.
 Gaussian 16:  ES64L-G16RevC.01  3-Jul-2019

 ----------------------------------------------------------------------
 #t hf aug-cc-pvdz iop(5/13=1,5/36=2,99/5=2) pseudo=read geom=check gue
 ss=(read,tcheck) scf=(maxcycle=1)
 ----------------------------------------------------------------------
 -----
 title
 -----
 Structure from the checkpoint file:  "Grambow2020_wb97xd3_007294_reverse_mol1.chk"
 Charge =  0 Multiplicity = 1

                         Standard orientation:
 ---------------------------------------------------------------------
 Center     Atomic      Atomic             Coordinates (Angstroms)
 Number     Number       Type             X           Y           Z
 ---------------------------------------------------------------------
      1          8           0        0.424295    1.645606   -0.763576
      2          6           0        0.211149    0.895671    0.442386
      3          6           0       -1.241969    0.722030    0.688327
      4          7           0       -1.557824   -0.571836   -0.230930
      5          6           0       -0.342183   -1.339457   -0.455469
      6          6           0        0.779557   -0.494126    0.144141
      7          8           0        1.901196   -0.878592    0.326019
      8          1           0        1.371971    1.714623   -0.913046
      9          1           0        0.718934    1.359219    1.291574
     10          1           0       -1.503794    0.501637    1.719716
     11          1           0       -1.820538    0.489371   -0.557161
     12          1           0       -2.367364   -1.074346    0.094191
     13          1           0       -0.147618   -1.537259   -1.510514
     14          1           0       -0.390069   -2.291216    0.075891
 ---------------------------------------------------------------------

 SCF Done:  E(RHF) =  -361.213864237     A.U. after    2 cycles

 The electronic state is 1-A.
 Alpha  occ. eigenvalues --  -21.07367 -21.06925 -15.79035 -11.51348 -11.45301
 Alpha  occ. eigenvalues --  -11.43442 -11.36450  -1.74800  -1.69769  -1.45466
 Alpha  occ. eigenvalues --   -1.09750  -1.08455  -0.84885  -0.80017  -0.73465
 Alpha  occ. eigenvalues --   -0.67523  -0.65234  -0.61705  -0.57641  -0.52868
 Alpha  occ. eigenvalues --   -0.50713  -0.46287  -0.43160  -0.40146  -0.35380
 Alpha  occ. eigenvalues --   -0.30341  -0.24673
 Alpha virt. eigenvalues --    0.03075   0.04683   0.05153   0.05428   0.06487
 Alpha virt. eigenvalues --    0.06723   0.07406   0.09830   0.10515   0.12863
 Alpha virt. eigenvalues --    0.13081   0.13165   0.13989   0.14354   0.14811

 Mulliken charges:
               1
     1  O   -2.786283
     2  C    0.278745
     3  C   -2.264533
     4  N   -2.246592
     5  C   -2.697051
     6  C    4.812429
     7  O   -3.574645
     8  H    0.791152
     9  H    1.663485
    10  H    1.351060
    11  H    1.369463
    12  H    0.594264
    13  H    1.336386
    14  H    1.372120
 Sum of Mulliken charges =   0.00000

 Dipole moment (field-independent basis, Debye):
    X=             -0.9531    Y=             -2.5005    Z=             -0.5435  Tot=              2.7306

 Test job not archived.
 1\1\GINC-SE226\SP\RHF\Aug-CC-pVDZ\C4H7N1O2\OHZDE\09-Apr-2025\0\\#t hf
 aug-cc-pvdz iop(5/13=1,5/36=2,99/5=2) pseudo=read geom=check guess=(re
 ad,tcheck) scf=(maxcycle=1)\\title\\0,1\O,0,1.9644035,-0.14177603,-0.5
 8939109\C,0,0.95411307,0.0730698,0.40827243\C,0,0.22273047,1.33486979,
 0.13417081\N,0,-0.87591217,0.82730002,-0.9401867\C,0,-1.09049808,-0.60
 538927,-0.80308009\C,0,-0.04359471,-1.0704407,0.20693824\O,0,-0.028215
 4,-2.15239432,0.72472942\H,0,2.39888026,-0.97966312,-0.40400056\H,0,1.
 38107749,0.05595304,1.4138826\H,0,-0.28696324,1.75930674,0.99495844\H,

 Normal termination of Gaussian 16 at Wed Apr  9 18:35:35 2025.
