 Gaussian 16, Revision C.01,

 ----------------------------------------------------------------------
 #t hf aug-cc-pvdz symm=none int=(grid=ultrafine) guess=(read,tcheck) s
 table=(opt,rrhf)
 ----------------------------------------------------------------------
 -----
 title
 -----
 Symbolic Z-matrix:
 Charge =  0 Multiplicity = 1

 SCF Done:  E(RHF) =  -358.420767462     A.U. after   14 cycles
 Normal termination of Gaussian 16 at Wed Apr  9 18:11:56 2025.
 Gaussian 16:  ES64L-G16RevC.01  3-Jul-2019

 ----------------------------------------------------------------------
 #t hf aug-cc-pvdz iop(5/13=1,5/36=2,99/5=2) pseudo=read geom=check gue
 ss=(read,tcheck) scf=(maxcycle=1)
 ----------------------------------------------------------------------
 -----
 title
 -----
 Structure from the checkpoint file:  "Grambow2020_wb97xd3_006749_forward_mol1.chk"
 Charge =  0 Multiplicity = 1

                         Standard orientation:
 ---------------------------------------------------------------------
 Center     Atomic      Atomic             Coordinates (Angstroms)
 Number     Number       Type             X           Y           Z
 ---------------------------------------------------------------------
      1          8           0       -2.851201   -0.392519    0.000326
      2          6           0       -1.717772   -0.637386   -0.000343
      3          6           0       -0.354175    0.681453   -0.001231
      4          8           0        0.055868    1.792622    0.000263
      5          7           0        0.622489   -0.499730   -0.000860
      6          6           0        1.867981   -0.427476    0.737246
      7          6           0        1.869680   -0.427891   -0.735988
      8          1           0       -0.364999   -1.234422   -0.000498
      9          1           0        2.148069   -1.320616    1.281603
     10          1           0        2.036044    0.521157    1.238418
     11          1           0        2.040084    0.520300   -1.237513
     12          1           0        2.151758   -1.321327   -1.278804
 ---------------------------------------------------------------------

 SCF Done:  E(RHF) =  -360.025376108     A.U. after    2 cycles

 The electronic state is 1-A.
 Alpha  occ. eigenvalues --  -21.10009 -21.07754 -15.78082 -11.50197 -11.48140
 Alpha  occ. eigenvalues --  -11.46583 -11.44324  -1.74267  -1.72688  -1.52104
 Alpha  occ. eigenvalues --   -1.10240  -0.93772  -0.82772  -0.78567  -0.68856
 Alpha  occ. eigenvalues --   -0.66437  -0.57558  -0.57468  -0.54616  -0.52858
 Alpha  occ. eigenvalues --   -0.50552  -0.47120  -0.42620  -0.42119  -0.38378
 Alpha  occ. eigenvalues --   -0.21910
 Alpha virt. eigenvalues --    0.03061   0.04232   0.05495   0.06068   0.06214
 Alpha virt. eigenvalues --    0.09376   0.10098   0.10572   0.10631   0.11716
 Alpha virt. eigenvalues --    0.12930   0.12964   0.13978   0.14240   0.14598

 Mulliken charges:
               1
     1  O   -2.230174
     2  C    1.230012
     3  C    2.998058
     4  O   -2.489552
     5  N   -2.309038
     6  C   -2.255080
     7  C   -2.252168
     8  H    1.668533
     9  H    1.379148
    10  H    1.440643
    11  H    1.439940
    12  H    1.379679
 Sum of Mulliken charges =  -0.00000

 Dipole moment (field-independent basis, Debye):
    X=              3.5171    Y=             -1.2751    Z=              0.0013  Tot=              3.7411

 Test job not archived.
 1\1\GINC-SE131\SP\RHF\Aug-CC-pVDZ\C4H5N1O2\OHZDE\09-Apr-2025\0\\#t hf
 aug-cc-pvdz iop(5/13=1,5/36=2,99/5=2) pseudo=read geom=check guess=(re
 ad,tcheck) scf=(maxcycle=1)\\title\\0,1\O,0,3.33344438,0.44943563,0.81
 271671\C,0,2.17753182,0.36344585,0.8457688\C,0,1.10876156,-0.06691601,
 -0.66129864\O,0,0.93007584,-0.34286442,-1.79917291\N,0,-0.08075598,0.0
 5469191,0.29751569\C,0,-1.22432694,-0.82701062,0.17056851\C,0,-1.34277
 947,0.60461567,-0.15628922\H,0,0.73716995,0.32195961,1.17755647\H,0,-1
 .63294543,-1.20870045,1.09783144\H,0,-1.1595147,-1.52653333,-0.6575570

 Normal termination of Gaussian 16 at Wed Apr  9 18:12:00 2025.
