 Gaussian 16, Revision C.01,

 ----------------------------------------------------------------------
 #t hf aug-cc-pvdz symm=none int=(grid=ultrafine) guess=(read,tcheck) s
 table=(opt,rrhf)
 ----------------------------------------------------------------------
 -----
 title
 -----
 Symbolic Z-matrix:
 Charge =  0 Multiplicity = 1

 SCF Done:  E(RHF) =  -302.790960973     A.U. after   15 cycles
 Normal termination of Gaussian 16 at Wed Apr  9 19:24:11 2025.
 Gaussian 16:  ES64L-G16RevC.01  3-Jul-2019

 ----------------------------------------------------------------------
 #t hf aug-cc-pvdz iop(5/13=1,5/36=2,99/5=2) pseudo=read geom=check gue
 ss=(read,tcheck) scf=(maxcycle=1)
 ----------------------------------------------------------------------
 -----
 title
 -----
 Structure from the checkpoint file:  "Grambow2020_wb97xd3_008882_reverse_mol1.chk"
 Charge =  0 Multiplicity = 1

                         Standard orientation:
 ---------------------------------------------------------------------
 Center     Atomic      Atomic             Coordinates (Angstroms)
 Number     Number       Type             X           Y           Z
 ---------------------------------------------------------------------
      1          6           0        2.423418   -0.559669    0.062912
      2          7           0        1.064991   -0.097908   -0.083291
      3          6           0        0.626942    1.220253   -0.014558
      4          6           0       -0.814237    1.301119   -0.082665
      5          6           0       -1.173462   -0.088819   -0.025366
      6          7           0       -2.502997   -0.536038   -0.041382
      7          6           0       -0.051867   -0.878097   -0.078277
      8          1           0        2.638896   -0.877908    1.086842
      9          1           0        2.614687   -1.392938   -0.613942
     10          1           0        3.101270    0.252196   -0.197550
     11          1           0        1.321811    2.017554   -0.248380
     12          1           0        0.107831    1.493685    1.034597
     13          1           0       -3.130662    0.233577    0.134758
     14          1           0       -2.693888   -1.300900    0.586165
     15          1           0        0.041333   -1.956368   -0.082047
 ---------------------------------------------------------------------

 SCF Done:  E(RHF) =  -304.244581095     A.U. after    2 cycles

 The electronic state is 1-A.
 Alpha  occ. eigenvalues --  -15.76292 -15.73116 -11.45190 -11.42764 -11.42055
 Alpha  occ. eigenvalues --  -11.39504 -11.35073  -1.53672  -1.32634  -1.17214
 Alpha  occ. eigenvalues --   -1.06496  -0.97076  -0.80484  -0.76901  -0.69035
 Alpha  occ. eigenvalues --   -0.66039  -0.63186  -0.60269  -0.57203  -0.54518
 Alpha  occ. eigenvalues --   -0.52156  -0.50181  -0.41784  -0.38327  -0.31233
 Alpha  occ. eigenvalues --   -0.25569
 Alpha virt. eigenvalues --    0.02963   0.04930   0.05122   0.05397   0.06024
 Alpha virt. eigenvalues --    0.06341   0.07706   0.08231   0.10033   0.10767
 Alpha virt. eigenvalues --    0.11262   0.12144   0.12864   0.13463   0.14558

 Mulliken charges:
               1
     1  C   -3.478864
     2  N   -3.223542
     3  C   -1.151105
     4  C   -2.716779
     5  C    4.208488
     6  N   -3.504038
     7  C   -0.270918
     8  H    1.425184
     9  H    1.378622
    10  H    1.399716
    11  H    1.586151
    12  H    1.414576
    13  H    0.731054
    14  H    0.506201
    15  H    1.695255
 Sum of Mulliken charges =   0.00000

 Dipole moment (field-independent basis, Debye):
    X=              3.8426    Y=             -2.8434    Z=              1.2477  Tot=              4.9404

 Test job not archived.
 1\1\GINC-SE135\SP\RHF\Aug-CC-pVDZ\C5H8N2\OHZDE\09-Apr-2025\0\\#t hf au
 g-cc-pvdz iop(5/13=1,5/36=2,99/5=2) pseudo=read geom=check guess=(read
 ,tcheck) scf=(maxcycle=1)\\title\\0,1\C,0,2.2317844,0.14399727,-0.0762
 9671\N,0,0.82510327,-0.04155018,0.18205309\C,0,0.19952726,-1.23016337,
 0.54262531\C,0,-1.23597165,-1.07429784,0.59939451\C,0,-1.39190433,0.25
 510199,0.07725073\N,0,-2.64198968,0.87008756,-0.08707522\C,0,-0.167029
 72,0.84621336,-0.10715348\H,0,2.46455567,0.07119425,-1.14243804\H,0,2.
 55883486,1.11710621,0.29132844\H,0,2.79166689,-0.62529167,0.45396176\H

 Normal termination of Gaussian 16 at Wed Apr  9 19:24:15 2025.
