 Gaussian 16, Revision C.01,

 ----------------------------------------------------------------------
 #t hf aug-cc-pvdz symm=none int=(grid=ultrafine) guess=(read,tcheck) s
 table=(opt,rrhf)
 ----------------------------------------------------------------------
 -----
 title
 -----
 Symbolic Z-matrix:
 Charge =  0 Multiplicity = 1

 SCF Done:  E(RHF) =  -323.750907593     A.U. after   15 cycles
 Normal termination of Gaussian 16 at Wed Apr  9 18:18:51 2025.
 Gaussian 16:  ES64L-G16RevC.01  3-Jul-2019

 ----------------------------------------------------------------------
 #t hf aug-cc-pvdz iop(5/13=1,5/36=2,99/5=2) pseudo=read geom=check gue
 ss=(read,tcheck) scf=(maxcycle=1)
 ----------------------------------------------------------------------
 -----
 title
 -----
 Structure from the checkpoint file:  "Grambow2020_wb97xd3_006867_reverse_mol2.chk"
 Charge =  0 Multiplicity = 1

                         Standard orientation:
 ---------------------------------------------------------------------
 Center     Atomic      Atomic             Coordinates (Angstroms)
 Number     Number       Type             X           Y           Z
 ---------------------------------------------------------------------
      1          6           0       -2.130590    1.030439   -0.063168
      2          7           0       -1.293813    0.059739   -0.188997
      3          6           0       -1.216899   -1.403498   -0.083501
      4          6           0       -0.100629   -0.487470   -0.314597
      5          6           0        1.262517   -0.113476   -0.105284
      6          8           0        2.148449   -0.930974    0.062010
      7          6           0        1.523702    1.378697   -0.107431
      8          1           0       -0.738735    0.346225    2.678456
      9          1           0       -3.176597    0.799867    0.064351
     10          1           0       -1.767566    2.046416   -0.120358
     11          1           0       -1.433282   -1.792059    0.911744
     12          1           0       -1.656803   -1.959178   -0.908676
     13          1           0       -0.142074   -0.082681    2.544719
     14          1           0        2.597089    1.553115   -0.083150
     15          1           0        1.091894    1.853470   -0.990947
     16          1           0        1.066567    1.836281    0.774653
 ---------------------------------------------------------------------

 SCF Done:  E(RHF) =  -325.279464221     A.U. after    2 cycles

 The electronic state is 1-A.
 Alpha  occ. eigenvalues --  -21.01494 -15.86552 -11.49384 -11.48573 -11.44641
 Alpha  occ. eigenvalues --  -11.40536 -11.38208  -1.68188  -1.55909  -1.15697
 Alpha  occ. eigenvalues --   -1.10829  -0.94471  -0.86330  -0.75200  -0.69426
 Alpha  occ. eigenvalues --   -0.68311  -0.63667  -0.62043  -0.58662  -0.57330
 Alpha  occ. eigenvalues --   -0.52938  -0.49360  -0.46449  -0.45444  -0.42471
 Alpha  occ. eigenvalues --   -0.26767  -0.24669
 Alpha virt. eigenvalues --    0.03133   0.04769   0.04898   0.05389   0.06093
 Alpha virt. eigenvalues --    0.06180   0.07336   0.08152   0.08411   0.10064
 Alpha virt. eigenvalues --    0.10922   0.11165   0.11874   0.12794   0.13533

 Mulliken charges:
               1
     1  C   -1.894045
     2  N   -3.205151
     3  C   -3.233013
     4  C    3.154478
     5  C    3.638439
     6  O   -3.504449
     7  C   -4.638645
     8  H   -0.047997
     9  H    1.582996
    10  H    1.619280
    11  H    1.355302
    12  H    1.435349
    13  H   -0.118648
    14  H    1.153546
    15  H    1.352783
    16  H    1.349775
 Sum of Mulliken charges =  -0.00000

 Dipole moment (field-independent basis, Debye):
    X=             -3.0455    Y=              1.0552    Z=              0.2279  Tot=              3.2312

 Test job not archived.
 1\1\GINC-SE220\SP\RHF\Aug-CC-pVDZ\C5H9N1O1\OHZDE\09-Apr-2025\0\\#t hf
 aug-cc-pvdz iop(5/13=1,5/36=2,99/5=2) pseudo=read geom=check guess=(re
 ad,tcheck) scf=(maxcycle=1)\\title\\0,1\C,0,1.41090067,0.88817133,-1.2
 3345748\N,0,1.08001818,0.18263517,-0.20826281\C,0,1.49293715,-1.014431
 06,0.53647689\C,0,0.29240143,-0.2134156,0.77240239\C,0,-1.08994182,-0.
 12137209,1.12240744\O,0,-1.6245419,-0.89785126,1.89211401\C,0,-1.84194
 946,1.01664693,0.46346859\H,0,-0.54784257,-1.44790186,-2.02592367\H,0,
 2.34630611,0.67752248,-1.72762196\H,0,0.75983867,1.68999082,-1.5504253

 Normal termination of Gaussian 16 at Wed Apr  9 18:18:56 2025.
