 Gaussian 16, Revision C.01,

 ----------------------------------------------------------------------
 #t hf aug-cc-pvdz symm=none int=(grid=ultrafine) guess=(read,tcheck) s
 table=(opt,rrhf)
 ----------------------------------------------------------------------
 -----
 title
 -----
 Symbolic Z-matrix:
 Charge =  0 Multiplicity = 1

 SCF Done:  E(RHF) =  -302.779065894     A.U. after   15 cycles
 Normal termination of Gaussian 16 at Wed Apr  9 18:32:31 2025.
 Gaussian 16:  ES64L-G16RevC.01  3-Jul-2019

 ----------------------------------------------------------------------
 #t hf aug-cc-pvdz iop(5/13=1,5/36=2,99/5=2) pseudo=read geom=check gue
 ss=(read,tcheck) scf=(maxcycle=1)
 ----------------------------------------------------------------------
 -----
 title
 -----
 Structure from the checkpoint file:  "Grambow2020_wb97xd3_007246_reverse_mol2.chk"
 Charge =  0 Multiplicity = 1

                         Standard orientation:
 ---------------------------------------------------------------------
 Center     Atomic      Atomic             Coordinates (Angstroms)
 Number     Number       Type             X           Y           Z
 ---------------------------------------------------------------------
      1          6           0       -2.242078   -0.718415    0.584052
      2          7           0       -1.163361   -0.180943   -0.447653
      3          6           0       -0.717844    1.156465   -0.147249
      4          7           0        0.518124    1.234073    0.130452
      5          6           0        1.039084   -0.078062   -0.042751
      6          6           0        2.475317   -0.336269    0.220256
      7          6           0        0.071153   -0.921533   -0.401514
      8          1           0       -1.725563   -0.591551    1.546588
      9          1           0       -3.017925    0.061237    0.534793
     10          1           0       -1.625662   -0.249576   -1.350439
     11          1           0       -1.447931    1.952739   -0.110933
     12          1           0        3.094587    0.292090   -0.421796
     13          1           0        2.714626   -0.082508    1.254397
     14          1           0        2.727109   -1.380947    0.044661
     15          1           0        0.043623   -1.986509   -0.553630
 ---------------------------------------------------------------------

 SCF Done:  E(RHF) =  -304.224400376     A.U. after    2 cycles

 The electronic state is 1-A.
 Alpha  occ. eigenvalues --  -15.84152 -15.76353 -11.48453 -11.46803 -11.43429
 Alpha  occ. eigenvalues --  -11.39571 -11.31923  -1.60511  -1.34491  -1.17376
 Alpha  occ. eigenvalues --   -1.04267  -0.93212  -0.86770  -0.81135  -0.76137
 Alpha  occ. eigenvalues --   -0.65315  -0.61350  -0.58604  -0.57964  -0.53410
 Alpha  occ. eigenvalues --   -0.53038  -0.48204  -0.46911  -0.42909  -0.35355
 Alpha  occ. eigenvalues --   -0.26081
 Alpha virt. eigenvalues --    0.03043   0.04534   0.05109   0.05700   0.06138
 Alpha virt. eigenvalues --    0.06374   0.06830   0.08037   0.09044   0.10245
 Alpha virt. eigenvalues --    0.10886   0.11784   0.12553   0.12872   0.13523

 Mulliken charges:
               1
     1  C   -3.103602
     2  N   -2.169662
     3  C    1.448927
     4  N   -3.830294
     5  C    5.398179
     6  C   -4.862630
     7  C   -2.547134
     8  H    1.264434
     9  H    1.252371
    10  H    0.782621
    11  H    1.578003
    12  H    1.186861
    13  H    1.159752
    14  H    1.214651
    15  H    1.227523
 Sum of Mulliken charges =  -0.00000

 Dipole moment (field-independent basis, Debye):
    X=              2.6750    Y=              1.4751    Z=             -2.4308  Tot=              3.9039

 Test job not archived.
 1\1\GINC-SE103\SP\RHF\Aug-CC-pVDZ\C5H8N2\OHZDE\09-Apr-2025\0\\#t hf au
 g-cc-pvdz iop(5/13=1,5/36=2,99/5=2) pseudo=read geom=check guess=(read
 ,tcheck) scf=(maxcycle=1)\\title\\0,1\C,0,-2.31521002,-0.19297876,-0.6
 4034165\N,0,-1.19365823,0.40418555,0.30962519\C,0,-0.65764681,-0.57070
 745,1.22595738\N,0,0.57858462,-0.80457396,1.05924036\C,0,1.0074513,0.0
 8192173,0.0329384\C,0,2.41998817,0.0524416,-0.41703899\C,0,-0.01455733
 ,0.81536011,-0.40820745\H,0,-1.79835576,-1.04778058,-1.10026869\H,0,-3
 .03402311,-0.60820105,0.08292953\H,0,-1.6527985,1.17881283,0.78142955\

 Normal termination of Gaussian 16 at Wed Apr  9 18:32:36 2025.
