 Gaussian 16, Revision C.01,

 ----------------------------------------------------------------------
 #t hf aug-cc-pvdz symm=none int=(grid=ultrafine) guess=(read,tcheck) s
 table=(opt,rrhf)
 ----------------------------------------------------------------------
 -----
 title
 -----
 Symbolic Z-matrix:
 Charge =  0 Multiplicity = 1

 SCF Done:  E(RHF) =  -374.477837206     A.U. after   19 cycles
 Normal termination of Gaussian 16 at Wed Apr  9 18:37:15 2025.
 Gaussian 16:  ES64L-G16RevC.01  3-Jul-2019

 ----------------------------------------------------------------------
 #t hf aug-cc-pvdz iop(5/13=1,5/36=2,99/5=2) pseudo=read geom=check gue
 ss=(read,tcheck) scf=(maxcycle=1)
 ----------------------------------------------------------------------
 -----
 title
 -----
 Structure from the checkpoint file:  "Grambow2020_wb97xd3_007342_reverse_mol1.chk"
 Charge =  0 Multiplicity = 1

                         Standard orientation:
 ---------------------------------------------------------------------
 Center     Atomic      Atomic             Coordinates (Angstroms)
 Number     Number       Type             X           Y           Z
 ---------------------------------------------------------------------
      1          7           0       -2.254321   -0.671372    0.209873
      2          6           0       -1.017001   -0.161726   -0.164915
      3          6           0       -0.688051    1.216606   -0.046291
      4          8           0        0.508512    1.526011   -0.092293
      5          6           0        1.439759   -0.296089    0.392399
      6          8           0        2.493266   -0.539253   -0.013993
      7          7           0        0.061898   -0.911644   -0.278847
      8          1           0       -2.592724   -1.432751   -0.356087
      9          1           0       -2.966229    0.030804    0.335047
     10          1           0       -1.453525    1.926617    0.296673
     11          1           0       -0.063021   -1.890360   -0.029693
 ---------------------------------------------------------------------

 SCF Done:  E(RHF) =  -376.119747740     A.U. after    2 cycles

 The electronic state is 1-A.
 Alpha  occ. eigenvalues --  -21.08926 -21.07594 -15.80706 -15.80271 -11.50634
 Alpha  occ. eigenvalues --  -11.46661 -11.45512  -1.75130  -1.71814  -1.47112
 Alpha  occ. eigenvalues --   -1.30941  -1.02843  -0.83993  -0.80412  -0.71498
 Alpha  occ. eigenvalues --   -0.68594  -0.60825  -0.59553  -0.55311  -0.54203
 Alpha  occ. eigenvalues --   -0.47756  -0.45970  -0.43326  -0.38659  -0.31608
 Alpha  occ. eigenvalues --   -0.22742
 Alpha virt. eigenvalues --    0.02428   0.04237   0.04771   0.06816   0.07929
 Alpha virt. eigenvalues --    0.09793   0.10902   0.11309   0.11583   0.12466
 Alpha virt. eigenvalues --    0.13262   0.13976   0.14321   0.14652   0.15559

 Mulliken charges:
               1
     1  N   -2.905036
     2  C    2.878293
     3  C    1.713490
     4  O   -2.626476
     5  C    2.225328
     6  O   -2.115602
     7  N   -2.691023
     8  H    0.638380
     9  H    0.589974
    10  H    1.623775
    11  H    0.668897
 Sum of Mulliken charges =   0.00000

 Dipole moment (field-independent basis, Debye):
    X=             -3.3547    Y=             -1.1694    Z=             -0.6862  Tot=              3.6183

 Test job not archived.
 1\1\GINC-SE112\SP\RHF\Aug-CC-pVDZ\C3H4N2O2\OHZDE\09-Apr-2025\0\\#t hf
 aug-cc-pvdz iop(5/13=1,5/36=2,99/5=2) pseudo=read geom=check guess=(re
 ad,tcheck) scf=(maxcycle=1)\\title\\0,1\N,0,-1.69973867,-0.45357643,0.
 12888699\C,0,-0.42148065,-0.01876162,-0.19999004\C,0,-0.00455794,1.330
 55998,-0.03390847\O,0,1.21079832,1.55962102,-0.04096679\C,0,2.00487548
 ,-0.333482,0.41488288\O,0,3.05038569,-0.63624073,0.02835254\N,0,0.6076
 2097,-0.83647127,-0.30807096\H,0,-2.07281435,-1.1749748,-0.46686889\H,
 0,-2.36629354,0.29144724,0.25607142\H,0,-0.72989911,2.08119064,0.30978

 Normal termination of Gaussian 16 at Wed Apr  9 18:37:19 2025.
