 Gaussian 16, Revision C.01,

 ----------------------------------------------------------------------
 #t hf aug-cc-pvdz symm=none int=(grid=ultrafine) guess=(read,tcheck) s
 table=(opt,rrhf)
 ----------------------------------------------------------------------
 -----
 title
 -----
 Symbolic Z-matrix:
 Charge =  0 Multiplicity = 1

 SCF Done:  E(RHF) =  -284.740365386     A.U. after   15 cycles
 Normal termination of Gaussian 16 at Wed Apr  9 03:06:22 2025.
 Gaussian 16:  ES64L-G16RevC.01  3-Jul-2019

 ----------------------------------------------------------------------
 #t hf aug-cc-pvdz iop(5/13=1,5/36=2,99/5=2) pseudo=read geom=check gue
 ss=(read,tcheck) scf=(maxcycle=1)
 ----------------------------------------------------------------------
 -----
 title
 -----
 Structure from the checkpoint file:  "Grambow2020_b97d3_006529_forward_mol1.chk"
 Charge =  0 Multiplicity = 1

                         Standard orientation:
 ---------------------------------------------------------------------
 Center     Atomic      Atomic             Coordinates (Angstroms)
 Number     Number       Type             X           Y           Z
 ---------------------------------------------------------------------
      1          6           0       -0.091470    1.320129   -0.366166
      2          6           0       -1.251558    0.539471    0.241911
      3          8           0       -1.132677   -0.895594   -0.047068
      4          6           0        0.090281   -1.461898   -0.077087
      5          7           0        1.222434   -0.749907    0.110725
      6          6           0        1.208959    0.737776    0.191179
      7          1           0       -0.115191    1.211319   -1.460695
      8          1           0       -0.190544    2.391039   -0.135885
      9          1           0       -1.281547    0.665050    1.333999
     10          1           0       -2.221919    0.829262   -0.175863
     11          1           0        1.149766   -1.602051   -0.816695
     12          1           0        2.098103    1.105588   -0.336053
     13          1           0        1.328441    1.001025    1.253651
 ---------------------------------------------------------------------

 SCF Done:  E(RHF) =  -286.059804581     A.U. after    2 cycles

 The electronic state is 1-A.
 Alpha  occ. eigenvalues --  -21.08150 -15.75214 -11.45600 -11.44252 -11.42086
 Alpha  occ. eigenvalues --  -11.38611  -1.78310  -1.38594  -1.19453  -0.98925
 Alpha  occ. eigenvalues --   -0.90973  -0.72230  -0.70618  -0.63347  -0.61411
 Alpha  occ. eigenvalues --   -0.60104  -0.55508  -0.51975  -0.50773  -0.45513
 Alpha  occ. eigenvalues --   -0.35810  -0.33435  -0.30546
 Alpha virt. eigenvalues --    0.03204   0.05111   0.05220   0.05605   0.05714
 Alpha virt. eigenvalues --    0.06037   0.07264   0.10798   0.10819   0.12545
 Alpha virt. eigenvalues --    0.12812   0.13358   0.13838   0.14363   0.14727

 Mulliken charges:
               1
     1  C   -2.795824
     2  C   -1.205263
     3  O   -2.522678
     4  C    1.026598
     5  N   -2.092730
     6  C   -2.126846
     7  H    1.344065
     8  H    1.313419
     9  H    1.481762
    10  H    1.290018
    11  H    1.488452
    12  H    1.347206
    13  H    1.451821
 Sum of Mulliken charges =   0.00000

 Dipole moment (field-independent basis, Debye):
    X=             -0.3714    Y=              3.5255    Z=             -0.1948  Tot=              3.5504

 Test job not archived.
 1\1\GINC-SE092\SP\RHF\Aug-CC-pVDZ\C4H7N1O1\OHZDE\09-Apr-2025\0\\#t hf
 aug-cc-pvdz iop(5/13=1,5/36=2,99/5=2) pseudo=read geom=check guess=(re
 ad,tcheck) scf=(maxcycle=1)\\title\\0,1\C,0,0.4975581,-0.68805331,0.53
 384194\C,0,-0.81321356,-1.06458836,-0.14813087\O,0,-1.74713743,0.06883
 823,-0.16173076\C,0,-1.26451881,1.31755024,-0.3199251\N,0,0.05693046,1
 .57449179,-0.42821679\C,0,1.0822659,0.51648506,-0.2064887\H,0,0.298018
 32,-0.425535,1.58344295\H,0,1.188505,-1.54378199,0.53030787\H,0,-0.640
 83266,-1.37561846,-1.18874159\H,0,-1.34963657,-1.86246595,0.37699235\H

 Normal termination of Gaussian 16 at Wed Apr  9 03:06:26 2025.
