 Gaussian 16, Revision C.01,

 ----------------------------------------------------------------------
 #t hf aug-cc-pvdz symm=none int=(grid=ultrafine) guess=(read,tcheck) s
 table=(opt,rrhf)
 ----------------------------------------------------------------------
 -----
 title
 -----
 Symbolic Z-matrix:
 Charge =  0 Multiplicity = 1

 SCF Done:  E(RHF) =  -266.695176056     A.U. after   15 cycles
 Normal termination of Gaussian 16 at Wed Apr  9 03:04:07 2025.
 Gaussian 16:  ES64L-G16RevC.01  3-Jul-2019

 ----------------------------------------------------------------------
 #t hf aug-cc-pvdz iop(5/13=1,5/36=2,99/5=2) pseudo=read geom=check gue
 ss=(read,tcheck) scf=(maxcycle=1)
 ----------------------------------------------------------------------
 -----
 title
 -----
 Structure from the checkpoint file:  "Grambow2020_b97d3_006471_forward_mol1.chk"
 Charge =  0 Multiplicity = 1

                         Standard orientation:
 ---------------------------------------------------------------------
 Center     Atomic      Atomic             Coordinates (Angstroms)
 Number     Number       Type             X           Y           Z
 ---------------------------------------------------------------------
      1          8           0       -1.260848   -0.857425    0.252942
      2          6           0       -1.195856    0.419410   -0.102799
      3          6           0        0.144436    1.026093   -0.161310
      4          6           0        1.224942    0.237026    0.473716
      5          8           0        1.093212   -0.811911   -0.495417
      6          1           0        0.103395   -1.165548   -0.227438
      7          1           0       -1.832433    0.735815   -0.963998
      8          1           0       -1.535925    1.169022    0.714274
      9          1           0        0.344054    1.920119   -0.758192
     10          1           0        0.996974   -0.080903    1.503498
     11          1           0        2.223894    0.681016    0.414017
 ---------------------------------------------------------------------

 SCF Done:  E(RHF) =  -267.890839140     A.U. after    2 cycles

 The electronic state is 1-A.
 Alpha  occ. eigenvalues --  -21.05630 -20.95928 -11.55200 -11.46474 -11.43345
 Alpha  occ. eigenvalues --   -1.73603  -1.60440  -1.17938  -0.98715  -0.83671
 Alpha  occ. eigenvalues --   -0.74342  -0.65343  -0.62139  -0.56068  -0.53784
 Alpha  occ. eigenvalues --   -0.46264  -0.42423  -0.33862  -0.25698  -0.23807
 Alpha virt. eigenvalues --    0.02578   0.04273   0.04643   0.05005   0.05566
 Alpha virt. eigenvalues --    0.06192   0.09345   0.10656   0.11826   0.12491
 Alpha virt. eigenvalues --    0.12997   0.13732   0.14590   0.15524   0.16100

 Mulliken charges:
               1
     1  O   -2.739612
     2  C   -0.184369
     3  C   -1.343240
     4  C   -1.523581
     5  O   -2.111170
     6  H    1.344591
     7  H    1.235591
     8  H    1.126250
     9  H    1.435769
    10  H    1.382119
    11  H    1.377653
 Sum of Mulliken charges =  -0.00000

 Dipole moment (field-independent basis, Debye):
    X=              2.5630    Y=              2.8425    Z=             -0.3603  Tot=              3.8443

 Test job not archived.
 1\1\GINC-SE162\SP\RHF\Aug-CC-pVDZ\C3H6O2\OHZDE\09-Apr-2025\0\\#t hf au
 g-cc-pvdz iop(5/13=1,5/36=2,99/5=2) pseudo=read geom=check guess=(read
 ,tcheck) scf=(maxcycle=1)\\title\\0,1\O,0,-1.63914384,-0.31011682,-0.4
 853035\C,0,-0.97946004,0.75542356,-0.04881193\C,0,0.45457249,0.5796355
 8,0.23494776\C,0,0.92092753,-0.82479956,0.29370408\O,0,0.64475396,-1.0
 245733,-1.09937074\H,0,-0.43632948,-0.9406873,-1.07052436\H,0,-1.18412
 379,1.72265995,-0.56801531\H,0,-1.19642803,1.04285047,1.05367848\H,0,1
 .14406035,1.42796505,0.25341202\H,0,0.32104431,-1.4649867,0.95988783\H

 Normal termination of Gaussian 16 at Wed Apr  9 03:04:09 2025.
