 Gaussian 16, Revision C.01,

 ----------------------------------------------------------------------
 #t hf aug-cc-pvdz symm=none int=(grid=ultrafine) guess=(read,tcheck) s
 table=(opt,rrhf)
 ----------------------------------------------------------------------
 -----
 title
 -----
 Symbolic Z-matrix:
 Charge =  0 Multiplicity = 1

 SCF Done:  E(RHF) =  -320.286858400     A.U. after   16 cycles
 Normal termination of Gaussian 16 at Wed Apr  9 18:47:20 2025.
 Gaussian 16:  ES64L-G16RevC.01  3-Jul-2019

 ----------------------------------------------------------------------
 #t hf aug-cc-pvdz iop(5/13=1,5/36=2,99/5=2) pseudo=read geom=check gue
 ss=(read,tcheck) scf=(maxcycle=1)
 ----------------------------------------------------------------------
 -----
 title
 -----
 Structure from the checkpoint file:  "Grambow2020_wb97xd3_007654_forward_mol1.chk"
 Charge =  0 Multiplicity = 1

                         Standard orientation:
 ---------------------------------------------------------------------
 Center     Atomic      Atomic             Coordinates (Angstroms)
 Number     Number       Type             X           Y           Z
 ---------------------------------------------------------------------
      1          7           0        2.922980    0.009651    0.008106
      2          6           0        1.774631   -0.009243   -0.001081
      3          6           0        0.355839   -0.008817   -0.013992
      4          6           0       -0.467818   -1.075202   -0.000495
      5          8           0       -1.753510   -0.701160    0.009185
      6          6           0       -1.890218    0.676073   -0.095749
      7          6           0       -0.542121    1.133554   -0.043762
      8          1           0       -0.259672   -2.134461    0.014168
      9          1           0       -1.293631    1.211734    0.984376
     10          1           0       -0.261354    2.166262   -0.198285
 ---------------------------------------------------------------------

 SCF Done:  E(RHF) =  -321.708379484     A.U. after    2 cycles

 The electronic state is 1-A.
 Alpha  occ. eigenvalues --  -21.15002 -15.77916 -11.53307 -11.50978 -11.47037
 Alpha  occ. eigenvalues --  -11.45286 -11.43586  -1.88685  -1.34964  -1.25960
 Alpha  occ. eigenvalues --   -1.13803  -0.91544  -0.82611  -0.80181  -0.67066
 Alpha  occ. eigenvalues --   -0.61737  -0.60085  -0.53951  -0.51006  -0.48369
 Alpha  occ. eigenvalues --   -0.46692  -0.43914  -0.37587  -0.35765
 Alpha virt. eigenvalues --    0.02161   0.05359   0.05638   0.07705   0.08224
 Alpha virt. eigenvalues --    0.08966   0.09093   0.09561   0.09762   0.11868
 Alpha virt. eigenvalues --    0.12545   0.12838   0.13457   0.14746   0.15302

 Mulliken charges:
               1
     1  N   -2.655602
     2  C    2.491247
     3  C    2.930802
     4  C   -0.131028
     5  O   -3.328816
     6  C   -1.082084
     7  C   -2.480686
     8  H    1.383811
     9  H    1.426398
    10  H    1.445958
 Sum of Mulliken charges =  -0.00000

 Dipole moment (field-independent basis, Debye):
    X=             -0.9257    Y=             -0.9462    Z=              0.4786  Tot=              1.4076

 Test job not archived.
 1\1\GINC-SE168\SP\RHF\Aug-CC-pVDZ\C5H3N1O1\OHZDE\09-Apr-2025\0\\#t hf
 aug-cc-pvdz iop(5/13=1,5/36=2,99/5=2) pseudo=read geom=check guess=(re
 ad,tcheck) scf=(maxcycle=1)\\title\\0,1\N,0,2.89128631,-0.52686879,-0.
 90265473\C,0,1.83460714,-0.2708252,-0.53249517\C,0,0.52404836,0.022240
 15,-0.07457947\C,0,0.00333055,1.23164189,0.21172493\O,0,-1.27694295,1.
 13623709,0.5922541\C,0,-1.69045029,-0.1856247,0.68259825\C,0,-0.562765
 72,-0.90498196,0.19248457\H,0,0.43643302,2.21979963,0.1725354\H,0,-1.5
 8289344,-0.71415008,-0.54972153\H,0,-0.49521697,-1.98399003,0.21177265

 Normal termination of Gaussian 16 at Wed Apr  9 18:47:24 2025.
