 Gaussian 16, Revision C.01,

 ----------------------------------------------------------------------
 #t hf aug-cc-pvdz symm=none int=(grid=ultrafine) guess=(read,tcheck) s
 table=(opt,rrhf)
 ----------------------------------------------------------------------
 -----
 title
 -----
 Symbolic Z-matrix:
 Charge =  0 Multiplicity = 1

 SCF Done:  E(RHF) =  -323.925470350     A.U. after   14 cycles
 Normal termination of Gaussian 16 at Wed Apr  9 03:52:46 2025.
 Gaussian 16:  ES64L-G16RevC.01  3-Jul-2019

 ----------------------------------------------------------------------
 #t hf aug-cc-pvdz iop(5/13=1,5/36=2,99/5=2) pseudo=read geom=check gue
 ss=(read,tcheck) scf=(maxcycle=1)
 ----------------------------------------------------------------------
 -----
 title
 -----
 Structure from the checkpoint file:  "Grambow2020_wb97xd3_008328_reverse_mol2.chk"
 Charge =  0 Multiplicity = 1

                         Standard orientation:
 ---------------------------------------------------------------------
 Center     Atomic      Atomic             Coordinates (Angstroms)
 Number     Number       Type             X           Y           Z
 ---------------------------------------------------------------------
      1          7           0        2.171010   -1.015922   -0.494040
      2          6           0        1.662245   -0.099772   -0.024992
      3          6           0        0.988051    1.063967    0.543398
      4          6           0       -0.234131    1.511824   -0.275303
      5          6           0       -1.515088    0.708046   -0.058818
      6          6           0       -1.451458   -0.777355   -0.386523
      7          8           0       -0.794229   -1.506509    0.636850
      8          1           0        0.010857   -1.891845    0.285984
      9          1           0        0.701533    0.816787    1.567711
     10          1           0        1.723380    1.869865    0.590240
     11          1           0        0.032686    1.510459   -1.335918
     12          1           0       -0.433829    2.552603   -0.010523
     13          1           0       -1.843276    0.805402    0.980995
     14          1           0       -2.298196    1.160405   -0.674924
     15          1           0       -0.962968   -0.935520   -1.354704
     16          1           0       -2.471137   -1.164900   -0.471950
 ---------------------------------------------------------------------

 SCF Done:  E(RHF) =  -325.441313185     A.U. after    2 cycles

 The electronic state is 1-A.
 Alpha  occ. eigenvalues --  -21.06057 -15.75794 -11.48248 -11.45745 -11.43596
 Alpha  occ. eigenvalues --  -11.41656 -11.37387  -1.70853  -1.33396  -1.23871
 Alpha  occ. eigenvalues --   -1.09991  -0.95780  -0.84148  -0.71585  -0.66813
 Alpha  occ. eigenvalues --   -0.66453  -0.61789  -0.58162  -0.57150  -0.51679
 Alpha  occ. eigenvalues --   -0.50145  -0.49006  -0.47837  -0.43580  -0.42174
 Alpha  occ. eigenvalues --   -0.40049  -0.31173
 Alpha virt. eigenvalues --    0.03412   0.04876   0.05076   0.05478   0.05828
 Alpha virt. eigenvalues --    0.06172   0.06559   0.07470   0.08167   0.10204
 Alpha virt. eigenvalues --    0.11707   0.12756   0.13288   0.13722   0.14158

 Mulliken charges:
               1
     1  N   -2.446320
     2  C    2.356898
     3  C   -2.880711
     4  C   -2.696603
     5  C   -2.610216
     6  C   -1.192027
     7  O   -2.618318
     8  H    0.899009
     9  H    1.561743
    10  H    1.378507
    11  H    1.439086
    12  H    1.262479
    13  H    1.444379
    14  H    1.270566
    15  H    1.654154
    16  H    1.177374
 Sum of Mulliken charges =  -0.00000

 Dipole moment (field-independent basis, Debye):
    X=             -1.6297    Y=              2.7929    Z=              0.5900  Tot=              3.2870

 Test job not archived.
 1\1\GINC-SE331\SP\RHF\Aug-CC-pVDZ\C5H9N1O1\OHZDE\09-Apr-2025\0\\#t hf
 aug-cc-pvdz iop(5/13=1,5/36=2,99/5=2) pseudo=read geom=check guess=(re
 ad,tcheck) scf=(maxcycle=1)\\title\\0,1\N,0,2.60518515,0.50427239,0.94
 528311\C,0,1.91069763,-0.27219245,0.46261512\C,0,0.99741725,-1.2442158
 9,-0.13150888\C,0,-0.44531594,-1.10824357,0.38289083\C,0,-1.27785268,0
 .00666208,-0.24770045\C,0,-0.75494005,1.42653978,-0.07927897\O,0,0.316
 98664,1.69331014,-0.96850005\H,0,1.11520932,1.85962712,-0.46359003\H,0
 ,1.0377055,-1.12110459,-1.21577294\H,0,1.38720834,-2.23665728,0.104069

 Normal termination of Gaussian 16 at Wed Apr  9 03:52:51 2025.
