 Gaussian 16, Revision C.01,

 ----------------------------------------------------------------------
 #t hf aug-cc-pvdz symm=none int=(grid=ultrafine) guess=(read,tcheck) s
 table=(opt,rrhf)
 ----------------------------------------------------------------------
 -----
 title
 -----
 Symbolic Z-matrix:
 Charge =  0 Multiplicity = 1

 SCF Done:  E(RHF) =  -234.195534809     A.U. after   11 cycles
 Normal termination of Gaussian 16 at Wed Apr  9 16:19:06 2025.
 Gaussian 16:  ES64L-G16RevC.01  3-Jul-2019

 ----------------------------------------------------------------------
 #t hf aug-cc-pvdz iop(5/13=1,5/36=2,99/5=2) pseudo=read geom=check gue
 ss=(read,tcheck) scf=(maxcycle=1)
 ----------------------------------------------------------------------
 -----
 title
 -----
 Structure from the checkpoint file:  "Grambow2020_b97d3_006791_forward_mol2.chk"
 Charge =  0 Multiplicity = 1

                         Standard orientation:
 ---------------------------------------------------------------------
 Center     Atomic      Atomic             Coordinates (Angstroms)
 Number     Number       Type             X           Y           Z
 ---------------------------------------------------------------------
      1          6           0        2.348221   -0.000751    0.447011
      2          6           0        1.088384    0.000143   -0.410098
      3          6           0       -0.000248   -1.081154   -0.149374
      4          6           0       -1.088502    0.000789   -0.409539
      5          6           0       -2.348781   -0.000512    0.446870
      6          6           0        0.000497    1.081776   -0.148118
      7          1           0        2.088764    0.001428    1.516676
      8          1           0        2.967022    0.887533    0.248632
      9          1           0        2.963086   -0.892127    0.250905
     10          1           0        1.358589    0.001319   -1.477443
     11          1           0        0.001139   -1.386414    0.908573
     12          1           0       -0.000775   -1.981590   -0.778644
     13          1           0       -1.357847    0.001767   -1.477087
     14          1           0       -2.967410    0.887478    0.247540
     15          1           0       -2.962743   -0.892514    0.250735
     16          1           0       -2.089534    0.001953    1.516522
     17          1           0        0.001143    1.982751   -0.776808
     18          1           0        0.001139    1.386669    0.909884
 ---------------------------------------------------------------------

 SCF Done:  E(RHF) =  -235.416744492     A.U. after    2 cycles

 The electronic state is 1-A.
 Alpha  occ. eigenvalues --  -11.49481 -11.39738 -11.39102 -11.37742 -11.36345
 Alpha  occ. eigenvalues --  -11.33017  -1.33807  -1.09612  -1.00917  -0.94577
 Alpha  occ. eigenvalues --   -0.83239  -0.76913  -0.66410  -0.58432  -0.57609
 Alpha  occ. eigenvalues --   -0.57605  -0.54755  -0.53009  -0.52028  -0.46922
 Alpha  occ. eigenvalues --   -0.42827  -0.41679  -0.38689  -0.36728
 Alpha virt. eigenvalues --    0.04235   0.05047   0.05493   0.05609   0.05825
 Alpha virt. eigenvalues --    0.05885   0.06037   0.06680   0.06705   0.08294
 Alpha virt. eigenvalues --    0.08757   0.09664   0.11658   0.12670   0.14038

 Mulliken charges:
               1
     1  C   -4.492089
     2  C   -0.059457
     3  C   -3.167533
     4  C   -0.057195
     5  C   -4.492395
     6  C   -3.168537
     7  H    1.214348
     8  H    1.197431
     9  H    1.197812
    10  H    1.336711
    11  H    1.575279
    12  H    1.198503
    13  H    1.336091
    14  H    1.197190
    15  H    1.197863
    16  H    1.213465
    17  H    1.197899
    18  H    1.574613
 Sum of Mulliken charges =  -0.00000

 Dipole moment (field-independent basis, Debye):
    X=             -0.0006    Y=              0.0001    Z=             -0.2972  Tot=              0.2972

 Test job not archived.
 1\1\GINC-SE042\SP\RHF\Aug-CC-pVDZ\C6H12\OHZDE\09-Apr-2025\0\\#t hf aug
 -cc-pvdz iop(5/13=1,5/36=2,99/5=2) pseudo=read geom=check guess=(read,
 tcheck) scf=(maxcycle=1)\\title\\0,1\C,0,-2.32741126,0.24863571,0.4279
 517\C,0,-1.07553104,0.23718971,-0.44066253\C,0,0.15062234,1.0911865,-0
 .00530327\C,0,1.08040094,-0.06064203,-0.48632636\C,0,2.32454545,-0.392
 61108,0.32831637\C,0,-0.1486554,-1.01258971,-0.40881914\H,0,-2.0760335
 8,0.00972379,1.47257388\H,0,-3.06190406,-0.49349897,0.07999316\H,0,-2.
 81238418,1.23641448,0.41518259\H,0,-1.33802807,0.47386789,-1.48340702\

 Normal termination of Gaussian 16 at Wed Apr  9 16:19:12 2025.
