 Gaussian 16, Revision C.01,

 ----------------------------------------------------------------------
 #t hf aug-cc-pvdz symm=none int=(grid=ultrafine) guess=(read,tcheck) s
 table=(opt,rrhf)
 ----------------------------------------------------------------------
 -----
 title
 -----
 Symbolic Z-matrix:
 Charge =  0 Multiplicity = 1

 SCF Done:  E(RHF) =  -284.762016495     A.U. after   15 cycles
 Normal termination of Gaussian 16 at Wed Apr  9 17:55:27 2025.
 Gaussian 16:  ES64L-G16RevC.01  3-Jul-2019

 ----------------------------------------------------------------------
 #t hf aug-cc-pvdz iop(5/13=1,5/36=2,99/5=2) pseudo=read geom=check gue
 ss=(read,tcheck) scf=(maxcycle=1)
 ----------------------------------------------------------------------
 -----
 title
 -----
 Structure from the checkpoint file:  "Grambow2020_wb97xd3_006246_reverse_mol2.chk"
 Charge =  0 Multiplicity = 1

                         Standard orientation:
 ---------------------------------------------------------------------
 Center     Atomic      Atomic             Coordinates (Angstroms)
 Number     Number       Type             X           Y           Z
 ---------------------------------------------------------------------
      1          8           0        1.807969   -0.937988   -0.013277
      2          6           0        1.314398    0.162598   -0.125410
      3          7           0        0.005650    0.440442    0.076775
      4          6           0       -0.882440   -0.629157    0.494537
      5          6           0       -1.795657   -1.287760   -0.391353
      6          6           0       -0.537880    1.771633   -0.045295
      7          1           0        1.902227    1.051587   -0.411623
      8          1           0       -0.265266   -1.576844    0.521754
      9          1           0       -1.223468   -0.493328    1.524772
     10          1           0       -1.480122   -1.046996   -1.424988
     11          1           0       -0.978455    2.103050    0.898990
     12          1           0        0.258878    2.464723   -0.314670
     13          1           0       -1.307616    1.814730   -0.820325
 ---------------------------------------------------------------------

 SCF Done:  E(RHF) =  -286.050441349     A.U. after    2 cycles

 The electronic state is 1-A.
 Alpha  occ. eigenvalues --  -21.03623 -15.76389 -11.48958 -11.44296 -11.42679
 Alpha  occ. eigenvalues --  -11.40239  -1.71680  -1.45707  -1.15463  -1.02781
 Alpha  occ. eigenvalues --   -0.88283  -0.78598  -0.70555  -0.65247  -0.63914
 Alpha  occ. eigenvalues --   -0.58146  -0.56188  -0.53082  -0.49936  -0.48637
 Alpha  occ. eigenvalues --   -0.35278  -0.30613  -0.30442
 Alpha virt. eigenvalues --    0.02811   0.05011   0.05148   0.05428   0.06655
 Alpha virt. eigenvalues --    0.06981   0.07555   0.08244   0.09768   0.10269
 Alpha virt. eigenvalues --    0.11618   0.12937   0.13544   0.14109   0.15080

 Mulliken charges:
               1
     1  O   -2.770453
     2  C    2.044772
     3  N   -2.902907
     4  C   -1.325165
     5  C   -1.921883
     6  C   -3.388587
     7  H    1.616735
     8  H    1.572112
     9  H    1.572785
    10  H    1.267372
    11  H    1.397782
    12  H    1.397900
    13  H    1.439537
 Sum of Mulliken charges =  -0.00000

 Dipole moment (field-independent basis, Debye):
    X=              0.2236    Y=              3.3211    Z=              0.0942  Tot=              3.3300

 Test job not archived.
 1\1\GINC-SE135\SP\RHF\Aug-CC-pVDZ\C4H7N1O1\OHZDE\09-Apr-2025\0\\#t hf
 aug-cc-pvdz iop(5/13=1,5/36=2,99/5=2) pseudo=read geom=check guess=(re
 ad,tcheck) scf=(maxcycle=1)\\title\\0,1\O,0,1.95352839,1.4056654,-0.32
 98687\C,0,1.56225221,0.26013846,-0.37621584\N,0,0.26281172,-0.11001873
 ,-0.30317727\C,0,-0.75540396,0.9194782,-0.2000111\C,0,-1.42188336,1.25
 01625,1.02431564\C,0,-0.16279374,-1.48642263,-0.38544907\H,0,2.2474590
 8,-0.59852458,-0.48086974\H,0,-0.21490444,1.91168845,-0.14402253\H,0,-
 1.35821134,0.98561184,-1.11016634\H,0,-0.82475518,0.81626673,1.8496057

 Normal termination of Gaussian 16 at Wed Apr  9 17:55:30 2025.
