 Gaussian 16, Revision C.01,

 ----------------------------------------------------------------------
 #t hf aug-cc-pvdz symm=none int=(grid=ultrafine) guess=(read,tcheck) s
 table=(opt,rrhf)
 ----------------------------------------------------------------------
 -----
 title
 -----
 Symbolic Z-matrix:
 Charge =  0 Multiplicity = 1

 SCF Done:  E(RHF) =  -322.485891628     A.U. after   18 cycles
 Normal termination of Gaussian 16 at Wed Apr  9 19:24:09 2025.
 Gaussian 16:  ES64L-G16RevC.01  3-Jul-2019

 ----------------------------------------------------------------------
 #t hf aug-cc-pvdz iop(5/13=1,5/36=2,99/5=2) pseudo=read geom=check gue
 ss=(read,tcheck) scf=(maxcycle=1)
 ----------------------------------------------------------------------
 -----
 title
 -----
 Structure from the checkpoint file:  "Grambow2020_wb97xd3_008890_reverse_mol2.chk"
 Charge =  0 Multiplicity = 1

                         Standard orientation:
 ---------------------------------------------------------------------
 Center     Atomic      Atomic             Coordinates (Angstroms)
 Number     Number       Type             X           Y           Z
 ---------------------------------------------------------------------
      1          8           0        2.160758    0.115689    0.047488
      2          6           0        0.990408   -0.012135    0.043837
      3          6           0        0.169487   -1.244406   -0.553134
      4          7           0       -1.218370   -0.810756   -0.177731
      5          6           0       -0.851323   -0.273228    1.085949
      6          6           0       -0.185757    0.871773    0.641413
      7          6           0       -1.086004    0.615660   -0.639452
      8          1           0        0.500742   -2.129736   -0.002612
      9          1           0        0.245064   -1.440982   -1.623525
     10          1           0       -0.121520    4.047818   -0.633709
     11          1           0       -0.900242   -0.826541    2.022619
     12          1           0        0.001714    3.460010   -0.188323
     13          1           0       -2.030980    1.143976   -0.541381
     14          1           0       -0.673114    0.749257   -1.640542
 ---------------------------------------------------------------------

 SCF Done:  E(RHF) =  -323.994957475     A.U. after    2 cycles

 The electronic state is 1-A.
 Alpha  occ. eigenvalues --  -21.08656 -15.76811 -11.54002 -11.52544 -11.46966
 Alpha  occ. eigenvalues --  -11.43449 -11.37167  -1.74822  -1.59302  -1.11745
 Alpha  occ. eigenvalues --   -1.06437  -1.01164  -0.82442  -0.74525  -0.70203
 Alpha  occ. eigenvalues --   -0.65831  -0.63572  -0.59747  -0.56893  -0.52470
 Alpha  occ. eigenvalues --   -0.49313  -0.48893  -0.46066  -0.41932  -0.30765
 Alpha  occ. eigenvalues --   -0.27771
 Alpha virt. eigenvalues --    0.03277   0.03571   0.04944   0.05160   0.05614
 Alpha virt. eigenvalues --    0.06207   0.07489   0.09377   0.09649   0.10301
 Alpha virt. eigenvalues --    0.11026   0.12529   0.13067   0.13563   0.14452

 Mulliken charges:
               1
     1  O   -3.598782
     2  C    5.236387
     3  C   -2.924790
     4  N   -1.777421
     5  C    0.315522
     6  C   -2.001553
     7  C   -2.089159
     8  H    1.266976
     9  H    1.311455
    10  H    0.325159
    11  H    1.444273
    12  H   -0.420185
    13  H    1.422589
    14  H    1.489529
 Sum of Mulliken charges =  -0.00000

 Dipole moment (field-independent basis, Debye):
    X=             -0.7468    Y=             -2.9555    Z=             -0.7953  Tot=              3.1504

 Test job not archived.
 1\1\GINC-SE028\SP\RHF\Aug-CC-pVDZ\C5H7N1O1\OHZDE\09-Apr-2025\0\\#t hf
 aug-cc-pvdz iop(5/13=1,5/36=2,99/5=2) pseudo=read geom=check guess=(re
 ad,tcheck) scf=(maxcycle=1)\\title\\0,1\O,0,1.01469208,2.16758436,-0.1
 8558698\C,0,0.73080476,1.02512571,-0.169295\C,0,0.92381229,-0.02055882
 ,-1.36012366\N,0,0.43576986,-1.26145528,-0.66938717\C,0,1.0134192,-0.9
 4683778,0.59072597\C,0,0.14706618,0.08231473,0.96741546\C,0,-0.8027450
 4,-0.65143535,-0.06994963\H,0,1.99625283,-0.0480502,-1.57396511\H,0,0.
 37917594,0.15353615,-2.28918343\H,0,-2.84556228,1.25975057,2.14008229\

 Normal termination of Gaussian 16 at Wed Apr  9 19:24:13 2025.
