 Gaussian 16, Revision C.01,

 ----------------------------------------------------------------------
 #t hf aug-cc-pvdz symm=none int=(grid=ultrafine) guess=(read,tcheck) s
 table=(opt,rrhf)
 ----------------------------------------------------------------------
 -----
 title
 -----
 Symbolic Z-matrix:
 Charge =  0 Multiplicity = 1

 SCF Done:  E(RHF) =  -344.697776279     A.U. after   16 cycles

 1\1\GINC-SE341\Stability\RHF\Aug-CC-pVDZ\C5H10O2\OHZDE\09-Apr-2025\0\\
 #t hf aug-cc-pvdz symm=none int=(grid=ultrafine) guess=(read,tcheck) s
 table=(opt,rrhf)\\title\\0,1\C,0,2.1493861,0.40065686,-0.66798778\C,0,
 0.99640026,-0.46619178,-0.2269056\C,0,0.29836659,-0.02052667,1.0576706
 4\O,0,-1.04831173,-0.46763671,0.87842758\C,0,-1.18761557,-0.96468664,-
 0.59906064\C,0,-2.27648229,0.58824625,0.19211013\O,0,-0.06191965,-0.38
 921432,-1.17145832\H,0,2.55766378,0.03343925,-1.60948113\H,0,2.9468487
 3,0.39566498,0.07734005\H,0,1.81197765,1.42809744,-0.81523821\H,0,1.31

 Normal termination of Gaussian 16 at Wed Apr  9 03:34:36 2025.
 Gaussian 16:  ES64L-G16RevC.01  3-Jul-2019

 ----------------------------------------------------------------------
 #t hf aug-cc-pvdz iop(5/13=1,5/36=2,99/5=2) pseudo=read geom=check gue
 ss=(read,tcheck) scf=(maxcycle=1)
 ----------------------------------------------------------------------
 -----
 title
 -----
 Structure from the checkpoint file:  "Grambow2020_wb97xd3_007104_forward_mol1.chk"
 Charge =  0 Multiplicity = 1

                         Standard orientation:
 ---------------------------------------------------------------------
 Center     Atomic      Atomic             Coordinates (Angstroms)
 Number     Number       Type             X           Y           Z
 ---------------------------------------------------------------------
      1          6           0       -2.376616    0.039479    0.518126
      2          6           0       -1.141175   -0.047946   -0.342919
      3          6           0       -0.204009    1.156879   -0.264667
      4          8           0        1.085990    0.593649   -0.518148
      5          6           0        0.929858   -0.963605   -0.514128
      6          6           0        2.127110    0.068658    0.798960
      7          8           0       -0.300065   -1.097367    0.114678
      8          1           0       -2.961573   -0.876053    0.431083
      9          1           0       -3.004568    0.878544    0.212953
     10          1           0       -2.096479    0.172145    1.564589
     11          1           0       -1.410206   -0.229547   -1.394212
     12          1           0       -0.214079    1.612927    0.731085
     13          1           0       -0.405478    1.919757   -1.018137
     14          1           0        0.820456   -1.203490   -1.587149
     15          1           0        2.226233    1.110872    1.127019
     16          1           0        1.687128   -0.553880    1.567580
     17          1           0        3.060157   -0.322326    0.420722
 ---------------------------------------------------------------------

 SCF Done:  E(RHF) =  -346.313839963     A.U. after    2 cycles

 The electronic state is 1-A.
 Alpha  occ. eigenvalues --  -21.06538 -21.03236 -11.47584 -11.47206 -11.42006
 Alpha  occ. eigenvalues --  -11.37948 -11.36090  -1.84971  -1.67168  -1.16942
 Alpha  occ. eigenvalues --   -1.05138  -0.97280  -0.84154  -0.83766  -0.69478
 Alpha  occ. eigenvalues --   -0.64058  -0.62397  -0.61936  -0.58694  -0.56933
 Alpha  occ. eigenvalues --   -0.53769  -0.50630  -0.48157  -0.39978  -0.38747
 Alpha  occ. eigenvalues --   -0.35908  -0.30692  -0.23096
 Alpha virt. eigenvalues --    0.03706   0.04666   0.04944   0.05250   0.05822
 Alpha virt. eigenvalues --    0.06053   0.06236   0.06745   0.08127   0.08892
 Alpha virt. eigenvalues --    0.11592   0.11822   0.12754   0.13811   0.13972

 Mulliken charges:
               1
     1  C   -3.549876
     2  C   -0.059992
     3  C   -1.212939
     4  O   -2.421207
     5  C    0.062683
     6  C   -3.162184
     7  O   -3.225186
     8  H    1.168688
     9  H    1.170704
    10  H    1.228963
    11  H    1.672535
    12  H    1.773293
    13  H    1.297552
    14  H    1.503991
    15  H    1.142348
    16  H    1.319920
    17  H    1.290705
 Sum of Mulliken charges =  -0.00000

 Dipole moment (field-independent basis, Debye):
    X=             -0.3882    Y=              2.7143    Z=              0.5921  Tot=              2.8051

 Test job not archived.
 1\1\GINC-SE341\SP\RHF\Aug-CC-pVDZ\C5H10O2\OHZDE\09-Apr-2025\0\\#t hf a
 ug-cc-pvdz iop(5/13=1,5/36=2,99/5=2) pseudo=read geom=check guess=(rea
 d,tcheck) scf=(maxcycle=1)\\title\\0,1\C,0,2.1493861,0.40065686,-0.667
 98778\C,0,0.99640026,-0.46619178,-0.2269056\C,0,0.29836659,-0.02052667
 ,1.05767064\O,0,-1.04831173,-0.46763671,0.87842758\C,0,-1.18761557,-0.
 96468664,-0.59906064\C,0,-2.27648229,0.58824625,0.19211013\O,0,-0.0619
 1965,-0.38921432,-1.17145832\H,0,2.55766378,0.03343925,-1.60948113\H,0
 ,2.94684873,0.39566498,0.07734005\H,0,1.81197765,1.42809744,-0.8152382

 Normal termination of Gaussian 16 at Wed Apr  9 03:34:42 2025.
