 Gaussian 16, Revision C.01,

 ----------------------------------------------------------------------
 #t hf aug-cc-pvdz symm=none int=(grid=ultrafine) guess=(read,tcheck) s
 table=(opt,rrhf)
 ----------------------------------------------------------------------
 -----
 title
 -----
 Symbolic Z-matrix:
 Charge =  0 Multiplicity = 1

 SCF Done:  E(RHF) =  -302.748202421     A.U. after   17 cycles
 Normal termination of Gaussian 16 at Wed Apr  9 18:28:32 2025.
 Gaussian 16:  ES64L-G16RevC.01  3-Jul-2019

 ----------------------------------------------------------------------
 #t hf aug-cc-pvdz iop(5/13=1,5/36=2,99/5=2) pseudo=read geom=check gue
 ss=(read,tcheck) scf=(maxcycle=1)
 ----------------------------------------------------------------------
 -----
 title
 -----
 Structure from the checkpoint file:  "Grambow2020_wb97xd3_007167_forward_mol1.chk"
 Charge =  0 Multiplicity = 1

                         Standard orientation:
 ---------------------------------------------------------------------
 Center     Atomic      Atomic             Coordinates (Angstroms)
 Number     Number       Type             X           Y           Z
 ---------------------------------------------------------------------
      1          6           0       -0.275207    1.853436    0.421202
      2          6           0        0.011995    0.718521   -0.534346
      3          6           0        2.229712   -0.322964   -0.152811
      4          7           0        0.964145   -0.256786   -0.032669
      5          6           0        0.019955   -1.274522    0.467605
      6          6           0       -1.181233   -0.507185   -0.136887
      7          7           0       -2.364515   -0.592967   -0.240620
      8          1           0       -0.464298    1.482963    1.430380
      9          1           0       -1.186340    2.348561    0.081534
     10          1           0        0.535108    2.588983    0.461320
     11          1           0        0.297667    1.066575   -1.530613
     12          1           0        2.746743   -1.248338    0.071062
     13          1           0        2.779606    0.545438   -0.493501
     14          1           0        0.169958   -2.225080   -0.045009
     15          1           0        0.092815   -1.414541    1.549263
 ---------------------------------------------------------------------

 SCF Done:  E(RHF) =  -304.204904638     A.U. after    2 cycles

 The electronic state is 1-A.
 Alpha  occ. eigenvalues --  -15.86162 -15.62948 -11.53052 -11.45457 -11.43315
 Alpha  occ. eigenvalues --  -11.37986 -11.36091  -1.56376  -1.23448  -1.14147
 Alpha  occ. eigenvalues --   -1.09792  -0.96068  -0.84903  -0.74651  -0.72594
 Alpha  occ. eigenvalues --   -0.68063  -0.63229  -0.58827  -0.57945  -0.54373
 Alpha  occ. eigenvalues --   -0.50293  -0.46856  -0.45043  -0.39799  -0.34359
 Alpha  occ. eigenvalues --   -0.20534
 Alpha virt. eigenvalues --    0.01333   0.03549   0.03591   0.04632   0.04919
 Alpha virt. eigenvalues --    0.06526   0.06718   0.07506   0.07944   0.09730
 Alpha virt. eigenvalues --    0.10418   0.11699   0.12570   0.13478   0.13550

 Mulliken charges:
               1
     1  C   -3.407745
     2  C   -2.029920
     3  C   -1.387740
     4  N   -2.199782
     5  C   -2.886489
     6  C    3.169498
     7  N   -2.907433
     8  H    1.393559
     9  H    1.173728
    10  H    1.303398
    11  H    1.579192
    12  H    1.636674
    13  H    1.623551
    14  H    1.475273
    15  H    1.464236
 Sum of Mulliken charges =   0.00000

 Dipole moment (field-independent basis, Debye):
    X=              9.5491    Y=              0.3697    Z=              0.6172  Tot=              9.5762

 Test job not archived.
 1\1\GINC-SE117\SP\RHF\Aug-CC-pVDZ\C5H8N2\OHZDE\09-Apr-2025\0\\#t hf au
 g-cc-pvdz iop(5/13=1,5/36=2,99/5=2) pseudo=read geom=check guess=(read
 ,tcheck) scf=(maxcycle=1)\\title\\0,1\C,0,-1.19173288,-1.2513006,0.451
 68807\C,0,-0.42597323,-0.46219075,-0.58489573\C,0,-0.37959692,1.969601
 25,-0.10243469\N,0,0.11288485,0.79575343,-0.09837504\C,0,1.49195186,0.
 36357468,0.19987507\C,0,1.23085281,-1.02459528,-0.43406666\N,0,1.79432
 338,-2.04925915,-0.6595447\H,0,-0.64308573,-1.3041283,1.39383492\H,0,-
 1.29580855,-2.2717268,0.07941656\H,0,-2.18812525,-0.84060476,0.6460588

 Normal termination of Gaussian 16 at Wed Apr  9 18:28:37 2025.
