 Gaussian 16, Revision C.01,

 ----------------------------------------------------------------------
 #t hf aug-cc-pvdz symm=none int=(grid=ultrafine) guess=(read,tcheck) s
 table=(opt,rrhf)
 ----------------------------------------------------------------------
 -----
 title
 -----
 Symbolic Z-matrix:
 Charge =  0 Multiplicity = 1

 SCF Done:  E(RHF) =  -286.702506275     A.U. after   14 cycles
 Normal termination of Gaussian 16 at Wed Apr  9 04:05:57 2025.
 Gaussian 16:  ES64L-G16RevC.01  3-Jul-2019

 ----------------------------------------------------------------------
 #t hf aug-cc-pvdz iop(5/13=1,5/36=2,99/5=2) pseudo=read geom=check gue
 ss=(read,tcheck) scf=(maxcycle=1)
 ----------------------------------------------------------------------
 -----
 title
 -----
 Structure from the checkpoint file:  "Grambow2020_wb97xd3_009263_forward_mol1.chk"
 Charge =  0 Multiplicity = 1

                         Standard orientation:
 ---------------------------------------------------------------------
 Center     Atomic      Atomic             Coordinates (Angstroms)
 Number     Number       Type             X           Y           Z
 ---------------------------------------------------------------------
      1          6           0        2.132922   -0.187402   -0.230603
      2          6           0        0.656658   -0.254388    0.004846
      3          6           0       -0.118600    0.534651    1.031719
      4          6           0       -0.644718    1.332584   -0.162070
      5          7           0       -0.395017    0.130733   -1.019015
      6          6           0       -1.351723   -0.823040   -0.396662
      7          6           0       -0.697843   -0.861881    1.006554
      8          1           0        2.407290    0.830184   -0.517033
      9          1           0        2.434761   -0.865669   -1.028478
     10          1           0        2.673670   -0.445868    0.680471
     11          1           0        0.294809    0.936581    1.948664
     12          1           0       -1.676172    1.692313   -0.162994
     13          1           0        0.025914    2.140802   -0.454046
     14          1           0       -1.317232   -1.787352   -0.902640
     15          1           0       -2.380485   -0.456264   -0.390720
     16          1           0        0.442397   -1.402997    0.437173
 ---------------------------------------------------------------------

 SCF Done:  E(RHF) =  -288.110254718     A.U. after    2 cycles

 The electronic state is 1-A.
 Alpha  occ. eigenvalues --  -15.71883 -11.48457 -11.48058 -11.42569 -11.41823
 Alpha  occ. eigenvalues --  -11.40952 -11.37117  -1.59154  -1.15753  -1.09545
 Alpha  occ. eigenvalues --   -1.07418  -0.93465  -0.80295  -0.74305  -0.69040
 Alpha  occ. eigenvalues --   -0.64666  -0.60943  -0.59898  -0.57231  -0.51774
 Alpha  occ. eigenvalues --   -0.49553  -0.46788  -0.43561  -0.41677  -0.33175
 Alpha  occ. eigenvalues --   -0.28881
 Alpha virt. eigenvalues --    0.03515   0.05122   0.05305   0.05532   0.05763
 Alpha virt. eigenvalues --    0.06166   0.06725   0.08145   0.08587   0.09993
 Alpha virt. eigenvalues --    0.10248   0.11445   0.12268   0.12751   0.13424

 Mulliken charges:
               1
     1  C   -5.622491
     2  C    3.215722
     3  C   -1.231672
     4  C   -2.476521
     5  N   -1.945042
     6  C   -2.648458
     7  C   -0.577300
     8  H    1.180079
     9  H    1.251939
    10  H    1.107530
    11  H    1.533468
    12  H    1.223818
    13  H    1.367769
    14  H    1.332817
    15  H    1.438742
    16  H    0.849601
 Sum of Mulliken charges =  -0.00000

 Dipole moment (field-independent basis, Debye):
    X=              1.4158    Y=              1.5053    Z=             -0.8370  Tot=              2.2295

 Test job not archived.
 1\1\GINC-SE048\SP\RHF\Aug-CC-pVDZ\C6H9N1\OHZDE\09-Apr-2025\0\\#t hf au
 g-cc-pvdz iop(5/13=1,5/36=2,99/5=2) pseudo=read geom=check guess=(read
 ,tcheck) scf=(maxcycle=1)\\title\\0,1\C,0,2.00301234,0.14055704,0.0633
 1128\C,0,0.5433914,-0.18694358,0.10240901\C,0,-0.49972574,0.49249622,0
 .95583973\C,0,-0.97909095,1.12264757,-0.35249819\N,0,-0.3995429,-0.051
 18176,-1.07872217\C,0,-1.25323973,-1.13507838,-0.5231491\C,0,-0.813767
 56,-0.98663583,0.95431886\H,0,2.13234644,1.17675914,-0.2566271\H,0,2.5
 3242069,-0.5068872,-0.6354739\H,0,2.44260071,0.02943752,1.05511976\H,0

 Normal termination of Gaussian 16 at Wed Apr  9 04:06:04 2025.
