 Gaussian 16, Revision C.01,

 ----------------------------------------------------------------------
 #t hf aug-cc-pvdz symm=none int=(grid=ultrafine) guess=(read,tcheck) s
 table=(opt,rrhf)
 ----------------------------------------------------------------------
 -----
 title
 -----
 Symbolic Z-matrix:
 Charge =  0 Multiplicity = 1

 SCF Done:  E(RHF) =  -333.572553355     A.U. after   16 cycles
 Normal termination of Gaussian 16 at Wed Apr  9 03:32:32 2025.
 Gaussian 16:  ES64L-G16RevC.01  3-Jul-2019

 ----------------------------------------------------------------------
 #t hf aug-cc-pvdz iop(5/13=1,5/36=2,99/5=2) pseudo=read geom=check gue
 ss=(read,tcheck) scf=(maxcycle=1)
 ----------------------------------------------------------------------
 -----
 title
 -----
 Structure from the checkpoint file:  "Grambow2020_wb97xd3_006983_forward_mol1.chk"
 Charge =  0 Multiplicity = 1

                         Standard orientation:
 ---------------------------------------------------------------------
 Center     Atomic      Atomic             Coordinates (Angstroms)
 Number     Number       Type             X           Y           Z
 ---------------------------------------------------------------------
      1          7           0        2.213927   -0.032193   -0.064229
      2          6           0        0.852335   -0.052171   -0.019188
      3          6           0        0.114114    1.182477   -0.027330
      4          7           0       -1.172597    1.233285    0.076639
      5          6           0       -1.821622    0.021511   -0.078021
      6          7           0       -1.098925   -1.108835   -0.097880
      7          7           0        0.239351   -1.200999    0.084505
      8          1           0        2.692936    0.812786    0.188609
      9          1           0        2.678865   -0.896093    0.157816
     10          1           0        0.668337    2.121266   -0.016696
     11          1           0       -2.181398   -1.187668    0.424267
 ---------------------------------------------------------------------

 SCF Done:  E(RHF) =  -335.083421368     A.U. after    2 cycles

 The electronic state is 1-A.
 Alpha  occ. eigenvalues --  -15.79760 -15.79138 -15.77591 -15.77095 -11.51531
 Alpha  occ. eigenvalues --  -11.45063 -11.40436  -1.61001  -1.40989  -1.37654
 Alpha  occ. eigenvalues --   -1.20805  -0.99484  -0.91412  -0.76612  -0.71539
 Alpha  occ. eigenvalues --   -0.67096  -0.65133  -0.62624  -0.55943  -0.50302
 Alpha  occ. eigenvalues --   -0.48639  -0.44557  -0.35520  -0.33385  -0.31821
 Alpha virt. eigenvalues --    0.02676   0.04662   0.05643   0.06657   0.07064
 Alpha virt. eigenvalues --    0.10038   0.11132   0.11238   0.11573   0.12058
 Alpha virt. eigenvalues --    0.12691   0.13643   0.13830   0.14277   0.15829

 Mulliken charges:
               1
     1  N   -3.400512
     2  C    4.521315
     3  C    0.355269
     4  N   -2.589662
     5  C    0.544173
     6  N   -1.551684
     7  N   -2.176106
     8  H    0.584016
     9  H    0.784906
    10  H    1.627448
    11  H    1.300837
 Sum of Mulliken charges =  -0.00000

 Dipole moment (field-independent basis, Debye):
    X=              4.9328    Y=              0.7069    Z=              1.0681  Tot=              5.0964

 Test job not archived.
 1\1\GINC-SE036\SP\RHF\Aug-CC-pVDZ\C3H4N4\OHZDE\09-Apr-2025\0\\#t hf au
 g-cc-pvdz iop(5/13=1,5/36=2,99/5=2) pseudo=read geom=check guess=(read
 ,tcheck) scf=(maxcycle=1)\\title\\0,1\N,0,1.78527622,-0.21963978,-0.71
 121907\C,0,0.49022857,-0.11380662,-0.3013272\C,0,0.11955108,0.89075218
 ,0.65932418\N,0,-1.07658184,1.00204269,1.13461014\C,0,-2.04387694,0.27
 514255,0.46415693\N,0,-1.66387563,-0.63170283,-0.44885856\N,0,-0.38839
 066,-0.9683743,-0.75304682\H,0,2.50592299,0.18863942,-0.14434863\H,0,2
 .02681767,-1.05959863,-1.20913643\H,0,0.90207878,1.52026377,1.08354988

 Normal termination of Gaussian 16 at Wed Apr  9 03:32:36 2025.
