 Gaussian 16, Revision C.01,

 ----------------------------------------------------------------------
 #t hf aug-cc-pvdz symm=none int=(grid=ultrafine) guess=(read,tcheck) s
 table=(opt,rrhf)
 ----------------------------------------------------------------------
 -----
 title
 -----
 Symbolic Z-matrix:
 Charge =  0 Multiplicity = 1

 SCF Done:  E(RHF) =  -283.687296773     A.U. after   15 cycles
 Normal termination of Gaussian 16 at Wed Apr  9 03:15:48 2025.
 Gaussian 16:  ES64L-G16RevC.01  3-Jul-2019

 ----------------------------------------------------------------------
 #t hf aug-cc-pvdz iop(5/13=1,5/36=2,99/5=2) pseudo=read geom=check gue
 ss=(read,tcheck) scf=(maxcycle=1)
 ----------------------------------------------------------------------
 -----
 title
 -----
 Structure from the checkpoint file:  "Grambow2020_b97d3_006994_reverse_mol2.chk"
 Charge =  0 Multiplicity = 1

                         Standard orientation:
 ---------------------------------------------------------------------
 Center     Atomic      Atomic             Coordinates (Angstroms)
 Number     Number       Type             X           Y           Z
 ---------------------------------------------------------------------
      1          6           0        0.897098    1.407828   -0.000827
      2          6           0        1.026605   -0.110262    0.001756
      3          8           0        2.114551   -0.677305   -0.001295
      4          6           0       -0.232662   -0.899880    0.013529
      5          6           0       -1.445523   -0.352369    0.015318
      6          7           0       -2.538149    0.188823   -0.131057
      7          1           0        1.891111    1.856597   -0.093905
      8          1           0        0.432071    1.752187    0.935226
      9          1           0        0.258245    1.746698   -0.828957
     10          1           0       -3.065994    0.453814    0.707644
     11          1           0       -0.137904   -1.984525    0.029103
 ---------------------------------------------------------------------

 SCF Done:  E(RHF) =  -284.961641802     A.U. after    2 cycles

 The electronic state is 1-A.
 Alpha  occ. eigenvalues --  -21.04798 -15.80898 -11.52164 -11.50475 -11.41652
 Alpha  occ. eigenvalues --  -11.39572  -1.69789  -1.39022  -1.17386  -1.06286
 Alpha  occ. eigenvalues --   -0.83692  -0.75221  -0.67500  -0.62864  -0.60233
 Alpha  occ. eigenvalues --   -0.55468  -0.54232  -0.48951  -0.46510  -0.44688
 Alpha  occ. eigenvalues --   -0.32381  -0.28845
 Alpha virt. eigenvalues --    0.02574   0.04684   0.05923   0.06541   0.06906
 Alpha virt. eigenvalues --    0.08900   0.10071   0.11368   0.12042   0.12434
 Alpha virt. eigenvalues --    0.12896   0.13722   0.14342   0.15048   0.15317

 Mulliken charges:
               1
     1  C   -4.479290
     2  C    3.889853
     3  O   -3.295631
     4  C   -1.280365
     5  C    2.046605
     6  N   -2.939605
     7  H    1.195693
     8  H    1.252229
     9  H    1.264211
    10  H    0.823371
    11  H    1.522929
 Sum of Mulliken charges =  -0.00000

 Dipole moment (field-independent basis, Debye):
    X=             -1.7980    Y=              0.8152    Z=              1.1874  Tot=              2.3038

 Test job not archived.
 1\1\GINC-SE366\SP\RHF\Aug-CC-pVDZ\C4H5N1O1\OHZDE\09-Apr-2025\0\\#t hf
 aug-cc-pvdz iop(5/13=1,5/36=2,99/5=2) pseudo=read geom=check guess=(re
 ad,tcheck) scf=(maxcycle=1)\\title\\0,1\C,0,-1.42926637,0.12515566,-0.
 27010797\C,0,-0.59166613,-0.67920368,0.71620199\O,0,-1.0875919,-1.4910
 4247,1.49089651\C,0,0.87674195,-0.44880349,0.70712264\C,0,1.48171601,0
 .41623887,-0.10313216\N,0,1.97980186,1.32543096,-0.76148275\H,0,-2.490
 31731,-0.08126477,-0.0978299\H,0,-1.17113617,-0.15141698,-1.30350301\H
 ,0,-1.23862297,1.20243669,-0.16108701\H,0,2.3244466,1.11143962,-1.7036

 Normal termination of Gaussian 16 at Wed Apr  9 03:15:51 2025.
