 Gaussian 16, Revision C.01,

 ----------------------------------------------------------------------
 #t hf aug-cc-pvdz symm=none int=(grid=ultrafine) guess=(read,tcheck) s
 table=(opt,rrhf)
 ----------------------------------------------------------------------
 -----
 title
 -----
 Symbolic Z-matrix:
 Charge =  0 Multiplicity = 1

 SCF Done:  E(RHF) =  -268.710345902     A.U. after   16 cycles
 Normal termination of Gaussian 16 at Wed Apr  9 17:14:22 2025.
 Gaussian 16:  ES64L-G16RevC.01  3-Jul-2019

 ----------------------------------------------------------------------
 #t hf aug-cc-pvdz iop(5/13=1,5/36=2,99/5=2) pseudo=read geom=check gue
 ss=(read,tcheck) scf=(maxcycle=1)
 ----------------------------------------------------------------------
 -----
 title
 -----
 Structure from the checkpoint file:  "Grambow2020_b97d3_007073_reverse_mol1.chk"
 Charge =  0 Multiplicity = 1

                         Standard orientation:
 ---------------------------------------------------------------------
 Center     Atomic      Atomic             Coordinates (Angstroms)
 Number     Number       Type             X           Y           Z
 ---------------------------------------------------------------------
      1          6           0        2.199730    0.052781   -0.119569
      2          6           0        0.709161    0.086625    0.199398
      3          6           0       -0.163034    1.193374   -0.162653
      4          6           0       -1.554138    0.650320    0.025699
      5          8           0       -1.361177   -0.852420   -0.154873
      6          6           0       -0.086335   -1.128544    0.045446
      7          1           0        2.693093   -0.815611    0.341610
      8          1           0        2.681971    0.962607    0.257629
      9          1           0        2.341788    0.011456   -1.205631
     10          1           0        0.055722    2.192905    0.212913
     11          1           0       -2.317089    0.943947   -0.710887
     12          1           0       -2.007301    0.734721    1.045718
     13          1           0        0.218549   -2.171581    0.020916
     14          1           0        0.590377   -0.166417    1.346792
 ---------------------------------------------------------------------

 SCF Done:  E(RHF) =  -269.977266450     A.U. after    2 cycles

 The electronic state is 1-A.
 Alpha  occ. eigenvalues --  -21.13042 -11.55217 -11.43883 -11.43216 -11.39419
 Alpha  occ. eigenvalues --  -11.29847  -1.82958  -1.24551  -1.07628  -1.00528
 Alpha  occ. eigenvalues --   -0.84372  -0.79528  -0.68200  -0.65203  -0.59284
 Alpha  occ. eigenvalues --   -0.57292  -0.55488  -0.52160  -0.47083  -0.44926
 Alpha  occ. eigenvalues --   -0.42812  -0.39490  -0.20740
 Alpha virt. eigenvalues --    0.03185   0.04615   0.05349   0.05668   0.06037
 Alpha virt. eigenvalues --    0.06473   0.07207   0.07544   0.08619   0.11277
 Alpha virt. eigenvalues --    0.11823   0.12658   0.13162   0.13612   0.14120

 Mulliken charges:
               1
     1  C   -3.952352
     2  C   -0.632808
     3  C   -2.582504
     4  C   -2.233291
     5  O   -3.032816
     6  C    1.788003
     7  H    1.140110
     8  H    1.241835
     9  H    1.251067
    10  H    1.238730
    11  H    1.379290
    12  H    1.413684
    13  H    1.562566
    14  H    1.418487
 Sum of Mulliken charges =   0.00000

 Dipole moment (field-independent basis, Debye):
    X=             -0.4067    Y=             -3.3624    Z=              0.8499  Tot=              3.4919

 Test job not archived.
 1\1\GINC-SE232\SP\RHF\Aug-CC-pVDZ\C5H8O1\OHZDE\09-Apr-2025\0\\#t hf au
 g-cc-pvdz iop(5/13=1,5/36=2,99/5=2) pseudo=read geom=check guess=(read
 ,tcheck) scf=(maxcycle=1)\\title\\0,1\C,0,-1.86012963,0.22996025,-0.43
 307433\C,0,-0.37810115,-0.05961517,-0.22231507\C,0,0.6487289,0.9710550
 1,-0.22845143\C,0,1.86112678,0.29454099,0.35290574\O,0,1.25559957,-0.8
 1059077,1.21318799\C,0,0.02706463,-1.03486977,0.78657945\H,0,-2.447578
 35,-0.69721638,-0.50686186\H,0,-2.00005063,0.80023811,-1.35926167\H,0,
 -2.23933388,0.82964427,0.40239154\H,0,0.77967387,1.59158417,-1.1148850

 Normal termination of Gaussian 16 at Wed Apr  9 17:14:26 2025.
