 Gaussian 16, Revision C.01,

 ----------------------------------------------------------------------
 #t hf aug-cc-pvdz symm=none int=(grid=ultrafine) guess=(read,tcheck) s
 table=(opt,rrhf)
 ----------------------------------------------------------------------
 -----
 title
 -----
 Symbolic Z-matrix:
 Charge =  0 Multiplicity = 1

 SCF Done:  E(RHF) =  -358.332410521     A.U. after   19 cycles
 Normal termination of Gaussian 16 at Wed Apr  9 18:12:28 2025.
 Gaussian 16:  ES64L-G16RevC.01  3-Jul-2019

 ----------------------------------------------------------------------
 #t hf aug-cc-pvdz iop(5/13=1,5/36=2,99/5=2) pseudo=read geom=check gue
 ss=(read,tcheck) scf=(maxcycle=1)
 ----------------------------------------------------------------------
 -----
 title
 -----
 Structure from the checkpoint file:  "Grambow2020_wb97xd3_006754_forward_mol1.chk"
 Charge =  0 Multiplicity = 1

                         Standard orientation:
 ---------------------------------------------------------------------
 Center     Atomic      Atomic             Coordinates (Angstroms)
 Number     Number       Type             X           Y           Z
 ---------------------------------------------------------------------
      1          8           0       -0.366831    1.467375   -0.565518
      2          6           0       -1.193756    1.005252    0.255619
      3          6           0       -1.575978   -0.330673    0.089771
      4          8           0       -2.108589   -1.334270   -0.043040
      5          7           0        0.786942   -0.195721   -0.236985
      6          6           0        2.151667   -0.639930   -0.452577
      7          6           0        1.769539    0.007796    0.814028
      8          1           0       -1.363593    1.395140    1.265149
      9          1           0        2.718110   -0.067374   -1.180346
     10          1           0        2.302283   -1.714643   -0.502114
     11          1           0        1.651771   -0.595673    1.708992
     12          1           0        2.077364    1.033086    0.994632
 ---------------------------------------------------------------------

 SCF Done:  E(RHF) =  -359.914512280     A.U. after    2 cycles

 The electronic state is 1-A.
 Alpha  occ. eigenvalues --  -21.17499 -21.09953 -15.75807 -11.58600 -11.46125
 Alpha  occ. eigenvalues --  -11.45577 -11.38959  -1.81093  -1.71718  -1.42607
 Alpha  occ. eigenvalues --   -1.05204  -0.89351  -0.89153  -0.75095  -0.68092
 Alpha  occ. eigenvalues --   -0.65054  -0.64078  -0.57022  -0.55975  -0.52269
 Alpha  occ. eigenvalues --   -0.49612  -0.48023  -0.41748  -0.37177  -0.31910
 Alpha  occ. eigenvalues --   -0.23063
 Alpha virt. eigenvalues --    0.03896   0.05286   0.05549   0.05945   0.06310
 Alpha virt. eigenvalues --    0.08022   0.09089   0.10195   0.11006   0.11638
 Alpha virt. eigenvalues --    0.12044   0.13228   0.13763   0.13825   0.14068

 Mulliken charges:
               1
     1  O   -2.058508
     2  C    0.940288
     3  C    2.109927
     4  O   -2.373939
     5  N   -1.515288
     6  C   -1.844206
     7  C   -2.435015
     8  H    1.500999
     9  H    1.418479
    10  H    1.416136
    11  H    1.381943
    12  H    1.459185
 Sum of Mulliken charges =  -0.00000

 Dipole moment (field-independent basis, Debye):
    X=             -0.6381    Y=             -1.2304    Z=              0.6020  Tot=              1.5111

 Test job not archived.
 1\1\GINC-SE035\SP\RHF\Aug-CC-pVDZ\C4H5N1O2\OHZDE\09-Apr-2025\0\\#t hf
 aug-cc-pvdz iop(5/13=1,5/36=2,99/5=2) pseudo=read geom=check guess=(re
 ad,tcheck) scf=(maxcycle=1)\\title\\0,1\O,0,1.18105334,0.00321613,1.46
 468042\C,0,1.98814041,0.20635194,0.52714442\C,0,2.05967051,-0.7696868,
 -0.47311929\O,0,2.35054144,-1.56417011,-1.24299581\N,0,-0.24489132,-0.
 42482097,0.05454646\C,0,-1.68820835,-0.54376351,-0.04013478\C,0,-1.026
 05663,0.74226661,-0.31859376\H,0,2.35881069,1.18956455,0.21746039\H,0,
 -2.20801905,-0.66826509,0.90465231\H,0,-2.06475367,-1.16038213,-0.8513

 Normal termination of Gaussian 16 at Wed Apr  9 18:12:32 2025.
