 Gaussian 16, Revision C.01,

 ----------------------------------------------------------------------
 #t hf aug-cc-pvdz symm=none int=(grid=ultrafine) guess=(read,tcheck) s
 table=(opt,rrhf)
 ----------------------------------------------------------------------
 -----
 title
 -----
 Symbolic Z-matrix:
 Charge =  0 Multiplicity = 1

 SCF Done:  E(RHF) =  -374.610274336     A.U. after   14 cycles
 Normal termination of Gaussian 16 at Wed Apr  9 18:37:13 2025.
 Gaussian 16:  ES64L-G16RevC.01  3-Jul-2019

 ----------------------------------------------------------------------
 #t hf aug-cc-pvdz iop(5/13=1,5/36=2,99/5=2) pseudo=read geom=check gue
 ss=(read,tcheck) scf=(maxcycle=1)
 ----------------------------------------------------------------------
 -----
 title
 -----
 Structure from the checkpoint file:  "Grambow2020_wb97xd3_007334_forward_mol2.chk"
 Charge =  0 Multiplicity = 1

                         Standard orientation:
 ---------------------------------------------------------------------
 Center     Atomic      Atomic             Coordinates (Angstroms)
 Number     Number       Type             X           Y           Z
 ---------------------------------------------------------------------
      1          7           0        2.351776   -0.516536   -0.088542
      2          6           0        1.057319   -0.019637    0.004541
      3          6           0        0.542944    1.211706    0.019473
      4          8           0       -0.840957    1.131187    0.009665
      5          6           0       -1.200657   -0.181384    0.003392
      6          8           0       -2.326878   -0.585689   -0.017559
      7          7           0       -0.023937   -0.892784    0.025121
      8          1           0        2.620725   -1.082412    0.704293
      9          1           0        3.033483    0.208891   -0.244464
     10          1           0        0.984378    2.191100    0.030173
     11          1           0        0.011592   -1.880449   -0.147337
 ---------------------------------------------------------------------

 SCF Done:  E(RHF) =  -376.222978518     A.U. after    2 cycles

 The electronic state is 1-A.
 Alpha  occ. eigenvalues --  -21.10972 -21.03401 -15.79559 -15.79313 -11.52441
 Alpha  occ. eigenvalues --  -11.49832 -11.41953  -1.88576  -1.67746  -1.46940
 Alpha  occ. eigenvalues --   -1.33020  -1.07194  -0.87443  -0.85428  -0.72566
 Alpha  occ. eigenvalues --   -0.68974  -0.65010  -0.62023  -0.59457  -0.50873
 Alpha  occ. eigenvalues --   -0.50292  -0.45097  -0.43044  -0.38640  -0.30353
 Alpha  occ. eigenvalues --   -0.24274
 Alpha virt. eigenvalues --    0.02559   0.04415   0.04673   0.06358   0.10211
 Alpha virt. eigenvalues --    0.10908   0.11031   0.11343   0.12372   0.13190
 Alpha virt. eigenvalues --    0.13412   0.14326   0.14886   0.15144   0.17376

 Mulliken charges:
               1
     1  N   -3.222622
     2  C    3.152599
     3  C    0.425981
     4  O   -3.247590
     5  C    5.603865
     6  O   -3.212675
     7  N   -2.832260
     8  H    0.535845
     9  H    0.586831
    10  H    1.456872
    11  H    0.753154
 Sum of Mulliken charges =  -0.00000

 Dipole moment (field-independent basis, Debye):
    X=              4.6389    Y=             -0.2723    Z=              0.5833  Tot=              4.6833

 Test job not archived.
 1\1\GINC-SE226\SP\RHF\Aug-CC-pVDZ\C3H4N2O2\OHZDE\09-Apr-2025\0\\#t hf
 aug-cc-pvdz iop(5/13=1,5/36=2,99/5=2) pseudo=read geom=check guess=(re
 ad,tcheck) scf=(maxcycle=1)\\title\\0,1\N,0,-1.78002228,-0.5146967,0.0
 5853624\C,0,-0.49301911,0.00835493,0.02343013\C,0,0.00307066,1.2412768
 2,0.14511994\O,0,1.38800742,1.18047022,0.148962\C,0,1.76710337,-0.1194
 0755,0.01159529\O,0,2.89917831,-0.50700463,-0.00964855\N,0,0.60105894,
 -0.84127867,-0.09075641\H,0,-2.04016036,-0.99380253,-0.79230037\H,0,-2
 .47247692,0.17909947,0.29184769\H,0,-0.45281442,2.20932401,0.24126616\

 Normal termination of Gaussian 16 at Wed Apr  9 18:37:17 2025.
