 Gaussian 16, Revision C.01,

 ----------------------------------------------------------------------
 #t hf aug-cc-pvdz symm=none int=(grid=ultrafine) guess=(read,tcheck) s
 table=(opt,rrhf)
 ----------------------------------------------------------------------
 -----
 title
 -----
 Symbolic Z-matrix:
 Charge =  0 Multiplicity = 1

 SCF Done:  E(RHF) =  -380.610006942     A.U. after   15 cycles
 Normal termination of Gaussian 16 at Wed Apr  9 03:40:30 2025.
 Gaussian 16:  ES64L-G16RevC.01  3-Jul-2019

 ----------------------------------------------------------------------
 #t hf aug-cc-pvdz iop(5/13=1,5/36=2,99/5=2) pseudo=read geom=check gue
 ss=(read,tcheck) scf=(maxcycle=1)
 ----------------------------------------------------------------------
 -----
 title
 -----
 Structure from the checkpoint file:  "Grambow2020_wb97xd3_007509_forward_mol1.chk"
 Charge =  0 Multiplicity = 1

                         Standard orientation:
 ---------------------------------------------------------------------
 Center     Atomic      Atomic             Coordinates (Angstroms)
 Number     Number       Type             X           Y           Z
 ---------------------------------------------------------------------
      1          8           0        2.330593   -1.026026   -0.094885
      2          6           0        2.006885    0.114840   -0.686680
      3          6           0        0.590072    1.172166    0.776124
      4          6           0       -0.626861    0.639614    0.151695
      5          8           0       -1.253779    1.238537   -0.702402
      6          6           0       -1.104533   -0.733485    0.589472
      7          8           0       -2.155131   -1.178411   -0.207134
      8          1           0        3.129202   -0.903394    0.428537
      9          1           0        1.173299   -0.074123   -1.370114
     10          1           0        1.718862    1.103492    0.030516
     11          1           0        0.593738    2.260343    0.821544
     12          1           0        0.876151    0.697461    1.712496
     13          1           0       -0.261836   -1.436216    0.553380
     14          1           0       -1.407991   -0.654611    1.644296
     15          1           0       -2.388262   -0.424566   -0.768947
 ---------------------------------------------------------------------

 SCF Done:  E(RHF) =  -382.295162187     A.U. after    2 cycles

 The electronic state is 1-A.
 Alpha  occ. eigenvalues --  -21.15197 -21.06119 -21.05195 -11.50271 -11.45642
 Alpha  occ. eigenvalues --  -11.42859 -11.40255  -1.79906  -1.75191  -1.67613
 Alpha  occ. eigenvalues --   -1.15957  -1.01516  -0.92862  -0.77313  -0.69885
 Alpha  occ. eigenvalues --   -0.67114  -0.64326  -0.60511  -0.60223  -0.56181
 Alpha  occ. eigenvalues --   -0.54953  -0.48595  -0.45000  -0.43574  -0.40177
 Alpha  occ. eigenvalues --   -0.32133  -0.30504  -0.27702
 Alpha virt. eigenvalues --    0.03190   0.04497   0.05257   0.05467   0.06147
 Alpha virt. eigenvalues --    0.06790   0.07333   0.07579   0.09435   0.10834
 Alpha virt. eigenvalues --    0.11268   0.12803   0.13563   0.14496   0.15179

 Mulliken charges:
               1
     1  O   -2.220523
     2  C   -1.403754
     3  C   -4.071155
     4  C    3.735894
     5  O   -3.424854
     6  C   -0.719939
     7  O   -2.817581
     8  H    0.757570
     9  H    1.425353
    10  H    2.532943
    11  H    1.098056
    12  H    1.545583
    13  H    1.515547
    14  H    1.314922
    15  H    0.731938
 Sum of Mulliken charges =   0.00000

 Dipole moment (field-independent basis, Debye):
    X=              2.2623    Y=             -0.6167    Z=              1.5444  Tot=              2.8078

 Test job not archived.
 1\1\GINC-SE461\SP\RHF\Aug-CC-pVDZ\C4H8O3\OHZDE\09-Apr-2025\0\\#t hf au
 g-cc-pvdz iop(5/13=1,5/36=2,99/5=2) pseudo=read geom=check guess=(read
 ,tcheck) scf=(maxcycle=1)\\title\\0,1\O,0,-1.35328484,1.94700861,-0.01
 592765\C,0,-1.3748916,0.90260624,-0.83161149\C,0,-0.92963227,-0.912045
 15,0.50025847\C,0,0.51436773,-0.88653595,0.23822547\O,0,1.04429916,-1.
 5476803,-0.63543207\C,0,1.37326655,0.02687721,1.09449021\O,0,2.6800697
 6,0.07992732,0.61936251\H,0,-2.23899058,2.10964614,0.32445582\H,0,-0.3
 9071135,0.80970509,-1.30109222\H,0,-1.70288843,-0.21612239,-0.36725556

 Normal termination of Gaussian 16 at Wed Apr  9 03:40:34 2025.
