 Gaussian 16, Revision C.01,

 ----------------------------------------------------------------------
 #t hf aug-cc-pvdz symm=none int=(grid=ultrafine) guess=(read,tcheck) s
 table=(opt,rrhf)
 ----------------------------------------------------------------------
 -----
 title
 -----
 Symbolic Z-matrix:
 Charge =  0 Multiplicity = 1

 SCF Done:  E(RHF) =  -316.385389339     A.U. after   19 cycles
 Normal termination of Gaussian 16 at Wed Apr  9 18:33:07 2025.
 Gaussian 16:  ES64L-G16RevC.01  3-Jul-2019

 ----------------------------------------------------------------------
 #t hf aug-cc-pvdz iop(5/13=1,5/36=2,99/5=2) pseudo=read geom=check gue
 ss=(read,tcheck) scf=(maxcycle=1)
 ----------------------------------------------------------------------
 -----
 title
 -----
 Structure from the checkpoint file:  "Grambow2020_wb97xd3_007263_forward_mol1.chk"
 Charge =  0 Multiplicity = 1

                         Standard orientation:
 ---------------------------------------------------------------------
 Center     Atomic      Atomic             Coordinates (Angstroms)
 Number     Number       Type             X           Y           Z
 ---------------------------------------------------------------------
      1          7           0       -2.785792    0.406349    0.249016
      2          6           0       -1.731248    0.003690    0.025555
      3          6           0       -0.422372   -0.400206   -0.226419
      4          7           0        0.248484   -1.397483   -0.445493
      5          6           0        1.344193   -0.817138    0.353399
      6          6           0        1.755535    0.504415    0.167749
      7          7           0        0.878479    1.403307   -0.161749
      8          1           0        1.830774   -1.543939    0.987993
      9          1           0        2.819697    0.722812    0.265653
     10          1           0        1.284685    2.191350   -0.667768
 ---------------------------------------------------------------------

 SCF Done:  E(RHF) =  -317.821494916     A.U. after    2 cycles

 The electronic state is 1-A.
 Alpha  occ. eigenvalues --  -15.82519 -15.81178 -15.75389 -11.54843 -11.48578
 Alpha  occ. eigenvalues --  -11.47736 -11.43614  -1.51962  -1.34463  -1.33163
 Alpha  occ. eigenvalues --   -1.06523  -0.96717  -0.81585  -0.75955  -0.64043
 Alpha  occ. eigenvalues --   -0.62023  -0.58841  -0.56969  -0.53384  -0.50211
 Alpha  occ. eigenvalues --   -0.47191  -0.44841  -0.38270  -0.28784
 Alpha virt. eigenvalues --    0.02916   0.04666   0.05199   0.05771   0.07957
 Alpha virt. eigenvalues --    0.08962   0.10279   0.10775   0.11018   0.11909
 Alpha virt. eigenvalues --    0.12456   0.13228   0.13464   0.14519   0.14551

 Mulliken charges:
               1
     1  N   -2.727114
     2  C    1.705932
     3  C    2.880173
     4  N   -2.722878
     5  C   -0.839167
     6  C    0.902266
     7  N   -2.693504
     8  H    1.343266
     9  H    1.470670
    10  H    0.680357
 Sum of Mulliken charges =  -0.00000

 Dipole moment (field-independent basis, Debye):
    X=              2.7800    Y=             -0.1506    Z=             -0.1851  Tot=              2.7902

 Test job not archived.
 1\1\GINC-SE229\SP\RHF\Aug-CC-pVDZ\C4H3N3\OHZDE\09-Apr-2025\0\\#t hf au
 g-cc-pvdz iop(5/13=1,5/36=2,99/5=2) pseudo=read geom=check guess=(read
 ,tcheck) scf=(maxcycle=1)\\title\\0,1\N,0,3.15444519,-0.98035914,-0.41
 105651\C,0,2.07325736,-0.89295591,-0.02696492\C,0,0.75887734,-0.706917
 52,0.39442994\N,0,-0.16018228,-1.28567928,0.95386294\C,0,-1.11323229,-
 0.61097802,0.05270724\C,0,-1.03520732,0.76234888,-0.18823836\N,0,0.127
 42539,1.34009059,-0.20563807\H,0,-1.90186058,-1.26567019,-0.28957122\H
 ,0,-1.9707128,1.30973881,-0.3103755\H,0,0.084138,2.33233978,0.03023747

 Normal termination of Gaussian 16 at Wed Apr  9 18:33:11 2025.
