 Gaussian 16, Revision C.01,

 ----------------------------------------------------------------------
 #t hf aug-cc-pvdz symm=none int=(grid=ultrafine) guess=(read,tcheck) s
 table=(opt,rrhf)
 ----------------------------------------------------------------------
 -----
 title
 -----
 Symbolic Z-matrix:
 Charge =  0 Multiplicity = 1

 SCF Done:  E(RHF) =  -269.858116598     A.U. after   15 cycles

 1\1\GINC-SE173\Stability\RHF\Aug-CC-pVDZ\C5H10O1\OHZDE\09-Apr-2025\0\\
 #t hf aug-cc-pvdz symm=none int=(grid=ultrafine) guess=(read,tcheck) s
 table=(opt,rrhf)\\title\\0,1\O,0,2.34801634,0.6156782,0.98261677\C,0,1
 .64701791,-0.52507439,1.06589825\C,0,0.31489347,-0.5291452,-0.71054805
 \C,0,-1.04035246,-1.03177959,-0.21325781\C,0,-1.43721232,0.43509627,0.
 08548222\C,0,-0.19446289,0.90535633,-0.70825367\H,0,1.84368883,1.38640
 717,1.27271824\H,0,1.33766359,-1.00907759,-0.02217642\H,0,0.72814765,-
 0.41149018,1.65391124\H,0,0.73065532,-0.93021186,-1.63792828\H,0,-1.02

 Normal termination of Gaussian 16 at Wed Apr  9 17:46:39 2025.
 Gaussian 16:  ES64L-G16RevC.01  3-Jul-2019

 ----------------------------------------------------------------------
 #t hf aug-cc-pvdz iop(5/13=1,5/36=2,99/5=2) pseudo=read geom=check gue
 ss=(read,tcheck) scf=(maxcycle=1)
 ----------------------------------------------------------------------
 -----
 title
 -----
 Structure from the checkpoint file:  "Grambow2020_wb97xd3_006161_reverse_mol1.chk"
 Charge =  0 Multiplicity = 1

                         Standard orientation:
 ---------------------------------------------------------------------
 Center     Atomic      Atomic             Coordinates (Angstroms)
 Number     Number       Type             X           Y           Z
 ---------------------------------------------------------------------
      1          8           0       -2.317976    0.328802   -0.050957
      2          6           0       -1.572341   -0.759226   -0.295650
      3          6           0        0.324952   -0.434484    0.811219
      4          6           0        1.438849   -0.898277   -0.127269
      5          6           0        1.517344    0.541823   -0.691554
      6          6           0        0.623020    1.020512    0.477475
      7          1           0       -2.055824    1.089492   -0.584956
      8          1           0       -0.818556   -1.073130    0.624752
      9          1           0       -0.965698   -0.657205   -1.203703
     10          1           0        0.342585   -0.739935    1.860092
     11          1           0        1.184169   -1.695954   -0.828950
     12          1           0        2.344990   -1.194931    0.404531
     13          1           0        2.510220    0.985801   -0.749731
     14          1           0        1.042154    0.644003   -1.667503
     15          1           0       -0.223712    1.673042    0.241548
     16          1           0        1.192537    1.516318    1.266257
 ---------------------------------------------------------------------

 SCF Done:  E(RHF) =  -271.178125439     A.U. after    2 cycles

 The electronic state is 1-A.
 Alpha  occ. eigenvalues --  -21.10306 -11.51592 -11.41307 -11.40215 -11.39711
 Alpha  occ. eigenvalues --  -11.35288  -1.74724  -1.33377  -0.99545  -0.96824
 Alpha  occ. eigenvalues --   -0.89577  -0.78085  -0.68619  -0.68117  -0.64643
 Alpha  occ. eigenvalues --   -0.57772  -0.55415  -0.49579  -0.47796  -0.44342
 Alpha  occ. eigenvalues --   -0.42861  -0.42111  -0.38261  -0.26919
 Alpha virt. eigenvalues --    0.03867   0.04950   0.05118   0.05318   0.05669
 Alpha virt. eigenvalues --    0.06127   0.06386   0.07339   0.08698   0.09449
 Alpha virt. eigenvalues --    0.12153   0.12579   0.12893   0.13323   0.13999

 Mulliken charges:
               1
     1  O   -2.414599
     2  C   -1.387167
     3  C   -2.127270
     4  C   -3.052993
     5  C   -2.497217
     6  C   -2.666447
     7  H    0.845674
     8  H    2.820445
     9  H    1.435662
    10  H    0.970729
    11  H    1.348333
    12  H    1.317895
    13  H    1.212721
    14  H    1.437387
    15  H    1.491533
    16  H    1.265314
 Sum of Mulliken charges =  -0.00000

 Dipole moment (field-independent basis, Debye):
    X=              1.8522    Y=              1.6815    Z=             -0.0618  Tot=              2.5024

 Test job not archived.
 1\1\GINC-SE173\SP\RHF\Aug-CC-pVDZ\C5H10O1\OHZDE\09-Apr-2025\0\\#t hf a
 ug-cc-pvdz iop(5/13=1,5/36=2,99/5=2) pseudo=read geom=check guess=(rea
 d,tcheck) scf=(maxcycle=1)\\title\\0,1\O,0,2.34801634,0.6156782,0.9826
 1677\C,0,1.64701791,-0.52507439,1.06589825\C,0,0.31489347,-0.5291452,-
 0.71054805\C,0,-1.04035246,-1.03177959,-0.21325781\C,0,-1.43721232,0.4
 3509627,0.08548222\C,0,-0.19446289,0.90535633,-0.70825367\H,0,1.843688
 83,1.38640717,1.27271824\H,0,1.33766359,-1.00907759,-0.02217642\H,0,0.
 72814765,-0.41149018,1.65391124\H,0,0.73065532,-0.93021186,-1.63792828

 Normal termination of Gaussian 16 at Wed Apr  9 17:46:43 2025.
