 Gaussian 16, Revision C.01,

 ----------------------------------------------------------------------
 #t hf aug-cc-pvdz symm=none int=(grid=ultrafine) guess=(read,tcheck) s
 table=(opt,rrhf)
 ----------------------------------------------------------------------
 -----
 title
 -----
 Symbolic Z-matrix:
 Charge =  0 Multiplicity = 1

 SCF Done:  E(RHF) =  -360.741255545     A.U. after   15 cycles
 Normal termination of Gaussian 16 at Wed Apr  9 18:13:21 2025.
 Gaussian 16:  ES64L-G16RevC.01  3-Jul-2019

 ----------------------------------------------------------------------
 #t hf aug-cc-pvdz iop(5/13=1,5/36=2,99/5=2) pseudo=read geom=check gue
 ss=(read,tcheck) scf=(maxcycle=1)
 ----------------------------------------------------------------------
 -----
 title
 -----
 Structure from the checkpoint file:  "Grambow2020_wb97xd3_006763_reverse_mol1.chk"
 Charge =  0 Multiplicity = 1

                         Standard orientation:
 ---------------------------------------------------------------------
 Center     Atomic      Atomic             Coordinates (Angstroms)
 Number     Number       Type             X           Y           Z
 ---------------------------------------------------------------------
      1          6           0        2.237760   -0.662057    0.496112
      2          7           0        1.212821   -0.612232   -0.386414
      3          6           0        1.049572    0.736331   -0.396126
      4          8           0       -0.141664    1.348298   -0.397152
      5          6           0       -1.207975    0.948589    0.473064
      6          6           0       -1.500369   -0.543796    0.582622
      7          8           0       -1.600168   -1.186663   -0.657095
      8          1           0        2.164025    0.849819    0.512964
      9          1           0        2.048223   -0.455877    1.545971
     10          1           0        3.052455   -1.374698    0.333762
     11          1           0        1.723932    1.273288   -1.057984
     12          1           0       -1.014847    1.358619    1.471316
     13          1           0       -2.073504    1.458702    0.052156
     14          1           0       -0.765915   -1.038254    1.226063
     15          1           0       -2.471185   -0.628854    1.080257
     16          1           0       -0.692203   -1.324595   -0.959658
 ---------------------------------------------------------------------

 SCF Done:  E(RHF) =  -362.409102466     A.U. after    2 cycles

 The electronic state is 1-A.
 Alpha  occ. eigenvalues --  -21.08140 -21.04872 -15.72898 -11.48675 -11.45573
 Alpha  occ. eigenvalues --  -11.44881 -11.39550  -1.80599  -1.69625  -1.41974
 Alpha  occ. eigenvalues --   -1.10352  -0.97015  -0.89487  -0.83083  -0.70891
 Alpha  occ. eigenvalues --   -0.67814  -0.65329  -0.62811  -0.59263  -0.57143
 Alpha  occ. eigenvalues --   -0.51890  -0.50831  -0.44694  -0.42184  -0.37749
 Alpha  occ. eigenvalues --   -0.35231  -0.30631  -0.29629
 Alpha virt. eigenvalues --    0.03573   0.04524   0.04989   0.05675   0.05842
 Alpha virt. eigenvalues --    0.06330   0.06613   0.07825   0.08624   0.09113
 Alpha virt. eigenvalues --    0.11338   0.12208   0.12532   0.13879   0.14151

 Mulliken charges:
               1
     1  C   -1.769237
     2  N   -2.159178
     3  C    1.060863
     4  O   -3.560535
     5  C   -1.361361
     6  C   -1.115466
     7  O   -2.661198
     8  H    1.051186
     9  H    1.305318
    10  H    1.309388
    11  H    1.458865
    12  H    1.437046
    13  H    1.355883
    14  H    1.652222
    15  H    1.144956
    16  H    0.851247
 Sum of Mulliken charges =   0.00000

 Dipole moment (field-independent basis, Debye):
    X=              0.7285    Y=              0.8026    Z=              1.2544  Tot=              1.6578

 Test job not archived.
 1\1\GINC-SE103\SP\RHF\Aug-CC-pVDZ\C4H9N1O2\OHZDE\09-Apr-2025\0\\#t hf
 aug-cc-pvdz iop(5/13=1,5/36=2,99/5=2) pseudo=read geom=check guess=(re
 ad,tcheck) scf=(maxcycle=1)\\title\\0,1\C,0,2.0160428,-0.67426226,-0.7
 8068299\N,0,0.93548113,0.05082354,-1.15280055\C,0,0.95361736,0.9400539
 4,-0.12600593\O,0,-0.14090331,1.36627576,0.51735013\C,0,-1.17295627,0.
 46997466,0.94813266\C,0,-1.65167982,-0.57834881,-0.05014207\O,0,-1.941
 77394,-0.05430004,-1.31558777\H,0,2.14664276,0.2991407,0.37123694\H,0,
 1.94593677,-1.33211372,0.08126585\H,0,2.71140483,-1.03359524,-1.545728

 Normal termination of Gaussian 16 at Wed Apr  9 18:13:27 2025.
