 Gaussian 16, Revision C.01,

 ----------------------------------------------------------------------
 #t hf aug-cc-pvdz symm=none int=(grid=ultrafine) guess=(read,tcheck) s
 table=(opt,rrhf)
 ----------------------------------------------------------------------
 -----
 title
 -----
 Symbolic Z-matrix:
 Charge =  0 Multiplicity = 1

 SCF Done:  E(RHF) =  -325.046669471     A.U. after   12 cycles
 Normal termination of Gaussian 16 at Wed Apr  9 19:26:21 2025.
 Gaussian 16:  ES64L-G16RevC.01  3-Jul-2019

 ----------------------------------------------------------------------
 #t hf aug-cc-pvdz iop(5/13=1,5/36=2,99/5=2) pseudo=read geom=check gue
 ss=(read,tcheck) scf=(maxcycle=1)
 ----------------------------------------------------------------------
 -----
 title
 -----
 Structure from the checkpoint file:  "Grambow2020_wb97xd3_008959_forward_mol2.chk"
 Charge =  0 Multiplicity = 1

                         Standard orientation:
 ---------------------------------------------------------------------
 Center     Atomic      Atomic             Coordinates (Angstroms)
 Number     Number       Type             X           Y           Z
 ---------------------------------------------------------------------
      1          6           0        2.328533   -1.048355    0.017926
      2          6           0        1.800740    0.365056   -0.140413
      3          7           0        0.374176    0.353275   -0.413998
      4          6           0       -0.377116    1.551939   -0.084894
      5          6           0       -0.518380    0.322472    0.725561
      6          6           0       -1.707034   -0.602407    0.592988
      7          8           0       -2.141697   -0.701661   -0.738821
      8          1           0        3.402800   -1.042278    0.209401
      9          1           0        2.141491   -1.630753   -0.885362
     10          1           0        1.840106   -1.555790    0.852937
     11          1           0        2.023319    0.955585    0.762751
     12          1           0        2.296196    0.863248   -0.977885
     13          1           0        0.171951    2.379295    0.355782
     14          1           0       -1.153253    1.827691   -0.788719
     15          1           0       -0.056050    0.338252    1.711258
     16          1           0       -1.429843   -1.590023    0.989406
     17          1           0       -2.543738   -0.228464    1.188311
     18          1           0       -1.339094   -0.708625   -1.276336
 ---------------------------------------------------------------------

 SCF Done:  E(RHF) =  -326.599498132     A.U. after    2 cycles

 The electronic state is 1-A.
 Alpha  occ. eigenvalues --  -21.05153 -15.72115 -11.47381 -11.43208 -11.42104
 Alpha  occ. eigenvalues --  -11.38542 -11.36129  -1.70753  -1.48596  -1.16474
 Alpha  occ. eigenvalues --   -1.03210  -0.94615  -0.86804  -0.80913  -0.69968
 Alpha  occ. eigenvalues --   -0.65312  -0.63210  -0.61593  -0.56062  -0.54395
 Alpha  occ. eigenvalues --   -0.52447  -0.51535  -0.49625  -0.42354  -0.41167
 Alpha  occ. eigenvalues --   -0.39359  -0.34184  -0.30575
 Alpha virt. eigenvalues --    0.04168   0.04989   0.05352   0.05472   0.05818
 Alpha virt. eigenvalues --    0.06040   0.06504   0.06684   0.07205   0.08407
 Alpha virt. eigenvalues --    0.09272   0.11013   0.12738   0.13000   0.13651

 Mulliken charges:
               1
     1  C   -3.278370
     2  C   -2.823306
     3  N   -1.702436
     4  C   -2.343222
     5  C   -0.907401
     6  C   -0.986634
     7  O   -2.786419
     8  H    1.107127
     9  H    1.383459
    10  H    1.335733
    11  H    1.667040
    12  H    1.512875
    13  H    1.485703
    14  H    1.404995
    15  H    1.512423
    16  H    1.252142
    17  H    1.299745
    18  H    0.866547
 Sum of Mulliken charges =  -0.00000

 Dipole moment (field-independent basis, Debye):
    X=              1.3189    Y=              0.7018    Z=              0.7876  Tot=              1.6889

 Test job not archived.
 1\1\GINC-SE083\SP\RHF\Aug-CC-pVDZ\C5H11N1O1\OHZDE\09-Apr-2025\0\\#t hf
  aug-cc-pvdz iop(5/13=1,5/36=2,99/5=2) pseudo=read geom=check guess=(r
 ead,tcheck) scf=(maxcycle=1)\\title\\0,1\C,0,-2.04110476,-0.62302852,-
 0.84664363\C,0,-1.50348391,-0.12143746,0.4802845\N,0,-0.06665468,-0.31
 933882,0.56046508\C,0,0.67308883,0.53264885,1.47503713\C,0,0.77679506,
 0.7215385,0.01149742\C,0,1.96763373,0.23810652,-0.78478787\O,0,2.45801
 401,-0.98364253,-0.29555049\H,0,-3.12249326,-0.48827497,-0.90311526\H,
 0,-1.8174885,-1.68307443,-0.97470837\H,0,-1.58974685,-0.08051993,-1.68

 Normal termination of Gaussian 16 at Wed Apr  9 19:26:27 2025.
