 Gaussian 16, Revision C.01,

 ----------------------------------------------------------------------
 #t hf aug-cc-pvdz symm=none int=(grid=ultrafine) guess=(read,tcheck) s
 table=(opt,rrhf)
 ----------------------------------------------------------------------
 -----
 title
 -----
 Symbolic Z-matrix:
 Charge =  0 Multiplicity = 1

 SCF Done:  E(RHF) =  -359.597269379     A.U. after   16 cycles
 Normal termination of Gaussian 16 at Wed Apr  9 19:34:15 2025.
 Gaussian 16:  ES64L-G16RevC.01  3-Jul-2019

 ----------------------------------------------------------------------
 #t hf aug-cc-pvdz iop(5/13=1,5/36=2,99/5=2) pseudo=read geom=check gue
 ss=(read,tcheck) scf=(maxcycle=1)
 ----------------------------------------------------------------------
 -----
 title
 -----
 Structure from the checkpoint file:  "Grambow2020_wb97xd3_009420_reverse_mol2.chk"
 Charge =  0 Multiplicity = 1

                         Standard orientation:
 ---------------------------------------------------------------------
 Center     Atomic      Atomic             Coordinates (Angstroms)
 Number     Number       Type             X           Y           Z
 ---------------------------------------------------------------------
      1          8           0        0.976628   -1.547603   -0.426731
      2          6           0        1.083702   -0.199151   -0.036801
      3          6           0        0.285947    0.717298   -1.003936
      4          8           0       -1.146446    0.594074   -0.868585
      5          6           0       -1.555796   -0.096171    0.200218
      6          7           0       -0.805677   -0.221346    1.225911
      7          6           0        0.419962    0.251053    1.247677
      8          1           0        0.226253   -1.947805    0.021429
      9          1           0        2.135885    0.076487   -0.089527
     10          1           0        0.540769    1.771080   -0.892638
     11          1           0        0.525537    0.375920   -2.009817
     12          1           0       -2.568707   -0.471355    0.138423
     13          1           0        2.129368    2.449123    1.273131
     14          1           0        2.606286    2.886029    0.897200
 ---------------------------------------------------------------------

 SCF Done:  E(RHF) =  -361.196824960     A.U. after    2 cycles

 The electronic state is 1-A.
 Alpha  occ. eigenvalues --  -21.11379 -21.08837 -15.76687 -11.49691 -11.48519
 Alpha  occ. eigenvalues --  -11.44669 -11.40917  -1.84930  -1.73495  -1.42078
 Alpha  occ. eigenvalues --   -1.16551  -0.94921  -0.93573  -0.74379  -0.72897
 Alpha  occ. eigenvalues --   -0.69240  -0.64913  -0.61049  -0.58403  -0.55032
 Alpha  occ. eigenvalues --   -0.53309  -0.49959  -0.44267  -0.41673  -0.37976
 Alpha  occ. eigenvalues --   -0.35140  -0.26897
 Alpha virt. eigenvalues --    0.03345   0.05047   0.05391   0.06025   0.06635
 Alpha virt. eigenvalues --    0.07423   0.07573   0.08714   0.09655   0.10424
 Alpha virt. eigenvalues --    0.12072   0.13188   0.13378   0.14143   0.14540

 Mulliken charges:
               1
     1  O   -3.363133
     2  C    1.610813
     3  C   -1.454304
     4  O   -3.176751
     5  C    2.001807
     6  N   -2.541790
     7  C   -0.112031
     8  H    0.799553
     9  H    1.754781
    10  H    1.479155
    11  H    1.299919
    12  H    1.759491
    13  H   -0.275696
    14  H    0.218185
 Sum of Mulliken charges =  -0.00000

 Dipole moment (field-independent basis, Debye):
    X=             -1.2628    Y=             -0.5130    Z=             -2.9982  Tot=              3.2935

 Test job not archived.
 1\1\GINC-SE100\SP\RHF\Aug-CC-pVDZ\C4H7N1O2\OHZDE\09-Apr-2025\0\\#t hf
 aug-cc-pvdz iop(5/13=1,5/36=2,99/5=2) pseudo=read geom=check guess=(re
 ad,tcheck) scf=(maxcycle=1)\\title\\0,1\O,0,-0.55296281,-0.3280399,1.9
 0750066\C,0,-0.64637052,-0.401191,0.50473285\C,0,-0.32133299,0.9737674
 7,-0.13984597\O,0,1.07479829,1.33422137,-0.06144424\C,0,1.89076684,0.3
 519452,0.33311273\N,0,1.5554316,-0.87259007,0.19725665\C,0,0.37345712,
 -1.21895028,-0.25968783\H,0,0.34019699,-0.55921853,2.17748923\H,0,-1.6
 7336433,-0.66458073,0.25623145\H,0,-0.62081806,1.03026842,-1.18621794\

 Normal termination of Gaussian 16 at Wed Apr  9 19:34:20 2025.
