 Gaussian 16, Revision C.01,

 ----------------------------------------------------------------------
 #t hf aug-cc-pvdz symm=none int=(grid=ultrafine) guess=(read,tcheck) s
 table=(opt,rrhf)
 ----------------------------------------------------------------------
 -----
 title
 -----
 Symbolic Z-matrix:
 Charge =  0 Multiplicity = 1

 SCF Done:  E(RHF) =  -266.737338238     A.U. after   15 cycles
 Normal termination of Gaussian 16 at Wed Apr  9 03:04:19 2025.
 Gaussian 16:  ES64L-G16RevC.01  3-Jul-2019

 ----------------------------------------------------------------------
 #t hf aug-cc-pvdz iop(5/13=1,5/36=2,99/5=2) pseudo=read geom=check gue
 ss=(read,tcheck) scf=(maxcycle=1)
 ----------------------------------------------------------------------
 -----
 title
 -----
 Structure from the checkpoint file:  "Grambow2020_b97d3_006472_reverse_mol2.chk"
 Charge =  0 Multiplicity = 1

                         Standard orientation:
 ---------------------------------------------------------------------
 Center     Atomic      Atomic             Coordinates (Angstroms)
 Number     Number       Type             X           Y           Z
 ---------------------------------------------------------------------
      1          8           0       -1.401077   -0.970881    0.115114
      2          6           0       -1.250379    0.412639   -0.158973
      3          6           0        0.091780    0.951682    0.323377
      4          6           0        1.855254   -0.737719    0.051302
      5          8           0        1.148156    0.243342   -0.445066
      6          1           0       -0.775622   -1.451659   -0.460000
      7          1           0       -1.371540    0.644281   -1.231736
      8          1           0       -2.051043    0.926133    0.390453
      9          1           0        0.210709    2.019702    0.105234
     10          1           0        0.253122    0.739363    1.389669
     11          1           0        1.577807   -0.817115    1.151758
 ---------------------------------------------------------------------

 SCF Done:  E(RHF) =  -267.915390492     A.U. after    2 cycles

 The electronic state is 1-A.
 Alpha  occ. eigenvalues --  -21.12277 -21.08512 -11.48217 -11.42401 -11.41942
 Alpha  occ. eigenvalues --   -1.81132  -1.71619  -1.12025  -0.91564  -0.83610
 Alpha  occ. eigenvalues --   -0.68357  -0.66851  -0.61347  -0.57506  -0.54197
 Alpha  occ. eigenvalues --   -0.44564  -0.44027  -0.42696  -0.34839  -0.32631
 Alpha virt. eigenvalues --    0.03611   0.05006   0.05346   0.05602   0.06681
 Alpha virt. eigenvalues --    0.07075   0.09521   0.10758   0.11599   0.12565
 Alpha virt. eigenvalues --    0.14211   0.14390   0.15156   0.15212   0.17389

 Mulliken charges:
               1
     1  O   -2.477448
     2  C   -0.612635
     3  C   -1.871345
     4  C   -1.086193
     5  O   -1.857671
     6  H    0.796393
     7  H    1.373115
     8  H    1.308826
     9  H    1.241347
    10  H    1.609931
    11  H    1.575679
 Sum of Mulliken charges =   0.00000

 Dipole moment (field-independent basis, Debye):
    X=             -2.2951    Y=              2.4089    Z=              0.6435  Tot=              3.3889

 Test job not archived.
 1\1\GINC-SE023\SP\RHF\Aug-CC-pVDZ\C3H6O2\OHZDE\09-Apr-2025\0\\#t hf au
 g-cc-pvdz iop(5/13=1,5/36=2,99/5=2) pseudo=read geom=check guess=(read
 ,tcheck) scf=(maxcycle=1)\\title\\0,1\O,0,-1.55117057,-0.63465521,-0.2
 2950412\C,0,-0.9650024,0.64476545,-0.05215867\C,0,0.48111045,0.5541093
 1,0.42235167\C,0,1.60710998,-1.38272145,-0.5869818\O,0,1.25076875,-0.1
 2663457,-0.65114484\H,0,-1.11568147,-1.05069281,-0.99785277\H,0,-1.009
 60248,1.25832822,-0.96906065\H,0,-1.5559976,1.15136447,0.72288324\H,0,
 0.93604034,1.5432602,0.55280319\H,0,0.56994387,-0.05209898,1.33488051\

 Normal termination of Gaussian 16 at Wed Apr  9 03:04:22 2025.
