 Gaussian 16, Revision C.01,

 ----------------------------------------------------------------------
 #t hf aug-cc-pvdz symm=none int=(grid=ultrafine) guess=(read,tcheck) s
 table=(opt,rrhf)
 ----------------------------------------------------------------------
 -----
 title
 -----
 Symbolic Z-matrix:
 Charge =  0 Multiplicity = 1

 SCF Done:  E(RHF) =  -317.617141015     A.U. after   16 cycles
 Normal termination of Gaussian 16 at Wed Apr  9 18:59:32 2025.
 Gaussian 16:  ES64L-G16RevC.01  3-Jul-2019

 ----------------------------------------------------------------------
 #t hf aug-cc-pvdz iop(5/13=1,5/36=2,99/5=2) pseudo=read geom=check gue
 ss=(read,tcheck) scf=(maxcycle=1)
 ----------------------------------------------------------------------
 -----
 title
 -----
 Structure from the checkpoint file:  "Grambow2020_wb97xd3_007983_reverse_mol1.chk"
 Charge =  0 Multiplicity = 1

                         Standard orientation:
 ---------------------------------------------------------------------
 Center     Atomic      Atomic             Coordinates (Angstroms)
 Number     Number       Type             X           Y           Z
 ---------------------------------------------------------------------
      1          7           0        2.172529    0.247376   -0.201652
      2          6           0        0.862445   -0.042397   -0.019901
      3          7           0        0.358319   -1.242541   -0.225851
      4          6           0       -0.790665   -0.926185    0.406222
      5          6           0       -1.836985   -0.175924   -0.292788
      6          6           0       -1.244930    1.012500   -0.135946
      7          7           0        0.041737    0.966912    0.435230
      8          1           0        2.470531    1.149481    0.122282
      9          1           0        2.834790   -0.505919   -0.195162
     10          1           0       -0.889144   -1.133335    1.478535
     11          1           0       -2.716812   -0.508893   -0.817333
     12          1           0       -1.646649    1.988482   -0.387932
 ---------------------------------------------------------------------

 SCF Done:  E(RHF) =  -319.082087219     A.U. after    2 cycles

 The electronic state is 1-A.
 Alpha  occ. eigenvalues --  -15.77096 -15.71106 -15.69137 -11.55731 -11.49050
 Alpha  occ. eigenvalues --  -11.45146 -11.39216  -1.58140  -1.34809  -1.27876
 Alpha  occ. eigenvalues --   -1.12450  -0.91735  -0.86055  -0.74417  -0.72144
 Alpha  occ. eigenvalues --   -0.67748  -0.64663  -0.58900  -0.55721  -0.51289
 Alpha  occ. eigenvalues --   -0.46796  -0.42427  -0.33513  -0.31634  -0.29114
 Alpha virt. eigenvalues --    0.03749   0.05112   0.05441   0.05703   0.06633
 Alpha virt. eigenvalues --    0.07664   0.10406   0.10789   0.11271   0.12440
 Alpha virt. eigenvalues --    0.13037   0.13436   0.14817   0.14848   0.15459

 Mulliken charges:
               1
     1  N   -3.037182
     2  C    4.785182
     3  N   -2.906696
     4  C   -0.815318
     5  C   -0.741088
     6  C    0.281005
     7  N   -2.681233
     8  H    0.614451
     9  H    0.624612
    10  H    1.538942
    11  H    1.043205
    12  H    1.294121
 Sum of Mulliken charges =   0.00000

 Dipole moment (field-independent basis, Debye):
    X=              0.1068    Y=             -0.4986    Z=              0.4327  Tot=              0.6688

 Test job not archived.
 1\1\GINC-SE454\SP\RHF\Aug-CC-pVDZ\C4H5N3\OHZDE\09-Apr-2025\0\\#t hf au
 g-cc-pvdz iop(5/13=1,5/36=2,99/5=2) pseudo=read geom=check guess=(read
 ,tcheck) scf=(maxcycle=1)\\title\\0,1\N,0,2.17554487,-0.27742852,-0.37
 792355\C,0,0.84679247,-0.290594,-0.11798998\N,0,0.07338919,-1.32271116
 ,-0.38907382\C,0,-0.93543832,-0.83048904,0.35908809\C,0,-1.82421771,0.
 1999236,-0.18369303\C,0,-0.97083379,1.20656552,0.03051969\N,0,0.303394
 71,0.82048225,0.48998993\H,0,2.68807405,0.49834712,0.00025275\H,0,2.64
 969988,-1.15392253,-0.49202118\H,0,-1.0153118,-1.12246217,1.41305082\H

 Normal termination of Gaussian 16 at Wed Apr  9 18:59:36 2025.
