 Gaussian 16, Revision C.01,

 ----------------------------------------------------------------------
 #t hf aug-cc-pvdz symm=none int=(grid=ultrafine) guess=(read,tcheck) s
 table=(opt,rrhf)
 ----------------------------------------------------------------------
 -----
 title
 -----
 Symbolic Z-matrix:
 Charge =  0 Multiplicity = 1

 SCF Done:  E(RHF) =  -306.696516127     A.U. after   13 cycles
 Normal termination of Gaussian 16 at Wed Apr  9 03:27:21 2025.
 Gaussian 16:  ES64L-G16RevC.01  3-Jul-2019

 ----------------------------------------------------------------------
 #t hf aug-cc-pvdz iop(5/13=1,5/36=2,99/5=2) pseudo=read geom=check gue
 ss=(read,tcheck) scf=(maxcycle=1)
 ----------------------------------------------------------------------
 -----
 title
 -----
 Structure from the checkpoint file:  "Grambow2020_wb97xd3_006670_reverse_mol2.chk"
 Charge =  0 Multiplicity = 1

                         Standard orientation:
 ---------------------------------------------------------------------
 Center     Atomic      Atomic             Coordinates (Angstroms)
 Number     Number       Type             X           Y           Z
 ---------------------------------------------------------------------
      1          6           0       -2.085287   -0.235276   -0.332095
      2          6           0       -0.888377    0.172153    0.522582
      3          6           0        0.214304   -0.875457    0.573608
      4          8           0        0.789833   -1.184953   -0.685790
      5          6           0       -0.150334    1.387194    0.002047
      6          6           0        1.148753    1.168172   -0.166295
      7          6           0        1.470076   -0.250396    0.161701
      8          1           0       -2.590949   -1.104963    0.091531
      9          1           0       -1.758387   -0.486923   -1.341667
     10          1           0       -2.813084    0.575649   -0.397624
     11          1           0       -1.229449    0.366526    1.546408
     12          1           0        0.158830   -1.701070    1.275425
     13          1           0       -0.662127    2.312649   -0.235384
     14          1           0        1.873701    1.884900   -0.527875
     15          1           0        2.447998   -0.565475    0.506213
 ---------------------------------------------------------------------

 SCF Done:  E(RHF) =  -308.137117666     A.U. after    2 cycles

 The electronic state is 1-A.
 Alpha  occ. eigenvalues --  -21.05192 -11.53170 -11.47058 -11.42405 -11.41070
 Alpha  occ. eigenvalues --  -11.38601 -11.36202  -1.78989  -1.28249  -1.10598
 Alpha  occ. eigenvalues --   -0.96986  -0.94464  -0.81469  -0.77609  -0.73611
 Alpha  occ. eigenvalues --   -0.61179  -0.58874  -0.57079  -0.51921  -0.51447
 Alpha  occ. eigenvalues --   -0.48364  -0.46025  -0.44623  -0.37639  -0.31750
 Alpha  occ. eigenvalues --   -0.29051
 Alpha virt. eigenvalues --    0.03833   0.04674   0.05009   0.05681   0.05941
 Alpha virt. eigenvalues --    0.06206   0.07437   0.07754   0.10364   0.11384
 Alpha virt. eigenvalues --    0.12208   0.13273   0.13469   0.14374   0.14873

 Mulliken charges:
               1
     1  C   -3.780075
     2  C   -3.591555
     3  C    0.837678
     4  O   -2.766619
     5  C    0.014598
     6  C    0.096467
     7  C   -1.920595
     8  H    1.234053
     9  H    1.336930
    10  H    1.189494
    11  H    1.580807
    12  H    1.497056
    13  H    1.458954
    14  H    1.369003
    15  H    1.443805
 Sum of Mulliken charges =  -0.00000

 Dipole moment (field-independent basis, Debye):
    X=             -0.1885    Y=              0.1950    Z=              0.3685  Tot=              0.4575

 Test job not archived.
 1\1\GINC-SE080\SP\RHF\Aug-CC-pVDZ\C6H8O1\OHZDE\09-Apr-2025\0\\#t hf au
 g-cc-pvdz iop(5/13=1,5/36=2,99/5=2) pseudo=read geom=check guess=(read
 ,tcheck) scf=(maxcycle=1)\\title\\0,1\C,0,1.7714533,0.65067492,-0.1142
 0925\C,0,0.59582744,-0.27972018,-0.39939982\C,0,-0.06933524,-0.8300582
 6,0.85386838\O,0,-0.6221163,0.15853027,1.70840326\C,0,-0.56133473,0.39
 525665,-1.10464446\C,0,-1.71584796,0.23802355,-0.46721743\C,0,-1.49692
 392,-0.51989495,0.79800872\H,0,2.58352146,0.11501084,0.38088469\H,0,1.
 45515139,1.46871878,0.53400652\H,0,2.16635053,1.07638856,-1.03855018\H

 Normal termination of Gaussian 16 at Wed Apr  9 03:27:26 2025.
