 Gaussian 16, Revision C.01,

 ----------------------------------------------------------------------
 #t hf aug-cc-pvdz symm=none int=(grid=ultrafine) guess=(read,tcheck) s
 table=(opt,rrhf)
 ----------------------------------------------------------------------
 -----
 title
 -----
 Symbolic Z-matrix:
 Charge =  0 Multiplicity = 1

 SCF Done:  E(RHF) =  -286.799254459     A.U. after   16 cycles
 Normal termination of Gaussian 16 at Wed Apr  9 19:19:12 2025.
 Gaussian 16:  ES64L-G16RevC.01  3-Jul-2019

 ----------------------------------------------------------------------
 #t hf aug-cc-pvdz iop(5/13=1,5/36=2,99/5=2) pseudo=read geom=check gue
 ss=(read,tcheck) scf=(maxcycle=1)
 ----------------------------------------------------------------------
 -----
 title
 -----
 Structure from the checkpoint file:  "Grambow2020_wb97xd3_008589_reverse_mol2.chk"
 Charge =  0 Multiplicity = 1

                         Standard orientation:
 ---------------------------------------------------------------------
 Center     Atomic      Atomic             Coordinates (Angstroms)
 Number     Number       Type             X           Y           Z
 ---------------------------------------------------------------------
      1          6           0       -2.531824   -0.505290    0.153197
      2          6           0       -1.071968   -0.254824   -0.038163
      3          6           0       -0.031068   -1.078652   -0.292836
      4          6           0        1.159052   -0.148260   -0.387116
      5          6           0        2.417326   -0.559419    0.372825
      6          6           0        0.652266    1.217901   -0.084928
      7          7           0       -0.621271    1.115058    0.084156
      8          1           0       -3.147862    0.000922   -0.597205
      9          1           0       -2.699782   -1.575672    0.055789
     10          1           0       -2.885022   -0.196995    1.142810
     11          1           0        1.399961   -0.111970   -1.465069
     12          1           0        2.214466   -0.618781    1.442977
     13          1           0        3.243908    0.137105    0.212488
     14          1           0        2.719474   -1.550650    0.039000
     15          1           0        1.161467    2.171929   -0.027766
     16          1           0       -1.220416    1.909971    0.270017
 ---------------------------------------------------------------------

 SCF Done:  E(RHF) =  -288.202606641     A.U. after    2 cycles

 The electronic state is 1-A.
 Alpha  occ. eigenvalues --  -15.84170 -11.49162 -11.41676 -11.39240 -11.36994
 Alpha  occ. eigenvalues --  -11.35704 -11.30183  -1.52803  -1.18884  -1.12797
 Alpha  occ. eigenvalues --   -0.99766  -0.95783  -0.81271  -0.74484  -0.72033
 Alpha  occ. eigenvalues --   -0.63217  -0.58335  -0.57713  -0.55167  -0.53264
 Alpha  occ. eigenvalues --   -0.50430  -0.47657  -0.46634  -0.40745  -0.28363
 Alpha  occ. eigenvalues --   -0.27268
 Alpha virt. eigenvalues --    0.02544   0.04252   0.04400   0.05738   0.05961
 Alpha virt. eigenvalues --    0.06299   0.06930   0.07680   0.08347   0.08867
 Alpha virt. eigenvalues --    0.11148   0.11434   0.11991   0.12608   0.13291

 Mulliken charges:
               1
     1  C   -4.732785
     2  C    5.279285
     3  C   -2.749646
     4  C   -1.739374
     5  C   -4.007621
     6  C    0.380405
     7  N   -3.897088
     8  H    1.174504
     9  H    1.177355
    10  H    1.160426
    11  H    1.637695
    12  H    1.354969
    13  H    1.231715
    14  H    1.308899
    15  H    1.549181
    16  H    0.872081
 Sum of Mulliken charges =  -0.00000

 Dipole moment (field-independent basis, Debye):
    X=              0.2328    Y=              6.2956    Z=              0.7356  Tot=              6.3427

 Test job not archived.
 1\1\GINC-SE048\SP\RHF\Aug-CC-pVDZ\C6H9N1\OHZDE\09-Apr-2025\0\\#t hf au
 g-cc-pvdz iop(5/13=1,5/36=2,99/5=2) pseudo=read geom=check guess=(read
 ,tcheck) scf=(maxcycle=1)\\title\\0,1\C,0,2.57973005,-0.15354902,-0.35
 251735\C,0,1.11719014,-0.15079379,-0.05003029\C,0,0.14254636,-1.065372
 97,-0.25162156\C,0,-1.09806798,-0.41146227,0.31774881\C,0,-2.36115557,
 -0.46774705,-0.53738658\C,0,-0.6920797,0.94937969,0.76252874\N,0,0.576
 45312,1.04680303,0.55662779\H,0,3.19611421,-0.06067682,0.54765067\H,0,
 2.81867528,-1.10444206,-0.82381531\H,0,2.86782407,0.64671633,-1.042231

 Normal termination of Gaussian 16 at Wed Apr  9 19:19:17 2025.
