 Gaussian 16, Revision C.01,

 ----------------------------------------------------------------------
 #t hf aug-cc-pvdz symm=none int=(grid=ultrafine) guess=(read,tcheck) s
 table=(opt,rrhf)
 ----------------------------------------------------------------------
 -----
 title
 -----
 Symbolic Z-matrix:
 Charge =  0 Multiplicity = 1

 SCF Done:  E(RHF) =  -306.582339299     A.U. after   15 cycles
 Normal termination of Gaussian 16 at Wed Apr  9 19:14:05 2025.
 Gaussian 16:  ES64L-G16RevC.01  3-Jul-2019

 ----------------------------------------------------------------------
 #t hf aug-cc-pvdz iop(5/13=1,5/36=2,99/5=2) pseudo=read geom=check gue
 ss=(read,tcheck) scf=(maxcycle=1)
 ----------------------------------------------------------------------
 -----
 title
 -----
 Structure from the checkpoint file:  "Grambow2020_wb97xd3_008440_reverse_mol1.chk"
 Charge =  0 Multiplicity = 1

                         Standard orientation:
 ---------------------------------------------------------------------
 Center     Atomic      Atomic             Coordinates (Angstroms)
 Number     Number       Type             X           Y           Z
 ---------------------------------------------------------------------
      1          6           0       -0.908310    1.007753   -0.595849
      2          6           0       -1.357740   -0.421502   -0.318074
      3          6           0       -0.086320   -1.169650    0.099246
      4          8           0        1.083531   -0.797553   -0.586156
      5          6           0        1.451347    0.480009   -0.060879
      6          6           0        0.150726    0.991748    0.530926
      7          6           0       -0.358100   -0.289389    1.278295
      8          1           0       -0.509115    1.181484   -1.597725
      9          1           0       -1.703662    1.726786   -0.403329
     10          1           0       -2.153514   -0.955091   -0.831258
     11          1           0       -0.164509   -2.247329    0.192371
     12          1           0        1.824417    1.103229   -0.875752
     13          1           0        2.240611    0.364719    0.692141
     14          1           0        0.239885    1.892044    1.133160
     15          1           0       -1.791979   -0.279234    0.777648
 ---------------------------------------------------------------------

 SCF Done:  E(RHF) =  -308.025308696     A.U. after    2 cycles

 The electronic state is 1-A.
 Alpha  occ. eigenvalues --  -21.04646 -11.49808 -11.45596 -11.44768 -11.41286
 Alpha  occ. eigenvalues --  -11.40848 -11.36470  -1.78996  -1.36545  -1.11717
 Alpha  occ. eigenvalues --   -1.00968  -0.91797  -0.81380  -0.76902  -0.72520
 Alpha  occ. eigenvalues --   -0.66204  -0.60576  -0.55727  -0.52808  -0.51994
 Alpha  occ. eigenvalues --   -0.49913  -0.44525  -0.44126  -0.37837  -0.33052
 Alpha  occ. eigenvalues --   -0.26376
 Alpha virt. eigenvalues --    0.03776   0.04604   0.05167   0.05337   0.05769
 Alpha virt. eigenvalues --    0.06251   0.06616   0.07623   0.10299   0.10854
 Alpha virt. eigenvalues --    0.11580   0.12470   0.13319   0.13579   0.14620

 Mulliken charges:
               1
     1  C   -2.827362
     2  C   -1.621592
     3  C    1.026801
     4  O   -3.346166
     5  C   -1.546332
     6  C   -2.332741
     7  C   -0.718329
     8  H    1.424782
     9  H    1.276835
    10  H    1.174297
    11  H    1.623190
    12  H    1.534128
    13  H    1.476235
    14  H    1.725379
    15  H    1.130876
 Sum of Mulliken charges =  -0.00000

 Dipole moment (field-independent basis, Debye):
    X=             -0.5411    Y=              0.8903    Z=             -2.1195  Tot=              2.3617

 Test job not archived.
 1\1\GINC-SE226\SP\RHF\Aug-CC-pVDZ\C6H8O1\OHZDE\09-Apr-2025\0\\#t hf au
 g-cc-pvdz iop(5/13=1,5/36=2,99/5=2) pseudo=read geom=check guess=(read
 ,tcheck) scf=(maxcycle=1)\\title\\0,1\C,0,0.69935934,1.06789648,0.0716
 3348\C,0,1.35017594,-0.2769362,-0.22799484\C,0,0.26193281,-1.32123533,
 0.04688005\O,0,-0.57713173,-1.04289792,1.14016913\C,0,-1.44600409,0.00
 565721,0.70547197\C,0,-0.68401689,0.61985563,-0.45464076\C,0,-0.212068
 5,-0.66866718,-1.2134208\H,0,0.71538821,1.36655292,1.12227274\H,0,1.12
 912076,1.86838158,-0.52935409\H,0,2.3949339,-0.5330405,-0.07235784\H,0

 Normal termination of Gaussian 16 at Wed Apr  9 19:14:10 2025.
