 Gaussian 16, Revision C.01,

 ----------------------------------------------------------------------
 #t hf aug-cc-pvdz symm=none int=(grid=ultrafine) guess=(read,tcheck) s
 table=(opt,rrhf)
 ----------------------------------------------------------------------
 -----
 title
 -----
 Symbolic Z-matrix:
 Charge =  0 Multiplicity = 1

 SCF Done:  E(RHF) =  -304.484020844     A.U. after   17 cycles
 Normal termination of Gaussian 16 at Wed Apr  9 03:15:52 2025.
 Gaussian 16:  ES64L-G16RevC.01  3-Jul-2019

 ----------------------------------------------------------------------
 #t hf aug-cc-pvdz iop(5/13=1,5/36=2,99/5=2) pseudo=read geom=check gue
 ss=(read,tcheck) scf=(maxcycle=1)
 ----------------------------------------------------------------------
 -----
 title
 -----
 Structure from the checkpoint file:  "Grambow2020_b97d3_006991_forward_mol1.chk"
 Charge =  0 Multiplicity = 1

                         Standard orientation:
 ---------------------------------------------------------------------
 Center     Atomic      Atomic             Coordinates (Angstroms)
 Number     Number       Type             X           Y           Z
 ---------------------------------------------------------------------
      1          6           0       -1.723384   -0.561701   -0.425334
      2          6           0       -1.017595    1.096839   -0.003051
      3          6           0       -0.114997   -0.969863    0.551219
      4          6           0        0.948209   -0.071142    0.054033
      5          8           0        2.069556   -0.331592   -0.326006
      6          8           0        0.360722    1.182150    0.044812
      7          1           0       -1.597966   -0.591018   -1.510537
      8          1           0       -2.708768   -0.155809   -0.140487
      9          1           0       -1.888659   -1.624701   -0.098872
     10          1           0       -1.417042    1.399548    0.995067
     11          1           0       -0.415629   -0.762779    1.583821
     12          1           0        0.032443   -2.034504    0.359350
 ---------------------------------------------------------------------

 SCF Done:  E(RHF) =  -305.853532369     A.U. after    2 cycles

 The electronic state is 1-A.
 Alpha  occ. eigenvalues --  -21.10954 -21.06889 -11.54876 -11.47731 -11.44062
 Alpha  occ. eigenvalues --  -11.42276  -1.85384  -1.68151  -1.18639  -1.04097
 Alpha  occ. eigenvalues --   -0.90152  -0.78910  -0.69292  -0.64396  -0.60616
 Alpha  occ. eigenvalues --   -0.58934  -0.57202  -0.53420  -0.46408  -0.43832
 Alpha  occ. eigenvalues --   -0.39135  -0.31956  -0.24997
 Alpha virt. eigenvalues --    0.02798   0.03508   0.04558   0.05269   0.05859
 Alpha virt. eigenvalues --    0.06913   0.07276   0.10263   0.10538   0.11393
 Alpha virt. eigenvalues --    0.12177   0.13544   0.13975   0.14519   0.15153

 Mulliken charges:
               1
     1  C   -3.492934
     2  C   -0.100949
     3  C   -3.074833
     4  C    5.167531
     5  O   -2.998667
     6  O   -2.940971
     7  H    1.271241
     8  H    1.166155
     9  H    0.941994
    10  H    1.400583
    11  H    1.348683
    12  H    1.312168
 Sum of Mulliken charges =   0.00000

 Dipole moment (field-independent basis, Debye):
    X=             -1.5897    Y=             -2.0010    Z=              1.4866  Tot=              2.9566

 Test job not archived.
 1\1\GINC-SE249\SP\RHF\Aug-CC-pVDZ\C4H6O2\OHZDE\09-Apr-2025\0\\#t hf au
 g-cc-pvdz iop(5/13=1,5/36=2,99/5=2) pseudo=read geom=check guess=(read
 ,tcheck) scf=(maxcycle=1)\\title\\0,1\C,0,-1.19036164,0.06297712,0.353
 28317\C,0,-0.38811263,-1.08371455,-0.85862093\C,0,0.60089252,0.7460279
 1,0.17436895\C,0,1.52294678,-0.40911765,0.2018489\O,0,2.51829839,-0.59
 176854,0.86937857\O,0,0.96240953,-1.31587209,-0.68107801\H,0,-1.328410
 14,-0.58627201,1.22142713\H,0,-2.07506754,0.05488516,-0.30557753\H,0,-
 1.28300004,1.11768743,0.73126031\H,0,-0.53432069,-0.66304327,-1.882870

 Normal termination of Gaussian 16 at Wed Apr  9 03:15:56 2025.
