 Gaussian 16, Revision C.01,

 ----------------------------------------------------------------------
 #t hf aug-cc-pvdz symm=none int=(grid=ultrafine) guess=(read,tcheck) s
 table=(opt,rrhf)
 ----------------------------------------------------------------------
 -----
 title
 -----
 Symbolic Z-matrix:
 Charge =  0 Multiplicity = 1

 SCF Done:  E(RHF) =  -268.727330336     A.U. after   14 cycles
 Normal termination of Gaussian 16 at Wed Apr  9 17:49:27 2025.
 Gaussian 16:  ES64L-G16RevC.01  3-Jul-2019

 ----------------------------------------------------------------------
 #t hf aug-cc-pvdz iop(5/13=1,5/36=2,99/5=2) pseudo=read geom=check gue
 ss=(read,tcheck) scf=(maxcycle=1)
 ----------------------------------------------------------------------
 -----
 title
 -----
 Structure from the checkpoint file:  "Grambow2020_wb97xd3_006189_reverse_mol2.chk"
 Charge =  0 Multiplicity = 1

                         Standard orientation:
 ---------------------------------------------------------------------
 Center     Atomic      Atomic             Coordinates (Angstroms)
 Number     Number       Type             X           Y           Z
 ---------------------------------------------------------------------
      1          8           0        1.510089   -1.057062    0.075284
      2          6           0        0.433598   -0.158942   -0.004277
      3          6           0        0.756632    1.190780   -0.514449
      4          6           0        0.755974    0.953213    0.958918
      5          6           0       -2.098756    0.152509    0.032733
      6          6           0       -0.923022   -0.804675   -0.110374
      7          1           0        1.939399   -1.092557   -0.783021
      8          1           0        1.694416    1.469358   -0.985169
      9          1           0       -0.087811    1.796385   -0.837392
     10          1           0       -2.037028    0.724331    0.962135
     11          1           0       -3.038325   -0.400008    0.047567
     12          1           0       -2.152224    0.861078   -0.796900
     13          1           0       -0.962597   -1.559973    0.679141
     14          1           0       -0.983106   -1.339437   -1.063933
 ---------------------------------------------------------------------

 SCF Done:  E(RHF) =  -269.979961694     A.U. after    2 cycles

 The electronic state is 1-A.
 Alpha  occ. eigenvalues --  -21.08966 -11.47193 -11.42815 -11.41557 -11.39704
 Alpha  occ. eigenvalues --  -11.37304  -1.74641  -1.29055  -1.14841  -0.94331
 Alpha  occ. eigenvalues --   -0.84309  -0.71906  -0.66599  -0.64708  -0.60458
 Alpha  occ. eigenvalues --   -0.57011  -0.52449  -0.49890  -0.48753  -0.43565
 Alpha  occ. eigenvalues --   -0.42299  -0.32628  -0.32021
 Alpha virt. eigenvalues --    0.03658   0.04907   0.05213   0.05516   0.05731
 Alpha virt. eigenvalues --    0.06688   0.06824   0.08064   0.08610   0.09182
 Alpha virt. eigenvalues --    0.11652   0.13794   0.14307   0.14526   0.14882

 Mulliken charges:
               1
     1  O   -3.314082
     2  C    4.755655
     3  C   -2.809490
     4  C   -0.899172
     5  C   -3.719460
     6  C   -3.684237
     7  H    0.523112
     8  H    1.294650
     9  H    1.521821
    10  H    1.343701
    11  H    1.081840
    12  H    1.277357
    13  H    1.284248
    14  H    1.344056
 Sum of Mulliken charges =   0.00000

 Dipole moment (field-independent basis, Debye):
    X=             -0.7282    Y=             -0.5101    Z=             -2.5587  Tot=              2.7087

 Test job not archived.
 1\1\GINC-SE112\SP\RHF\Aug-CC-pVDZ\C5H8O1\OHZDE\09-Apr-2025\0\\#t hf au
 g-cc-pvdz iop(5/13=1,5/36=2,99/5=2) pseudo=read geom=check guess=(read
 ,tcheck) scf=(maxcycle=1)\\title\\0,1\O,0,1.54868319,0.4829091,1.46764
 689\C,0,0.57823012,0.39057032,0.45696533\C,0,0.89945076,1.08173785,-0.
 81011055\C,0,0.09518396,1.79788596,0.22310564\C,0,-1.52609394,-0.78052
 042,-0.38657274\C,0,-0.33842843,-0.7995598,0.56638089\H,0,2.39068881,0
 .19479216,1.10671899\H,0,1.8734498,1.4859921,-1.06803535\H,0,0.3043327
 5,0.79774679,-1.67574184\H,0,-2.10662065,0.1396561,-0.28244877\H,0,-2.

 Normal termination of Gaussian 16 at Wed Apr  9 17:49:31 2025.
