 Gaussian 16, Revision C.01,

 ----------------------------------------------------------------------
 #t hf aug-cc-pvdz symm=none int=(grid=ultrafine) guess=(read,tcheck) s
 table=(opt,rrhf)
 ----------------------------------------------------------------------
 -----
 title
 -----
 Symbolic Z-matrix:
 Charge =  0 Multiplicity = 1

 SCF Done:  E(RHF) =  -320.355040222     A.U. after   16 cycles
 Normal termination of Gaussian 16 at Wed Apr  9 18:47:20 2025.
 Gaussian 16:  ES64L-G16RevC.01  3-Jul-2019

 ----------------------------------------------------------------------
 #t hf aug-cc-pvdz iop(5/13=1,5/36=2,99/5=2) pseudo=read geom=check gue
 ss=(read,tcheck) scf=(maxcycle=1)
 ----------------------------------------------------------------------
 -----
 title
 -----
 Structure from the checkpoint file:  "Grambow2020_wb97xd3_007650_reverse_mol2.chk"
 Charge =  0 Multiplicity = 1

                         Standard orientation:
 ---------------------------------------------------------------------
 Center     Atomic      Atomic             Coordinates (Angstroms)
 Number     Number       Type             X           Y           Z
 ---------------------------------------------------------------------
      1          7           0       -3.090028   -0.647157   -0.553291
      2          6           0       -2.212183   -0.155180   -0.000907
      3          6           0        0.017374    0.697529    0.161099
      4          6           0       -1.141203    0.469161    0.711653
      5          8           0        2.198058   -1.139401    0.316566
      6          6           0        2.279770   -0.105414   -0.283424
      7          6           0        1.186681    0.907583   -0.368357
      8          1           0       -1.322142    0.754247    1.742591
      9          1           0        3.201696    0.173351   -0.827089
     10          1           0        1.383544    1.835635   -0.895379
 ---------------------------------------------------------------------

 SCF Done:  E(RHF) =  -321.761537091     A.U. after    2 cycles

 The electronic state is 1-A.
 Alpha  occ. eigenvalues --  -21.08674 -15.77390 -11.51726 -11.50586 -11.49069
 Alpha  occ. eigenvalues --  -11.45681 -11.44441  -1.73594  -1.34335  -1.24610
 Alpha  occ. eigenvalues --   -1.11777  -0.91461  -0.79534  -0.71868  -0.70451
 Alpha  occ. eigenvalues --   -0.64190  -0.54316  -0.54064  -0.51455  -0.51345
 Alpha  occ. eigenvalues --   -0.45554  -0.38366  -0.38302  -0.32280
 Alpha virt. eigenvalues --    0.02082   0.04469   0.04913   0.06472   0.08134
 Alpha virt. eigenvalues --    0.08526   0.09278   0.09776   0.10945   0.11252
 Alpha virt. eigenvalues --    0.11754   0.12336   0.13528   0.14396   0.14694

 Mulliken charges:
               1
     1  N   -2.441984
     2  C    1.731498
     3  C    3.459601
     4  C   -2.399966
     5  O   -2.754174
     6  C    0.679702
     7  C   -2.394628
     8  H    1.362400
     9  H    1.425901
    10  H    1.331650
 Sum of Mulliken charges =   0.00000

 Dipole moment (field-independent basis, Debye):
    X=              2.6338    Y=              2.3619    Z=              0.9344  Tot=              3.6591

 Test job not archived.
 1\1\GINC-SE014\SP\RHF\Aug-CC-pVDZ\C5H3N1O1\OHZDE\09-Apr-2025\0\\#t hf
 aug-cc-pvdz iop(5/13=1,5/36=2,99/5=2) pseudo=read geom=check guess=(re
 ad,tcheck) scf=(maxcycle=1)\\title\\0,1\N,0,3.21932584,1.16992752,-0.7
 6772415\C,0,2.34848299,0.85858315,-0.08766532\C,0,0.27170894,-0.233767
 24,0.3793062\C,0,1.2835804,0.47831138,0.78750106\O,0,-2.1536832,0.9258
 3193,-0.58332846\C,0,-1.98710737,-0.26021847,-0.54686933\C,0,-0.756639
 52,-0.92202887,-0.0213457\H,0,1.34155444,0.80366955,1.82076105\H,0,-2.
 76148538,-0.96168931,-0.90950995\H,0,-0.72956115,-2.00636365,0.0143236

 Normal termination of Gaussian 16 at Wed Apr  9 18:47:24 2025.
