 Gaussian 16, Revision C.01,

 ----------------------------------------------------------------------
 #t hf aug-cc-pvdz symm=none int=(grid=ultrafine) guess=(read,tcheck) s
 table=(opt,rrhf)
 ----------------------------------------------------------------------
 -----
 title
 -----
 Symbolic Z-matrix:
 Charge =  0 Multiplicity = 1

 SCF Done:  E(RHF) =  -245.659145509     A.U. after   15 cycles
 Normal termination of Gaussian 16 at Wed Apr  9 17:41:11 2025.
 Gaussian 16:  ES64L-G16RevC.01  3-Jul-2019

 ----------------------------------------------------------------------
 #t hf aug-cc-pvdz iop(5/13=1,5/36=2,99/5=2) pseudo=read geom=check gue
 ss=(read,tcheck) scf=(maxcycle=1)
 ----------------------------------------------------------------------
 -----
 title
 -----
 Structure from the checkpoint file:  "Grambow2020_wb97xd3_006112_forward_mol1.chk"
 Charge =  0 Multiplicity = 1

                         Standard orientation:
 ---------------------------------------------------------------------
 Center     Atomic      Atomic             Coordinates (Angstroms)
 Number     Number       Type             X           Y           Z
 ---------------------------------------------------------------------
      1          6           0        1.120134   -0.240027    0.311800
      2          6           0        0.518751    1.002147   -0.249961
      3          7           0       -0.822088    0.916675    0.078875
      4          6           0       -1.111482   -0.322652    0.195699
      5          8           0        0.038377   -1.099054   -0.264923
      6          1           0        2.067921   -0.589276   -0.088654
      7          1           0        1.035570   -0.377155    1.400256
      8          1           0        0.999437    1.969533   -0.228610
      9          1           0        0.240629   -0.438591   -1.174038
     10          1           0       -2.060368   -0.825606    0.113069
 ---------------------------------------------------------------------

 SCF Done:  E(RHF) =  -246.806339646     A.U. after    2 cycles

 The electronic state is 1-A.
 Alpha  occ. eigenvalues --  -21.15463 -15.75799 -11.47388 -11.42918 -11.36741
 Alpha  occ. eigenvalues --   -1.88854  -1.37210  -1.10358  -0.89961  -0.78997
 Alpha  occ. eigenvalues --   -0.74544  -0.71965  -0.56560  -0.55797  -0.53733
 Alpha  occ. eigenvalues --   -0.47791  -0.41051  -0.38396  -0.27943
 Alpha virt. eigenvalues --    0.03868   0.05429   0.05893   0.05977   0.06623
 Alpha virt. eigenvalues --    0.09886   0.10196   0.10918   0.12148   0.13662
 Alpha virt. eigenvalues --    0.14109   0.15474   0.16309   0.17065   0.18128

 Mulliken charges:
               1
     1  C   -2.194884
     2  C   -0.579314
     3  N   -2.537709
     4  C    1.517171
     5  O   -2.480559
     6  H    1.234743
     7  H    1.297610
     8  H    1.268371
     9  H    0.979848
    10  H    1.494723
 Sum of Mulliken charges =   0.00000

 Dipole moment (field-independent basis, Debye):
    X=              1.1811    Y=             -2.3995    Z=              0.2024  Tot=              2.6821

 Test job not archived.
 1\1\GINC-SE232\SP\RHF\Aug-CC-pVDZ\C3H5N1O1\OHZDE\09-Apr-2025\0\\#t hf
 aug-cc-pvdz iop(5/13=1,5/36=2,99/5=2) pseudo=read geom=check guess=(re
 ad,tcheck) scf=(maxcycle=1)\\title\\0,1\C,0,-0.7913515,-0.60049846,-0.
 03221816\C,0,-0.60088992,0.87714423,-0.00919768\N,0,0.65719327,1.07224
 753,-0.54998449\C,0,1.3379773,0.01264763,-0.3329355\O,0,0.56156734,-0.
 84671658,0.55915715\H,0,-1.52793992,-1.0430057,0.63280959\H,0,-0.75695
 45,-1.08420608,-1.01991004\H,0,-1.38053771,1.59061532,-0.23382656\H,0,
 0.22475312,0.00459158,1.24138701\H,0,2.40445051,-0.13076047,-0.2855733

 Normal termination of Gaussian 16 at Wed Apr  9 17:41:14 2025.
