 Gaussian 16, Revision C.01,

 ----------------------------------------------------------------------
 #t hf aug-cc-pvdz symm=none int=(grid=ultrafine) guess=(read,tcheck) s
 table=(opt,rrhf)
 ----------------------------------------------------------------------
 -----
 title
 -----
 Symbolic Z-matrix:
 Charge =  0 Multiplicity = 1

 SCF Done:  E(RHF) =  -338.704356109     A.U. after   14 cycles
 Normal termination of Gaussian 16 at Wed Apr  9 03:59:34 2025.
 Gaussian 16:  ES64L-G16RevC.01  3-Jul-2019

 ----------------------------------------------------------------------
 #t hf aug-cc-pvdz iop(5/13=1,5/36=2,99/5=2) pseudo=read geom=check gue
 ss=(read,tcheck) scf=(maxcycle=1)
 ----------------------------------------------------------------------
 -----
 title
 -----
 Structure from the checkpoint file:  "Grambow2020_wb97xd3_008817_reverse_mol2.chk"
 Charge =  0 Multiplicity = 1

                         Standard orientation:
 ---------------------------------------------------------------------
 Center     Atomic      Atomic             Coordinates (Angstroms)
 Number     Number       Type             X           Y           Z
 ---------------------------------------------------------------------
      1          7           0        0.070519    1.804735   -0.161028
      2          6           0       -0.239402    0.411430   -0.094062
      3          6           0        0.956022   -0.482525   -0.021655
      4          8           0        2.080761    0.160387    0.355991
      5          7           0        0.895778   -1.711614   -0.289314
      6          6           0       -2.656173   -0.515876    0.171348
      7          6           0       -1.452257   -0.061294    0.014189
      8          1           0       -0.708274    2.376428    0.129826
      9          1           0        0.351534    2.084576   -1.093106
     10          1           0        1.838961    1.086922    0.517061
     11          1           0        1.803103   -2.148621   -0.146428
     12          1           0       -3.236538   -0.861628   -0.676877
     13          1           0       -3.108100   -0.583033    1.155071
 ---------------------------------------------------------------------

 SCF Done:  E(RHF) =  -340.241642696     A.U. after    2 cycles

 The electronic state is 1-A.
 Alpha  occ. eigenvalues --  -21.10088 -15.77570 -15.71293 -11.50724 -11.44829
 Alpha  occ. eigenvalues --  -11.43664 -11.41082  -1.77609  -1.39038  -1.29508
 Alpha  occ. eigenvalues --   -1.15595  -1.01659  -0.84531  -0.73449  -0.69400
 Alpha  occ. eigenvalues --   -0.66744  -0.63704  -0.61435  -0.57436  -0.53237
 Alpha  occ. eigenvalues --   -0.46583  -0.44848  -0.38385  -0.35991  -0.34052
 Alpha  occ. eigenvalues --   -0.30999
 Alpha virt. eigenvalues --    0.02953   0.04834   0.05750   0.05993   0.06511
 Alpha virt. eigenvalues --    0.06907   0.09089   0.10283   0.11137   0.11823
 Alpha virt. eigenvalues --    0.12265   0.13250   0.13537   0.15075   0.15969

 Mulliken charges:
               1
     1  N   -3.185228
     2  C    0.575829
     3  C    6.014047
     4  O   -3.598993
     5  N   -3.567587
     6  C   -4.144530
     7  C    2.498682
     8  H    0.607532
     9  H    0.469663
    10  H    1.108008
    11  H    0.768255
    12  H    1.240712
    13  H    1.213610
 Sum of Mulliken charges =  -0.00000

 Dipole moment (field-independent basis, Debye):
    X=             -0.7355    Y=              2.8217    Z=              0.0596  Tot=              2.9166

 Test job not archived.
 1\1\GINC-SE462\SP\RHF\Aug-CC-pVDZ\C4H6N2O1\OHZDE\09-Apr-2025\0\\#t hf
 aug-cc-pvdz iop(5/13=1,5/36=2,99/5=2) pseudo=read geom=check guess=(re
 ad,tcheck) scf=(maxcycle=1)\\title\\0,1\N,0,-1.66698294,0.39934705,0.2
 1207243\C,0,-0.27450734,0.10125429,0.09381096\C,0,0.03569618,-1.356196
 8,-0.02040406\O,0,-1.02994139,-2.1017472,-0.38035201\N,0,1.18552974,-1
 .81994429,0.20039549\C,0,1.56830409,1.91613749,-0.19143345\C,0,0.65778
 736,1.00844068,-0.02469416\H,0,-1.87021246,1.35174906,-0.05169956\H,0,
 -2.00852341,0.24042554,1.15236163\H,0,-1.77547651,-1.49208037,-0.50429

 Normal termination of Gaussian 16 at Wed Apr  9 03:59:38 2025.
