 Gaussian 16, Revision C.01,

 ----------------------------------------------------------------------
 #t hf aug-cc-pvdz symm=none int=(grid=ultrafine) guess=(read,tcheck) s
 table=(opt,rrhf)
 ----------------------------------------------------------------------
 -----
 title
 -----
 Symbolic Z-matrix:
 Charge =  0 Multiplicity = 1

 SCF Done:  E(RHF) =  -343.709295900     A.U. after   13 cycles
 Normal termination of Gaussian 16 at Wed Apr  9 18:27:23 2025.
 Gaussian 16:  ES64L-G16RevC.01  3-Jul-2019

 ----------------------------------------------------------------------
 #t hf aug-cc-pvdz iop(5/13=1,5/36=2,99/5=2) pseudo=read geom=check gue
 ss=(read,tcheck) scf=(maxcycle=1)
 ----------------------------------------------------------------------
 -----
 title
 -----
 Structure from the checkpoint file:  "Grambow2020_wb97xd3_007148_reverse_mol2.chk"
 Charge =  0 Multiplicity = 1

                         Standard orientation:
 ---------------------------------------------------------------------
 Center     Atomic      Atomic             Coordinates (Angstroms)
 Number     Number       Type             X           Y           Z
 ---------------------------------------------------------------------
      1          8           0       -0.228673    1.373220   -0.308150
      2          6           0       -0.618853    0.028059   -0.103543
      3          6           0        0.467923   -0.968893   -0.286549
      4          6           0        1.759720   -0.716048   -0.078505
      5          8           0        2.296672    0.454737    0.317576
      6          6           0       -2.031402   -0.318698   -0.461419
      7          6           0       -1.635832   -0.138605    0.979552
      8          1           0        1.584546    1.111760    0.348856
      9          1           0        0.193321   -1.969170   -0.595768
     10          1           0       -0.103369    1.498602   -1.253176
     11          1           0        2.515300   -1.479579   -0.222077
     12          1           0       -2.231601   -1.317891   -0.826652
     13          1           0       -2.630144    0.463515   -0.909218
     14          1           0       -1.964344    0.766306    1.473086
     15          1           0       -1.557036   -1.012082    1.612331
 ---------------------------------------------------------------------

 SCF Done:  E(RHF) =  -345.270091101     A.U. after    2 cycles

 The electronic state is 1-A.
 Alpha  occ. eigenvalues --  -21.08908 -21.08562 -11.47546 -11.45363 -11.42932
 Alpha  occ. eigenvalues --  -11.38697 -11.37220  -1.76441  -1.72450  -1.28910
 Alpha  occ. eigenvalues --   -1.10525  -0.88215  -0.87870  -0.78076  -0.69235
 Alpha  occ. eigenvalues --   -0.66155  -0.61173  -0.60698  -0.54684  -0.51991
 Alpha  occ. eigenvalues --   -0.49520  -0.47568  -0.43967  -0.42552  -0.38193
 Alpha  occ. eigenvalues --   -0.32139  -0.26306
 Alpha virt. eigenvalues --    0.03794   0.05107   0.05112   0.05489   0.06053
 Alpha virt. eigenvalues --    0.06720   0.07154   0.08296   0.10034   0.11475
 Alpha virt. eigenvalues --    0.12266   0.12866   0.13422   0.13934   0.14757

 Mulliken charges:
               1
     1  O   -3.294540
     2  C    4.077645
     3  C   -2.630418
     4  C    1.372189
     5  O   -3.580533
     6  C   -2.559636
     7  C   -2.905742
     8  H    1.047564
     9  H    1.363720
    10  H    0.543263
    11  H    1.603742
    12  H    1.346928
    13  H    1.071630
    14  H    1.188524
    15  H    1.355665
 Sum of Mulliken charges =   0.00000

 Dipole moment (field-independent basis, Debye):
    X=             -0.6909    Y=              0.1563    Z=             -0.3842  Tot=              0.8059

 Test job not archived.
 1\1\GINC-SE174\SP\RHF\Aug-CC-pVDZ\C5H8O2\OHZDE\09-Apr-2025\0\\#t hf au
 g-cc-pvdz iop(5/13=1,5/36=2,99/5=2) pseudo=read geom=check guess=(read
 ,tcheck) scf=(maxcycle=1)\\title\\0,1\O,0,0.10874842,-0.69000091,-1.32
 381228\C,0,-0.32500761,-0.16480145,-0.08301211\C,0,0.75544173,0.041417
 08,0.9162811\C,0,2.0251062,0.29990872,0.60469381\O,0,2.54259872,0.4117
 0261,-0.63451503\C,0,-1.70187677,-0.5529379,0.36104932\C,0,-1.44642374
 ,0.81559676,-0.21093095\H,0,1.8433955,0.19075542,-1.26861173\H,0,0.493
 67568,-0.00783479,1.96538996\H,0,0.32861918,-1.61586317,-1.18622143\H,

 Normal termination of Gaussian 16 at Wed Apr  9 18:27:28 2025.
