 Gaussian 16, Revision C.01,

 ----------------------------------------------------------------------
 #t hf aug-cc-pvdz symm=none int=(grid=ultrafine) guess=(read,tcheck) s
 table=(opt,rrhf)
 ----------------------------------------------------------------------
 -----
 title
 -----
 Symbolic Z-matrix:
 Charge =  0 Multiplicity = 1

 SCF Done:  E(RHF) =  -322.602248480     A.U. after   16 cycles
 Normal termination of Gaussian 16 at Wed Apr  9 03:33:21 2025.
 Gaussian 16:  ES64L-G16RevC.01  3-Jul-2019

 ----------------------------------------------------------------------
 #t hf aug-cc-pvdz iop(5/13=1,5/36=2,99/5=2) pseudo=read geom=check gue
 ss=(read,tcheck) scf=(maxcycle=1)
 ----------------------------------------------------------------------
 -----
 title
 -----
 Structure from the checkpoint file:  "Grambow2020_wb97xd3_007015_forward_mol1.chk"
 Charge =  0 Multiplicity = 1

                         Standard orientation:
 ---------------------------------------------------------------------
 Center     Atomic      Atomic             Coordinates (Angstroms)
 Number     Number       Type             X           Y           Z
 ---------------------------------------------------------------------
      1          6           0       -2.130076   -0.460012    0.076037
      2          6           0       -0.640355   -0.421418    0.127170
      3          6           0        0.273114   -1.389289   -0.301055
      4          6           0        1.540731   -0.830268   -0.170888
      5          7           0        1.524844    0.436282    0.281348
      6          6           0        0.152580    0.856737   -0.029957
      7          8           0       -0.199611    1.946753   -0.327110
      8          1           0       -2.507334   -1.467321    0.248609
      9          1           0       -2.467638   -0.126830   -0.908119
     10          1           0       -2.566716    0.212665    0.813384
     11          1           0       -0.078337   -0.187887    1.554157
     12          1           0        0.049620   -2.418151   -0.541409
     13          1           0        2.481700   -1.359528   -0.248871
     14          1           0        0.835726    0.184555    1.521853
 ---------------------------------------------------------------------

 SCF Done:  E(RHF) =  -324.134112036     A.U. after    2 cycles

 The electronic state is 1-A.
 Alpha  occ. eigenvalues --  -21.07900 -15.75354 -11.53083 -11.49510 -11.45839
 Alpha  occ. eigenvalues --  -11.42819 -11.39778  -1.74734  -1.48568  -1.20314
 Alpha  occ. eigenvalues --   -1.06530  -0.99380  -0.80954  -0.74597  -0.73155
 Alpha  occ. eigenvalues --   -0.68572  -0.60662  -0.58817  -0.55500  -0.51488
 Alpha  occ. eigenvalues --   -0.51085  -0.44848  -0.43430  -0.39914  -0.36306
 Alpha  occ. eigenvalues --   -0.29898
 Alpha virt. eigenvalues --    0.03131   0.04598   0.04846   0.05575   0.05869
 Alpha virt. eigenvalues --    0.06493   0.08176   0.09559   0.10229   0.10893
 Alpha virt. eigenvalues --    0.11945   0.12119   0.12943   0.13461   0.13769

 Mulliken charges:
               1
     1  C   -4.324376
     2  C    0.904442
     3  C   -1.615967
     4  C   -0.234509
     5  N   -2.874428
     6  C    5.098069
     7  O   -3.540328
     8  H    1.111890
     9  H    1.094590
    10  H    1.204376
    11  H    0.685776
    12  H    1.308115
    13  H    1.352155
    14  H   -0.169804
 Sum of Mulliken charges =  -0.00000

 Dipole moment (field-independent basis, Debye):
    X=             -1.3327    Y=             -2.5262    Z=             -0.3463  Tot=              2.8771

 Test job not archived.
 1\1\GINC-SE329\SP\RHF\Aug-CC-pVDZ\C5H7N1O1\OHZDE\09-Apr-2025\0\\#t hf
 aug-cc-pvdz iop(5/13=1,5/36=2,99/5=2) pseudo=read geom=check guess=(re
 ad,tcheck) scf=(maxcycle=1)\\title\\0,1\C,0,-1.86184385,0.22374417,0.0
 0932732\C,0,-0.37649846,0.09519156,-0.01510779\C,0,0.58367337,0.964640
 59,0.51091936\C,0,1.81740185,0.33906769,0.35967031\N,0,1.73507127,-0.8
 8232926,-0.19740165\C,0,0.33215568,-1.23922688,0.05009117\O,0,-0.09374
 564,-2.32551913,0.24770603\H,0,-2.17200045,1.2637222,-0.08567098\H,0,-
 2.24391401,-0.16737789,0.95514304\H,0,-2.3203125,-0.35683674,-0.790398

 Normal termination of Gaussian 16 at Wed Apr  9 03:33:25 2025.
