 Gaussian 16, Revision C.01,

 ----------------------------------------------------------------------
 #t hf aug-cc-pvdz symm=none int=(grid=ultrafine) guess=(read,tcheck) s
 table=(opt,rrhf)
 ----------------------------------------------------------------------
 -----
 title
 -----
 Symbolic Z-matrix:
 Charge =  0 Multiplicity = 1

 SCF Done:  E(RHF) =  -302.691452196     A.U. after   16 cycles
 Normal termination of Gaussian 16 at Wed Apr  9 18:23:24 2025.
 Gaussian 16:  ES64L-G16RevC.01  3-Jul-2019

 ----------------------------------------------------------------------
 #t hf aug-cc-pvdz iop(5/13=1,5/36=2,99/5=2) pseudo=read geom=check gue
 ss=(read,tcheck) scf=(maxcycle=1)
 ----------------------------------------------------------------------
 -----
 title
 -----
 Structure from the checkpoint file:  "Grambow2020_wb97xd3_006954_forward_mol1.chk"
 Charge =  0 Multiplicity = 1

                         Standard orientation:
 ---------------------------------------------------------------------
 Center     Atomic      Atomic             Coordinates (Angstroms)
 Number     Number       Type             X           Y           Z
 ---------------------------------------------------------------------
      1          6           0       -0.087596    1.252365    0.473877
      2          6           0        0.811023    0.107621    0.065395
      3          6           0        2.169196    0.309135   -0.539882
      4          7           0        0.597105   -1.089416    0.846647
      5          6           0       -0.168655   -0.938910   -0.380488
      6          6           0       -1.398213   -0.155260   -0.203122
      7          7           0       -2.560210    0.140798   -0.334987
      8          1           0       -1.740098    1.022784    0.164081
      9          1           0       -0.019947    2.103268   -0.208668
     10          1           0        0.048731    1.582239    1.505768
     11          1           0        2.830401    0.787495    0.185766
     12          1           0        2.612326   -0.644508   -0.827419
     13          1           0        2.110837    0.953945   -1.418245
     14          1           0        0.035476   -0.918822    1.673371
     15          1           0       -0.090525   -1.695774   -1.150948
 ---------------------------------------------------------------------

 SCF Done:  E(RHF) =  -304.161576631     A.U. after    2 cycles

 The electronic state is 1-A.
 Alpha  occ. eigenvalues --  -15.76458 -15.75783 -11.55607 -11.50951 -11.44820
 Alpha  occ. eigenvalues --  -11.39783 -11.36616  -1.53724  -1.37422  -1.11930
 Alpha  occ. eigenvalues --   -1.04592  -0.98795  -0.82998  -0.76176  -0.70037
 Alpha  occ. eigenvalues --   -0.62356  -0.60955  -0.58343  -0.56549  -0.55277
 Alpha  occ. eigenvalues --   -0.51132  -0.48299  -0.43261  -0.41671  -0.37198
 Alpha  occ. eigenvalues --   -0.28143
 Alpha virt. eigenvalues --    0.03400   0.05234   0.05438   0.05920   0.06145
 Alpha virt. eigenvalues --    0.06210   0.06899   0.07617   0.09608   0.11233
 Alpha virt. eigenvalues --    0.11693   0.12773   0.13635   0.14005   0.14143

 Mulliken charges:
               1
     1  C   -4.029901
     2  C    4.225044
     3  C   -4.775156
     4  N   -2.594114
     5  C   -2.548396
     6  C    3.243899
     7  N   -2.753692
     8  H    1.179519
     9  H    1.227969
    10  H    0.976662
    11  H    1.214193
    12  H    1.177109
    13  H    1.266356
    14  H    0.690318
    15  H    1.500191
 Sum of Mulliken charges =  -0.00000

 Dipole moment (field-independent basis, Debye):
    X=              1.5236    Y=             -0.0622    Z=             -0.1257  Tot=              1.5300

 Test job not archived.
 1\1\GINC-SE229\SP\RHF\Aug-CC-pVDZ\C5H8N2\OHZDE\09-Apr-2025\0\\#t hf au
 g-cc-pvdz iop(5/13=1,5/36=2,99/5=2) pseudo=read geom=check guess=(read
 ,tcheck) scf=(maxcycle=1)\\title\\0,1\C,0,-0.32829213,1.1714755,-0.246
 08214\C,0,-0.31176302,-0.33570353,-0.13227953\C,0,-1.47951567,-1.13112
 878,0.37294704\N,0,0.56433171,-0.9684638,-1.0920116\C,0,1.12160193,-0.
 62598184,0.20685602\C,0,1.59711926,0.76151117,0.28512129\N,0,2.3326962
 9,1.67325842,0.57307491\H,0,1.12417985,1.94552279,0.16697887\H,0,-0.87
 970405,1.64789524,0.56844123\H,0,-0.67974069,1.54373457,-1.21050344\H,

 Normal termination of Gaussian 16 at Wed Apr  9 18:23:29 2025.
