 Gaussian 16, Revision C.01,

 ----------------------------------------------------------------------
 #t hf aug-cc-pvdz symm=none int=(grid=ultrafine) guess=(read,tcheck) s
 table=(opt,rrhf)
 ----------------------------------------------------------------------
 -----
 title
 -----
 Symbolic Z-matrix:
 Charge =  0 Multiplicity = 1

 SCF Done:  E(RHF) =  -304.400910773     A.U. after   20 cycles
 Normal termination of Gaussian 16 at Wed Apr  9 03:15:51 2025.
 Gaussian 16:  ES64L-G16RevC.01  3-Jul-2019

 ----------------------------------------------------------------------
 #t hf aug-cc-pvdz iop(5/13=1,5/36=2,99/5=2) pseudo=read geom=check gue
 ss=(read,tcheck) scf=(maxcycle=1)
 ----------------------------------------------------------------------
 -----
 title
 -----
 Structure from the checkpoint file:  "Grambow2020_b97d3_007009_reverse_mol1.chk"
 Charge =  0 Multiplicity = 1

                         Standard orientation:
 ---------------------------------------------------------------------
 Center     Atomic      Atomic             Coordinates (Angstroms)
 Number     Number       Type             X           Y           Z
 ---------------------------------------------------------------------
      1          8           0       -1.928924    0.924806    0.113994
      2          6           0        0.889488    0.850966   -0.420813
      3          6           0        2.001303    0.340073    0.371755
      4          6           0        1.050924   -0.558335   -0.435078
      5          6           0       -0.216299   -0.822849    0.394355
      6          8           0       -1.304509   -1.006674   -0.154694
      7          1           0       -2.857554    1.171296   -0.111592
      8          1           0        0.208012    1.652649   -0.679294
      9          1           0        3.010048    0.517020   -0.017656
     10          1           0        1.957228    0.285938    1.467644
     11          1           0        1.305661   -1.215059   -1.267905
     12          1           0       -0.108431   -0.616026    1.473091
 ---------------------------------------------------------------------

 SCF Done:  E(RHF) =  -305.753262003     A.U. after    2 cycles

 The electronic state is 1-A.
 Alpha  occ. eigenvalues --  -21.10523 -20.95943 -11.55301 -11.50848 -11.47844
 Alpha  occ. eigenvalues --  -11.44796  -1.71899  -1.44820  -1.39566  -0.97979
 Alpha  occ. eigenvalues --   -0.89554  -0.84405  -0.73988  -0.67370  -0.61296
 Alpha  occ. eigenvalues --   -0.54508  -0.52254  -0.47580  -0.46436  -0.36305
 Alpha  occ. eigenvalues --   -0.32135  -0.23092  -0.20678
 Alpha virt. eigenvalues --    0.01627   0.02604   0.04478   0.04866   0.06286
 Alpha virt. eigenvalues --    0.07105   0.07851   0.09069   0.09829   0.11309
 Alpha virt. eigenvalues --    0.12959   0.13290   0.13687   0.14306   0.15024

 Mulliken charges:
               1
     1  O   -1.286538
     2  C   -0.498710
     3  C   -2.313228
     4  C   -1.398419
     5  C    1.028783
     6  O   -2.393553
     7  H    1.013318
     8  H    1.039952
     9  H    1.262713
    10  H    1.195852
    11  H    1.046195
    12  H    1.303635
 Sum of Mulliken charges =  -0.00000

 Dipole moment (field-independent basis, Debye):
    X=              2.9856    Y=             -0.2258    Z=             -0.6962  Tot=              3.0740

 Test job not archived.
 1\1\GINC-SE457\SP\RHF\Aug-CC-pVDZ\C4H6O2\OHZDE\09-Apr-2025\0\\#t hf au
 g-cc-pvdz iop(5/13=1,5/36=2,99/5=2) pseudo=read geom=check guess=(read
 ,tcheck) scf=(maxcycle=1)\\title\\0,1\O,0,-1.62168504,0.74035903,1.595
 75726\C,0,-0.51951106,-0.39780677,-0.79687853\C,0,0.64349567,-0.018466
 37,-1.58986348\C,0,0.73503602,-0.79487404,-0.26693197\C,0,0.67949761,0
 .1993121,0.90451686\O,0,0.19113899,-0.12701001,1.98824471\H,0,-2.30111
 212,0.79095952,2.3097733\H,0,-1.57196403,-0.29495412,-0.56090979\H,0,0
 .80285224,-0.56248131,-2.52750485\H,0,1.02135106,1.01237093,-1.6109653

 Normal termination of Gaussian 16 at Wed Apr  9 03:15:54 2025.
