 Gaussian 16, Revision C.01,

 ----------------------------------------------------------------------
 #t hf aug-cc-pvdz symm=none int=(grid=ultrafine) guess=(read,tcheck) s
 table=(opt,rrhf)
 ----------------------------------------------------------------------
 -----
 title
 -----
 Symbolic Z-matrix:
 Charge =  0 Multiplicity = 1

 SCF Done:  E(RHF) =  -302.170146201     A.U. after   17 cycles
 Normal termination of Gaussian 16 at Wed Apr  9 16:04:11 2025.
 Gaussian 16:  ES64L-G16RevC.01  3-Jul-2019

 ----------------------------------------------------------------------
 #t hf aug-cc-pvdz iop(5/13=1,5/36=2,99/5=2) pseudo=read geom=check gue
 ss=(read,tcheck) scf=(maxcycle=1)
 ----------------------------------------------------------------------
 -----
 title
 -----
 Structure from the checkpoint file:  "Grambow2020_b97d3_006708_reverse_mol1.chk"
 Charge =  0 Multiplicity = 1

                         Standard orientation:
 ---------------------------------------------------------------------
 Center     Atomic      Atomic             Coordinates (Angstroms)
 Number     Number       Type             X           Y           Z
 ---------------------------------------------------------------------
      1          8           0       -0.233025   -1.481542    0.071029
      2          6           0       -1.205873   -0.699570   -0.143801
      3          6           0       -0.940220    0.671441   -0.080151
      4          6           0       -0.770262    1.942033    0.041038
      5          6           0        0.974579    0.045114    0.395709
      6          8           0        1.856644    0.148405   -0.372502
      7          1           0       -2.205854   -1.111571   -0.346104
      8          1           0        0.867558    0.022555    1.481117
 ---------------------------------------------------------------------

 SCF Done:  E(RHF) =  -303.472801480     A.U. after    2 cycles

 The electronic state is 1-A.
 Alpha  occ. eigenvalues --  -21.15334 -21.11039 -11.60888 -11.55137 -11.44406
 Alpha  occ. eigenvalues --  -11.39729  -1.80584  -1.75299  -1.16093  -0.96228
 Alpha  occ. eigenvalues --   -0.90930  -0.76963  -0.63624  -0.61116  -0.55248
 Alpha  occ. eigenvalues --   -0.52707  -0.52372  -0.44428  -0.36286  -0.34105
 Alpha  occ. eigenvalues --   -0.33086
 Alpha virt. eigenvalues --    0.02922   0.03502   0.06222   0.06987   0.08727
 Alpha virt. eigenvalues --    0.09203   0.09742   0.11096   0.11420   0.11745
 Alpha virt. eigenvalues --    0.13609   0.14127   0.14673   0.14982   0.16475

 Mulliken charges:
               1
     1  O   -2.406382
     2  C    1.237351
     3  C    1.474607
     4  C   -2.373049
     5  C    1.243889
     6  O   -2.397611
     7  H    1.534688
     8  H    1.686506
 Sum of Mulliken charges =  -0.00000

 Dipole moment (field-independent basis, Debye):
    X=              1.1772    Y=             -4.2140    Z=              0.7136  Tot=              4.4332

 Test job not archived.
 1\1\GINC-SE092\SP\RHF\Aug-CC-pVDZ\C4H2O2\OHZDE\09-Apr-2025\0\\#t hf au
 g-cc-pvdz iop(5/13=1,5/36=2,99/5=2) pseudo=read geom=check guess=(read
 ,tcheck) scf=(maxcycle=1)\\title\\0,1\O,0,-0.90236258,0.55397821,0.896
 96126\C,0,-1.22516979,-0.20873754,-0.06122718\C,0,-0.18831663,-0.67287
 143,-0.87597164\C,0,0.71580397,-1.06790051,-1.70331491\C,0,0.99684063,
 0.48459142,0.36534501\O,0,1.71252976,-0.00793979,1.15531717\H,0,-2.283
 43358,-0.4573799,-0.23119263\H,0,0.96908523,1.41117655,-0.20975908\\Ve
 rsion=ES64L-G16RevC.01\State=1-A\HF=-303.4728015\RMSD=4.280e-01\Dipole

 Normal termination of Gaussian 16 at Wed Apr  9 16:04:13 2025.
