 Gaussian 16, Revision C.01,

 ----------------------------------------------------------------------
 #t hf aug-cc-pvdz symm=none int=(grid=ultrafine) guess=(read,tcheck) s
 table=(opt,rrhf)
 ----------------------------------------------------------------------
 -----
 title
 -----
 Symbolic Z-matrix:
 Charge =  0 Multiplicity = 1

 SCF Done:  E(RHF) =  -302.760068935     A.U. after   16 cycles
 Normal termination of Gaussian 16 at Wed Apr  9 19:24:12 2025.
 Gaussian 16:  ES64L-G16RevC.01  3-Jul-2019

 ----------------------------------------------------------------------
 #t hf aug-cc-pvdz iop(5/13=1,5/36=2,99/5=2) pseudo=read geom=check gue
 ss=(read,tcheck) scf=(maxcycle=1)
 ----------------------------------------------------------------------
 -----
 title
 -----
 Structure from the checkpoint file:  "Grambow2020_wb97xd3_008903_reverse_mol1.chk"
 Charge =  0 Multiplicity = 1

                         Standard orientation:
 ---------------------------------------------------------------------
 Center     Atomic      Atomic             Coordinates (Angstroms)
 Number     Number       Type             X           Y           Z
 ---------------------------------------------------------------------
      1          6           0       -1.972939   -1.324641    0.004885
      2          7           0       -0.625140   -0.818856   -0.077905
      3          6           0        2.616821   -0.949756    0.243285
      4          6           0        1.928310    0.160025   -0.022599
      5          6           0        0.903666    1.003416   -0.090705
      6          6           0       -0.454683    0.443467   -0.038318
      7          7           0       -1.464241    1.386174    0.012447
      8          1           0       -2.590551   -1.002287   -0.844793
      9          1           0       -1.951526   -2.413843   -0.001829
     10          1           0       -2.487625   -1.017168    0.927971
     11          1           0        3.014499   -1.463097   -0.639957
     12          1           0        3.056885    0.495749    0.013535
     13          1           0        1.060151    2.065567   -0.209217
     14          1           0       -2.378458    1.068276    0.281763
     15          1           0       -1.224762    2.300509    0.351444
 ---------------------------------------------------------------------

 SCF Done:  E(RHF) =  -304.200901331     A.U. after    2 cycles

 The electronic state is 1-A.
 Alpha  occ. eigenvalues --  -15.76672 -15.68261 -11.48519 -11.46968 -11.43608
 Alpha  occ. eigenvalues --  -11.39367 -11.37003  -1.45392  -1.26385  -1.23549
 Alpha  occ. eigenvalues --   -1.06225  -0.96240  -0.80419  -0.72377  -0.68495
 Alpha  occ. eigenvalues --   -0.67449  -0.59628  -0.58076  -0.57242  -0.54546
 Alpha  occ. eigenvalues --   -0.50602  -0.47453  -0.44586  -0.34831  -0.32967
 Alpha  occ. eigenvalues --   -0.27678
 Alpha virt. eigenvalues --    0.03166   0.04788   0.05120   0.05533   0.06313
 Alpha virt. eigenvalues --    0.06818   0.07467   0.08355   0.09772   0.09820
 Alpha virt. eigenvalues --    0.11292   0.12378   0.13287   0.13688   0.13975

 Mulliken charges:
               1
     1  C   -3.279690
     2  N   -3.242202
     3  C   -3.861901
     4  C    2.723781
     5  C   -2.554964
     6  C    4.240968
     7  N   -3.419563
     8  H    1.306587
     9  H    1.381580
    10  H    1.250688
    11  H    1.063272
    12  H    1.476761
    13  H    1.503600
    14  H    0.712223
    15  H    0.698859
 Sum of Mulliken charges =  -0.00000

 Dipole moment (field-independent basis, Debye):
    X=             -0.4760    Y=              2.4840    Z=             -0.6857  Tot=              2.6205

 Test job not archived.
 1\1\GINC-SE174\SP\RHF\Aug-CC-pVDZ\C5H8N2\OHZDE\09-Apr-2025\0\\#t hf au
 g-cc-pvdz iop(5/13=1,5/36=2,99/5=2) pseudo=read geom=check guess=(read
 ,tcheck) scf=(maxcycle=1)\\title\\0,1\C,0,-1.92721529,-1.06439308,0.37
 592959\N,0,-0.53608567,-0.74726059,0.16755582\C,0,2.67989309,-1.107334
 01,0.56559739\C,0,2.10481023,-0.06342189,-0.03096166\C,0,1.17111013,0.
 82129054,-0.36462273\C,0,-0.23652943,0.44476154,-0.16923884\N,0,-1.143
 22915,1.45769531,-0.41892259\H,0,-2.5214126,-0.94934845,-0.54113348\H,
 0,-2.01768528,-2.10198064,0.69544625\H,0,-2.39352874,-0.4440159,1.1564

 Normal termination of Gaussian 16 at Wed Apr  9 19:24:17 2025.
