 Gaussian 16, Revision C.01,

 ----------------------------------------------------------------------
 #t hf aug-cc-pvdz symm=none int=(grid=ultrafine) guess=(read,tcheck) s
 table=(opt,rrhf)
 ----------------------------------------------------------------------
 -----
 title
 -----
 Symbolic Z-matrix:
 Charge =  0 Multiplicity = 1

 SCF Done:  E(RHF) =  -380.722212479     A.U. after   13 cycles
 Normal termination of Gaussian 16 at Wed Apr  9 18:40:35 2025.
 Gaussian 16:  ES64L-G16RevC.01  3-Jul-2019

 ----------------------------------------------------------------------
 #t hf aug-cc-pvdz iop(5/13=1,5/36=2,99/5=2) pseudo=read geom=check gue
 ss=(read,tcheck) scf=(maxcycle=1)
 ----------------------------------------------------------------------
 -----
 title
 -----
 Structure from the checkpoint file:  "Grambow2020_wb97xd3_007518_reverse_mol2.chk"
 Charge =  0 Multiplicity = 1

                         Standard orientation:
 ---------------------------------------------------------------------
 Center     Atomic      Atomic             Coordinates (Angstroms)
 Number     Number       Type             X           Y           Z
 ---------------------------------------------------------------------
      1          8           0       -2.833264    0.229138    0.054356
      2          6           0       -1.573376   -0.401082   -0.082748
      3          6           0       -0.524355    0.690525   -0.058420
      4          6           0        0.898252    0.201314   -0.058403
      5          8           0        1.753911    1.284020   -0.096893
      6          6           0        1.333036   -1.104998   -0.549651
      7          8           0        1.247110   -0.810936    0.854210
      8          1           0       -3.513131   -0.444366    0.092236
      9          1           0       -1.525020   -0.957085   -1.028075
     10          1           0       -1.391955   -1.105642    0.737505
     11          1           0       -0.662950    1.294499    0.841428
     12          1           0       -0.659908    1.354471   -0.914252
     13          1           0        0.625354   -1.845153   -0.910889
     14          1           0        2.344258   -1.210331   -0.934541
     15          1           0        2.639958    0.981276    0.118543
 ---------------------------------------------------------------------

 SCF Done:  E(RHF) =  -382.397734618     A.U. after    2 cycles

 The electronic state is 1-A.
 Alpha  occ. eigenvalues --  -21.08871 -21.07140 -21.06699 -11.53106 -11.44503
 Alpha  occ. eigenvalues --  -11.44117 -11.38912  -1.84769  -1.71318  -1.68632
 Alpha  occ. eigenvalues --   -1.15583  -0.98525  -0.92977  -0.81732  -0.70340
 Alpha  occ. eigenvalues --   -0.66781  -0.66140  -0.61693  -0.56769  -0.53435
 Alpha  occ. eigenvalues --   -0.50033  -0.47752  -0.44412  -0.41755  -0.41010
 Alpha  occ. eigenvalues --   -0.33508  -0.31437  -0.29245
 Alpha virt. eigenvalues --    0.03717   0.04714   0.05229   0.06088   0.06229
 Alpha virt. eigenvalues --    0.06476   0.07436   0.07914   0.10277   0.11824
 Alpha virt. eigenvalues --    0.13815   0.14256   0.14420   0.14914   0.15128

 Mulliken charges:
               1
     1  O   -3.056284
     2  C   -0.347430
     3  C   -4.121539
     4  C    7.144065
     5  O   -3.700576
     6  C   -3.052257
     7  O   -2.773852
     8  H    0.803972
     9  H    1.416871
    10  H    1.468904
    11  H    1.318927
    12  H    1.223316
    13  H    1.568418
    14  H    1.387616
    15  H    0.719849
 Sum of Mulliken charges =   0.00000

 Dipole moment (field-independent basis, Debye):
    X=              0.0471    Y=             -1.0697    Z=             -0.2172  Tot=              1.0925

 Test job not archived.
 1\1\GINC-SE103\SP\RHF\Aug-CC-pVDZ\C4H8O3\OHZDE\09-Apr-2025\0\\#t hf au
 g-cc-pvdz iop(5/13=1,5/36=2,99/5=2) pseudo=read geom=check guess=(read
 ,tcheck) scf=(maxcycle=1)\\title\\0,1\O,0,-2.46092301,1.21157877,-0.26
 867436\C,0,-1.08190795,1.0921551,0.02687401\C,0,-0.8004906,-0.3784134,
 0.25242853\C,0,0.65074686,-0.72209979,0.44972642\O,0,0.7697858,-2.0736
 2304,0.70487463\C,0,1.67596987,0.21243284,0.91057308\O,0,1.58264211,-0
 .19643424,-0.4637624\H,0,-2.65651941,2.12829902,-0.46521086\H,0,-0.831
 97735,1.67162491,0.92513322\H,0,-0.46616528,1.46301292,-0.8010503\H,0,

 Normal termination of Gaussian 16 at Wed Apr  9 18:40:40 2025.
