 Gaussian 16, Revision C.01,

 ----------------------------------------------------------------------
 #t hf aug-cc-pvdz symm=none int=(grid=ultrafine) guess=(read,tcheck) s
 table=(opt,rrhf)
 ----------------------------------------------------------------------
 -----
 title
 -----
 Symbolic Z-matrix:
 Charge =  0 Multiplicity = 1

 SCF Done:  E(RHF) =  -322.645773576     A.U. after   15 cycles
 Normal termination of Gaussian 16 at Wed Apr  9 04:05:45 2025.
 Gaussian 16:  ES64L-G16RevC.01  3-Jul-2019

 ----------------------------------------------------------------------
 #t hf aug-cc-pvdz iop(5/13=1,5/36=2,99/5=2) pseudo=read geom=check gue
 ss=(read,tcheck) scf=(maxcycle=1)
 ----------------------------------------------------------------------
 -----
 title
 -----
 Structure from the checkpoint file:  "Grambow2020_wb97xd3_009318_reverse_mol2.chk"
 Charge =  0 Multiplicity = 1

                         Standard orientation:
 ---------------------------------------------------------------------
 Center     Atomic      Atomic             Coordinates (Angstroms)
 Number     Number       Type             X           Y           Z
 ---------------------------------------------------------------------
      1          6           0       -2.029336   -1.157219    0.180777
      2          6           0       -0.626208   -1.088056   -0.405467
      3          6           0        0.227545   -0.007079    0.242418
      4          6           0        2.563914   -0.566667    0.173007
      5          8           0        1.545898    0.000785   -0.377403
      6          6           0       -0.345377    1.332215    0.076248
      7          7           0       -0.823334    2.366817   -0.043557
      8          1           0       -2.003750   -1.341372    1.256965
      9          1           0       -2.589335   -1.969597   -0.281647
     10          1           0       -2.579683   -0.230817    0.008848
     11          1           0       -0.101696   -2.035509   -0.258422
     12          1           0       -0.660221   -0.898501   -1.480168
     13          1           0        0.364092   -0.201594    1.311437
     14          1           0        2.223515   -0.975773    1.165206
 ---------------------------------------------------------------------

 SCF Done:  E(RHF) =  -324.121038057     A.U. after    2 cycles

 The electronic state is 1-A.
 Alpha  occ. eigenvalues --  -21.14960 -15.78304 -11.54437 -11.46184 -11.44312
 Alpha  occ. eigenvalues --  -11.43698 -11.39560  -1.85373  -1.34014  -1.23991
 Alpha  occ. eigenvalues --   -1.07324  -0.92145  -0.87448  -0.76456  -0.67296
 Alpha  occ. eigenvalues --   -0.65669  -0.62061  -0.56127  -0.55010  -0.52268
 Alpha  occ. eigenvalues --   -0.51417  -0.47963  -0.46829  -0.46169  -0.43449
 Alpha  occ. eigenvalues --   -0.34920
 Alpha virt. eigenvalues --    0.02969   0.04432   0.04978   0.05382   0.06006
 Alpha virt. eigenvalues --    0.06838   0.07413   0.09099   0.09573   0.10241
 Alpha virt. eigenvalues --    0.11307   0.12056   0.12399   0.13542   0.14060

 Mulliken charges:
               1
     1  C   -3.539353
     2  C   -3.153325
     3  C    0.505693
     4  C   -1.333288
     5  O   -2.273379
     6  C    2.271737
     7  N   -2.410713
     8  H    1.190699
     9  H    1.118799
    10  H    1.343799
    11  H    1.478469
    12  H    1.312360
    13  H    2.006711
    14  H    1.481790
 Sum of Mulliken charges =  -0.00000

 Dipole moment (field-independent basis, Debye):
    X=             -2.2961    Y=             -2.8109    Z=              0.8843  Tot=              3.7357

 Test job not archived.
 1\1\GINC-SE338\SP\RHF\Aug-CC-pVDZ\C5H7N1O1\OHZDE\09-Apr-2025\0\\#t hf
 aug-cc-pvdz iop(5/13=1,5/36=2,99/5=2) pseudo=read geom=check guess=(re
 ad,tcheck) scf=(maxcycle=1)\\title\\0,1\C,0,-1.79785106,0.30550878,0.1
 3496153\C,0,-0.57428568,-0.59803039,0.19610697\C,0,0.70703681,0.122144
 07,-0.19977492\C,0,2.62820619,-0.83334337,0.88314933\O,0,1.82510833,-0
 .80875436,-0.12468905\C,0,0.65646957,0.64028378,-1.57037226\N,0,0.5862
 8079,1.05849191,-2.63497181\H,0,-1.68258177,1.17799842,0.78166263\H,0,
 -2.68238828,-0.23815336,0.46574534\H,0,-1.98242876,0.65900207,-0.88073

 Normal termination of Gaussian 16 at Wed Apr  9 04:05:49 2025.
