 Gaussian 16, Revision C.01,

 ----------------------------------------------------------------------
 #t hf aug-cc-pvdz symm=none int=(grid=ultrafine) guess=(read,tcheck) s
 table=(opt,rrhf)
 ----------------------------------------------------------------------
 -----
 title
 -----
 Symbolic Z-matrix:
 Charge =  0 Multiplicity = 1

 SCF Done:  E(RHF) =  -306.510423532     A.U. after   15 cycles
 Normal termination of Gaussian 16 at Wed Apr  9 18:38:35 2025.
 Gaussian 16:  ES64L-G16RevC.01  3-Jul-2019

 ----------------------------------------------------------------------
 #t hf aug-cc-pvdz iop(5/13=1,5/36=2,99/5=2) pseudo=read geom=check gue
 ss=(read,tcheck) scf=(maxcycle=1)
 ----------------------------------------------------------------------
 -----
 title
 -----
 Structure from the checkpoint file:  "Grambow2020_wb97xd3_007360_forward_mol1.chk"
 Charge =  0 Multiplicity = 1

                         Standard orientation:
 ---------------------------------------------------------------------
 Center     Atomic      Atomic             Coordinates (Angstroms)
 Number     Number       Type             X           Y           Z
 ---------------------------------------------------------------------
      1          6           0        1.654088   -0.633027   -0.709162
      2          6           0        2.053759    0.099263    0.555202
      3          6           0        0.675112    0.187179    0.025537
      4          6           0       -0.277660    1.242065   -0.330264
      5          6           0       -2.192692    0.124299   -0.353913
      6          8           0       -1.481875   -1.022468    0.057559
      7          6           0       -0.629583   -0.102571    0.614925
      8          1           0        2.021776   -0.252445   -1.653280
      9          1           0        1.544294   -1.708380   -0.660069
     10          1           0        2.220103   -0.489660    1.448477
     11          1           0        2.688594    0.970683    0.458024
     12          1           0       -0.293383    2.149328    0.260342
     13          1           0       -0.553656    1.350476   -1.365486
     14          1           0       -2.668359    0.520994    0.577322
     15          1           0       -0.802518    0.135498    1.660248
 ---------------------------------------------------------------------

 SCF Done:  E(RHF) =  -307.952075864     A.U. after    2 cycles

 The electronic state is 1-A.
 Alpha  occ. eigenvalues --  -21.07844 -11.50945 -11.46668 -11.45733 -11.42324
 Alpha  occ. eigenvalues --  -11.41141 -11.39030  -1.81289  -1.36343  -1.15607
 Alpha  occ. eigenvalues --   -0.91847  -0.88456  -0.85788  -0.78529  -0.69503
 Alpha  occ. eigenvalues --   -0.66818  -0.63981  -0.56799  -0.54023  -0.52103
 Alpha  occ. eigenvalues --   -0.49645  -0.44714  -0.40280  -0.37136  -0.35371
 Alpha  occ. eigenvalues --   -0.27213
 Alpha virt. eigenvalues --    0.03793   0.04678   0.04932   0.05468   0.05925
 Alpha virt. eigenvalues --    0.06263   0.06939   0.07980   0.09791   0.10479
 Alpha virt. eigenvalues --    0.12151   0.12529   0.12581   0.13390   0.13911

 Mulliken charges:
               1
     1  C   -2.591567
     2  C   -2.455086
     3  C    2.325095
     4  C   -3.308602
     5  C   -1.313047
     6  O   -3.181013
     7  C    1.081305
     8  H    1.156546
     9  H    1.179052
    10  H    1.141597
    11  H    1.105924
    12  H    1.113538
    13  H    1.299186
    14  H    1.213112
    15  H    1.233960
 Sum of Mulliken charges =  -0.00000

 Dipole moment (field-independent basis, Debye):
    X=              2.7124    Y=              0.1228    Z=              1.5953  Tot=              3.1491

 Test job not archived.
 1\1\GINC-SE112\SP\RHF\Aug-CC-pVDZ\C6H8O1\OHZDE\09-Apr-2025\0\\#t hf au
 g-cc-pvdz iop(5/13=1,5/36=2,99/5=2) pseudo=read geom=check guess=(read
 ,tcheck) scf=(maxcycle=1)\\title\\0,1\C,0,-1.48968154,0.28778184,-0.91
 599614\C,0,-1.77961431,0.06801973,0.55446183\C,0,-0.40679027,-0.064473
 67,0.01897968\C,0,0.66792328,-1.06026001,0.04249854\C,0,2.42566839,0.1
 6674543,-0.52503596\O,0,1.57992383,1.29540447,-0.54720385\C,0,0.857077
 45,0.57710658,0.37193198\H,0,-1.81650725,-0.47018701,-1.61604209\H,0,-
 1.51637831,1.30173141,-1.29288124\H,0,-2.00942081,0.9364819,1.1589475\

 Normal termination of Gaussian 16 at Wed Apr  9 18:38:40 2025.
