 Gaussian 16, Revision C.01,

 ----------------------------------------------------------------------
 #t hf aug-cc-pvdz symm=none int=(grid=ultrafine) guess=(read,tcheck) s
 table=(opt,rrhf)
 ----------------------------------------------------------------------
 -----
 title
 -----
 Symbolic Z-matrix:
 Charge =  0 Multiplicity = 1

 SCF Done:  E(RHF) =  -308.992254750     A.U. after   15 cycles

 1\1\GINC-SE114\Stability\RHF\Aug-CC-pVDZ\C6H12O1\OHZDE\09-Apr-2025\0\\
 #t hf aug-cc-pvdz symm=none int=(grid=ultrafine) guess=(read,tcheck) s
 table=(opt,rrhf)\\title\\0,1\C,0,-1.44226467,-1.15612536,-0.25658505\C
 ,0,-0.60834313,0.12020844,-0.32579969\C,0,-1.34726783,1.27775639,0.343
 37028\C,0,0.77026945,-0.07964087,0.30106524\O,0,1.45143118,-1.13424818
 ,-0.4487756\C,0,1.71128042,-2.29695778,0.0311279\C,0,1.67392583,1.1336
 8834,0.26442796\H,0,-2.41032549,-1.00558207,-0.73694115\H,0,-0.9544981
 5,-1.99394277,-0.75577524\H,0,-1.63022831,-1.44077867,0.78307609\H,0,-

 Normal termination of Gaussian 16 at Wed Apr  9 18:50:05 2025.
 Gaussian 16:  ES64L-G16RevC.01  3-Jul-2019

 ----------------------------------------------------------------------
 #t hf aug-cc-pvdz iop(5/13=1,5/36=2,99/5=2) pseudo=read geom=check gue
 ss=(read,tcheck) scf=(maxcycle=1)
 ----------------------------------------------------------------------
 -----
 title
 -----
 Structure from the checkpoint file:  "Grambow2020_wb97xd3_007698_reverse_mol2.chk"
 Charge =  0 Multiplicity = 1

                         Standard orientation:
 ---------------------------------------------------------------------
 Center     Atomic      Atomic             Coordinates (Angstroms)
 Number     Number       Type             X           Y           Z
 ---------------------------------------------------------------------
      1          6           0       -0.882133   -1.734050   -0.039068
      2          6           0       -0.894854   -0.238123   -0.341199
      3          6           0       -2.170935    0.404883    0.199055
      4          6           0        0.344058    0.455272    0.222514
      5          8           0        1.517347   -0.147608   -0.408650
      6          6           0        2.364516   -0.883597    0.216127
      7          6           0        0.423327    1.943056   -0.042666
      8          1           0       -1.756591   -2.218730   -0.476052
      9          1           0        0.002783   -2.227707   -0.441898
     10          1           0       -0.910746   -1.912076    1.040163
     11          1           0       -0.866322   -0.100152   -1.428066
     12          1           0       -2.193569    0.372789    1.292467
     13          1           0       -3.045961   -0.137274   -0.162301
     14          1           0       -2.277159    1.444583   -0.111296
     15          1           0        0.433347    0.244566    1.296482
     16          1           0        2.031655   -0.928419    1.292390
     17          1           0        0.293919    2.154338   -1.105666
     18          1           0        1.393483    2.329724    0.269918
     19          1           0       -0.347496    2.474581    0.514485
 ---------------------------------------------------------------------

 SCF Done:  E(RHF) =  -310.495665574     A.U. after    2 cycles

 The electronic state is 1-A.
 Alpha  occ. eigenvalues --  -21.10898 -11.48822 -11.42955 -11.41119 -11.39607
 Alpha  occ. eigenvalues --  -11.39262 -11.36221  -1.81661  -1.27225  -1.11255
 Alpha  occ. eigenvalues --   -1.01268  -0.94170  -0.84278  -0.82159  -0.65957
 Alpha  occ. eigenvalues --   -0.64469  -0.61577  -0.60090  -0.55683  -0.55113
 Alpha  occ. eigenvalues --   -0.53826  -0.52447  -0.47908  -0.46940  -0.45890
 Alpha  occ. eigenvalues --   -0.42984  -0.40112  -0.31293
 Alpha virt. eigenvalues --    0.03886   0.04741   0.04940   0.05137   0.05298
 Alpha virt. eigenvalues --    0.05648   0.06270   0.06635   0.07747   0.08631
 Alpha virt. eigenvalues --    0.08969   0.09179   0.11311   0.12363   0.12636

 Mulliken charges:
               1
     1  C   -4.027703
     2  C   -1.989137
     3  C   -3.866568
     4  C    0.921964
     5  O   -2.502748
     6  C   -1.372415
     7  C   -3.970531
     8  H    1.173226
     9  H    1.400689
    10  H    1.303175
    11  H    1.764119
    12  H    1.267657
    13  H    1.214414
    14  H    1.352504
    15  H    2.109664
    16  H    1.486190
    17  H    1.225810
    18  H    1.204412
    19  H    1.305279
 Sum of Mulliken charges =  -0.00000

 Dipole moment (field-independent basis, Debye):
    X=             -3.3952    Y=              1.8948    Z=              0.4496  Tot=              3.9140

 Test job not archived.
 1\1\GINC-SE114\SP\RHF\Aug-CC-pVDZ\C6H12O1\OHZDE\09-Apr-2025\0\\#t hf a
 ug-cc-pvdz iop(5/13=1,5/36=2,99/5=2) pseudo=read geom=check guess=(rea
 d,tcheck) scf=(maxcycle=1)\\title\\0,1\C,0,-1.44226467,-1.15612536,-0.
 25658505\C,0,-0.60834313,0.12020844,-0.32579969\C,0,-1.34726783,1.2777
 5639,0.34337028\C,0,0.77026945,-0.07964087,0.30106524\O,0,1.45143118,-
 1.13424818,-0.4487756\C,0,1.71128042,-2.29695778,0.0311279\C,0,1.67392
 583,1.13368834,0.26442796\H,0,-2.41032549,-1.00558207,-0.73694115\H,0,
 -0.95449815,-1.99394277,-0.75577524\H,0,-1.63022831,-1.44077867,0.7830

 Normal termination of Gaussian 16 at Wed Apr  9 18:50:12 2025.
