 Gaussian 16, Revision C.01,

 ----------------------------------------------------------------------
 #t hf aug-cc-pvdz symm=none int=(grid=ultrafine) guess=(read,tcheck) s
 table=(opt,rrhf)
 ----------------------------------------------------------------------
 -----
 title
 -----
 Symbolic Z-matrix:
 Charge =  0 Multiplicity = 1

 SCF Done:  E(RHF) =  -381.871859541     A.U. after   12 cycles

 1\1\GINC-SE100\Stability\RHF\Aug-CC-pVDZ\C4H10O3\OHZDE\09-Apr-2025\0\\
 #t hf aug-cc-pvdz symm=none int=(grid=ultrafine) guess=(read,tcheck) s
 table=(opt,rrhf)\\title\\0,1\C,0,3.16084829,0.6747723,0.71703929\O,0,1
 .97155153,-0.05516199,0.90451533\C,0,-0.40447887,-0.25056389,-1.415382
 58\C,0,-1.012486,-0.6377239,-0.15169124\O,0,-0.46556538,0.6727272,-0.3
 2049373\C,0,-2.50672452,-0.67552331,0.04279758\O,0,-3.18949476,0.21063
 936,-0.80682608\H,0,3.98503129,0.05986914,1.07934348\H,0,3.16224045,1.
 6146088,1.28113036\H,0,3.34577931,0.9039891,-0.33947223\H,0,-1.0436606

 Normal termination of Gaussian 16 at Wed Apr  9 19:25:13 2025.
 Gaussian 16:  ES64L-G16RevC.01  3-Jul-2019

 ----------------------------------------------------------------------
 #t hf aug-cc-pvdz iop(5/13=1,5/36=2,99/5=2) pseudo=read geom=check gue
 ss=(read,tcheck) scf=(maxcycle=1)
 ----------------------------------------------------------------------
 -----
 title
 -----
 Structure from the checkpoint file:  "Grambow2020_wb97xd3_008924_reverse_mol2.chk"
 Charge =  0 Multiplicity = 1

                         Standard orientation:
 ---------------------------------------------------------------------
 Center     Atomic      Atomic             Coordinates (Angstroms)
 Number     Number       Type             X           Y           Z
 ---------------------------------------------------------------------
      1          6           0       -3.582482    0.065274   -0.240252
      2          8           0       -2.392306   -0.585780    0.136559
      3          6           0        0.455721    1.044469    0.681226
      4          6           0        0.800019   -0.353935    0.475293
      5          8           0        0.161204    0.394710   -0.562178
      6          6           0        2.205226   -0.797041    0.157403
      7          8           0        2.958656    0.199344   -0.485155
      8          1           0       -4.392483   -0.360711    0.352271
      9          1           0       -3.818516   -0.085727   -1.299959
     10          1           0       -3.546868    1.143593   -0.042979
     11          1           0        1.235370    1.795144    0.619442
     12          1           0       -0.416995    1.290742    1.276997
     13          1           0        0.159736   -1.107358    0.928856
     14          1           0       -1.654751   -0.214260   -0.365312
     15          1           0        2.155322   -1.711078   -0.448881
     16          1           0        2.721942   -1.045154    1.086969
     17          1           0        2.465909    0.476016   -1.263232
 ---------------------------------------------------------------------

 SCF Done:  E(RHF) =  -383.575800279     A.U. after    2 cycles

 The electronic state is 1-A.
 Alpha  occ. eigenvalues --  -21.07625 -21.07539 -21.04761 -11.49508 -11.44620
 Alpha  occ. eigenvalues --  -11.41246 -11.38921  -1.81101  -1.71270  -1.68923
 Alpha  occ. eigenvalues --   -1.08340  -0.97407  -0.96335  -0.85151  -0.72721
 Alpha  occ. eigenvalues --   -0.66807  -0.62955  -0.61383  -0.58760  -0.56425
 Alpha  occ. eigenvalues --   -0.54930  -0.53153  -0.45529  -0.42083  -0.40950
 Alpha  occ. eigenvalues --   -0.38247  -0.34015  -0.31854  -0.30561
 Alpha virt. eigenvalues --    0.03839   0.04979   0.05272   0.05822   0.06036
 Alpha virt. eigenvalues --    0.06292   0.06595   0.07003   0.07224   0.09760
 Alpha virt. eigenvalues --    0.10678   0.12001   0.14084   0.14467   0.14869

 Mulliken charges:
               1
     1  C   -2.442349
     2  O   -2.712671
     3  C   -1.644663
     4  C   -0.013090
     5  O   -2.471178
     6  C   -1.300316
     7  O   -2.620267
     8  H    1.286923
     9  H    1.299457
    10  H    1.253993
    11  H    1.452746
    12  H    1.585102
    13  H    1.614583
    14  H    1.411153
    15  H    1.192334
    16  H    1.287856
    17  H    0.820386
 Sum of Mulliken charges =  -0.00000

 Dipole moment (field-independent basis, Debye):
    X=              0.1933    Y=              0.3898    Z=             -0.1559  Tot=              0.4621

 Test job not archived.
 1\1\GINC-SE100\SP\RHF\Aug-CC-pVDZ\C4H10O3\OHZDE\09-Apr-2025\0\\#t hf a
 ug-cc-pvdz iop(5/13=1,5/36=2,99/5=2) pseudo=read geom=check guess=(rea
 d,tcheck) scf=(maxcycle=1)\\title\\0,1\C,0,3.16084829,0.6747723,0.7170
 3929\O,0,1.97155153,-0.05516199,0.90451533\C,0,-0.40447887,-0.25056389
 ,-1.41538258\C,0,-1.012486,-0.6377239,-0.15169124\O,0,-0.46556538,0.67
 27272,-0.32049373\C,0,-2.50672452,-0.67552331,0.04279758\O,0,-3.189494
 76,0.21063936,-0.80682608\H,0,3.98503129,0.05986914,1.07934348\H,0,3.1
 6224045,1.6146088,1.28113036\H,0,3.34577931,0.9039891,-0.33947223\H,0,

 Normal termination of Gaussian 16 at Wed Apr  9 19:25:19 2025.
