 Gaussian 16, Revision C.01,

 ----------------------------------------------------------------------
 #t hf aug-cc-pvdz symm=none int=(grid=ultrafine) guess=(read,tcheck) s
 table=(opt,rrhf)
 ----------------------------------------------------------------------
 -----
 title
 -----
 Symbolic Z-matrix:
 Charge =  0 Multiplicity = 1

 SCF Done:  E(RHF) =  -286.656247466     A.U. after   16 cycles
 Normal termination of Gaussian 16 at Wed Apr  9 18:45:59 2025.
 Gaussian 16:  ES64L-G16RevC.01  3-Jul-2019

 ----------------------------------------------------------------------
 #t hf aug-cc-pvdz iop(5/13=1,5/36=2,99/5=2) pseudo=read geom=check gue
 ss=(read,tcheck) scf=(maxcycle=1)
 ----------------------------------------------------------------------
 -----
 title
 -----
 Structure from the checkpoint file:  "Grambow2020_wb97xd3_007626_reverse_mol1.chk"
 Charge =  0 Multiplicity = 1

                         Standard orientation:
 ---------------------------------------------------------------------
 Center     Atomic      Atomic             Coordinates (Angstroms)
 Number     Number       Type             X           Y           Z
 ---------------------------------------------------------------------
      1          6           0        1.975557   -0.847738    0.012662
      2          6           0        0.663916   -0.120524   -0.059569
      3          6           0        0.546773    1.248775   -0.663072
      4          6           0        0.249004    1.040364    0.761348
      5          6           0       -1.577019   -0.142865    0.755671
      6          7           0       -1.809890   -0.311805   -0.569860
      7          6           0       -0.613463   -0.939426   -0.056798
      8          1           0        1.987047   -1.546660    0.853189
      9          1           0        2.800621   -0.147911    0.152357
     10          1           0        2.163366   -1.419133   -0.900530
     11          1           0        1.493233    1.715208   -0.913789
     12          1           0       -0.241637    1.504830   -1.372734
     13          1           0        0.736299    1.467105    1.626049
     14          1           0       -1.330849    0.774335    1.361268
     15          1           0       -1.813238    0.427264   -1.260464
     16          1           0       -0.594221   -2.023921   -0.057778
 ---------------------------------------------------------------------

 SCF Done:  E(RHF) =  -288.067407592     A.U. after    2 cycles

 The electronic state is 1-A.
 Alpha  occ. eigenvalues --  -15.76762 -11.50037 -11.44075 -11.42279 -11.41907
 Alpha  occ. eigenvalues --  -11.38554 -11.36467  -1.52047  -1.29837  -1.05701
 Alpha  occ. eigenvalues --   -0.97425  -0.89525  -0.83256  -0.76704  -0.72311
 Alpha  occ. eigenvalues --   -0.65579  -0.59176  -0.57836  -0.56607  -0.52760
 Alpha  occ. eigenvalues --   -0.48598  -0.45619  -0.41678  -0.38774  -0.34227
 Alpha  occ. eigenvalues --   -0.25018
 Alpha virt. eigenvalues --    0.03904   0.05043   0.05378   0.05552   0.05826
 Alpha virt. eigenvalues --    0.06109   0.06650   0.06852   0.08639   0.09093
 Alpha virt. eigenvalues --    0.11294   0.12581   0.13245   0.13355   0.13438

 Mulliken charges:
               1
     1  C   -5.069395
     2  C    1.665528
     3  C   -2.513157
     4  C   -0.992445
     5  C   -1.134957
     6  N   -2.330938
     7  C   -0.898697
     8  H    1.190486
     9  H    1.210787
    10  H    1.256889
    11  H    1.332354
    12  H    1.239580
    13  H    1.273618
    14  H    1.413300
    15  H    0.639457
    16  H    1.717589
 Sum of Mulliken charges =  -0.00000

 Dipole moment (field-independent basis, Debye):
    X=              1.1354    Y=              0.3410    Z=             -1.0876  Tot=              1.6088

 Test job not archived.
 1\1\GINC-SE168\SP\RHF\Aug-CC-pVDZ\C6H9N1\OHZDE\09-Apr-2025\0\\#t hf au
 g-cc-pvdz iop(5/13=1,5/36=2,99/5=2) pseudo=read geom=check guess=(read
 ,tcheck) scf=(maxcycle=1)\\title\\0,1\C,0,1.55168788,-0.60855657,0.921
 91691\C,0,0.36256697,-0.12132539,0.14534794\C,0,0.49999353,0.8444235,-
 0.99542354\C,0,-0.24610352,1.22730262,0.21197746\C,0,-2.02039112,-0.03
 122241,0.16254499\N,0,-1.82342371,-0.76752996,-0.95944338\C,0,-0.88042
 213,-0.99093039,0.11266615\H,0,1.26541468,-0.88163626,1.94102627\H,0,2
 .31614743,0.16675519,0.98897478\H,0,1.99867595,-1.4891167,0.45234395\H

 Normal termination of Gaussian 16 at Wed Apr  9 18:46:05 2025.
