 Gaussian 16, Revision C.01,

 ----------------------------------------------------------------------
 #t hf aug-cc-pvdz symm=none int=(grid=ultrafine) guess=(read,tcheck) s
 table=(opt,rrhf)
 ----------------------------------------------------------------------
 -----
 title
 -----
 Symbolic Z-matrix:
 Charge =  0 Multiplicity = 1

 SCF Done:  E(RHF) =  -360.908006477     A.U. after   13 cycles
 Normal termination of Gaussian 16 at Wed Apr  9 18:13:18 2025.
 Gaussian 16:  ES64L-G16RevC.01  3-Jul-2019

 ----------------------------------------------------------------------
 #t hf aug-cc-pvdz iop(5/13=1,5/36=2,99/5=2) pseudo=read geom=check gue
 ss=(read,tcheck) scf=(maxcycle=1)
 ----------------------------------------------------------------------
 -----
 title
 -----
 Structure from the checkpoint file:  "Grambow2020_wb97xd3_006761_forward_mol2.chk"
 Charge =  0 Multiplicity = 1

                         Standard orientation:
 ---------------------------------------------------------------------
 Center     Atomic      Atomic             Coordinates (Angstroms)
 Number     Number       Type             X           Y           Z
 ---------------------------------------------------------------------
      1          6           0        2.582540    0.639434    0.045717
      2          7           0        1.199331    0.225827    0.134183
      3          6           0        0.913657   -0.954097   -0.197557
      4          8           0       -0.300061   -1.491114   -0.155233
      5          6           0       -1.373059   -0.761574    0.465162
      6          6           0       -1.865266    0.449520   -0.314846
      7          8           0       -1.225059    1.650778    0.018583
      8          1           0        2.664497    1.500072   -0.620586
      9          1           0        2.931865    0.954654    1.030426
     10          1           0        3.247535   -0.151484   -0.321883
     11          1           0        1.640319   -1.682757   -0.567016
     12          1           0       -2.164508   -1.506161    0.541413
     13          1           0       -1.065309   -0.458281    1.469801
     14          1           0       -1.789342    0.223915   -1.388731
     15          1           0       -2.926499    0.582985   -0.087771
     16          1           0       -0.280154    1.439261    0.107397
 ---------------------------------------------------------------------

 SCF Done:  E(RHF) =  -362.547224745     A.U. after    2 cycles

 The electronic state is 1-A.
 Alpha  occ. eigenvalues --  -21.09060 -21.03563 -15.72750 -11.47098 -11.45668
 Alpha  occ. eigenvalues --  -11.39609 -11.39073  -1.81745  -1.68764  -1.37941
 Alpha  occ. eigenvalues --   -1.10054  -1.00758  -0.89972  -0.80091  -0.69700
 Alpha  occ. eigenvalues --   -0.65769  -0.63953  -0.61163  -0.60230  -0.56628
 Alpha  occ. eigenvalues --   -0.54097  -0.49821  -0.47630  -0.44887  -0.40421
 Alpha  occ. eigenvalues --   -0.36220  -0.30344  -0.29587
 Alpha virt. eigenvalues --    0.03644   0.05123   0.05272   0.05611   0.06151
 Alpha virt. eigenvalues --    0.06618   0.06829   0.07416   0.09428   0.10111
 Alpha virt. eigenvalues --    0.11532   0.12605   0.12996   0.13762   0.14555

 Mulliken charges:
               1
     1  C   -2.942267
     2  N   -2.707638
     3  C    2.056485
     4  O   -3.535333
     5  C   -1.763649
     6  C   -1.181720
     7  O   -2.973759
     8  H    1.345101
     9  H    1.350214
    10  H    1.320671
    11  H    1.923305
    12  H    1.371057
    13  H    1.588763
    14  H    1.475872
    15  H    1.320662
    16  H    1.352235
 Sum of Mulliken charges =  -0.00000

 Dipole moment (field-independent basis, Debye):
    X=              0.9057    Y=             -1.7474    Z=             -0.0825  Tot=              1.9699

 Test job not archived.
 1\1\GINC-SE028\SP\RHF\Aug-CC-pVDZ\C4H9N1O2\OHZDE\09-Apr-2025\0\\#t hf
 aug-cc-pvdz iop(5/13=1,5/36=2,99/5=2) pseudo=read geom=check guess=(re
 ad,tcheck) scf=(maxcycle=1)\\title\\0,1\C,0,2.20120926,-0.30366782,-1.
 30422353\N,0,0.9351854,-0.0065734,-0.67091327\C,0,0.94569091,0.7166151
 ,0.35902351\O,0,-0.12804216,1.09481737,1.04265262\C,0,-1.4358112,0.819
 85635,0.51107117\C,0,-1.85066564,-0.64447009,0.54380575\O,0,-1.5310419
 8,-1.36168863,-0.61701281\H,0,2.34655158,-1.38483622,-1.34063303\H,0,2
 .18710713,0.05855555,-2.33361121\H,0,3.05837889,0.14685766,-0.78926102

 Normal termination of Gaussian 16 at Wed Apr  9 18:13:23 2025.
