 Gaussian 16, Revision C.01,

 ----------------------------------------------------------------------
 #t hf aug-cc-pvdz symm=none int=(grid=ultrafine) guess=(read,tcheck) s
 table=(opt,rrhf)
 ----------------------------------------------------------------------
 -----
 title
 -----
 Symbolic Z-matrix:
 Charge =  0 Multiplicity = 1

 SCF Done:  E(RHF) =  -343.617281457     A.U. after   15 cycles
 Normal termination of Gaussian 16 at Wed Apr  9 19:07:57 2025.
 Gaussian 16:  ES64L-G16RevC.01  3-Jul-2019

 ----------------------------------------------------------------------
 #t hf aug-cc-pvdz iop(5/13=1,5/36=2,99/5=2) pseudo=read geom=check gue
 ss=(read,tcheck) scf=(maxcycle=1)
 ----------------------------------------------------------------------
 -----
 title
 -----
 Structure from the checkpoint file:  "Grambow2020_wb97xd3_008133_reverse_mol2.chk"
 Charge =  0 Multiplicity = 1

                         Standard orientation:
 ---------------------------------------------------------------------
 Center     Atomic      Atomic             Coordinates (Angstroms)
 Number     Number       Type             X           Y           Z
 ---------------------------------------------------------------------
      1          6           0       -0.929133    0.998628    0.348222
      2          8           0       -1.545588    0.017139   -0.509699
      3          6           0       -2.303641   -0.861348    0.057179
      4          6           0        1.021920   -0.645347    0.884952
      5          6           0        0.556800    0.755251    0.458388
      6          6           0        1.336085    0.457282   -0.832878
      7          8           0        1.696973   -0.847306   -0.363526
      8          1           0       -1.421095    0.937681    1.320693
      9          1           0       -1.132376    1.965787   -0.115053
     10          1           0       -2.623649   -1.496276   -0.799827
     11          1           0        1.713323   -0.668588    1.731620
     12          1           0        0.228414   -1.380309    1.047943
     13          1           0        0.981910    1.561924    1.056366
     14          1           0        0.735909    0.408822   -1.745261
     15          1           0        2.214290    1.085501   -1.005855
 ---------------------------------------------------------------------

 SCF Done:  E(RHF) =  -345.164420114     A.U. after    2 cycles

 The electronic state is 1-A.
 Alpha  occ. eigenvalues --  -21.12342 -21.03597 -11.47076 -11.44855 -11.43820
 Alpha  occ. eigenvalues --  -11.41695 -11.38121  -1.83201  -1.76673  -1.18460
 Alpha  occ. eigenvalues --   -1.00166  -0.99701  -0.84143  -0.78148  -0.70551
 Alpha  occ. eigenvalues --   -0.68459  -0.65000  -0.57823  -0.57290  -0.53540
 Alpha  occ. eigenvalues --   -0.50603  -0.49722  -0.43758  -0.42024  -0.35500
 Alpha  occ. eigenvalues --   -0.32182  -0.29134
 Alpha virt. eigenvalues --    0.03587   0.04895   0.05127   0.05370   0.05888
 Alpha virt. eigenvalues --    0.06154   0.07029   0.07349   0.09797   0.10656
 Alpha virt. eigenvalues --    0.11814   0.12450   0.13249   0.13671   0.14260

 Mulliken charges:
               1
     1  C   -2.189126
     2  O   -2.202338
     3  C   -1.141939
     4  C   -0.702594
     5  C   -2.174924
     6  C   -0.639550
     7  O   -2.605537
     8  H    1.697729
     9  H    1.337931
    10  H    1.546698
    11  H    1.384801
    12  H    1.605274
    13  H    1.099082
    14  H    1.566632
    15  H    1.417859
 Sum of Mulliken charges =  -0.00000

 Dipole moment (field-independent basis, Debye):
    X=              1.0643    Y=              2.1183    Z=             -0.9018  Tot=              2.5363

 Test job not archived.
 1\1\GINC-SE105\SP\RHF\Aug-CC-pVDZ\C5H8O2\OHZDE\09-Apr-2025\0\\#t hf au
 g-cc-pvdz iop(5/13=1,5/36=2,99/5=2) pseudo=read geom=check guess=(read
 ,tcheck) scf=(maxcycle=1)\\title\\0,1\C,0,-1.13892922,0.58425703,0.275
 87103\O,0,-0.52482696,1.47514285,-0.67731659\C,0,-0.9584602,1.42034602
 ,-1.89251002\C,0,0.47075787,-1.34006674,-0.43351167\C,0,-0.17952743,-0
 .50828734,0.68239179\C,0,1.26574014,-0.10893373,1.02173471\O,0,1.78050
 648,-0.88954199,-0.06369057\H,0,-2.03908189,0.1782187,-0.1892077\H,0,-
 1.40683568,1.20611358,1.13193699\H,0,-0.31884503,2.16843625,-2.413327\

 Normal termination of Gaussian 16 at Wed Apr  9 19:08:02 2025.
