 Gaussian 16, Revision C.01,

 ----------------------------------------------------------------------
 #t hf aug-cc-pvdz symm=none int=(grid=ultrafine) guess=(read,tcheck) s
 table=(opt,rrhf)
 ----------------------------------------------------------------------
 -----
 title
 -----
 Symbolic Z-matrix:
 Charge =  0 Multiplicity = 1

 SCF Done:  E(RHF) =  -323.842097020     A.U. after   15 cycles
 Normal termination of Gaussian 16 at Wed Apr  9 18:24:27 2025.
 Gaussian 16:  ES64L-G16RevC.01  3-Jul-2019

 ----------------------------------------------------------------------
 #t hf aug-cc-pvdz iop(5/13=1,5/36=2,99/5=2) pseudo=read geom=check gue
 ss=(read,tcheck) scf=(maxcycle=1)
 ----------------------------------------------------------------------
 -----
 title
 -----
 Structure from the checkpoint file:  "Grambow2020_wb97xd3_006967_reverse_mol2.chk"
 Charge =  0 Multiplicity = 1

                         Standard orientation:
 ---------------------------------------------------------------------
 Center     Atomic      Atomic             Coordinates (Angstroms)
 Number     Number       Type             X           Y           Z
 ---------------------------------------------------------------------
      1          6           0       -3.084153    0.702096   -0.553368
      2          6           0       -3.156481    0.380994    0.730674
      3          6           0        0.372943   -0.532357   -0.050035
      4          8           0       -0.600102   -1.437278   -0.163865
      5          6           0        1.664627   -0.868957   -0.053780
      6          6           0        2.659289    0.139595    0.069624
      7          7           0        3.462578    0.957390    0.168449
      8          1           0       -3.669319    0.182890   -1.303988
      9          1           0       -2.452270    1.511539   -0.902708
     10          1           0        0.537539    3.177696   -0.500164
     11          1           0       -3.802668   -0.415629    1.082088
     12          1           0       -2.584479    0.912155    1.483625
     13          1           0        0.067824    0.506699    0.044196
     14          1           0       -1.457477   -0.990424   -0.134476
     15          1           0        1.205706    2.882610   -0.346858
     16          1           0        1.980552   -1.899260   -0.148627
 ---------------------------------------------------------------------

 SCF Done:  E(RHF) =  -325.354372795     A.U. after    2 cycles

 The electronic state is 1-A.
 Alpha  occ. eigenvalues --  -21.12944 -15.74519 -11.50323 -11.44298 -11.44142
 Alpha  occ. eigenvalues --  -11.41157 -11.40864  -1.79053  -1.30991  -1.17660
 Alpha  occ. eigenvalues --   -1.15278  -0.88153  -0.85844  -0.76497  -0.68015
 Alpha  occ. eigenvalues --   -0.63586  -0.62415  -0.61797  -0.59531  -0.53911
 Alpha  occ. eigenvalues --   -0.52757  -0.50716  -0.46914  -0.45834  -0.43044
 Alpha  occ. eigenvalues --   -0.39881  -0.29903
 Alpha virt. eigenvalues --    0.02857   0.04429   0.04791   0.05330   0.05428
 Alpha virt. eigenvalues --    0.07387   0.07716   0.08341   0.08511   0.10189
 Alpha virt. eigenvalues --    0.10547   0.10975   0.11517   0.12775   0.13448

 Mulliken charges:
               1
     1  C   -2.867850
     2  C   -2.988538
     3  C    1.630419
     4  O   -3.951385
     5  C   -1.557148
     6  C    1.456552
     7  N   -2.369680
     8  H    1.334353
     9  H    1.522954
    10  H    0.022270
    11  H    1.363918
    12  H    1.398135
    13  H    1.886262
    14  H    1.576710
    15  H   -0.069206
    16  H    1.612235
 Sum of Mulliken charges =  -0.00000

 Dipole moment (field-independent basis, Debye):
    X=             -5.6500    Y=             -1.5644    Z=             -0.2415  Tot=              5.8675

 Test job not archived.
 1\1\GINC-SE105\SP\RHF\Aug-CC-pVDZ\C5H9N1O1\OHZDE\09-Apr-2025\0\\#t hf
 aug-cc-pvdz iop(5/13=1,5/36=2,99/5=2) pseudo=read geom=check guess=(re
 ad,tcheck) scf=(maxcycle=1)\\title\\0,1\C,0,2.57925633,-0.32011942,-0.
 15852238\C,0,2.50353807,0.98839925,-0.35637815\C,0,-1.07772607,-0.0022
 0647,-0.66264704\O,0,-0.29492697,0.04412167,-1.74141189\C,0,-2.4072315
 7,-0.08460681,-0.74858679\C,0,-3.19156086,-0.13218356,0.43645412\N,0,-
 3.82428829,-0.17172027,1.39662131\H,0,3.0993939,-0.97164758,-0.8516260
 7\H,0,2.14186211,-0.7895585,0.71602057\H,0,-0.48455421,-0.78325321,2.9

 Normal termination of Gaussian 16 at Wed Apr  9 18:24:32 2025.
