 Gaussian 16, Revision C.01,

 ----------------------------------------------------------------------
 #t hf aug-cc-pvdz symm=none int=(grid=ultrafine) guess=(read,tcheck) s
 table=(opt,rrhf)
 ----------------------------------------------------------------------
 -----
 title
 -----
 Symbolic Z-matrix:
 Charge =  0 Multiplicity = 1

 SCF Done:  E(RHF) =  -286.673501983     A.U. after   17 cycles
 Normal termination of Gaussian 16 at Wed Apr  9 19:01:58 2025.
 Gaussian 16:  ES64L-G16RevC.01  3-Jul-2019

 ----------------------------------------------------------------------
 #t hf aug-cc-pvdz iop(5/13=1,5/36=2,99/5=2) pseudo=read geom=check gue
 ss=(read,tcheck) scf=(maxcycle=1)
 ----------------------------------------------------------------------
 -----
 title
 -----
 Structure from the checkpoint file:  "Grambow2020_wb97xd3_008002_reverse_mol1.chk"
 Charge =  0 Multiplicity = 1

                         Standard orientation:
 ---------------------------------------------------------------------
 Center     Atomic      Atomic             Coordinates (Angstroms)
 Number     Number       Type             X           Y           Z
 ---------------------------------------------------------------------
      1          6           0        3.488823    0.413749   -0.236643
      2          6           0        2.273491   -0.150912    0.104053
      3          6           0        1.029234   -0.211842    0.419818
      4          6           0       -0.184849   -0.614557   -0.310954
      5          6           0       -1.474920   -0.261248    0.386675
      6          6           0       -2.188976    0.995952    0.097704
      7          7           0       -2.673217   -0.274880   -0.440938
      8          1           0        3.574527    1.468459   -0.477167
      9          1           0        4.398011   -0.168829   -0.180458
     10          1           0        2.971901   -0.401107    1.012494
     11          1           0       -0.134373   -1.702404   -0.442973
     12          1           0       -0.193207   -0.200854   -1.329166
     13          1           0       -1.553405   -0.639454    1.402165
     14          1           0       -1.790277    1.680230   -0.643283
     15          1           0       -2.742589    1.467663    0.901694
     16          1           0       -3.474892   -0.606396    0.079346
 ---------------------------------------------------------------------

 SCF Done:  E(RHF) =  -288.054977817     A.U. after    2 cycles

 The electronic state is 1-A.
 Alpha  occ. eigenvalues --  -15.72631 -11.46752 -11.44775 -11.43183 -11.41328
 Alpha  occ. eigenvalues --  -11.39126 -11.37448  -1.45196  -1.24105  -1.11584
 Alpha  occ. eigenvalues --   -0.94829  -0.91744  -0.83144  -0.73096  -0.70147
 Alpha  occ. eigenvalues --   -0.63369  -0.60708  -0.58531  -0.56077  -0.53009
 Alpha  occ. eigenvalues --   -0.48453  -0.43780  -0.42185  -0.37275  -0.34225
 Alpha  occ. eigenvalues --   -0.26237
 Alpha virt. eigenvalues --    0.02804   0.05019   0.05461   0.05905   0.05948
 Alpha virt. eigenvalues --    0.06440   0.06690   0.06961   0.07593   0.07978
 Alpha virt. eigenvalues --    0.10368   0.11709   0.11994   0.12540   0.13249

 Mulliken charges:
               1
     1  C   -3.340671
     2  C    1.226855
     3  C   -0.905099
     4  C   -4.315460
     5  C    0.391265
     6  C   -2.357645
     7  N   -2.210140
     8  H    1.250873
     9  H    1.360292
    10  H    1.350048
    11  H    1.357118
    12  H    1.359999
    13  H    1.464267
    14  H    1.411185
    15  H    1.359478
    16  H    0.597635
 Sum of Mulliken charges =   0.00000

 Dipole moment (field-independent basis, Debye):
    X=              1.1353    Y=              0.2536    Z=              0.0591  Tot=              1.1648

 Test job not archived.
 1\1\GINC-SE229\SP\RHF\Aug-CC-pVDZ\C6H9N1\OHZDE\09-Apr-2025\0\\#t hf au
 g-cc-pvdz iop(5/13=1,5/36=2,99/5=2) pseudo=read geom=check guess=(read
 ,tcheck) scf=(maxcycle=1)\\title\\0,1\C,0,2.94113994,0.83077246,1.7205
 8393\C,0,1.78145296,0.12987438,1.44523571\C,0,0.57743796,-0.08248194,1
 .04919609\C,0,-0.00016637,-0.73445781,-0.13887279\C,0,-1.4812471,-0.50
 683382,-0.31318053\C,0,-1.99983265,0.59362379,-1.14624365\N,0,-2.01854
 903,-0.78379331,-1.63818898\H,0,3.07388768,1.85599744,1.39058147\H,0,3
 .70481636,0.39879649,2.35254268\H,0,1.87665877,0.08137453,2.61323456\H

 Normal termination of Gaussian 16 at Wed Apr  9 19:02:03 2025.
