 Gaussian 16, Revision C.01,

 ----------------------------------------------------------------------
 #t hf aug-cc-pvdz symm=none int=(grid=ultrafine) guess=(read,tcheck) s
 table=(opt,rrhf)
 ----------------------------------------------------------------------
 -----
 title
 -----
 Symbolic Z-matrix:
 Charge =  0 Multiplicity = 1

 SCF Done:  E(RHF) =  -345.911508484     A.U. after   15 cycles

 1\1\GINC-SE083\Stability\RHF\Aug-CC-pVDZ\C5H12O2\OHZDE\09-Apr-2025\0\\
 #t hf aug-cc-pvdz symm=none int=(grid=ultrafine) guess=(read,tcheck) s
 table=(opt,rrhf)\\title\\0,1\C,0,2.26429094,-0.41109129,1.53090191\C,0
 ,0.53121377,0.71249364,0.77086143\C,0,0.20203795,-0.11700448,-0.385521
 68\O,0,0.26895372,-1.41177816,-0.13179488\C,0,-1.37532569,0.34389142,-
 0.4829238\C,0,-1.7856819,0.1688452,-1.93620441\O,0,-2.06195581,-0.4897
 2879,0.38463038\H,0,2.28641376,-0.99436492,2.45261951\H,0,3.16461951,-
 0.55595524,0.93472641\H,0,2.27525611,0.63616442,1.85347273\H,0,-0.0184

 Normal termination of Gaussian 16 at Wed Apr  9 19:06:17 2025.
 Gaussian 16:  ES64L-G16RevC.01  3-Jul-2019

 ----------------------------------------------------------------------
 #t hf aug-cc-pvdz iop(5/13=1,5/36=2,99/5=2) pseudo=read geom=check gue
 ss=(read,tcheck) scf=(maxcycle=1)
 ----------------------------------------------------------------------
 -----
 title
 -----
 Structure from the checkpoint file:  "Grambow2020_wb97xd3_008081_forward_mol1.chk"
 Charge =  0 Multiplicity = 1

                         Standard orientation:
 ---------------------------------------------------------------------
 Center     Atomic      Atomic             Coordinates (Angstroms)
 Number     Number       Type             X           Y           Z
 ---------------------------------------------------------------------
      1          6           0       -2.939367   -0.053940   -0.051398
      2          6           0       -0.996850   -0.103495    0.981963
      3          6           0       -0.152100   -0.541365   -0.126330
      4          8           0       -0.437964    0.061177   -1.266732
      5          6           0        1.253004    0.065621    0.479673
      6          6           0        2.373500   -0.782273   -0.100518
      7          8           0        1.296693    1.387612    0.068014
      8          1           0       -3.500169    0.847366   -0.303207
      9          1           0       -3.378812   -0.945713   -0.497080
     10          1           0       -3.049389   -0.167001    1.033051
     11          1           0       -1.047307    0.968429    1.144978
     12          1           0       -1.161863   -0.732871    1.854637
     13          1           0       -0.048277   -1.639565   -0.150479
     14          1           0       -1.955441    0.097633   -0.667319
     15          1           0        1.312517    0.047441    1.574748
     16          1           0        2.279833   -0.813916   -1.187127
     17          1           0        3.333249   -0.334055    0.160836
     18          1           0        2.342596   -1.801467    0.289584
     19          1           0        0.774110    1.376118   -0.763216
 ---------------------------------------------------------------------

 SCF Done:  E(RHF) =  -347.561924222     A.U. after    2 cycles

 The electronic state is 1-A.
 Alpha  occ. eigenvalues --  -21.04255 -20.94892 -11.53343 -11.46761 -11.42464
 Alpha  occ. eigenvalues --  -11.38159 -11.36718  -1.72976  -1.61368  -1.18909
 Alpha  occ. eigenvalues --   -1.10333  -1.03499  -0.88773  -0.81283  -0.70679
 Alpha  occ. eigenvalues --   -0.68986  -0.61318  -0.60100  -0.58379  -0.56616
 Alpha  occ. eigenvalues --   -0.55826  -0.53563  -0.49676  -0.46978  -0.41889
 Alpha  occ. eigenvalues --   -0.37570  -0.30842  -0.24922  -0.24805
 Alpha virt. eigenvalues --    0.02838   0.03402   0.04655   0.04975   0.05289
 Alpha virt. eigenvalues --    0.05612   0.06314   0.07503   0.07858   0.08298
 Alpha virt. eigenvalues --    0.08748   0.09134   0.10341   0.12324   0.12996

 Mulliken charges:
               1
     1  C   -5.406431
     2  C   -2.726701
     3  C    1.098744
     4  O   -3.048128
     5  C    1.651198
     6  C   -4.010541
     7  O   -3.216531
     8  H    0.877126
     9  H    0.910598
    10  H    1.251005
    11  H    1.424285
    12  H    1.603296
    13  H    1.606535
    14  H    2.383930
    15  H    1.496394
    16  H    1.238559
    17  H    1.050401
    18  H    1.222109
    19  H    0.594151
 Sum of Mulliken charges =   0.00000

 Dipole moment (field-independent basis, Debye):
    X=             -1.7221    Y=             -0.7391    Z=              3.1592  Tot=              3.6732

 Test job not archived.
 1\1\GINC-SE083\SP\RHF\Aug-CC-pVDZ\C5H12O2\OHZDE\09-Apr-2025\0\\#t hf a
 ug-cc-pvdz iop(5/13=1,5/36=2,99/5=2) pseudo=read geom=check guess=(rea
 d,tcheck) scf=(maxcycle=1)\\title\\0,1\C,0,2.26429094,-0.41109129,1.53
 090191\C,0,0.53121377,0.71249364,0.77086143\C,0,0.20203795,-0.11700448
 ,-0.38552168\O,0,0.26895372,-1.41177816,-0.13179488\C,0,-1.37532569,0.
 34389142,-0.4829238\C,0,-1.7856819,0.1688452,-1.93620441\O,0,-2.061955
 81,-0.48972879,0.38463038\H,0,2.28641376,-0.99436492,2.45261951\H,0,3.
 16461951,-0.55595524,0.93472641\H,0,2.27525611,0.63616442,1.85347273\H

 Normal termination of Gaussian 16 at Wed Apr  9 19:06:24 2025.
