 Gaussian 16, Revision C.01,

 ----------------------------------------------------------------------
 #t hf aug-cc-pvdz symm=none int=(grid=ultrafine) guess=(read,tcheck) s
 table=(opt,rrhf)
 ----------------------------------------------------------------------
 -----
 title
 -----
 Symbolic Z-matrix:
 Charge =  0 Multiplicity = 1

 SCF Done:  E(RHF) =  -324.886241056     A.U. after   14 cycles
 Normal termination of Gaussian 16 at Wed Apr  9 04:05:00 2025.
 Gaussian 16:  ES64L-G16RevC.01  3-Jul-2019

 ----------------------------------------------------------------------
 #t hf aug-cc-pvdz iop(5/13=1,5/36=2,99/5=2) pseudo=read geom=check gue
 ss=(read,tcheck) scf=(maxcycle=1)
 ----------------------------------------------------------------------
 -----
 title
 -----
 Structure from the checkpoint file:  "Grambow2020_wb97xd3_009229_reverse_mol1.chk"
 Charge =  0 Multiplicity = 1

                         Standard orientation:
 ---------------------------------------------------------------------
 Center     Atomic      Atomic             Coordinates (Angstroms)
 Number     Number       Type             X           Y           Z
 ---------------------------------------------------------------------
      1          6           0       -2.891236   -0.157861   -0.378656
      2          8           0       -1.823263    0.207782    0.459319
      3          6           0       -0.581401    0.062760   -0.140743
      4          6           0        0.519916    1.084536    0.202072
      5          7           0        1.382415   -0.041881   -0.268725
      6          6           0        2.828788   -0.094894   -0.198730
      7          6           0        0.435893   -0.977908    0.405706
      8          1           0       -3.815336    0.050450    0.163086
      9          1           0       -2.859964   -1.224880   -0.630138
     10          1           0       -2.874942    0.414469   -1.312153
     11          1           0        0.605897   -0.092827   -1.183416
     12          1           0        0.623326    2.002885   -0.376719
     13          1           0        0.693416    1.259203    1.272130
     14          1           0        3.181691   -0.002802    0.830095
     15          1           0        3.247279    0.718433   -0.791987
     16          1           0        3.174557   -1.044001   -0.608743
     17          1           0        0.600638   -0.953530    1.490427
     18          1           0        0.460882   -1.996289    0.016041
 ---------------------------------------------------------------------

 SCF Done:  E(RHF) =  -326.478562308     A.U. after    2 cycles

 The electronic state is 1-A.
 Alpha  occ. eigenvalues --  -21.01365 -15.77425 -11.44719 -11.42609 -11.41897
 Alpha  occ. eigenvalues --  -11.37239 -11.34243  -1.72626  -1.52878  -1.14358
 Alpha  occ. eigenvalues --   -0.98811  -0.96643  -0.87775  -0.80574  -0.69866
 Alpha  occ. eigenvalues --   -0.64408  -0.63167  -0.60381  -0.57827  -0.56527
 Alpha  occ. eigenvalues --   -0.55062  -0.48434  -0.46252  -0.46057  -0.44750
 Alpha  occ. eigenvalues --   -0.39298  -0.26830  -0.23258
 Alpha virt. eigenvalues --    0.03324   0.05167   0.05210   0.05399   0.06050
 Alpha virt. eigenvalues --    0.06240   0.06682   0.06954   0.07340   0.08216
 Alpha virt. eigenvalues --    0.08811   0.10943   0.12985   0.13320   0.13865

 Mulliken charges:
               1
     1  C   -3.368365
     2  O   -3.449080
     3  C    3.053371
     4  C   -2.433937
     5  N   -2.466132
     6  C   -3.548468
     7  C   -2.387091
     8  H    1.274772
     9  H    1.260302
    10  H    1.266275
    11  H    1.057949
    12  H    1.319267
    13  H    1.401314
    14  H    1.466111
    15  H    1.411047
    16  H    1.413418
    17  H    1.395445
    18  H    1.333800
 Sum of Mulliken charges =   0.00000

 Dipole moment (field-independent basis, Debye):
    X=              4.1248    Y=             -0.1375    Z=              0.3340  Tot=              4.1405

 Test job not archived.
 1\1\GINC-SE455\SP\RHF\Aug-CC-pVDZ\C5H11N1O1\OHZDE\09-Apr-2025\0\\#t hf
  aug-cc-pvdz iop(5/13=1,5/36=2,99/5=2) pseudo=read geom=check guess=(r
 ead,tcheck) scf=(maxcycle=1)\\title\\0,1\C,0,3.00744497,0.4106654,-0.3
 8542057\O,0,1.80759067,0.92628051,0.13511125\C,0,0.72886153,0.06900197
 ,-0.02218804\C,0,-0.3389144,0.02632961,1.08798325\N,0,-1.155409,-0.508
 00659,-0.04435603\C,0,-2.57896447,-0.77708467,-0.01623237\C,0,-0.46426
 23,0.47046046,-0.93420327\H,0,3.79613324,1.12941816,-0.15694117\H,0,2.
 9518404,0.27830077,-1.47268219\H,0,3.24999837,-0.55744809,0.06532284\H

 Normal termination of Gaussian 16 at Wed Apr  9 04:05:06 2025.
