 Gaussian 16, Revision C.01,

 ----------------------------------------------------------------------
 #t hf aug-cc-pvdz symm=none int=(grid=ultrafine) guess=(read,tcheck) s
 table=(opt,rrhf)
 ----------------------------------------------------------------------
 -----
 title
 -----
 Symbolic Z-matrix:
 Charge =  0 Multiplicity = 1

 SCF Done:  E(RHF) =  -358.374528526     A.U. after   21 cycles
 Normal termination of Gaussian 16 at Wed Apr  9 18:11:58 2025.
 Gaussian 16:  ES64L-G16RevC.01  3-Jul-2019

 ----------------------------------------------------------------------
 #t hf aug-cc-pvdz iop(5/13=1,5/36=2,99/5=2) pseudo=read geom=check gue
 ss=(read,tcheck) scf=(maxcycle=1)
 ----------------------------------------------------------------------
 -----
 title
 -----
 Structure from the checkpoint file:  "Grambow2020_wb97xd3_006753_reverse_mol1.chk"
 Charge =  0 Multiplicity = 1

                         Standard orientation:
 ---------------------------------------------------------------------
 Center     Atomic      Atomic             Coordinates (Angstroms)
 Number     Number       Type             X           Y           Z
 ---------------------------------------------------------------------
      1          8           0        1.908515   -0.952281   -0.009327
      2          6           0        1.493168    0.163635   -0.128073
      3          6           0        0.029409    0.572626    0.069621
      4          8           0       -0.270832    1.814446    0.126992
      5          7           0       -0.914327    0.099619   -0.985694
      6          6           0       -1.382207   -1.044422   -0.259628
      7          6           0       -0.800649   -0.443898    1.002172
      8          1           0        2.138037    1.030966   -0.375799
      9          1           0       -0.789376   -1.908607   -0.599240
     10          1           0       -2.445561   -1.265672   -0.343999
     11          1           0       -1.498118    0.143693    1.586284
     12          1           0       -0.144482   -1.082676    1.586740
 ---------------------------------------------------------------------

 SCF Done:  E(RHF) =  -359.919737375     A.U. after    2 cycles

 The electronic state is 1-A.
 Alpha  occ. eigenvalues --  -21.09444 -21.02251 -15.86985 -11.52257 -11.50218
 Alpha  occ. eigenvalues --  -11.47246 -11.41843  -1.75238  -1.69775  -1.44782
 Alpha  occ. eigenvalues --   -1.06325  -1.02480  -0.92443  -0.77047  -0.68867
 Alpha  occ. eigenvalues --   -0.67351  -0.64373  -0.58654  -0.56620  -0.55137
 Alpha  occ. eigenvalues --   -0.47418  -0.45115  -0.41883  -0.35539  -0.28714
 Alpha  occ. eigenvalues --   -0.25923
 Alpha virt. eigenvalues --    0.02125   0.03524   0.05161   0.05562   0.06190
 Alpha virt. eigenvalues --    0.06630   0.08559   0.10615   0.10897   0.11142
 Alpha virt. eigenvalues --    0.11845   0.12394   0.14426   0.14570   0.14860

 Mulliken charges:
               1
     1  O   -2.862372
     2  C    1.198016
     3  C    5.166702
     4  O   -3.705307
     5  N   -1.739938
     6  C   -2.009002
     7  C   -2.990195
     8  H    1.529046
     9  H    1.544798
    10  H    1.413862
    11  H    1.072116
    12  H    1.382273
 Sum of Mulliken charges =  -0.00000

 Dipole moment (field-independent basis, Debye):
    X=             -0.7824    Y=             -2.1806    Z=              0.6745  Tot=              2.4129

 Test job not archived.
 1\1\GINC-SE454\SP\RHF\Aug-CC-pVDZ\C4H5N1O2\OHZDE\09-Apr-2025\0\\#t hf
 aug-cc-pvdz iop(5/13=1,5/36=2,99/5=2) pseudo=read geom=check guess=(re
 ad,tcheck) scf=(maxcycle=1)\\title\\0,1\O,0,0.95981584,1.01562812,1.76
 492052\C,0,1.49826184,0.44198806,0.8633127\C,0,0.77050476,-0.15335921,
 -0.34700864\O,0,1.45254958,-0.55659223,-1.35088677\N,0,-0.05980733,-1.
 36081732,-0.06294729\C,0,-1.30518635,-0.65883967,0.0427379\C,0,-0.6585
 5237,0.52936303,-0.6362434\H,0,2.59610451,0.29956021,0.8005262\H,0,-1.
 47624445,-0.4614397,1.11295924\H,0,-2.17445948,-1.15404187,-0.38846038

 Normal termination of Gaussian 16 at Wed Apr  9 18:12:02 2025.
