 Gaussian 16, Revision C.01,

 ----------------------------------------------------------------------
 #t hf aug-cc-pvdz symm=none int=(grid=ultrafine) guess=(read,tcheck) s
 table=(opt,rrhf)
 ----------------------------------------------------------------------
 -----
 title
 -----
 Symbolic Z-matrix:
 Charge =  0 Multiplicity = 1

 SCF Done:  E(RHF) =  -266.813888034     A.U. after   13 cycles
 Normal termination of Gaussian 16 at Wed Apr  9 03:05:13 2025.
 Gaussian 16:  ES64L-G16RevC.01  3-Jul-2019

 ----------------------------------------------------------------------
 #t hf aug-cc-pvdz iop(5/13=1,5/36=2,99/5=2) pseudo=read geom=check gue
 ss=(read,tcheck) scf=(maxcycle=1)
 ----------------------------------------------------------------------
 -----
 title
 -----
 Structure from the checkpoint file:  "Grambow2020_b97d3_006482_reverse_mol2.chk"
 Charge =  0 Multiplicity = 1

                         Standard orientation:
 ---------------------------------------------------------------------
 Center     Atomic      Atomic             Coordinates (Angstroms)
 Number     Number       Type             X           Y           Z
 ---------------------------------------------------------------------
      1          8           0       -0.501587    1.404870   -0.125796
      2          6           0       -1.260704   -0.931367   -0.080682
      3          6           0       -0.121921    0.063974   -0.056387
      4          6           0        1.216763   -0.239394   -0.568459
      5          8           0        0.944214   -0.248634    0.853585
      6          1           0       -1.152410    1.561925    0.586003
      7          1           0       -1.889493   -0.810390    0.815347
      8          1           0       -1.888278   -0.775254   -0.967900
      9          1           0       -0.878862   -1.959109   -0.085489
     10          1           0        1.836380    0.589949   -0.920448
     11          1           0        1.426822   -1.216283   -1.016654
 ---------------------------------------------------------------------

 SCF Done:  E(RHF) =  -268.001328934     A.U. after    2 cycles

 The electronic state is 1-A.
 Alpha  occ. eigenvalues --  -21.08907 -21.05720 -11.51520 -11.42943 -11.39236
 Alpha  occ. eigenvalues --   -1.81816  -1.67592  -1.10274  -0.97254  -0.82850
 Alpha  occ. eigenvalues --   -0.68816  -0.62846  -0.60488  -0.56023  -0.54463
 Alpha  occ. eigenvalues --   -0.49324  -0.43697  -0.37305  -0.32659  -0.29821
 Alpha virt. eigenvalues --    0.03481   0.05224   0.05836   0.06073   0.06229
 Alpha virt. eigenvalues --    0.07214   0.10192   0.11704   0.12715   0.13806
 Alpha virt. eigenvalues --    0.14617   0.15622   0.16193   0.17126   0.18488

 Mulliken charges:
               1
     1  O   -3.301653
     2  C   -4.281713
     3  C    5.379318
     4  C   -2.285160
     5  O   -2.619733
     6  H    0.738185
     7  H    1.109475
     8  H    1.178997
     9  H    1.201501
    10  H    1.384569
    11  H    1.496215
 Sum of Mulliken charges =   0.00000

 Dipole moment (field-independent basis, Debye):
    X=             -0.5097    Y=             -0.4070    Z=             -0.0194  Tot=              0.6525

 Test job not archived.
 1\1\GINC-SE228\SP\RHF\Aug-CC-pVDZ\C3H6O2\OHZDE\09-Apr-2025\0\\#t hf au
 g-cc-pvdz iop(5/13=1,5/36=2,99/5=2) pseudo=read geom=check guess=(read
 ,tcheck) scf=(maxcycle=1)\\title\\0,1\O,0,-1.290713,-0.98987683,-0.420
 93764\C,0,-0.34723066,1.22580571,0.06577337\C,0,-0.13363028,-0.2542434
 5,-0.1621525\C,0,0.96906154,-1.00580367,0.4424562\O,0,1.02264205,-0.59
 19718,-0.94406812\H,0,-1.75131092,-0.55803969,-1.16676604\H,0,-0.73571
 715,1.69849611,-0.84993528\H,0,-1.07194457,1.38917193,0.87415245\H,0,0
 .59712198,1.71994164,0.3228896\H,0,0.83591209,-2.07881726,0.60538228\H

 Normal termination of Gaussian 16 at Wed Apr  9 03:05:16 2025.
