 Gaussian 16, Revision C.01,

 ----------------------------------------------------------------------
 #t hf aug-cc-pvdz symm=none int=(grid=ultrafine) guess=(read,tcheck) s
 table=(opt,rrhf)
 ----------------------------------------------------------------------
 -----
 title
 -----
 Symbolic Z-matrix:
 Charge =  0 Multiplicity = 1

 SCF Done:  E(RHF) =  -344.711741066     A.U. after   15 cycles

 1\1\GINC-SE094\Stability\RHF\Aug-CC-pVDZ\C5H10O2\OHZDE\09-Apr-2025\0\\
 #t hf aug-cc-pvdz symm=none int=(grid=ultrafine) guess=(read,tcheck) s
 table=(opt,rrhf)\\title\\0,1\C,0,2.12580503,0.9462008,-0.48309957\O,0,
 0.71768369,0.88991205,-0.47500203\C,0,0.23269069,-0.39565032,-0.649546
 81\C,0,0.36111348,-1.50472914,0.41812494\O,0,-0.96480789,-1.76653938,0
 .34555884\C,0,-1.27970332,-0.5921719,-0.46573687\C,0,-2.00723604,0.456
 6653,0.32821648\H,0,2.55277155,0.37076335,0.34613\H,0,2.53153643,0.559
 0879,-1.42578419\H,0,2.40648646,1.99180135,-0.3724126\H,0,0.58223817,-

 Normal termination of Gaussian 16 at Wed Apr  9 03:27:32 2025.
 Gaussian 16:  ES64L-G16RevC.01  3-Jul-2019

 ----------------------------------------------------------------------
 #t hf aug-cc-pvdz iop(5/13=1,5/36=2,99/5=2) pseudo=read geom=check gue
 ss=(read,tcheck) scf=(maxcycle=1)
 ----------------------------------------------------------------------
 -----
 title
 -----
 Structure from the checkpoint file:  "Grambow2020_wb97xd3_006655_forward_mol1.chk"
 Charge =  0 Multiplicity = 1

                         Standard orientation:
 ---------------------------------------------------------------------
 Center     Atomic      Atomic             Coordinates (Angstroms)
 Number     Number       Type             X           Y           Z
 ---------------------------------------------------------------------
      1          6           0        2.513536    0.112640    0.092726
      2          8           0        1.230892    0.680691   -0.042111
      3          6           0        0.299913   -0.213481   -0.544196
      4          6           0       -0.234106   -1.422773    0.255121
      5          8           0       -1.513376   -1.059349    0.003586
      6          6           0       -1.165250    0.248051   -0.549597
      7          6           0       -1.526523    1.365798    0.388405
      8          1           0        2.508815   -0.717833    0.807808
      9          1           0        2.886451   -0.254938   -0.871095
     10          1           0        3.174718    0.895001    0.460236
     11          1           0        0.611946   -0.582052   -1.532142
     12          1           0        0.109194   -0.659263    1.773488
     13          1           0        0.109006   -1.519052    1.482481
     14          1           0       -1.626277    0.374045   -1.531705
     15          1           0       -1.105474    2.303335    0.023716
     16          1           0       -2.610227    1.464961    0.454224
     17          1           0       -1.123705    1.183653    1.386440
 ---------------------------------------------------------------------

 SCF Done:  E(RHF) =  -346.314454155     A.U. after    2 cycles

 The electronic state is 1-A.
 Alpha  occ. eigenvalues --  -21.07663 -21.06300 -11.50024 -11.45582 -11.41483
 Alpha  occ. eigenvalues --  -11.41211 -11.37839  -1.83678  -1.75870  -1.15332
 Alpha  occ. eigenvalues --   -1.06751  -0.97191  -0.92622  -0.78645  -0.71358
 Alpha  occ. eigenvalues --   -0.66459  -0.63187  -0.61072  -0.59429  -0.55854
 Alpha  occ. eigenvalues --   -0.53227  -0.51855  -0.48624  -0.42259  -0.39087
 Alpha  occ. eigenvalues --   -0.36936  -0.31980  -0.26874
 Alpha virt. eigenvalues --    0.03803   0.04904   0.04997   0.05545   0.05768
 Alpha virt. eigenvalues --    0.06301   0.06495   0.07600   0.08221   0.09517
 Alpha virt. eigenvalues --    0.10328   0.11861   0.12745   0.12954   0.14255

 Mulliken charges:
               1
     1  C   -3.224546
     2  O   -3.582941
     3  C    0.791693
     4  C    0.167508
     5  O   -2.816121
     6  C    0.608883
     7  C   -3.988015
     8  H    1.500722
     9  H    1.315082
    10  H    1.247200
    11  H    1.637087
    12  H    0.121205
    13  H    0.791508
    14  H    1.609976
    15  H    1.236185
    16  H    1.178670
    17  H    1.405906
 Sum of Mulliken charges =  -0.00000

 Dipole moment (field-independent basis, Debye):
    X=              0.0322    Y=              1.6924    Z=             -0.8662  Tot=              1.9015

 Test job not archived.
 1\1\GINC-SE094\SP\RHF\Aug-CC-pVDZ\C5H10O2\OHZDE\09-Apr-2025\0\\#t hf a
 ug-cc-pvdz iop(5/13=1,5/36=2,99/5=2) pseudo=read geom=check guess=(rea
 d,tcheck) scf=(maxcycle=1)\\title\\0,1\C,0,2.12580503,0.9462008,-0.483
 09957\O,0,0.71768369,0.88991205,-0.47500203\C,0,0.23269069,-0.39565032
 ,-0.64954681\C,0,0.36111348,-1.50472914,0.41812494\O,0,-0.96480789,-1.
 76653938,0.34555884\C,0,-1.27970332,-0.5921719,-0.46573687\C,0,-2.0072
 3604,0.4566653,0.32821648\H,0,2.55277155,0.37076335,0.34613\H,0,2.5315
 3643,0.5590879,-1.42578419\H,0,2.40648646,1.99180135,-0.3724126\H,0,0.

 Normal termination of Gaussian 16 at Wed Apr  9 03:27:38 2025.
