 Gaussian 16, Revision C.01,

 ----------------------------------------------------------------------
 #t hf aug-cc-pvdz symm=none int=(grid=ultrafine) guess=(read,tcheck) s
 table=(opt,rrhf)
 ----------------------------------------------------------------------
 -----
 title
 -----
 Symbolic Z-matrix:
 Charge =  0 Multiplicity = 1

 SCF Done:  E(RHF) =  -306.894727724     A.U. after   15 cycles

 1\1\GINC-SE165\Stability\RHF\Aug-CC-pVDZ\C4H10O2\OHZDE\09-Apr-2025\0\\
 #t hf aug-cc-pvdz symm=none int=(grid=ultrafine) guess=(read,tcheck) s
 table=(opt,rrhf)\\title\\0,1\C,0,2.47878505,-0.48275464,-0.43739655\O,
 0,1.58840092,0.51262371,0.04960049\C,0,0.29848632,0.37068777,-0.503734
 28\C,0,-0.80112291,0.55680489,0.38820868\C,0,-2.16823348,0.87193097,-0
 .14014499\O,0,-1.0443627,-1.39809922,0.57068535\H,0,2.10953355,-1.5025
 1494,-0.2196039\H,0,2.62858841,-0.40433874,-1.52962101\H,0,3.44166607,
 -0.32791715,0.06599247\H,0,-0.17375142,-0.91359611,-0.29451744\H,0,0.1

 Normal termination of Gaussian 16 at Wed Apr  9 03:07:45 2025.
 Gaussian 16:  ES64L-G16RevC.01  3-Jul-2019

 ----------------------------------------------------------------------
 #t hf aug-cc-pvdz iop(5/13=1,5/36=2,99/5=2) pseudo=read geom=check gue
 ss=(read,tcheck) scf=(maxcycle=1)
 ----------------------------------------------------------------------
 -----
 title
 -----
 Structure from the checkpoint file:  "Grambow2020_b97d3_006572_forward_mol1.chk"
 Charge =  0 Multiplicity = 1

                         Standard orientation:
 ---------------------------------------------------------------------
 Center     Atomic      Atomic             Coordinates (Angstroms)
 Number     Number       Type             X           Y           Z
 ---------------------------------------------------------------------
      1          6           0        2.497873    0.133486    0.191603
      2          8           0        1.443762   -0.562917   -0.460011
      3          6           0        0.253296   -0.527885    0.296142
      4          6           0       -0.956760   -0.311780   -0.430773
      5          6           0       -2.281212   -0.689757    0.161184
      6          8           0       -0.982617    1.597110    0.088440
      7          1           0        2.231196    1.189545    0.384772
      8          1           0        2.762916   -0.329951    1.159344
      9          1           0        3.370153    0.092990   -0.473231
     10          1           0       -0.082105    0.780051    0.601057
     11          1           0        0.222115   -1.204728    1.161292
     12          1           0       -0.903746   -0.145778   -1.507494
     13          1           0       -3.088777   -0.065560   -0.235036
     14          1           0       -2.260248   -0.576282    1.253318
     15          1           0       -2.500084   -1.744443   -0.068390
     16          1           0       -0.519764    2.106238   -0.612003
 ---------------------------------------------------------------------

 SCF Done:  E(RHF) =  -308.345323587     A.U. after    2 cycles

 The electronic state is 1-A.
 Alpha  occ. eigenvalues --  -21.04743 -21.01110 -11.52398 -11.41652 -11.40182
 Alpha  occ. eigenvalues --  -11.38900  -1.74780  -1.59139  -1.19707  -1.02618
 Alpha  occ. eigenvalues --   -0.93901  -0.81983  -0.67047  -0.64289  -0.61581
 Alpha  occ. eigenvalues --   -0.58513  -0.57565  -0.56301  -0.52120  -0.49117
 Alpha  occ. eigenvalues --   -0.44249  -0.39938  -0.33636  -0.32156  -0.22325
 Alpha virt. eigenvalues --    0.03783   0.05049   0.05152   0.05650   0.05969
 Alpha virt. eigenvalues --    0.06177   0.06531   0.07290   0.08893   0.09225
 Alpha virt. eigenvalues --    0.11053   0.12103   0.13138   0.13926   0.15038

 Mulliken charges:
               1
     1  C   -2.890330
     2  O   -3.293005
     3  C    0.264772
     4  C   -1.835962
     5  C   -3.827868
     6  O   -1.622006
     7  H    1.278394
     8  H    1.325338
     9  H    1.241377
    10  H    1.896198
    11  H    1.433934
    12  H    1.512231
    13  H    1.236750
    14  H    1.232236
    15  H    1.228761
    16  H    0.819181
 Sum of Mulliken charges =   0.00000

 Dipole moment (field-independent basis, Debye):
    X=             -1.0557    Y=             -0.7077    Z=             -0.6537  Tot=              1.4292

 Test job not archived.
 1\1\GINC-SE165\SP\RHF\Aug-CC-pVDZ\C4H10O2\OHZDE\09-Apr-2025\0\\#t hf a
 ug-cc-pvdz iop(5/13=1,5/36=2,99/5=2) pseudo=read geom=check guess=(rea
 d,tcheck) scf=(maxcycle=1)\\title\\0,1\C,0,2.47878505,-0.48275464,-0.4
 3739655\O,0,1.58840092,0.51262371,0.04960049\C,0,0.29848632,0.37068777
 ,-0.50373428\C,0,-0.80112291,0.55680489,0.38820868\C,0,-2.16823348,0.8
 7193097,-0.14014499\O,0,-1.0443627,-1.39809922,0.57068535\H,0,2.109533
 55,-1.50251494,-0.2196039\H,0,2.62858841,-0.40433874,-1.52962101\H,0,3
 .44166607,-0.32791715,0.06599247\H,0,-0.17375142,-0.91359611,-0.294517

 Normal termination of Gaussian 16 at Wed Apr  9 03:07:51 2025.
