 Gaussian 16, Revision C.01,

 ----------------------------------------------------------------------
 #t hf aug-cc-pvdz symm=none int=(grid=ultrafine) guess=(read,tcheck) s
 table=(opt,rrhf)
 ----------------------------------------------------------------------
 -----
 title
 -----
 Symbolic Z-matrix:
 Charge =  0 Multiplicity = 1

 SCF Done:  E(RHF) =  -301.599517191     A.U. after   16 cycles
 Normal termination of Gaussian 16 at Wed Apr  9 19:23:03 2025.
 Gaussian 16:  ES64L-G16RevC.01  3-Jul-2019

 ----------------------------------------------------------------------
 #t hf aug-cc-pvdz iop(5/13=1,5/36=2,99/5=2) pseudo=read geom=check gue
 ss=(read,tcheck) scf=(maxcycle=1)
 ----------------------------------------------------------------------
 -----
 title
 -----
 Structure from the checkpoint file:  "Grambow2020_wb97xd3_008867_reverse_mol2.chk"
 Charge =  0 Multiplicity = 1

                         Standard orientation:
 ---------------------------------------------------------------------
 Center     Atomic      Atomic             Coordinates (Angstroms)
 Number     Number       Type             X           Y           Z
 ---------------------------------------------------------------------
      1          7           0       -2.309129    1.104767    0.415550
      2          6           0       -1.717264    0.230041   -0.030046
      3          6           0        0.886599   -0.537099    1.165794
      4          6           0        0.450195   -1.010459   -0.155579
      5          6           0       -0.984746   -0.873343   -0.643433
      6          6           0        1.894195    1.085208   -0.533893
      7          7           0        1.249346    0.169698    0.107820
      8          1           0        1.507497   -0.915053    1.960815
      9          1           0        0.999508   -1.774527   -0.714089
     10          1           0       -1.012471   -0.741793   -1.728450
     11          1           0       -1.511843   -1.804533   -0.421716
     12          1           0        1.705867    1.207310   -1.588852
     13          1           0        2.556047    1.741261    0.011650
 ---------------------------------------------------------------------

 SCF Done:  E(RHF) =  -303.016120707     A.U. after    2 cycles

 The electronic state is 1-A.
 Alpha  occ. eigenvalues --  -15.85538 -15.75010 -11.50492 -11.45341 -11.43399
 Alpha  occ. eigenvalues --  -11.42128 -11.39345  -1.56255  -1.31164  -1.17834
 Alpha  occ. eigenvalues --   -1.09843  -0.88840  -0.80481  -0.73685  -0.67347
 Alpha  occ. eigenvalues --   -0.65910  -0.64839  -0.63652  -0.52024  -0.49433
 Alpha  occ. eigenvalues --   -0.48214  -0.45317  -0.42423  -0.42260  -0.26948
 Alpha virt. eigenvalues --    0.02834   0.04881   0.05233   0.05418   0.05505
 Alpha virt. eigenvalues --    0.06280   0.09038   0.09410   0.10622   0.10995
 Alpha virt. eigenvalues --    0.11769   0.12575   0.13150   0.13629   0.14891

 Mulliken charges:
               1
     1  N   -2.417248
     2  C    2.281289
     3  C   -1.085017
     4  C    0.325430
     5  C   -3.419474
     6  C   -1.712468
     7  N   -2.372011
     8  H    1.296071
     9  H    1.342934
    10  H    1.382265
    11  H    1.430982
    12  H    1.558950
    13  H    1.388299
 Sum of Mulliken charges =   0.00000

 Dipole moment (field-independent basis, Debye):
    X=              3.0927    Y=             -2.3978    Z=             -2.1167  Tot=              4.4491

 Test job not archived.
 1\1\GINC-SE116\SP\RHF\Aug-CC-pVDZ\C5H6N2\OHZDE\09-Apr-2025\0\\#t hf au
 g-cc-pvdz iop(5/13=1,5/36=2,99/5=2) pseudo=read geom=check guess=(read
 ,tcheck) scf=(maxcycle=1)\\title\\0,1\N,0,1.46532507,-0.76996447,2.446
 31426\C,0,0.9002385,-1.07456906,1.49663165\C,0,1.02625609,0.66316136,-
 0.90400413\C,0,0.03408871,-0.41080359,-0.75318518\C,0,0.1461439,-1.486
 93167,0.31697817\C,0,-1.06942251,1.76750088,0.05757389\N,0,-0.14652222
 ,0.97764399,-0.37850585\H,0,1.53926486,1.13800906,-1.72361559\H,0,-0.6
 2699697,-0.71554015,-1.57024124\H,0,-0.8456406,-1.81341087,0.64118388\

 Normal termination of Gaussian 16 at Wed Apr  9 19:23:07 2025.
