 Gaussian 16, Revision C.01,

 ----------------------------------------------------------------------
 #t hf aug-cc-pvdz symm=none int=(grid=ultrafine) guess=(read,tcheck) s
 table=(opt,rrhf)
 ----------------------------------------------------------------------
 -----
 title
 -----
 Symbolic Z-matrix:
 Charge =  0 Multiplicity = 1

 SCF Done:  E(RHF) =  -304.558879505     A.U. after   16 cycles
 Normal termination of Gaussian 16 at Wed Apr  9 03:16:23 2025.
 Gaussian 16:  ES64L-G16RevC.01  3-Jul-2019

 ----------------------------------------------------------------------
 #t hf aug-cc-pvdz iop(5/13=1,5/36=2,99/5=2) pseudo=read geom=check gue
 ss=(read,tcheck) scf=(maxcycle=1)
 ----------------------------------------------------------------------
 -----
 title
 -----
 Structure from the checkpoint file:  "Grambow2020_b97d3_007027_reverse_mol2.chk"
 Charge =  0 Multiplicity = 1

                         Standard orientation:
 ---------------------------------------------------------------------
 Center     Atomic      Atomic             Coordinates (Angstroms)
 Number     Number       Type             X           Y           Z
 ---------------------------------------------------------------------
      1          8           0       -1.522276   -1.383450    0.133031
      2          6           0       -1.163475    0.490716   -0.688613
      3          6           0       -0.799071    1.316540    0.494392
      4          6           0        0.318647    0.763840   -0.370670
      5          6           0        1.212746   -0.218080    0.288676
      6          8           0        2.343896   -0.496799   -0.078196
      7          1           0       -2.454278   -1.192499   -0.093847
      8          1           0       -1.179281   -1.803158   -0.682073
      9          1           0       -1.075329    2.373618    0.453027
     10          1           0       -0.837749    0.886243    1.499554
     11          1           0        0.808786    1.360656   -1.143002
     12          1           0        0.751813   -0.700969    1.184947
 ---------------------------------------------------------------------

 SCF Done:  E(RHF) =  -305.909474020     A.U. after    2 cycles

 The electronic state is 1-A.
 Alpha  occ. eigenvalues --  -21.14257 -21.05780 -11.49134 -11.44636 -11.43137
 Alpha  occ. eigenvalues --  -11.39067  -1.72221  -1.69536  -1.30788  -0.95817
 Alpha  occ. eigenvalues --   -0.83941  -0.76280  -0.67553  -0.64297  -0.60270
 Alpha  occ. eigenvalues --   -0.55448  -0.52378  -0.50747  -0.47518  -0.42064
 Alpha  occ. eigenvalues --   -0.38331  -0.31605  -0.28997
 Alpha virt. eigenvalues --    0.03540   0.04996   0.05579   0.05975   0.06222
 Alpha virt. eigenvalues --    0.06978   0.08186   0.11196   0.11358   0.11900
 Alpha virt. eigenvalues --    0.13589   0.14057   0.15290   0.15361   0.15782

 Mulliken charges:
               1
     1  O   -1.753651
     2  C   -0.392042
     3  C   -2.386925
     4  C   -0.919634
     5  C    1.007657
     6  O   -2.843242
     7  H    0.921113
     8  H    0.936570
     9  H    1.263582
    10  H    1.498290
    11  H    1.218890
    12  H    1.449392
 Sum of Mulliken charges =   0.00000

 Dipole moment (field-independent basis, Debye):
    X=             -1.8227    Y=             -0.8133    Z=              1.2630  Tot=              2.3620

 Test job not archived.
 1\1\GINC-SE177\SP\RHF\Aug-CC-pVDZ\C4H6O2\OHZDE\09-Apr-2025\0\\#t hf au
 g-cc-pvdz iop(5/13=1,5/36=2,99/5=2) pseudo=read geom=check guess=(read
 ,tcheck) scf=(maxcycle=1)\\title\\0,1\O,0,-1.74035837,0.73341342,0.449
 91093\C,0,-0.71054982,-0.62436634,-0.73847676\C,0,0.41626351,0.1832153
 9,-1.27919744\C,0,0.68157803,-0.71599222,-0.08582532\C,0,1.04789731,-0
 .02026907,1.17119351\O,0,1.63988905,-0.52947396,2.11036159\H,0,-2.4257
 0084,0.6669721,-0.24467914\H,0,-1.97936045,0.00982762,1.06431783\H,0,0
 .77080408,-0.08465087,-2.27819279\H,0,0.48542898,1.25182551,-1.0549441

 Normal termination of Gaussian 16 at Wed Apr  9 03:16:27 2025.
