 Gaussian 16, Revision C.01,

 ----------------------------------------------------------------------
 #t hf aug-cc-pvdz symm=none int=(grid=ultrafine) guess=(read,tcheck) s
 table=(opt,rrhf)
 ----------------------------------------------------------------------
 -----
 title
 -----
 Symbolic Z-matrix:
 Charge =  0 Multiplicity = 1

 SCF Done:  E(RHF) =  -358.464227339     A.U. after   15 cycles
 Normal termination of Gaussian 16 at Wed Apr  9 18:14:59 2025.
 Gaussian 16:  ES64L-G16RevC.01  3-Jul-2019

 ----------------------------------------------------------------------
 #t hf aug-cc-pvdz iop(5/13=1,5/36=2,99/5=2) pseudo=read geom=check gue
 ss=(read,tcheck) scf=(maxcycle=1)
 ----------------------------------------------------------------------
 -----
 title
 -----
 Structure from the checkpoint file:  "Grambow2020_wb97xd3_006804_reverse_mol2.chk"
 Charge =  0 Multiplicity = 1

                         Standard orientation:
 ---------------------------------------------------------------------
 Center     Atomic      Atomic             Coordinates (Angstroms)
 Number     Number       Type             X           Y           Z
 ---------------------------------------------------------------------
      1          8           0        2.791945   -0.680222    0.238421
      2          6           0        1.842808   -0.234566   -0.337329
      3          6           0        0.639816    0.308821    0.374078
      4          6           0        0.053413    1.540436   -0.195230
      5          7           0       -0.631196    0.140880   -0.377258
      6          6           0       -1.799418   -0.189235    0.359829
      7          8           0       -2.726615   -0.742419   -0.137471
      8          1           0        1.812740   -0.129377   -1.441793
      9          1           0        0.570344   -0.007728    1.415128
     10          1           0       -0.615448   -0.242058   -1.315465
     11          1           0       -0.545803    2.050523    0.568143
     12          1           0       -1.745813    0.170872    1.399108
 ---------------------------------------------------------------------

 SCF Done:  E(RHF) =  -360.019299476     A.U. after    2 cycles

 The electronic state is 1-A.
 Alpha  occ. eigenvalues --  -21.11114 -21.08873 -15.85716 -11.54380 -11.51948
 Alpha  occ. eigenvalues --  -11.47317 -11.38996  -1.77997  -1.73815  -1.54111
 Alpha  occ. eigenvalues --   -1.11947  -0.95308  -0.93955  -0.83287  -0.72881
 Alpha  occ. eigenvalues --   -0.69297  -0.63701  -0.60075  -0.56875  -0.54690
 Alpha  occ. eigenvalues --   -0.52536  -0.44499  -0.43284  -0.35577  -0.33716
 Alpha  occ. eigenvalues --   -0.31102
 Alpha virt. eigenvalues --    0.03455   0.04851   0.05602   0.06145   0.06610
 Alpha virt. eigenvalues --    0.09005   0.09693   0.10673   0.11477   0.11944
 Alpha virt. eigenvalues --    0.12514   0.12862   0.13421   0.14244   0.14515

 Mulliken charges:
               1
     1  O   -2.833560
     2  C    1.741134
     3  C   -0.667919
     4  C   -1.802156
     5  N   -1.955844
     6  C    2.056964
     7  O   -2.782463
     8  H    1.491313
     9  H    1.357271
    10  H    0.622564
    11  H    1.214005
    12  H    1.558691
 Sum of Mulliken charges =  -0.00000

 Dipole moment (field-independent basis, Debye):
    X=             -1.5308    Y=             -1.9161    Z=              0.9369  Tot=              2.6254

 Test job not archived.
 1\1\GINC-SE226\SP\RHF\Aug-CC-pVDZ\C4H5N1O2\OHZDE\09-Apr-2025\0\\#t hf
 aug-cc-pvdz iop(5/13=1,5/36=2,99/5=2) pseudo=read geom=check guess=(re
 ad,tcheck) scf=(maxcycle=1)\\title\\0,1\O,0,2.90120105,-0.32427235,-0.
 4346765\C,0,1.80788289,0.06203475,-0.72858112\C,0,0.68934235,0.1737089
 ,0.26386833\C,0,-0.16501179,1.37384131,0.14297333\N,0,-0.65939722,-0.0
 4035432,-0.32201563\C,0,-1.61178989,-0.75829105,0.44904086\O,0,-2.5234
 5006,-1.33619221,-0.0488756\H,0,1.56091254,0.43029451,-1.74602945\H,0,
 0.85881161,-0.39847866,1.17639046\H,0,-0.76003698,-0.16838181,-1.32231

 Normal termination of Gaussian 16 at Wed Apr  9 18:15:03 2025.
