 Gaussian 16, Revision C.01,

 ----------------------------------------------------------------------
 #t hf aug-cc-pvdz symm=none int=(grid=ultrafine) guess=(read,tcheck) s
 table=(opt,rrhf)
 ----------------------------------------------------------------------
 -----
 title
 -----
 Symbolic Z-matrix:
 Charge =  0 Multiplicity = 1

 SCF Done:  E(RHF) =  -232.815036901     A.U. after   18 cycles
 Normal termination of Gaussian 16 at Wed Apr  9 03:15:16 2025.
 Gaussian 16:  ES64L-G16RevC.01  3-Jul-2019

 ----------------------------------------------------------------------
 #t hf aug-cc-pvdz iop(5/13=1,5/36=2,99/5=2) pseudo=read geom=check gue
 ss=(read,tcheck) scf=(maxcycle=1)
 ----------------------------------------------------------------------
 -----
 title
 -----
 Structure from the checkpoint file:  "Grambow2020_b97d3_006952_forward_mol1.chk"
 Charge =  0 Multiplicity = 1

                         Standard orientation:
 ---------------------------------------------------------------------
 Center     Atomic      Atomic             Coordinates (Angstroms)
 Number     Number       Type             X           Y           Z
 ---------------------------------------------------------------------
      1          6           0       -2.105447    0.310723    0.282068
      2          6           0       -0.782232   -0.005002   -0.430649
      3          6           0       -0.034502   -1.279858    0.098512
      4          6           0        1.410511   -0.860966    0.059561
      5          6           0        1.509962    0.522413   -0.022727
      6          6           0        0.259706    1.069582   -0.241611
      7          1           0       -2.579074    1.208949   -0.137195
      8          1           0       -1.935953    0.478256    1.354996
      9          1           0       -2.806764   -0.528400    0.173373
     10          1           0       -0.991741   -0.152523   -1.507017
     11          1           0       -0.390723   -1.525012    1.117470
     12          1           0       -0.210806   -2.177310   -0.514227
     13          1           0        2.241421   -1.563768    0.013969
     14          1           0        2.371800    1.254244    0.276439
     15          1           0        2.719804    2.329529    0.937489
     16          1           0        0.034050    2.134687   -0.186223
 ---------------------------------------------------------------------

 SCF Done:  E(RHF) =  -233.988512831     A.U. after    2 cycles

 The electronic state is 1-A.
 Alpha  occ. eigenvalues --  -11.51767 -11.51230 -11.47082 -11.43711 -11.41426
 Alpha  occ. eigenvalues --  -11.39404  -1.39528  -1.14466  -1.07259  -0.97793
 Alpha  occ. eigenvalues --   -0.84520  -0.79465  -0.73072  -0.66763  -0.60210
 Alpha  occ. eigenvalues --   -0.59430  -0.55668  -0.53875  -0.51999  -0.48923
 Alpha  occ. eigenvalues --   -0.47341  -0.40690  -0.22277
 Alpha virt. eigenvalues --   -0.00629   0.02614   0.03970   0.04226   0.04421
 Alpha virt. eigenvalues --    0.05131   0.05560   0.06111   0.07378   0.08914
 Alpha virt. eigenvalues --    0.09959   0.11097   0.11456   0.12335   0.12654

 Mulliken charges:
               1
     1  C   -3.937535
     2  C   -1.978999
     3  C   -3.716972
     4  C   -1.413257
     5  C    0.781505
     6  C   -1.665586
     7  H    1.193012
     8  H    1.345064
     9  H    1.227967
    10  H    1.530920
    11  H    1.441665
    12  H    1.240401
    13  H    1.360146
    14  H    1.456218
    15  H   -0.428204
    16  H    1.563652
 Sum of Mulliken charges =  -0.00000

 Dipole moment (field-independent basis, Debye):
    X=             -6.6257    Y=             -6.7089    Z=             -2.9671  Tot=              9.8850

 Test job not archived.
 1\1\GINC-SE074\SP\RHF\Aug-CC-pVDZ\C6H10\OHZDE\09-Apr-2025\0\\#t hf aug
 -cc-pvdz iop(5/13=1,5/36=2,99/5=2) pseudo=read geom=check guess=(read,
 tcheck) scf=(maxcycle=1)\\title\\0,1\C,0,2.02402769,-0.31057096,-0.035
 33705\C,0,0.57283937,-0.47883487,0.4382484\C,0,-0.39060785,-1.14395203
 ,-0.60758207\C,0,-1.66746333,-0.36785646,-0.42768055\C,0,-1.4176147,0.
 82418784,0.24090438\C,0,-0.11589862,0.83658569,0.70547446\H,0,2.645110
 8,0.1550534,0.74207273\H,0,2.06626324,0.31957974,-0.93483432\H,0,2.460
 48797,-1.28857676,-0.2819017\H,0,0.57344529,-1.10498292,1.350478\H,0,0

 Normal termination of Gaussian 16 at Wed Apr  9 03:15:20 2025.
