 Gaussian 16, Revision C.01,

 ----------------------------------------------------------------------
 #t hf aug-cc-pvdz symm=none int=(grid=ultrafine) guess=(read,tcheck) s
 table=(opt,rrhf)
 ----------------------------------------------------------------------
 -----
 title
 -----
 Symbolic Z-matrix:
 Charge =  0 Multiplicity = 1

 SCF Done:  E(RHF) =  -269.857123187     A.U. after   17 cycles

 1\1\GINC-SE454\Stability\RHF\Aug-CC-pVDZ\C5H10O1\OHZDE\09-Apr-2025\0\\
 #t hf aug-cc-pvdz symm=none int=(grid=ultrafine) guess=(read,tcheck) s
 table=(opt,rrhf)\\title\\0,1\C,0,-2.1486475,0.33692932,-0.29632382\C,0
 ,-0.85835561,-0.32262619,0.0927096\C,0,0.17336359,0.43310807,0.8725556
 4\C,0,1.48397448,-0.32523226,0.70022331\C,0,1.84187136,-0.45070634,-0.
 74459333\O,0,1.38104166,0.27737121,-1.7843667\H,0,-2.69748989,-0.25114
 733,-1.04835899\H,0,-2.84582818,0.46845948,0.56154982\H,0,-1.98843633,
 1.34835317,-0.70873796\H,0,-0.91846709,-1.38989969,0.32990772\H,0,0.43

 Normal termination of Gaussian 16 at Wed Apr  9 16:01:00 2025.
 Gaussian 16:  ES64L-G16RevC.01  3-Jul-2019

 ----------------------------------------------------------------------
 #t hf aug-cc-pvdz iop(5/13=1,5/36=2,99/5=2) pseudo=read geom=check gue
 ss=(read,tcheck) scf=(maxcycle=1)
 ----------------------------------------------------------------------
 -----
 title
 -----
 Structure from the checkpoint file:  "Grambow2020_b97d3_006648_forward_mol1.chk"
 Charge =  0 Multiplicity = 1

                         Standard orientation:
 ---------------------------------------------------------------------
 Center     Atomic      Atomic             Coordinates (Angstroms)
 Number     Number       Type             X           Y           Z
 ---------------------------------------------------------------------
      1          6           0       -2.385613   -0.498717    0.020228
      2          6           0       -1.106425    0.152328    0.457301
      3          6           0       -0.309842    0.978537   -0.505286
      4          6           0        1.091302    1.093335    0.083012
      5          6           0        1.689525   -0.257433    0.304113
      6          8           0        1.319934   -1.433709   -0.246676
      7          1           0       -2.733191   -1.246854    0.749680
      8          1           0       -3.222456    0.225211   -0.101960
      9          1           0       -2.280992   -1.001932   -0.956788
     10          1           0       -1.078166    0.504961    1.493545
     11          1           0        0.335771   -1.373005   -0.308972
     12          1           0       -0.278442    0.507466   -1.503789
     13          1           0       -0.703922    2.004407   -0.680925
     14          1           0        0.990456    1.601720    1.059376
     15          1           0        1.786983    1.736819   -0.502964
     16          1           0        2.750798   -0.297421    0.569992
 ---------------------------------------------------------------------

 SCF Done:  E(RHF) =  -271.158055308     A.U. after    2 cycles

 The electronic state is 1-A.
 Alpha  occ. eigenvalues --  -21.14860 -11.54604 -11.44094 -11.38552 -11.36034
 Alpha  occ. eigenvalues --  -11.30837  -1.79020  -1.24555  -1.08560  -0.97386
 Alpha  occ. eigenvalues --   -0.85794  -0.77373  -0.69962  -0.63472  -0.61721
 Alpha  occ. eigenvalues --   -0.55948  -0.53290  -0.52121  -0.49812  -0.48736
 Alpha  occ. eigenvalues --   -0.44041  -0.43881  -0.41447  -0.18332
 Alpha virt. eigenvalues --    0.03440   0.04325   0.04729   0.05499   0.05814
 Alpha virt. eigenvalues --    0.06134   0.06442   0.06943   0.07312   0.08503
 Alpha virt. eigenvalues --    0.09395   0.11261   0.12157   0.12913   0.13844

 Mulliken charges:
               1
     1  C   -4.157430
     2  C   -0.956559
     3  C   -2.870338
     4  C   -2.800088
     5  C    0.402943
     6  O   -2.876973
     7  H    1.194304
     8  H    1.236700
     9  H    1.263964
    10  H    1.301838
    11  H    1.285228
    12  H    1.376561
    13  H    1.188039
    14  H    1.569598
    15  H    1.282420
    16  H    1.559793
 Sum of Mulliken charges =   0.00000

 Dipole moment (field-independent basis, Debye):
    X=              4.2549    Y=             -0.5400    Z=             -0.7884  Tot=              4.3609

 Test job not archived.
 1\1\GINC-SE454\SP\RHF\Aug-CC-pVDZ\C5H10O1\OHZDE\09-Apr-2025\0\\#t hf a
 ug-cc-pvdz iop(5/13=1,5/36=2,99/5=2) pseudo=read geom=check guess=(rea
 d,tcheck) scf=(maxcycle=1)\\title\\0,1\C,0,-2.1486475,0.33692932,-0.29
 632382\C,0,-0.85835561,-0.32262619,0.0927096\C,0,0.17336359,0.43310807
 ,0.87255564\C,0,1.48397448,-0.32523226,0.70022331\C,0,1.84187136,-0.45
 070634,-0.74459333\O,0,1.38104166,0.27737121,-1.7843667\H,0,-2.6974898
 9,-0.25114733,-1.04835899\H,0,-2.84582818,0.46845948,0.56154982\H,0,-1
 .98843633,1.34835317,-0.70873796\H,0,-0.91846709,-1.38989969,0.3299077

 Normal termination of Gaussian 16 at Wed Apr  9 16:01:05 2025.
