 Gaussian 16, Revision C.01,

 ----------------------------------------------------------------------
 #t hf aug-cc-pvdz symm=none int=(grid=ultrafine) guess=(read,tcheck) s
 table=(opt,rrhf)
 ----------------------------------------------------------------------
 -----
 title
 -----
 Symbolic Z-matrix:
 Charge =  0 Multiplicity = 1

 SCF Done:  E(RHF) =  -354.620291832     A.U. after   17 cycles
 Normal termination of Gaussian 16 at Wed Apr  9 18:54:31 2025.
 Gaussian 16:  ES64L-G16RevC.01  3-Jul-2019

 ----------------------------------------------------------------------
 #t hf aug-cc-pvdz iop(5/13=1,5/36=2,99/5=2) pseudo=read geom=check gue
 ss=(read,tcheck) scf=(maxcycle=1)
 ----------------------------------------------------------------------
 -----
 title
 -----
 Structure from the checkpoint file:  "Grambow2020_wb97xd3_007775_forward_mol1.chk"
 Charge =  0 Multiplicity = 1

                         Standard orientation:
 ---------------------------------------------------------------------
 Center     Atomic      Atomic             Coordinates (Angstroms)
 Number     Number       Type             X           Y           Z
 ---------------------------------------------------------------------
      1          6           0        2.450028   -0.397005   -0.041207
      2          6           0        0.993231   -0.094560   -0.048709
      3          7           0        0.555059    1.196310   -0.063384
      4          7           0       -0.715060    1.117745    0.025159
      5          6           0       -1.214400   -0.272698    0.115680
      6          8           0       -2.349136   -0.614847   -0.195547
      7          7           0        0.039580   -0.990432    0.057488
      8          1           0        2.816890   -0.491173    0.982577
      9          1           0        2.997414    0.408101   -0.529468
     10          1           0        2.639012   -1.334966   -0.559139
     11          1           0       -1.283509    1.952154    0.086303
     12          1           0       -0.906926   -0.295119    1.294677
 ---------------------------------------------------------------------

 SCF Done:  E(RHF) =  -356.203068372     A.U. after    2 cycles

 The electronic state is 1-A.
 Alpha  occ. eigenvalues --  -20.98684 -15.88578 -15.84965 -15.79983 -11.51915
 Alpha  occ. eigenvalues --  -11.47736 -11.40484  -1.74038  -1.63215  -1.37757
 Alpha  occ. eigenvalues --   -1.22068  -1.08088  -0.91215  -0.83855  -0.75875
 Alpha  occ. eigenvalues --   -0.71521  -0.61164  -0.59132  -0.56809  -0.53004
 Alpha  occ. eigenvalues --   -0.52599  -0.47839  -0.44298  -0.41514  -0.28093
 Alpha  occ. eigenvalues --   -0.25762
 Alpha virt. eigenvalues --    0.02437   0.03950   0.04269   0.05760   0.06168
 Alpha virt. eigenvalues --    0.06688   0.09221   0.10597   0.11808   0.12511
 Alpha virt. eigenvalues --    0.13131   0.13874   0.14381   0.14917   0.15081

 Mulliken charges:
               1
     1  C   -4.656443
     2  C    4.453599
     3  N   -2.006683
     4  N   -1.199199
     5  C    3.872877
     6  O   -3.249399
     7  N   -2.841471
     8  H    1.178841
     9  H    1.290317
    10  H    1.220307
    11  H    0.870598
    12  H    1.066658
 Sum of Mulliken charges =  -0.00000

 Dipole moment (field-independent basis, Debye):
    X=              3.1018    Y=              2.9984    Z=              0.4724  Tot=              4.3399

 Test job not archived.
 1\1\GINC-SE113\SP\RHF\Aug-CC-pVDZ\C3H5N3O1\OHZDE\09-Apr-2025\0\\#t hf
 aug-cc-pvdz iop(5/13=1,5/36=2,99/5=2) pseudo=read geom=check guess=(re
 ad,tcheck) scf=(maxcycle=1)\\title\\0,1\C,0,1.97886547,-0.1598871,0.12
 539102\C,0,0.49657983,-0.03173479,0.13919405\N,0,-0.29050688,-1.128041
 97,0.33196325\N,0,-1.48706658,-0.70618703,0.19968253\C,0,-1.57154085,0
 .73933955,-0.10721075\O,0,-2.556543,1.43174561,0.12060017\N,0,-0.16436
 079,1.07191779,-0.12238701\H,0,2.3399308,-0.32664822,-0.89117797\H,0,2
 .28271141,-1.00556608,0.74080162\H,0,2.4357139,0.751825,0.50461434\H,0

 Normal termination of Gaussian 16 at Wed Apr  9 18:54:35 2025.
