 Gaussian 16, Revision C.01,

 ----------------------------------------------------------------------
 #t hf aug-cc-pvdz symm=none int=(grid=ultrafine) guess=(read,tcheck) s
 table=(opt,rrhf)
 ----------------------------------------------------------------------
 -----
 title
 -----
 Symbolic Z-matrix:
 Charge =  0 Multiplicity = 1

 SCF Done:  E(RHF) =  -284.688248891     A.U. after   16 cycles
 Normal termination of Gaussian 16 at Wed Apr  9 17:39:27 2025.
 Gaussian 16:  ES64L-G16RevC.01  3-Jul-2019

 ----------------------------------------------------------------------
 #t hf aug-cc-pvdz iop(5/13=1,5/36=2,99/5=2) pseudo=read geom=check gue
 ss=(read,tcheck) scf=(maxcycle=1)
 ----------------------------------------------------------------------
 -----
 title
 -----
 Structure from the checkpoint file:  "Grambow2020_b97d3_007212_forward_mol1.chk"
 Charge =  0 Multiplicity = 1

                         Standard orientation:
 ---------------------------------------------------------------------
 Center     Atomic      Atomic             Coordinates (Angstroms)
 Number     Number       Type             X           Y           Z
 ---------------------------------------------------------------------
      1          6           0       -1.298385    1.335083   -0.026455
      2          6           0       -1.545042   -0.144492    0.019703
      3          8           0       -0.654988   -1.065046   -0.365527
      4          6           0        0.624149   -1.091395    0.093445
      5          6           0        1.503728    0.019710   -0.013178
      6          7           0        2.276059    0.907465   -0.061701
      7          1           0       -1.261056    1.684906   -1.072840
      8          1           0       -2.137252    1.843503    0.466358
      9          1           0       -0.367354    1.633558    0.462619
     10          1           0       -2.551922   -0.495388   -0.214672
     11          1           0       -0.967953   -0.425381    1.630801
     12          1           0        1.059840   -2.077945   -0.046415
     13          1           0       -0.173514   -0.708576    1.689179
 ---------------------------------------------------------------------

 SCF Done:  E(RHF) =  -286.033184043     A.U. after    2 cycles

 The electronic state is 1-A.
 Alpha  occ. eigenvalues --  -21.16368 -15.75384 -11.51290 -11.47061 -11.42522
 Alpha  occ. eigenvalues --  -11.41265  -1.86596  -1.29258  -1.16439  -1.04561
 Alpha  occ. eigenvalues --   -0.87147  -0.75153  -0.72927  -0.63712  -0.63002
 Alpha  occ. eigenvalues --   -0.58704  -0.55970  -0.52237  -0.48238  -0.46378
 Alpha  occ. eigenvalues --   -0.42877  -0.40022  -0.29998
 Alpha virt. eigenvalues --    0.03088   0.04512   0.05333   0.05518   0.06607
 Alpha virt. eigenvalues --    0.06982   0.08102   0.09003   0.09388   0.11318
 Alpha virt. eigenvalues --    0.12000   0.12659   0.13584   0.14343   0.14973

 Mulliken charges:
               1
     1  C   -3.709101
     2  C    0.109838
     3  O   -3.196791
     4  C    0.095190
     5  C    1.821731
     6  N   -2.342617
     7  H    1.280952
     8  H    1.198022
     9  H    1.419168
    10  H    1.597437
    11  H   -0.222280
    12  H    1.492469
    13  H    0.455982
 Sum of Mulliken charges =   0.00000

 Dipole moment (field-independent basis, Debye):
    X=             -3.7889    Y=             -1.2619    Z=             -0.7669  Tot=              4.0664

 Test job not archived.
 1\1\GINC-SE030\SP\RHF\Aug-CC-pVDZ\C4H7N1O1\OHZDE\09-Apr-2025\0\\#t hf
 aug-cc-pvdz iop(5/13=1,5/36=2,99/5=2) pseudo=read geom=check guess=(re
 ad,tcheck) scf=(maxcycle=1)\\title\\0,1\C,0,-1.30516877,-0.7472201,-0.
 1929\C,0,-0.92301317,0.70201658,-0.26893478\O,0,0.1744746,1.21822785,0
 .29415208\C,0,1.41684299,0.70399097,0.09510255\C,0,1.73937476,-0.65468
 475,0.3588345\N,0,2.06621477,-1.77031995,0.54723024\H,0,-1.60500599,-1
 .0109851,0.83628264\H,0,-2.17123217,-0.91373144,-0.84655267\H,0,-0.500
 07584,-1.42289758,-0.4935414\H,0,-1.72816224,1.43839866,-0.23227693\H,

 Normal termination of Gaussian 16 at Wed Apr  9 17:39:31 2025.
