 Gaussian 16, Revision C.01,

 ----------------------------------------------------------------------
 #t hf aug-cc-pvdz symm=none int=(grid=ultrafine) guess=(read,tcheck) s
 table=(opt,rrhf)
 ----------------------------------------------------------------------
 -----
 title
 -----
 Symbolic Z-matrix:
 Charge =  0 Multiplicity = 1

 SCF Done:  E(RHF) =  -302.809949267     A.U. after   16 cycles
 Normal termination of Gaussian 16 at Wed Apr  9 18:24:26 2025.
 Gaussian 16:  ES64L-G16RevC.01  3-Jul-2019

 ----------------------------------------------------------------------
 #t hf aug-cc-pvdz iop(5/13=1,5/36=2,99/5=2) pseudo=read geom=check gue
 ss=(read,tcheck) scf=(maxcycle=1)
 ----------------------------------------------------------------------
 -----
 title
 -----
 Structure from the checkpoint file:  "Grambow2020_wb97xd3_006964_reverse_mol1.chk"
 Charge =  0 Multiplicity = 1

                         Standard orientation:
 ---------------------------------------------------------------------
 Center     Atomic      Atomic             Coordinates (Angstroms)
 Number     Number       Type             X           Y           Z
 ---------------------------------------------------------------------
      1          6           0        1.174700    1.450282    0.350199
      2          6           0        0.936068    0.001438    0.131951
      3          6           0        1.502649   -0.637205   -1.090389
      4          7           0        0.293707   -0.714144    1.068296
      5          6           0       -0.852805   -1.054829    0.322637
      6          6           0       -1.670000   -0.025479   -0.174677
      7          7           0       -2.323772    0.848143   -0.565576
      8          1           0        2.048965    1.814341   -0.188018
      9          1           0        1.260130    1.681667    1.414877
     10          1           0        0.294166    1.989161   -0.025654
     11          1           0        2.580885   -0.439540   -1.122587
     12          1           0        1.321121   -1.709130   -1.096193
     13          1           0        1.073428   -0.205490   -1.997560
     14          1           0        0.243775   -0.386892    2.025548
     15          1           0       -1.155674   -2.087349    0.232223
 ---------------------------------------------------------------------

 SCF Done:  E(RHF) =  -304.265223298     A.U. after    2 cycles

 The electronic state is 1-A.
 Alpha  occ. eigenvalues --  -15.79989 -15.70384 -11.52378 -11.43479 -11.41610
 Alpha  occ. eigenvalues --  -11.40663 -11.38466  -1.50085  -1.26076  -1.18385
 Alpha  occ. eigenvalues --   -1.06897  -0.98900  -0.84332  -0.72222  -0.68377
 Alpha  occ. eigenvalues --   -0.65844  -0.62049  -0.59438  -0.57657  -0.54343
 Alpha  occ. eigenvalues --   -0.52906  -0.48344  -0.45872  -0.40163  -0.39301
 Alpha  occ. eigenvalues --   -0.25815
 Alpha virt. eigenvalues --    0.02523   0.04622   0.04825   0.05325   0.05485
 Alpha virt. eigenvalues --    0.06226   0.07310   0.07787   0.08287   0.09927
 Alpha virt. eigenvalues --    0.11059   0.12304   0.12921   0.13341   0.13685

 Mulliken charges:
               1
     1  C   -3.914641
     2  C    3.087239
     3  C   -4.008351
     4  N   -3.644597
     5  C   -1.124602
     6  C    2.109884
     7  N   -2.493865
     8  H    1.381580
     9  H    1.232378
    10  H    1.354863
    11  H    1.188810
    12  H    1.387318
    13  H    1.402012
    14  H    0.623208
    15  H    1.418765
 Sum of Mulliken charges =  -0.00000

 Dipole moment (field-independent basis, Debye):
    X=              5.6504    Y=             -0.7439    Z=              1.7679  Tot=              5.9670

 Test job not archived.
 1\1\GINC-SE135\SP\RHF\Aug-CC-pVDZ\C5H8N2\OHZDE\09-Apr-2025\0\\#t hf au
 g-cc-pvdz iop(5/13=1,5/36=2,99/5=2) pseudo=read geom=check guess=(read
 ,tcheck) scf=(maxcycle=1)\\title\\0,1\C,0,-0.78236997,1.37649716,-0.42
 2004\C,0,-0.44311595,-0.05931102,-0.25742012\C,0,-1.11843111,-0.830874
 77,0.82499946\N,0,0.39235797,-0.64812857,-1.12730714\C,0,1.44556788,-0
 .94512166,-0.23899016\C,0,2.08194795,0.10997355,0.43664694\N,0,2.58737
 438,1.00438908,0.97330258\H,0,-1.75563041,1.62565046,-0.00100058\H,0,-
 0.73394819,1.67714593,-1.47159479\H,0,-0.02002312,1.95835793,0.1139639

 Normal termination of Gaussian 16 at Wed Apr  9 18:24:31 2025.
