 Gaussian 16, Revision C.01,

 ----------------------------------------------------------------------
 #t hf aug-cc-pvdz symm=none int=(grid=ultrafine) guess=(read,tcheck) s
 table=(opt,rrhf)
 ----------------------------------------------------------------------
 -----
 title
 -----
 Symbolic Z-matrix:
 Charge =  0 Multiplicity = 1

 SCF Done:  E(RHF) =  -323.809766619     A.U. after   15 cycles
 Normal termination of Gaussian 16 at Wed Apr  9 18:33:36 2025.
 Gaussian 16:  ES64L-G16RevC.01  3-Jul-2019

 ----------------------------------------------------------------------
 #t hf aug-cc-pvdz iop(5/13=1,5/36=2,99/5=2) pseudo=read geom=check gue
 ss=(read,tcheck) scf=(maxcycle=1)
 ----------------------------------------------------------------------
 -----
 title
 -----
 Structure from the checkpoint file:  "Grambow2020_wb97xd3_007261_reverse_mol2.chk"
 Charge =  0 Multiplicity = 1

                         Standard orientation:
 ---------------------------------------------------------------------
 Center     Atomic      Atomic             Coordinates (Angstroms)
 Number     Number       Type             X           Y           Z
 ---------------------------------------------------------------------
      1          6           0       -1.101444    0.814912    1.171825
      2          6           0       -0.595527    0.032571   -0.051505
      3          6           0       -1.759394   -0.594343   -0.804494
      4          6           0        0.364263    0.788863   -0.978265
      5          8           0        1.677777    0.513926   -0.372553
      6          6           0        1.595798   -0.537455    0.317803
      7          7           0        0.363713   -1.014089    0.401612
      8          1           0       -1.660897    0.180488    1.868452
      9          1           0       -1.763964    1.616698    0.840950
     10          1           0       -0.264403    1.266154    1.709963
     11          1           0       -2.369600    0.195594   -1.245485
     12          1           0       -1.385576   -1.220451   -1.612616
     13          1           0       -2.402373   -1.185492   -0.143911
     14          1           0        0.119228   -1.747152    1.045690
     15          1           0        0.256688    1.873332   -0.937270
     16          1           0        2.480519   -1.019241    0.711183
 ---------------------------------------------------------------------

 SCF Done:  E(RHF) =  -325.336792133     A.U. after    2 cycles

 The electronic state is 1-A.
 Alpha  occ. eigenvalues --  -21.11718 -15.79519 -11.51625 -11.44043 -11.38521
 Alpha  occ. eigenvalues --  -11.35720 -11.31741  -1.85915  -1.42934  -1.19031
 Alpha  occ. eigenvalues --   -1.00738  -0.98477  -0.86483  -0.80693  -0.75762
 Alpha  occ. eigenvalues --   -0.63935  -0.61118  -0.59711  -0.54226  -0.53906
 Alpha  occ. eigenvalues --   -0.52823  -0.48826  -0.47810  -0.45429  -0.39160
 Alpha  occ. eigenvalues --   -0.37884  -0.22049
 Alpha virt. eigenvalues --    0.02708   0.04303   0.04859   0.05725   0.06041
 Alpha virt. eigenvalues --    0.06531   0.07339   0.07613   0.08284   0.10588
 Alpha virt. eigenvalues --    0.10766   0.12266   0.12441   0.13582   0.14251

 Mulliken charges:
               1
     1  C   -4.044314
     2  C    2.103541
     3  C   -3.575451
     4  C   -0.969350
     5  O   -3.136161
     6  C    1.540157
     7  N   -3.227788
     8  H    1.184485
     9  H    1.164247
    10  H    1.253565
    11  H    1.252183
    12  H    1.311937
    13  H    1.179054
    14  H    0.826991
    15  H    1.359538
    16  H    1.777365
 Sum of Mulliken charges =  -0.00000

 Dipole moment (field-independent basis, Debye):
    X=              0.9279    Y=             -2.1386    Z=              3.5910  Tot=              4.2813

 Test job not archived.
 1\1\GINC-SE135\SP\RHF\Aug-CC-pVDZ\C5H9N1O1\OHZDE\09-Apr-2025\0\\#t hf
 aug-cc-pvdz iop(5/13=1,5/36=2,99/5=2) pseudo=read geom=check guess=(re
 ad,tcheck) scf=(maxcycle=1)\\title\\0,1\C,0,0.83333545,1.17191108,0.42
 47581\C,0,0.18281285,-0.16530911,0.03334013\C,0,1.22840767,-1.13305697
 ,-0.50032031\C,0,-0.72157217,-0.8043954,1.0943365\O,0,-2.02945842,-0.1
 8948591,0.81305674\C,0,-2.04158382,0.2134427,-0.38118554\N,0,-0.872321
 47,0.08637202,-0.98857052\H,0,1.34462443,1.64806642,-0.419416\H,0,1.57
 064231,1.00014142,1.21098032\H,0,0.0812427,1.86470808,0.80977789\H,0,1

 Normal termination of Gaussian 16 at Wed Apr  9 18:33:42 2025.
