 Gaussian 16, Revision C.01,

 ----------------------------------------------------------------------
 #t hf aug-cc-pvdz symm=none int=(grid=ultrafine) guess=(read,tcheck) s
 table=(opt,rrhf)
 ----------------------------------------------------------------------
 -----
 title
 -----
 Symbolic Z-matrix:
 Charge =  0 Multiplicity = 1

 SCF Done:  E(RHF) =  -381.697212853     A.U. after   16 cycles

 1\1\GINC-SE162\Stability\RHF\Aug-CC-pVDZ\C4H10O3\OHZDE\09-Apr-2025\0\\
 #t hf aug-cc-pvdz symm=none int=(grid=ultrafine) guess=(read,tcheck) s
 table=(opt,rrhf)\\title\\0,1\C,0,2.84173518,0.33467347,-0.42841882\O,0
 ,1.77197602,-0.05609126,0.39319815\C,0,0.56048663,-0.14312614,-0.30654
 789\C,0,-0.52918355,-0.47546128,0.68941025\O,0,-0.81542717,0.37367093,
 1.57000932\C,0,-2.21771248,-0.55312295,-0.61353253\O,0,-2.84649026,0.5
 2428856,-0.47466421\H,0,3.73272649,0.37533345,0.19590166\H,0,2.6668091
 8,1.32522523,-0.86758557\H,0,3.00865529,-0.3845648,-1.24112696\H,0,0.3

 Normal termination of Gaussian 16 at Wed Apr  9 19:25:21 2025.
 Gaussian 16:  ES64L-G16RevC.01  3-Jul-2019

 ----------------------------------------------------------------------
 #t hf aug-cc-pvdz iop(5/13=1,5/36=2,99/5=2) pseudo=read geom=check gue
 ss=(read,tcheck) scf=(maxcycle=1)
 ----------------------------------------------------------------------
 -----
 title
 -----
 Structure from the checkpoint file:  "Grambow2020_wb97xd3_008927_forward_mol1.chk"
 Charge =  0 Multiplicity = 1

                         Standard orientation:
 ---------------------------------------------------------------------
 Center     Atomic      Atomic             Coordinates (Angstroms)
 Number     Number       Type             X           Y           Z
 ---------------------------------------------------------------------
      1          6           0        3.027263   -0.414025   -0.337470
      2          8           0        1.937673    0.307770    0.176283
      3          6           0        0.736888   -0.412524    0.111329
      4          6           0       -0.374601    0.491064    0.599060
      5          8           0       -0.661914    1.507955   -0.080498
      6          6           0       -2.041992   -0.827004    0.405871
      7          8           0       -2.655587   -0.502268   -0.639839
      8          1           0        3.908160    0.219288   -0.246741
      9          1           0        2.875727   -0.667234   -1.394627
     10          1           0        3.196235   -1.342074    0.224521
     11          1           0        0.517347   -0.716974   -0.923608
     12          1           0        0.797818   -1.317185    0.734660
     13          1           0       -0.576513    0.532180    1.673402
     14          1           0       -1.644721    1.304431   -0.985731
     15          1           0       -2.484302   -0.583811    1.377088
     16          1           0       -1.351532   -1.674004    0.361525
     17          1           0       -2.284940    0.712659   -1.140809
 ---------------------------------------------------------------------

 SCF Done:  E(RHF) =  -383.460749665     A.U. after    2 cycles

 The electronic state is 1-A.
 Alpha  occ. eigenvalues --  -21.10072 -21.09557 -21.05804 -11.48931 -11.45977
 Alpha  occ. eigenvalues --  -11.42473 -11.40928  -1.78836  -1.73837  -1.71197
 Alpha  occ. eigenvalues --   -1.10277  -0.98234  -0.91942  -0.84119  -0.71760
 Alpha  occ. eigenvalues --   -0.68488  -0.67051  -0.64420  -0.60443  -0.59589
 Alpha  occ. eigenvalues --   -0.55266  -0.53889  -0.50745  -0.40806  -0.38680
 Alpha  occ. eigenvalues --   -0.37070  -0.33971  -0.31602  -0.30748
 Alpha virt. eigenvalues --    0.03593   0.04333   0.04809   0.05476   0.05971
 Alpha virt. eigenvalues --    0.06470   0.07299   0.07474   0.08415   0.09059
 Alpha virt. eigenvalues --    0.10949   0.11455   0.13154   0.13617   0.14499

 Mulliken charges:
               1
     1  C   -3.086783
     2  O   -3.041560
     3  C   -0.862301
     4  C    1.163447
     5  O   -3.032393
     6  C   -0.521522
     7  O   -2.576077
     8  H    1.281742
     9  H    1.305393
    10  H    1.317104
    11  H    1.684565
    12  H    1.657180
    13  H    1.520414
    14  H    0.015481
    15  H    1.284010
    16  H    1.332156
    17  H    0.559144
 Sum of Mulliken charges =   0.00000

 Dipole moment (field-independent basis, Debye):
    X=              0.9983    Y=             -0.8690    Z=              0.6113  Tot=              1.4579

 Test job not archived.
 1\1\GINC-SE162\SP\RHF\Aug-CC-pVDZ\C4H10O3\OHZDE\09-Apr-2025\0\\#t hf a
 ug-cc-pvdz iop(5/13=1,5/36=2,99/5=2) pseudo=read geom=check guess=(rea
 d,tcheck) scf=(maxcycle=1)\\title\\0,1\C,0,2.84173518,0.33467347,-0.42
 841882\O,0,1.77197602,-0.05609126,0.39319815\C,0,0.56048663,-0.1431261
 4,-0.30654789\C,0,-0.52918355,-0.47546128,0.68941025\O,0,-0.81542717,0
 .37367093,1.57000932\C,0,-2.21771248,-0.55312295,-0.61353253\O,0,-2.84
 649026,0.52428856,-0.47466421\H,0,3.73272649,0.37533345,0.19590166\H,0
 ,2.66680918,1.32522523,-0.86758557\H,0,3.00865529,-0.3845648,-1.241126

 Normal termination of Gaussian 16 at Wed Apr  9 19:25:26 2025.
