 Gaussian 16, Revision C.01,

 ----------------------------------------------------------------------
 #t hf aug-cc-pvdz symm=none int=(grid=ultrafine) guess=(read,tcheck) s
 table=(opt,rrhf)
 ----------------------------------------------------------------------
 -----
 title
 -----
 Symbolic Z-matrix:
 Charge =  0 Multiplicity = 1

 SCF Done:  E(RHF) =  -339.761213224     A.U. after   15 cycles
 Normal termination of Gaussian 16 at Wed Apr  9 18:00:12 2025.
 Gaussian 16:  ES64L-G16RevC.01  3-Jul-2019

 ----------------------------------------------------------------------
 #t hf aug-cc-pvdz iop(5/13=1,5/36=2,99/5=2) pseudo=read geom=check gue
 ss=(read,tcheck) scf=(maxcycle=1)
 ----------------------------------------------------------------------
 -----
 title
 -----
 Structure from the checkpoint file:  "Grambow2020_wb97xd3_006545_forward_mol1.chk"
 Charge =  0 Multiplicity = 1

                         Standard orientation:
 ---------------------------------------------------------------------
 Center     Atomic      Atomic             Coordinates (Angstroms)
 Number     Number       Type             X           Y           Z
 ---------------------------------------------------------------------
      1          6           0       -1.342238    2.030775   -0.289490
      2          7           0       -0.272587    1.069069    0.450310
      3          6           0        0.030185   -0.146959   -0.273577
      4          6           0        1.380740   -0.747503    0.137573
      5          8           0        2.441057    0.100557   -0.205762
      6          6           0       -1.046937   -1.133331   -0.095801
      7          7           0       -1.855992   -1.924916    0.087137
      8          1           0       -2.043889    1.370833   -0.802878
      9          1           0       -1.848270    2.535002    0.534012
     10          1           0        0.091833    1.987090   -0.032573
     11          1           0       -0.384867    0.955383    1.450414
     12          1           0        0.073609    0.130844   -1.332045
     13          1           0        1.527946   -1.682783   -0.402741
     14          1           0        1.366895   -0.981388    1.209673
     15          1           0        2.457838    0.853602    0.387867
 ---------------------------------------------------------------------

 SCF Done:  E(RHF) =  -341.315504689     A.U. after    2 cycles

 The electronic state is 1-A.
 Alpha  occ. eigenvalues --  -21.10758 -15.81333 -15.78174 -11.52403 -11.47189
 Alpha  occ. eigenvalues --  -11.44009 -11.35180  -1.75755  -1.47856  -1.32152
 Alpha  occ. eigenvalues --   -1.15321  -0.96136  -0.92488  -0.79968  -0.71634
 Alpha  occ. eigenvalues --   -0.69974  -0.67311  -0.60584  -0.58226  -0.54169
 Alpha  occ. eigenvalues --   -0.51598  -0.47836  -0.46828  -0.45523  -0.43550
 Alpha  occ. eigenvalues --   -0.35483  -0.28712
 Alpha virt. eigenvalues --    0.02942   0.04734   0.04889   0.05317   0.06229
 Alpha virt. eigenvalues --    0.06345   0.07564   0.08295   0.09935   0.10744
 Alpha virt. eigenvalues --    0.11812   0.12264   0.12865   0.13401   0.14402

 Mulliken charges:
               1
     1  C   -3.184757
     2  N   -1.820601
     3  C   -2.694908
     4  C   -0.067723
     5  O   -2.708119
     6  C    3.455264
     7  N   -2.654051
     8  H    1.354796
     9  H    1.085804
    10  H    1.235322
    11  H    0.668347
    12  H    1.996762
    13  H    1.279373
    14  H    1.383620
    15  H    0.670870
 Sum of Mulliken charges =  -0.00000

 Dipole moment (field-independent basis, Debye):
    X=              3.3230    Y=             -0.1548    Z=              2.2760  Tot=              4.0307

 Test job not archived.
 1\1\GINC-SE113\SP\RHF\Aug-CC-pVDZ\C4H8N2O1\OHZDE\09-Apr-2025\0\\#t hf
 aug-cc-pvdz iop(5/13=1,5/36=2,99/5=2) pseudo=read geom=check guess=(re
 ad,tcheck) scf=(maxcycle=1)\\title\\0,1\C,0,-1.98976823,0.83053166,0.6
 3614005\N,0,-0.51379952,0.18951165,0.80029542\C,0,0.13368962,-0.134669
 91,-0.45272911\C,0,1.65955186,-0.21518447,-0.31504723\O,0,2.20777757,1
 .0307255,0.01436598\C,0,-0.40075619,-1.39245919,-0.99776139\N,0,-0.773
 26041,-2.40091898,-1.39637448\H,0,-2.43569742,0.35307495,-0.23826606\H
 ,0,-2.51250487,0.50804092,1.53681595\H,0,-0.64198634,1.26667449,0.9792

 Normal termination of Gaussian 16 at Wed Apr  9 18:00:17 2025.
