 Gaussian 16, Revision C.01,

 ----------------------------------------------------------------------
 #t hf aug-cc-pvdz symm=none int=(grid=ultrafine) guess=(read,tcheck) s
 table=(opt,rrhf)
 ----------------------------------------------------------------------
 -----
 title
 -----
 Symbolic Z-matrix:
 Charge =  0 Multiplicity = 1

 SCF Done:  E(RHF) =  -337.581686669     A.U. after   15 cycles
 Normal termination of Gaussian 16 at Wed Apr  9 04:04:32 2025.
 Gaussian 16:  ES64L-G16RevC.01  3-Jul-2019

 ----------------------------------------------------------------------
 #t hf aug-cc-pvdz iop(5/13=1,5/36=2,99/5=2) pseudo=read geom=check gue
 ss=(read,tcheck) scf=(maxcycle=1)
 ----------------------------------------------------------------------
 -----
 title
 -----
 Structure from the checkpoint file:  "Grambow2020_wb97xd3_009173_reverse_mol2.chk"
 Charge =  0 Multiplicity = 1

                         Standard orientation:
 ---------------------------------------------------------------------
 Center     Atomic      Atomic             Coordinates (Angstroms)
 Number     Number       Type             X           Y           Z
 ---------------------------------------------------------------------
      1          8           0       -0.814930   -1.408330    0.615038
      2          6           0        1.596727   -0.079378   -0.062297
      3          6           0        0.930575    1.118030    0.326476
      4          6           0       -0.350836    1.408589    0.097768
      5          7           0       -1.325673    0.569433   -0.426147
      6          6           0       -1.503833   -0.766273   -0.123622
      7          7           0        2.199414   -0.989819   -0.419872
      8          1           0        1.553777    1.878488    0.777663
      9          1           0       -0.701975    2.407616    0.330116
     10          1           0       -2.097182    1.014223   -0.893916
     11          1           0       -2.387164   -1.176784   -0.641986
 ---------------------------------------------------------------------

 SCF Done:  E(RHF) =  -339.069558053     A.U. after    2 cycles

 The electronic state is 1-A.
 Alpha  occ. eigenvalues --  -21.05967 -15.81175 -15.74938 -11.51109 -11.50303
 Alpha  occ. eigenvalues --  -11.44901 -11.42008  -1.73398  -1.45070  -1.30514
 Alpha  occ. eigenvalues --   -1.16280  -0.96512  -0.83368  -0.78385  -0.70192
 Alpha  occ. eigenvalues --   -0.65214  -0.60042  -0.57056  -0.52845  -0.50634
 Alpha  occ. eigenvalues --   -0.49602  -0.43621  -0.39789  -0.31986  -0.31601
 Alpha virt. eigenvalues --    0.02110   0.04071   0.04464   0.06003   0.08583
 Alpha virt. eigenvalues --    0.09704   0.10370   0.11033   0.11454   0.12376
 Alpha virt. eigenvalues --    0.13084   0.13770   0.14467   0.14866   0.15110

 Mulliken charges:
               1
     1  O   -2.573275
     2  C    1.605723
     3  C   -0.094622
     4  C   -0.559046
     5  N   -2.992331
     6  C    1.681798
     7  N   -2.275421
     8  H    1.418717
     9  H    1.524885
    10  H    0.707920
    11  H    1.555654
 Sum of Mulliken charges =   0.00000

 Dipole moment (field-independent basis, Debye):
    X=             -3.7878    Y=              3.7521    Z=             -0.1292  Tot=              5.3331

 Test job not archived.
 1\1\GINC-SE125\SP\RHF\Aug-CC-pVDZ\C4H4N2O1\OHZDE\09-Apr-2025\0\\#t hf
 aug-cc-pvdz iop(5/13=1,5/36=2,99/5=2) pseudo=read geom=check guess=(re
 ad,tcheck) scf=(maxcycle=1)\\title\\0,1\O,0,0.02135738,-1.69185472,1.0
 0839283\C,0,1.51165128,-0.49095965,-1.08393986\C,0,1.1645042,0.7532928
 6,-0.483928\C,0,-0.01183179,1.05288125,0.06854676\N,0,-1.07700576,0.19
 309629,0.30338994\C,0,-0.99360083,-1.10411764,0.76992232\N,0,1.8161606
 9,-1.44511501,-1.64683912\H,0,1.90655078,1.53666173,-0.56104087\H,0,-0
 .19152148,2.07744721,0.3740202\H,0,-1.99065912,0.61155693,0.34812002\H

 Normal termination of Gaussian 16 at Wed Apr  9 04:04:36 2025.
