 Gaussian 16, Revision C.01,

 ----------------------------------------------------------------------
 #t hf aug-cc-pvdz symm=none int=(grid=ultrafine) guess=(read,tcheck) s
 table=(opt,rrhf)
 ----------------------------------------------------------------------
 -----
 title
 -----
 Symbolic Z-matrix:
 Charge =  0 Multiplicity = 1

 SCF Done:  E(RHF) =  -324.906687175     A.U. after   15 cycles
 Normal termination of Gaussian 16 at Wed Apr  9 19:07:12 2025.
 Gaussian 16:  ES64L-G16RevC.01  3-Jul-2019

 ----------------------------------------------------------------------
 #t hf aug-cc-pvdz iop(5/13=1,5/36=2,99/5=2) pseudo=read geom=check gue
 ss=(read,tcheck) scf=(maxcycle=1)
 ----------------------------------------------------------------------
 -----
 title
 -----
 Structure from the checkpoint file:  "Grambow2020_wb97xd3_008106_forward_mol1.chk"
 Charge =  0 Multiplicity = 1

                         Standard orientation:
 ---------------------------------------------------------------------
 Center     Atomic      Atomic             Coordinates (Angstroms)
 Number     Number       Type             X           Y           Z
 ---------------------------------------------------------------------
      1          6           0       -1.089723   -0.999440    1.066465
      2          6           0        0.613833   -1.376532   -0.246864
      3          7           0        0.937828   -0.141456   -0.566179
      4          6           0        2.032386    0.462442    0.170817
      5          6           0       -0.637786    0.299652   -0.314437
      6          8           0       -1.355019    0.169594   -1.280621
      7          6           0       -0.601459    1.539999    0.555244
      8          1           0       -1.362360   -2.024444    0.811100
      9          1           0       -2.033264   -0.472488    1.213984
     10          1           0       -0.537642   -0.979463    2.008998
     11          1           0       -0.075730   -1.889470   -0.904436
     12          1           0        1.243727   -1.983286    0.405777
     13          1           0        2.968701    0.008335   -0.158186
     14          1           0        2.084453    1.525862   -0.052476
     15          1           0        1.947663    0.331238    1.257043
     16          1           0       -1.634025    1.759457    0.822613
     17          1           0       -0.215619    2.364790   -0.046639
     18          1           0       -0.014055    1.436177    1.463095
 ---------------------------------------------------------------------

 SCF Done:  E(RHF) =  -326.513689110     A.U. after    2 cycles

 The electronic state is 1-A.
 Alpha  occ. eigenvalues --  -20.98681 -15.74079 -11.52123 -11.49862 -11.40904
 Alpha  occ. eigenvalues --  -11.39293 -11.35201  -1.68310  -1.45032  -1.11510
 Alpha  occ. eigenvalues --   -1.08337  -0.99298  -0.89926  -0.76103  -0.70278
 Alpha  occ. eigenvalues --   -0.65646  -0.64960  -0.59989  -0.57246  -0.56007
 Alpha  occ. eigenvalues --   -0.53889  -0.53529  -0.49858  -0.48917  -0.45677
 Alpha  occ. eigenvalues --   -0.35775  -0.26648  -0.24548
 Alpha virt. eigenvalues --    0.03268   0.04366   0.04778   0.04845   0.05394
 Alpha virt. eigenvalues --    0.06024   0.06584   0.07230   0.07849   0.08307
 Alpha virt. eigenvalues --    0.09375   0.10000   0.11397   0.12659   0.12902

 Mulliken charges:
               1
     1  C   -4.464982
     2  C   -1.927196
     3  N   -2.644376
     4  C   -3.498595
     5  C    6.575548
     6  O   -3.821188
     7  C   -4.372519
     8  H    1.100332
     9  H    1.049091
    10  H    1.196753
    11  H    1.374402
    12  H    1.532604
    13  H    1.317880
    14  H    1.463652
    15  H    1.395892
    16  H    1.059709
    17  H    1.237559
    18  H    1.425434
 Sum of Mulliken charges =   0.00000

 Dipole moment (field-independent basis, Debye):
    X=              3.0274    Y=             -0.4521    Z=              1.2944  Tot=              3.3234

 Test job not archived.
 1\1\GINC-SE028\SP\RHF\Aug-CC-pVDZ\C5H11N1O1\OHZDE\09-Apr-2025\0\\#t hf
  aug-cc-pvdz iop(5/13=1,5/36=2,99/5=2) pseudo=read geom=check guess=(r
 ead,tcheck) scf=(maxcycle=1)\\title\\0,1\C,0,-1.04241645,0.5256917,-1.
 28362856\C,0,-1.33925981,-0.58389806,0.57374282\N,0,-0.08717595,-0.804
 97608,0.91397658\C,0,0.49341295,0.08744903,1.9000828\C,0,0.32461641,-0
 .72922052,-0.68764734\O,0,0.23211572,-1.78112023,-1.27908643\C,0,1.523
 27538,0.19333537,-0.77839106\H,0,-2.05725119,0.19281679,-1.50606883\H,
 0,-0.5331715,0.57969391,-2.2466774\H,0,-1.06055057,1.52888084,-0.85137

 Normal termination of Gaussian 16 at Wed Apr  9 19:07:19 2025.
