 Gaussian 16, Revision C.01,

 ----------------------------------------------------------------------
 #t hf aug-cc-pvdz symm=none int=(grid=ultrafine) guess=(read,tcheck) s
 table=(opt,rrhf)
 ----------------------------------------------------------------------
 -----
 title
 -----
 Symbolic Z-matrix:
 Charge =  0 Multiplicity = 1

 SCF Done:  E(RHF) =  -337.480165100     A.U. after   16 cycles
 Normal termination of Gaussian 16 at Wed Apr  9 04:04:30 2025.
 Gaussian 16:  ES64L-G16RevC.01  3-Jul-2019

 ----------------------------------------------------------------------
 #t hf aug-cc-pvdz iop(5/13=1,5/36=2,99/5=2) pseudo=read geom=check gue
 ss=(read,tcheck) scf=(maxcycle=1)
 ----------------------------------------------------------------------
 -----
 title
 -----
 Structure from the checkpoint file:  "Grambow2020_wb97xd3_009177_reverse_mol2.chk"
 Charge =  0 Multiplicity = 1

                         Standard orientation:
 ---------------------------------------------------------------------
 Center     Atomic      Atomic             Coordinates (Angstroms)
 Number     Number       Type             X           Y           Z
 ---------------------------------------------------------------------
      1          8           0       -2.252563    0.599406    0.000580
      2          6           0       -1.130820    0.222094    0.000037
      3          6           0       -0.614949   -1.154627    0.001185
      4          6           0        0.702627   -1.445540    0.000529
      5          7           0        1.719643   -0.457864   -0.001342
      6          6           0        1.020830    0.564922   -0.002072
      7          7           0        0.012176    1.219763   -0.001805
      8          1           0       -1.356909   -1.938684    0.003457
      9          1           0        1.077370   -2.460000    0.001341
     10          1           0        2.898991    2.845104    0.008614
     11          1           0        3.412197    2.303952    0.005898
 ---------------------------------------------------------------------

 SCF Done:  E(RHF) =  -338.991261320     A.U. after    2 cycles

 The electronic state is 1-A.
 Alpha  occ. eigenvalues --  -21.07523 -15.79519 -15.79450 -11.56914 -11.55826
 Alpha  occ. eigenvalues --  -11.51642 -11.42806  -1.75224  -1.55827  -1.36302
 Alpha  occ. eigenvalues --   -1.17271  -0.93882  -0.86626  -0.73172  -0.69520
 Alpha  occ. eigenvalues --   -0.66181  -0.63342  -0.61732  -0.54617  -0.53721
 Alpha  occ. eigenvalues --   -0.51305  -0.45568  -0.44518  -0.32741  -0.30843
 Alpha virt. eigenvalues --    0.02923   0.04888   0.06345   0.06765   0.07500
 Alpha virt. eigenvalues --    0.09034   0.09212   0.10281   0.10430   0.11744
 Alpha virt. eigenvalues --    0.12485   0.12657   0.13710   0.14122   0.15196

 Mulliken charges:
               1
     1  O   -3.325247
     2  C    3.804446
     3  C   -0.821405
     4  C   -0.072387
     5  N   -3.021545
     6  C    3.300155
     7  N   -2.530964
     8  H    1.339432
     9  H    1.418056
    10  H   -0.055923
    11  H   -0.034617
 Sum of Mulliken charges =  -0.00000

 Dipole moment (field-independent basis, Debye):
    X=              0.8156    Y=             -1.7234    Z=              0.0025  Tot=              1.9066

 Test job not archived.
 1\1\GINC-SE128\SP\RHF\Aug-CC-pVDZ\C4H4N2O1\OHZDE\09-Apr-2025\0\\#t hf
 aug-cc-pvdz iop(5/13=1,5/36=2,99/5=2) pseudo=read geom=check guess=(re
 ad,tcheck) scf=(maxcycle=1)\\title\\0,1\O,0,2.51290768,-1.27492747,-0.
 04817999\C,0,1.52640755,-0.62133724,-0.03059319\C,0,1.38247107,0.84177
 62,-0.03866589\C,0,0.18455446,1.46234713,-0.01580462\N,0,-1.0521608,0.
 77009785,0.01816545\C,0,-0.64038994,-0.39818106,0.01763598\N,0,0.16542
 313,-1.29078122,0.00620657\H,0,2.3010801,1.4081677,-0.06346811\H,0,0.0
 8369391,2.53907952,-0.02190066\H,0,-3.04136418,-2.11724428,0.10116417\

 Normal termination of Gaussian 16 at Wed Apr  9 04:04:34 2025.
