 Gaussian 16, Revision C.01,

 ----------------------------------------------------------------------
 #t hf aug-cc-pvdz symm=none int=(grid=ultrafine) guess=(read,tcheck) s
 table=(opt,rrhf)
 ----------------------------------------------------------------------
 -----
 title
 -----
 Symbolic Z-matrix:
 Charge =  0 Multiplicity = 1

 SCF Done:  E(RHF) =  -305.696834002     A.U. after   15 cycles
 Normal termination of Gaussian 16 at Wed Apr  9 17:43:27 2025.
 Gaussian 16:  ES64L-G16RevC.01  3-Jul-2019

 ----------------------------------------------------------------------
 #t hf aug-cc-pvdz iop(5/13=1,5/36=2,99/5=2) pseudo=read geom=check gue
 ss=(read,tcheck) scf=(maxcycle=1)
 ----------------------------------------------------------------------
 -----
 title
 -----
 Structure from the checkpoint file:  "Grambow2020_wb97xd3_006133_forward_mol1.chk"
 Charge =  0 Multiplicity = 1

                         Standard orientation:
 ---------------------------------------------------------------------
 Center     Atomic      Atomic             Coordinates (Angstroms)
 Number     Number       Type             X           Y           Z
 ---------------------------------------------------------------------
      1          8           0       -2.359897   -0.406521    0.044618
      2          6           0       -1.293175    0.448930   -0.295371
      3          6           0       -0.121658    0.139326    0.600347
      4          6           0        1.299638   -1.226264   -0.002560
      5          8           0        1.757159   -0.057661   -0.627536
      6          6           0        1.159633    0.893592    0.220793
      7          1           0       -3.014619   -0.391851   -0.654074
      8          1           0       -1.561302    1.505921   -0.145595
      9          1           0       -0.986957    0.325824   -1.341894
     10          1           0       -0.394293    0.121360    1.653262
     11          1           0        1.698927   -1.235549    1.033862
     12          1           0        0.041513   -1.064330    0.186763
     13          1           0        1.781276    1.083578    1.105160
     14          1           0        0.990731    1.834997   -0.313397
 ---------------------------------------------------------------------

 SCF Done:  E(RHF) =  -307.085176503     A.U. after    2 cycles

 The electronic state is 1-A.
 Alpha  occ. eigenvalues --  -21.08836 -21.05686 -11.48516 -11.45586 -11.42309
 Alpha  occ. eigenvalues --  -11.39976  -1.79546  -1.72918  -1.18840  -0.99139
 Alpha  occ. eigenvalues --   -0.95672  -0.80005  -0.71592  -0.66465  -0.63832
 Alpha  occ. eigenvalues --   -0.59967  -0.56475  -0.55396  -0.51390  -0.43523
 Alpha  occ. eigenvalues --   -0.40259  -0.34087  -0.33754  -0.27512
 Alpha virt. eigenvalues --    0.03611   0.04802   0.04839   0.05650   0.06055
 Alpha virt. eigenvalues --    0.06232   0.06892   0.09060   0.10477   0.11472
 Alpha virt. eigenvalues --    0.12171   0.13165   0.13886   0.14766   0.15002

 Mulliken charges:
               1
     1  O   -2.747173
     2  C   -0.607978
     3  C   -3.192201
     4  C   -1.263377
     5  O   -2.482521
     6  C   -0.875098
     7  H    0.747701
     8  H    1.389328
     9  H    1.356846
    10  H    1.316140
    11  H    1.080522
    12  H    2.452559
    13  H    1.359240
    14  H    1.466012
 Sum of Mulliken charges =   0.00000

 Dipole moment (field-independent basis, Debye):
    X=             -1.7867    Y=              2.8210    Z=              0.7399  Tot=              3.4202

 Test job not archived.
 1\1\GINC-SE135\SP\RHF\Aug-CC-pVDZ\C4H8O2\OHZDE\09-Apr-2025\0\\#t hf au
 g-cc-pvdz iop(5/13=1,5/36=2,99/5=2) pseudo=read geom=check guess=(read
 ,tcheck) scf=(maxcycle=1)\\title\\0,1\O,0,2.1553852,0.95223244,0.08937
 537\C,0,1.31388454,-0.17782586,0.07816057\C,0,-0.08761668,0.26044661,0
 .41628457\C,0,-1.39898896,0.76265799,-1.09252327\O,0,-1.54901825,-0.63
 059157,-1.04891455\C,0,-1.1319834,-0.8551253,0.27669744\H,0,2.98031213
 ,0.73900153,-0.3477454\H,0,1.62530346,-0.91916263,0.82982157\H,0,1.308
 16744,-0.67458002,-0.90027635\H,0,-0.12887216,0.86996938,1.3163201\H,0

 Normal termination of Gaussian 16 at Wed Apr  9 17:43:31 2025.
