 Gaussian 16, Revision C.01,

 ----------------------------------------------------------------------
 #t hf aug-cc-pvdz symm=none int=(grid=ultrafine) guess=(read,tcheck) s
 table=(opt,rrhf)
 ----------------------------------------------------------------------
 -----
 title
 -----
 Symbolic Z-matrix:
 Charge =  0 Multiplicity = 1

 SCF Done:  E(RHF) =  -186.833380831     A.U. after   15 cycles
 Normal termination of Gaussian 16 at Wed Apr  9 15:41:31 2025.
 Gaussian 16:  ES64L-G16RevC.01  3-Jul-2019

 ----------------------------------------------------------------------
 #t hf aug-cc-pvdz iop(5/13=1,5/36=2,99/5=2) pseudo=read geom=check gue
 ss=(read,tcheck) scf=(maxcycle=1)
 ----------------------------------------------------------------------
 -----
 title
 -----
 Structure from the checkpoint file:  "Grambow2020_b97d3_006606_reverse_mol1.chk"
 Charge =  0 Multiplicity = 1

                         Standard orientation:
 ---------------------------------------------------------------------
 Center     Atomic      Atomic             Coordinates (Angstroms)
 Number     Number       Type             X           Y           Z
 ---------------------------------------------------------------------
      1          7           0        1.572648   -0.411498    0.010161
      2          6           0        0.408026    0.702999   -0.110846
      3          6           0       -0.885358    0.154062    0.011225
      4          7           0       -1.958563   -0.336599    0.026482
      5          1           0        2.097586   -0.451792    0.892264
      6          1           0        1.233041   -1.324510   -0.292865
      7          1           0        1.561540    0.376096   -0.849321
      8          1           0        0.673231    1.494512    0.591148
 ---------------------------------------------------------------------

 SCF Done:  E(RHF) =  -187.694305682     A.U. after    2 cycles

 The electronic state is 1-A.
 Alpha  occ. eigenvalues --  -15.83295 -15.73964 -11.43710 -11.40239  -1.41472
 Alpha  occ. eigenvalues --   -1.26822  -1.00986  -0.77682  -0.74014  -0.61823
 Alpha  occ. eigenvalues --   -0.54715  -0.49986  -0.45121  -0.40494  -0.29554
 Alpha virt. eigenvalues --    0.02240   0.04813   0.05051   0.05871   0.09980
 Alpha virt. eigenvalues --    0.11027   0.11513   0.12626   0.13679   0.14241
 Alpha virt. eigenvalues --    0.15918   0.17416   0.18529   0.19414   0.20470

 Mulliken charges:
               1
     1  N   -2.070353
     2  C   -1.831536
     3  C    2.309970
     4  N   -2.290014
     5  H    0.665118
     6  H    0.713145
     7  H    1.185442
     8  H    1.318227
 Sum of Mulliken charges =   0.00000

 Dipole moment (field-independent basis, Debye):
    X=              5.6254    Y=             -0.8895    Z=              1.1063  Tot=              5.8018

 Test job not archived.
 1\1\GINC-SE141\SP\RHF\Aug-CC-pVDZ\C2H4N2\OHZDE\09-Apr-2025\0\\#t hf au
 g-cc-pvdz iop(5/13=1,5/36=2,99/5=2) pseudo=read geom=check guess=(read
 ,tcheck) scf=(maxcycle=1)\\title\\0,1\N,0,-1.00456428,-0.35128891,0.26
 766448\C,0,0.1881459,0.66451009,-0.13068889\C,0,1.45186607,0.03868015,
 -0.15129759\N,0,2.50831389,-0.48186359,-0.07579327\H,0,-1.61529855,-0.
 68213186,-0.48919432\H,0,-0.65464748,-1.1076711,0.85604599\H,0,-0.8924
 7177,0.69397557,0.77164214\H,0,-0.12982377,1.15813667,-1.04984653\\Ver
 sion=ES64L-G16RevC.01\State=1-A\HF=-187.6943057\RMSD=2.302e-01\Dipole=

 Normal termination of Gaussian 16 at Wed Apr  9 15:41:33 2025.
