 Gaussian 16, Revision C.01,

 ----------------------------------------------------------------------
 #t hf aug-cc-pvdz symm=none int=(grid=ultrafine) guess=(read,tcheck) s
 table=(opt,rrhf)
 ----------------------------------------------------------------------
 -----
 title
 -----
 Symbolic Z-matrix:
 Charge =  0 Multiplicity = 1

 SCF Done:  E(RHF) =  -234.125232977     A.U. after   13 cycles
 Normal termination of Gaussian 16 at Wed Apr  9 16:34:13 2025.
 Gaussian 16:  ES64L-G16RevC.01  3-Jul-2019

 ----------------------------------------------------------------------
 #t hf aug-cc-pvdz iop(5/13=1,5/36=2,99/5=2) pseudo=read geom=check gue
 ss=(read,tcheck) scf=(maxcycle=1)
 ----------------------------------------------------------------------
 -----
 title
 -----
 Structure from the checkpoint file:  "Grambow2020_b97d3_006829_reverse_mol2.chk"
 Charge =  0 Multiplicity = 1

                         Standard orientation:
 ---------------------------------------------------------------------
 Center     Atomic      Atomic             Coordinates (Angstroms)
 Number     Number       Type             X           Y           Z
 ---------------------------------------------------------------------
      1          6           0        1.781143   -0.693577   -0.077664
      2          6           0        0.448505    0.063785   -0.031285
      3          6           0        0.679561    1.578923    0.030946
      4          6           0       -0.612228   -0.394825   -1.042860
      5          6           0       -1.467716   -0.834011   -0.096369
      6          6           0       -0.557625   -0.474335    1.066276
      7          1           0        2.391306   -0.448883    0.805530
      8          1           0        1.620705   -1.780558   -0.093166
      9          1           0        2.360250   -0.418089   -0.971514
     10          1           0        1.282862    1.838812    0.914343
     11          1           0       -0.272566    2.122626    0.092553
     12          1           0        1.219956    1.930896   -0.860324
     13          1           0       -0.629955   -0.363402   -2.133135
     14          1           0       -3.258176    2.265422    0.012724
     15          1           0       -2.452874   -1.300353   -0.128324
     16          1           0       -2.786109    1.708993   -0.145803
     17          1           0       -0.171862   -1.323296    1.651647
     18          1           0       -0.933384    0.292068    1.761206
 ---------------------------------------------------------------------

 SCF Done:  E(RHF) =  -235.354933290     A.U. after    2 cycles

 The electronic state is 1-A.
 Alpha  occ. eigenvalues --  -11.48034 -11.40824 -11.39833 -11.37958 -11.37786
 Alpha  occ. eigenvalues --  -11.34412  -1.35114  -1.09515  -0.99690  -0.93643
 Alpha  occ. eigenvalues --   -0.83726  -0.72125  -0.65537  -0.61752  -0.60383
 Alpha  occ. eigenvalues --   -0.59913  -0.56741  -0.53208  -0.51439  -0.47028
 Alpha  occ. eigenvalues --   -0.44285  -0.40049  -0.39007  -0.33034
 Alpha virt. eigenvalues --    0.04035   0.05056   0.05344   0.05473   0.05840
 Alpha virt. eigenvalues --    0.06031   0.06244   0.06570   0.06916   0.09280
 Alpha virt. eigenvalues --    0.09473   0.10989   0.11808   0.12153   0.13030

 Mulliken charges:
               1
     1  C   -4.286172
     2  C    1.710666
     3  C   -4.365976
     4  C   -1.110067
     5  C   -0.525447
     6  C   -4.021921
     7  H    1.235569
     8  H    1.260661
     9  H    1.178163
    10  H    1.203932
    11  H    1.358024
    12  H    1.140432
    13  H    1.311855
    14  H    0.407490
    15  H    1.203186
    16  H   -0.488888
    17  H    1.360221
    18  H    1.428272
 Sum of Mulliken charges =   0.00000

 Dipole moment (field-independent basis, Debye):
    X=              0.0303    Y=             -0.0603    Z=             -0.0528  Tot=              0.0857

 Test job not archived.
 1\1\GINC-SE173\SP\RHF\Aug-CC-pVDZ\C6H12\OHZDE\09-Apr-2025\0\\#t hf aug
 -cc-pvdz iop(5/13=1,5/36=2,99/5=2) pseudo=read geom=check guess=(read,
 tcheck) scf=(maxcycle=1)\\title\\0,1\C,0,-1.80380278,-1.00143005,-0.05
 416533\C,0,-0.51737746,-0.16895076,0.00716637\C,0,-0.79003708,1.292292
 93,-0.37141774\C,0,0.34475532,-0.36922811,1.26230644\C,0,1.38319056,-0
 .90135307,0.58474924\C,0,0.70172999,-0.81332117,-0.77069782\H,0,-2.240
 78357,-0.95672119,-1.0637463\H,0,-1.60778423,-2.05513375,0.18830781\H,
 0,-2.5548187,-0.61919547,0.65301143\H,0,-1.22083386,1.35239212,-1.3827

 Normal termination of Gaussian 16 at Wed Apr  9 16:34:19 2025.
