 Gaussian 16, Revision C.01,

 ----------------------------------------------------------------------
 #t hf aug-cc-pvdz symm=none int=(grid=ultrafine) guess=(read,tcheck) s
 table=(opt,rrhf)
 ----------------------------------------------------------------------
 -----
 title
 -----
 Symbolic Z-matrix:
 Charge =  0 Multiplicity = 1

 SCF Done:  E(RHF) =  -374.444850533     A.U. after   16 cycles
 Normal termination of Gaussian 16 at Wed Apr  9 19:19:45 2025.
 Gaussian 16:  ES64L-G16RevC.01  3-Jul-2019

 ----------------------------------------------------------------------
 #t hf aug-cc-pvdz iop(5/13=1,5/36=2,99/5=2) pseudo=read geom=check gue
 ss=(read,tcheck) scf=(maxcycle=1)
 ----------------------------------------------------------------------
 -----
 title
 -----
 Structure from the checkpoint file:  "Grambow2020_wb97xd3_008645_forward_mol1.chk"
 Charge =  0 Multiplicity = 1

                         Standard orientation:
 ---------------------------------------------------------------------
 Center     Atomic      Atomic             Coordinates (Angstroms)
 Number     Number       Type             X           Y           Z
 ---------------------------------------------------------------------
      1          6           0        1.509488    1.259854    0.215599
      2          7           0        0.525366    0.235007   -0.001794
      3          7           0        1.062844   -1.085435   -0.650996
      4          6           0        0.257170   -1.401031    0.284380
      5          8           0       -1.184485   -0.967679    0.154807
      6          6           0       -0.876890    0.317280   -0.059569
      7          8           0       -1.571087    1.274542   -0.156832
      8          1           0        2.293548    0.875582    0.866613
      9          1           0        1.949575    1.576995   -0.730766
     10          1           0        1.007003    2.098041    0.697419
     11          1           0        0.338368   -2.109146    1.110013
 ---------------------------------------------------------------------

 SCF Done:  E(RHF) =  -376.058371272     A.U. after    2 cycles

 The electronic state is 1-A.
 Alpha  occ. eigenvalues --  -21.11189 -21.07185 -15.80805 -15.75765 -11.57931
 Alpha  occ. eigenvalues --  -11.55010 -11.43303  -1.90637  -1.70967  -1.53104
 Alpha  occ. eigenvalues --   -1.25576  -1.04549  -0.90912  -0.77264  -0.72259
 Alpha  occ. eigenvalues --   -0.70541  -0.65260  -0.59394  -0.57573  -0.54252
 Alpha  occ. eigenvalues --   -0.51777  -0.49888  -0.40798  -0.35464  -0.34068
 Alpha  occ. eigenvalues --   -0.27989
 Alpha virt. eigenvalues --    0.03152   0.04471   0.05868   0.06329   0.07634
 Alpha virt. eigenvalues --    0.09546   0.10447   0.11487   0.11946   0.12120
 Alpha virt. eigenvalues --    0.13719   0.14078   0.15508   0.15696   0.15919

 Mulliken charges:
               1
     1  C   -3.409034
     2  N   -2.035310
     3  N   -1.681661
     4  C    1.253511
     5  O   -2.555443
     6  C    5.610656
     7  O   -2.935079
     8  H    1.438499
     9  H    1.388063
    10  H    1.369988
    11  H    1.555811
 Sum of Mulliken charges =   0.00000

 Dipole moment (field-independent basis, Debye):
    X=              1.3018    Y=             -0.1697    Z=              2.0282  Tot=              2.4160

 Test job not archived.
 1\1\GINC-SE112\SP\RHF\Aug-CC-pVDZ\C3H4N2O2\OHZDE\09-Apr-2025\0\\#t hf
 aug-cc-pvdz iop(5/13=1,5/36=2,99/5=2) pseudo=read geom=check guess=(re
 ad,tcheck) scf=(maxcycle=1)\\title\\0,1\C,0,-1.45903475,-0.25669943,0.
 10250156\N,0,-0.04149228,-0.02671623,0.16371939\N,0,0.82290868,-1.2664
 301,0.57582778\C,0,1.41203609,-0.6721001,-0.38507911\O,0,1.87953324,0.
 74711342,-0.16096113\C,0,0.68239082,1.17474082,0.2581778\O,0,0.2987191
 8,2.26540759,0.52456486\H,0,-1.66591408,-1.04824905,-0.61644518\H,0,-1
 .84365135,-0.54828725,1.08071806\H,0,-1.92649344,0.67139433,-0.2250981

 Normal termination of Gaussian 16 at Wed Apr  9 19:19:49 2025.
