 Gaussian 16, Revision C.01,

 ----------------------------------------------------------------------
 #t hf aug-cc-pvdz symm=none int=(grid=ultrafine) guess=(read,tcheck) s
 table=(opt,rrhf)
 ----------------------------------------------------------------------
 -----
 title
 -----
 Symbolic Z-matrix:
 Charge =  0 Multiplicity = 1

 SCF Done:  E(RHF) =  -322.671558699     A.U. after   14 cycles
 Normal termination of Gaussian 16 at Wed Apr  9 18:50:40 2025.
 Gaussian 16:  ES64L-G16RevC.01  3-Jul-2019

 ----------------------------------------------------------------------
 #t hf aug-cc-pvdz iop(5/13=1,5/36=2,99/5=2) pseudo=read geom=check gue
 ss=(read,tcheck) scf=(maxcycle=1)
 ----------------------------------------------------------------------
 -----
 title
 -----
 Structure from the checkpoint file:  "Grambow2020_wb97xd3_007710_forward_mol2.chk"
 Charge =  0 Multiplicity = 1

                         Standard orientation:
 ---------------------------------------------------------------------
 Center     Atomic      Atomic             Coordinates (Angstroms)
 Number     Number       Type             X           Y           Z
 ---------------------------------------------------------------------
      1          6           0       -2.569716    0.152609    0.169817
      2          7           0       -1.452818   -0.737962   -0.079153
      3          6           0       -0.305024   -0.266120   -0.132926
      4          8           0        0.129351    1.056394   -0.012696
      5          6           0        1.463883    0.640572   -0.357397
      6          6           0        1.984894   -0.270292    0.682481
      7          6           0        1.057731   -0.803981   -0.398085
      8          1           0       -3.341864   -0.032140   -0.578218
      9          1           0       -2.999683   -0.083110    1.145402
     10          1           0       -2.303826    1.212929    0.151509
     11          1           0        2.022185    1.254486   -1.047767
     12          1           0        1.633519   -0.171633    1.702411
     13          1           0        3.017754   -0.577685    0.570495
     14          1           0        1.316223   -1.604990   -1.071540
 ---------------------------------------------------------------------

 SCF Done:  E(RHF) =  -324.156031091     A.U. after    2 cycles

 The electronic state is 1-A.
 Alpha  occ. eigenvalues --  -21.07450 -15.71427 -11.49735 -11.47939 -11.45025
 Alpha  occ. eigenvalues --  -11.39702 -11.37597  -1.83262  -1.35623  -1.27964
 Alpha  occ. eigenvalues --   -1.02663  -0.91864  -0.87065  -0.75105  -0.68983
 Alpha  occ. eigenvalues --   -0.66095  -0.61171  -0.58445  -0.56586  -0.52855
 Alpha  occ. eigenvalues --   -0.48577  -0.47188  -0.42472  -0.37301  -0.33133
 Alpha  occ. eigenvalues --   -0.29337
 Alpha virt. eigenvalues --    0.03590   0.04864   0.05301   0.05686   0.06217
 Alpha virt. eigenvalues --    0.06937   0.07375   0.10043   0.10247   0.11315
 Alpha virt. eigenvalues --    0.12147   0.13091   0.14137   0.14484   0.15155

 Mulliken charges:
               1
     1  C   -3.751808
     2  N   -3.431809
     3  C    6.303899
     4  O   -3.398420
     5  C    1.571412
     6  C   -2.956169
     7  C   -3.169848
     8  H    1.352634
     9  H    1.351231
    10  H    1.244605
    11  H    1.343021
    12  H    1.208300
    13  H    1.279607
    14  H    1.053345
 Sum of Mulliken charges =   0.00000

 Dipole moment (field-independent basis, Debye):
    X=              2.0817    Y=              1.0652    Z=             -0.1475  Tot=              2.3430

 Test job not archived.
 1\1\GINC-SE162\SP\RHF\Aug-CC-pVDZ\C5H7N1O1\OHZDE\09-Apr-2025\0\\#t hf
 aug-cc-pvdz iop(5/13=1,5/36=2,99/5=2) pseudo=read geom=check guess=(re
 ad,tcheck) scf=(maxcycle=1)\\title\\0,1\C,0,2.47340554,0.01143979,0.67
 340308\N,0,1.29305858,0.83488531,0.49653959\C,0,0.26584383,0.3231503,0
 .02123447\O,0,0.03512784,-0.98079823,-0.42448708\C,0,-1.26229963,-0.57
 905789,-0.90197092\C,0,-2.10542188,-0.16528954,0.23838473\C,0,-1.09321
 577,0.80594383,-0.34832008\H,0,3.33016766,0.52374483,0.2336259\H,0,2.6
 7279277,-0.09657895,1.74147462\H,0,2.38942054,-0.98463382,0.23057538\H

 Normal termination of Gaussian 16 at Wed Apr  9 18:50:44 2025.
