 Gaussian 16, Revision C.01,

 ----------------------------------------------------------------------
 #t hf aug-cc-pvdz symm=none int=(grid=ultrafine) guess=(read,tcheck) s
 table=(opt,rrhf)
 ----------------------------------------------------------------------
 -----
 title
 -----
 Symbolic Z-matrix:
 Charge =  0 Multiplicity = 1

 SCF Done:  E(RHF) =  -231.680213438     A.U. after   14 cycles
 Normal termination of Gaussian 16 at Wed Apr  9 16:56:14 2025.
 Gaussian 16:  ES64L-G16RevC.01  3-Jul-2019

 ----------------------------------------------------------------------
 #t hf aug-cc-pvdz iop(5/13=1,5/36=2,99/5=2) pseudo=read geom=check gue
 ss=(read,tcheck) scf=(maxcycle=1)
 ----------------------------------------------------------------------
 -----
 title
 -----
 Structure from the checkpoint file:  "Grambow2020_b97d3_006875_reverse_mol1.chk"
 Charge =  0 Multiplicity = 1

                         Standard orientation:
 ---------------------------------------------------------------------
 Center     Atomic      Atomic             Coordinates (Angstroms)
 Number     Number       Type             X           Y           Z
 ---------------------------------------------------------------------
      1          6           0        1.097864   -0.778358   -0.376837
      2          6           0        0.771866    0.728032   -0.456637
      3          6           0       -0.738567    0.964527   -0.628174
      4          6           0       -1.289784   -0.480803   -0.269834
      5          6           0       -0.096328   -0.849433    0.616500
      6          6           0        0.177873    0.660185    0.942993
      7          1           0        2.061655   -0.960434    0.115494
      8          1           0        1.026313   -1.376241   -1.297525
      9          1           0        1.470465    1.503668   -0.771889
     10          1           0       -0.868808    1.378791    0.687222
     11          1           0       -2.236433   -0.411964    0.282740
     12          1           0       -1.432341   -1.112282   -1.157545
     13          1           0       -0.164569   -1.651857    1.360394
     14          1           0        0.606165    1.165422    1.813041
 ---------------------------------------------------------------------

 SCF Done:  E(RHF) =  -232.850089288     A.U. after    2 cycles

 The electronic state is 1-A.
 Alpha  occ. eigenvalues --  -11.49124 -11.46688 -11.43414 -11.39717 -11.39272
 Alpha  occ. eigenvalues --  -11.35424  -1.47118  -1.04462  -1.03258  -0.92284
 Alpha  occ. eigenvalues --   -0.78881  -0.76675  -0.70268  -0.62767  -0.58828
 Alpha  occ. eigenvalues --   -0.53071  -0.49865  -0.45355  -0.44047  -0.42581
 Alpha  occ. eigenvalues --   -0.38491  -0.28645
 Alpha virt. eigenvalues --    0.03893   0.04672   0.05273   0.05482   0.05853
 Alpha virt. eigenvalues --    0.06478   0.06572   0.08206   0.10005   0.11567
 Alpha virt. eigenvalues --    0.12308   0.12649   0.12751   0.13577   0.14962

 Mulliken charges:
               1
     1  C   -2.497098
     2  C   -1.386598
     3  C   -0.696867
     4  C   -2.754573
     5  C   -2.074048
     6  C   -1.079173
     7  H    1.325733
     8  H    1.241545
     9  H    1.474588
    10  H    1.072369
    11  H    1.281112
    12  H    1.440070
    13  H    1.500277
    14  H    1.152662
 Sum of Mulliken charges =  -0.00000

 Dipole moment (field-independent basis, Debye):
    X=              1.5016    Y=             -1.6327    Z=              1.8320  Tot=              2.8769

 Test job not archived.
 1\1\GINC-SE041\SP\RHF\Aug-CC-pVDZ\C6H8\OHZDE\09-Apr-2025\0\\#t hf aug-
 cc-pvdz iop(5/13=1,5/36=2,99/5=2) pseudo=read geom=check guess=(read,t
 check) scf=(maxcycle=1)\\title\\0,1\C,0,-1.1470544,-0.2243841,0.670462
 13\C,0,-0.33589276,1.07304546,0.46909436\C,0,1.17390348,0.7841647,0.40
 724613\C,0,1.14881849,-0.79172437,0.21445255\C,0,-0.234295,-0.81144322
 ,-0.44313474\C,0,-0.0499251,0.65585358,-0.9663734\H,0,-2.18721208,-0.1
 0921749,0.33994387\H,0,-1.11693724,-0.7096173,1.6573207\H,0,-0.6750256
 3,2.07219641,0.74426893\H,0,1.2022509,0.98660675,-0.9628116\H,0,1.9542

 Normal termination of Gaussian 16 at Wed Apr  9 16:56:18 2025.
