 Gaussian 16, Revision C.01,

 ----------------------------------------------------------------------
 #t hf aug-cc-pvdz symm=none int=(grid=ultrafine) guess=(read,tcheck) s
 table=(opt,rrhf)
 ----------------------------------------------------------------------
 -----
 title
 -----
 Symbolic Z-matrix:
 Charge =  0 Multiplicity = 1

 SCF Done:  E(RHF) =  -344.789261631     A.U. after   15 cycles

 1\1\GINC-SE186\Stability\RHF\Aug-CC-pVDZ\C5H10O2\OHZDE\09-Apr-2025\0\\
 #t hf aug-cc-pvdz symm=none int=(grid=ultrafine) guess=(read,tcheck) s
 table=(opt,rrhf)\\title\\0,1\C,0,1.89293511,1.11541246,-0.1810246\O,0,
 0.52538307,0.90886047,0.06494175\C,0,0.00612079,-0.31817643,-0.4040931
 7\C,0,0.48018158,-1.53943349,0.39694517\O,0,-0.21735531,-1.6819603,1.6
 1249993\C,0,-1.44764862,-0.37296716,-0.58127361\C,0,-2.13491703,0.8976
 8755,-0.41418337\H,0,2.53088975,0.46745154,0.43001241\H,0,2.13734216,0
 .95223165,-1.2391432\H,0,2.1123712,2.15166852,0.07307029\H,0,0.3119358

 Normal termination of Gaussian 16 at Wed Apr  9 03:27:34 2025.
 Gaussian 16:  ES64L-G16RevC.01  3-Jul-2019

 ----------------------------------------------------------------------
 #t hf aug-cc-pvdz iop(5/13=1,5/36=2,99/5=2) pseudo=read geom=check gue
 ss=(read,tcheck) scf=(maxcycle=1)
 ----------------------------------------------------------------------
 -----
 title
 -----
 Structure from the checkpoint file:  "Grambow2020_wb97xd3_006652_reverse_mol2.chk"
 Charge =  0 Multiplicity = 1

                         Standard orientation:
 ---------------------------------------------------------------------
 Center     Atomic      Atomic             Coordinates (Angstroms)
 Number     Number       Type             X           Y           Z
 ---------------------------------------------------------------------
      1          6           0        2.176438   -0.832287   -0.110372
      2          8           0        0.796986   -0.795455   -0.373278
      3          6           0        0.028556   -0.038179    0.538476
      4          6           0        0.236684    1.478239    0.415894
      5          8           0       -0.470962    2.026258   -0.671928
      6          6           0       -1.404581   -0.342383    0.576120
      7          6           0       -1.807277   -1.500269   -0.206157
      8          1           0        2.665221    0.129142   -0.302598
      9          1           0        2.377146   -1.126991    0.928301
     10          1           0        2.610751   -1.577413   -0.775731
     11          1           0        0.288720   -0.319654    1.585487
     12          1           0        1.289367    1.705259    0.244829
     13          1           0       -0.063063    1.940224    1.361844
     14          1           0       -1.406160    1.974210   -0.452224
     15          1           0       -1.060738   -2.284718   -0.361084
     16          1           0       -2.794714   -1.887986    0.038122
     17          1           0       -1.893637   -0.989225   -1.189055
 ---------------------------------------------------------------------

 SCF Done:  E(RHF) =  -346.363964810     A.U. after    2 cycles

 The electronic state is 1-A.
 Alpha  occ. eigenvalues --  -21.06694 -21.04748 -11.47924 -11.42289 -11.41163
 Alpha  occ. eigenvalues --  -11.40434 -11.37350  -1.77431  -1.70504  -1.19940
 Alpha  occ. eigenvalues --   -1.06755  -0.98574  -0.90137  -0.73477  -0.67501
 Alpha  occ. eigenvalues --   -0.65139  -0.62423  -0.59641  -0.59483  -0.55942
 Alpha  occ. eigenvalues --   -0.54493  -0.53143  -0.46501  -0.41678  -0.39436
 Alpha  occ. eigenvalues --   -0.33579  -0.31319  -0.29005
 Alpha virt. eigenvalues --    0.03873   0.04896   0.05263   0.05454   0.05992
 Alpha virt. eigenvalues --    0.06238   0.06797   0.06970   0.07637   0.08916
 Alpha virt. eigenvalues --    0.09219   0.11576   0.12296   0.13295   0.13960

 Mulliken charges:
               1
     1  C   -3.161740
     2  O   -3.521398
     3  C    1.161732
     4  C   -0.953336
     5  O   -2.496309
     6  C   -0.792222
     7  C   -3.780679
     8  H    1.455743
     9  H    1.295370
    10  H    1.250982
    11  H    2.029168
    12  H    1.353745
    13  H    1.455305
    14  H    0.685965
    15  H    1.458169
    16  H    1.269568
    17  H    1.289939
 Sum of Mulliken charges =  -0.00000

 Dipole moment (field-independent basis, Debye):
    X=              1.2967    Y=             -1.3205    Z=             -0.2868  Tot=              1.8728

 Test job not archived.
 1\1\GINC-SE186\SP\RHF\Aug-CC-pVDZ\C5H10O2\OHZDE\09-Apr-2025\0\\#t hf a
 ug-cc-pvdz iop(5/13=1,5/36=2,99/5=2) pseudo=read geom=check guess=(rea
 d,tcheck) scf=(maxcycle=1)\\title\\0,1\C,0,1.89293511,1.11541246,-0.18
 10246\O,0,0.52538307,0.90886047,0.06494175\C,0,0.00612079,-0.31817643,
 -0.40409317\C,0,0.48018158,-1.53943349,0.39694517\O,0,-0.21735531,-1.6
 819603,1.61249993\C,0,-1.44764862,-0.37296716,-0.58127361\C,0,-2.13491
 703,0.89768755,-0.41418337\H,0,2.53088975,0.46745154,0.43001241\H,0,2.
 13734216,0.95223165,-1.2391432\H,0,2.1123712,2.15166852,0.07307029\H,0

 Normal termination of Gaussian 16 at Wed Apr  9 03:27:40 2025.
