 Gaussian 16, Revision C.01,

 ----------------------------------------------------------------------
 #t hf aug-cc-pvdz symm=none int=(grid=ultrafine) guess=(read,tcheck) s
 table=(opt,rrhf)
 ----------------------------------------------------------------------
 -----
 title
 -----
 Symbolic Z-matrix:
 Charge =  0 Multiplicity = 1

 SCF Done:  E(RHF) =  -359.733032876     A.U. after   15 cycles
 Normal termination of Gaussian 16 at Wed Apr  9 04:05:17 2025.
 Gaussian 16:  ES64L-G16RevC.01  3-Jul-2019

 ----------------------------------------------------------------------
 #t hf aug-cc-pvdz iop(5/13=1,5/36=2,99/5=2) pseudo=read geom=check gue
 ss=(read,tcheck) scf=(maxcycle=1)
 ----------------------------------------------------------------------
 -----
 title
 -----
 Structure from the checkpoint file:  "Grambow2020_wb97xd3_009243_reverse_mol2.chk"
 Charge =  0 Multiplicity = 1

                         Standard orientation:
 ---------------------------------------------------------------------
 Center     Atomic      Atomic             Coordinates (Angstroms)
 Number     Number       Type             X           Y           Z
 ---------------------------------------------------------------------
      1          6           0        0.335189   -0.848049    1.068318
      2          6           0       -0.281393   -0.902985   -0.333412
      3          6           0       -1.642470   -0.395415   -0.514420
      4          8           0       -2.109532    0.539122    0.102583
      5          6           0        0.818232    0.103474    0.056540
      6          8           0        0.489115    1.446157    0.142720
      7          7           0        2.090646   -0.135209   -0.516936
      8          1           0       -0.452801    1.519093    0.361074
      9          1           0       -0.315945   -0.459072    1.841329
     10          1           0        0.963167   -1.684460    1.340327
     11          1           0        0.021511   -1.720334   -0.972870
     12          1           0       -2.252862   -0.901398   -1.284711
     13          1           0        2.815551    0.204440    0.102402
     14          1           0        2.172841    0.363817   -1.393587
 ---------------------------------------------------------------------

 SCF Done:  E(RHF) =  -361.339244565     A.U. after    2 cycles

 The electronic state is 1-A.
 Alpha  occ. eigenvalues --  -21.06804 -21.06555 -15.74667 -11.50182 -11.48840
 Alpha  occ. eigenvalues --  -11.43001 -11.38630  -1.75689  -1.70928  -1.36496
 Alpha  occ. eigenvalues --   -1.23058  -0.98723  -0.84652  -0.79299  -0.72197
 Alpha  occ. eigenvalues --   -0.66867  -0.64452  -0.60038  -0.56180  -0.53358
 Alpha  occ. eigenvalues --   -0.50147  -0.48273  -0.43530  -0.40139  -0.35554
 Alpha  occ. eigenvalues --   -0.31127  -0.28677
 Alpha virt. eigenvalues --    0.03792   0.05125   0.05236   0.05407   0.06171
 Alpha virt. eigenvalues --    0.07367   0.08193   0.09316   0.10633   0.11694
 Alpha virt. eigenvalues --    0.12667   0.13381   0.14292   0.14931   0.15189

 Mulliken charges:
               1
     1  C   -2.678738
     2  C   -1.596201
     3  C    0.977925
     4  O   -2.855736
     5  C    5.810396
     6  O   -3.492596
     7  N   -3.514800
     8  H    0.890991
     9  H    1.310825
    10  H    1.291246
    11  H    1.345668
    12  H    1.472493
    13  H    0.496813
    14  H    0.541714
 Sum of Mulliken charges =  -0.00000

 Dipole moment (field-independent basis, Debye):
    X=              0.8933    Y=             -0.5121    Z=             -0.1354  Tot=              1.0385

 Test job not archived.
 1\1\GINC-SE127\SP\RHF\Aug-CC-pVDZ\C4H7N1O2\OHZDE\09-Apr-2025\0\\#t hf
 aug-cc-pvdz iop(5/13=1,5/36=2,99/5=2) pseudo=read geom=check guess=(re
 ad,tcheck) scf=(maxcycle=1)\\title\\0,1\C,0,-0.65361448,-1.03081993,-0
 .13339621\C,0,-0.52572833,0.41009939,-0.63880097\C,0,-1.24878229,1.463
 84557,0.07515591\O,0,-1.44522517,1.46525479,1.27248924\C,0,0.60997102,
 -0.31773467,0.10594252\O,0,0.94575907,0.10560612,1.38131294\N,0,1.7268
 4282,-0.67303384,-0.68856486\H,0,0.16252057,0.50605203,1.78921414\H,0,
 -1.31452868,-1.16303252,0.71426989\H,0,-0.68468302,-1.79671257,-0.8952

 Normal termination of Gaussian 16 at Wed Apr  9 04:05:22 2025.
