 Gaussian 16, Revision C.01,

 ----------------------------------------------------------------------
 #t hf aug-cc-pvdz symm=none int=(grid=ultrafine) guess=(read,tcheck) s
 table=(opt,rrhf)
 ----------------------------------------------------------------------
 -----
 title
 -----
 Symbolic Z-matrix:
 Charge =  0 Multiplicity = 1

 SCF Done:  E(RHF) =  -344.676785847     A.U. after   16 cycles

 1\1\GINC-SE457\Stability\RHF\Aug-CC-pVDZ\C5H10O2\OHZDE\09-Apr-2025\0\\
 #t hf aug-cc-pvdz symm=none int=(grid=ultrafine) guess=(read,tcheck) s
 table=(opt,rrhf)\\title\\0,1\C,0,1.94230564,0.35572712,-0.75467578\C,0
 ,1.0027537,-0.80091806,-0.75211156\C,0,0.39699894,-0.32513223,1.553878
 35\O,0,-0.31417164,0.7367988,0.89468809\C,0,-1.03657565,-0.10230729,0.
 08200977\C,0,-2.38499404,0.37399835,-0.33685499\O,0,-0.29213855,-0.651
 89138,-0.96145938\H,0,1.93370775,0.84953664,-1.73248897\H,0,2.95589993
 ,-0.00630194,-0.57679576\H,0,1.69296736,1.12173097,-0.01712216\H,0,1.3

 Normal termination of Gaussian 16 at Wed Apr  9 03:34:38 2025.
 Gaussian 16:  ES64L-G16RevC.01  3-Jul-2019

 ----------------------------------------------------------------------
 #t hf aug-cc-pvdz iop(5/13=1,5/36=2,99/5=2) pseudo=read geom=check gue
 ss=(read,tcheck) scf=(maxcycle=1)
 ----------------------------------------------------------------------
 -----
 title
 -----
 Structure from the checkpoint file:  "Grambow2020_wb97xd3_007115_forward_mol1.chk"
 Charge =  0 Multiplicity = 1

                         Standard orientation:
 ---------------------------------------------------------------------
 Center     Atomic      Atomic             Coordinates (Angstroms)
 Number     Number       Type             X           Y           Z
 ---------------------------------------------------------------------
      1          6           0       -2.047489   -0.376686    0.673946
      2          6           0       -1.236612   -0.679629   -0.539024
      3          6           0       -0.310477    1.567986   -0.501641
      4          8           0        0.419350    0.989188    0.593958
      5          6           0        0.949061   -0.033346   -0.154535
      6          6           0        2.277957   -0.553559    0.274369
      7          8           0        0.031697   -1.037770   -0.462165
      8          1           0       -2.107616   -1.259022    1.320404
      9          1           0       -3.063434   -0.120323    0.370278
     10          1           0       -1.634194    0.428915    1.284774
     11          1           0       -1.743813   -1.181855   -1.358877
     12          1           0       -1.341314    1.818362   -0.257837
     13          1           0        0.217418    2.463057   -0.837940
     14          1           0        0.431699    0.726325   -1.245867
     15          1           0        2.248357   -0.883426    1.317051
     16          1           0        2.571481   -1.392523   -0.354205
     17          1           0        3.018397    0.240547    0.189191
 ---------------------------------------------------------------------

 SCF Done:  E(RHF) =  -346.315120889     A.U. after    2 cycles

 The electronic state is 1-A.
 Alpha  occ. eigenvalues --  -21.10787 -21.05607 -11.47168 -11.45831 -11.42694
 Alpha  occ. eigenvalues --  -11.38356 -11.37885  -1.87949  -1.72405  -1.14948
 Alpha  occ. eigenvalues --   -1.08666  -0.95686  -0.89695  -0.79832  -0.69039
 Alpha  occ. eigenvalues --   -0.67693  -0.63515  -0.59041  -0.57813  -0.54921
 Alpha  occ. eigenvalues --   -0.54184  -0.50822  -0.48536  -0.44517  -0.42510
 Alpha  occ. eigenvalues --   -0.35315  -0.30225  -0.24523
 Alpha virt. eigenvalues --    0.03562   0.05026   0.05249   0.05462   0.05772
 Alpha virt. eigenvalues --    0.05902   0.06326   0.07085   0.07680   0.08977
 Alpha virt. eigenvalues --    0.10417   0.11498   0.12920   0.13660   0.14407

 Mulliken charges:
               1
     1  C   -3.885457
     2  C    0.224464
     3  C   -2.885832
     4  O   -2.947869
     5  C    4.019463
     6  C   -4.404685
     7  O   -3.585897
     8  H    1.247338
     9  H    1.315200
    10  H    1.416010
    11  H    1.663554
    12  H    1.484086
    13  H    0.987156
    14  H    1.727783
    15  H    1.188612
    16  H    1.262101
    17  H    1.173972
 Sum of Mulliken charges =  -0.00000

 Dipole moment (field-independent basis, Debye):
    X=              0.3782    Y=             -0.3521    Z=              0.4813  Tot=              0.7062

 Test job not archived.
 1\1\GINC-SE457\SP\RHF\Aug-CC-pVDZ\C5H10O2\OHZDE\09-Apr-2025\0\\#t hf a
 ug-cc-pvdz iop(5/13=1,5/36=2,99/5=2) pseudo=read geom=check guess=(rea
 d,tcheck) scf=(maxcycle=1)\\title\\0,1\C,0,1.94230564,0.35572712,-0.75
 467578\C,0,1.0027537,-0.80091806,-0.75211156\C,0,0.39699894,-0.3251322
 3,1.55387835\O,0,-0.31417164,0.7367988,0.89468809\C,0,-1.03657565,-0.1
 0230729,0.08200977\C,0,-2.38499404,0.37399835,-0.33685499\O,0,-0.29213
 855,-0.65189138,-0.96145938\H,0,1.93370775,0.84953664,-1.73248897\H,0,
 2.95589993,-0.00630194,-0.57679576\H,0,1.69296736,1.12173097,-0.017122

 Normal termination of Gaussian 16 at Wed Apr  9 03:34:43 2025.
