 Gaussian 16, Revision C.01,

 ----------------------------------------------------------------------
 #t hf aug-cc-pvdz symm=none int=(grid=ultrafine) guess=(read,tcheck) s
 table=(opt,rrhf)
 ----------------------------------------------------------------------
 -----
 title
 -----
 Symbolic Z-matrix:
 Charge =  0 Multiplicity = 1

 SCF Done:  E(RHF) =  -308.875250928     A.U. after   16 cycles

 1\1\GINC-SE231\Stability\RHF\Aug-CC-pVDZ\C6H12O1\OHZDE\09-Apr-2025\0\\
 #t hf aug-cc-pvdz symm=none int=(grid=ultrafine) guess=(read,tcheck) s
 table=(opt,rrhf)\\title\\0,1\C,0,1.98235819,-0.92346587,-0.51877631\C,
 0,0.70363841,-0.60834898,0.18344435\O,0,0.78901214,-0.40502339,1.54235
 578\C,0,0.0340662,1.67679718,-0.39878706\C,0,-1.27006879,1.75320217,-0
 .02285801\C,0,-1.7621905,-0.52469247,0.40308145\C,0,-0.54844351,-0.982
 18718,-0.27697857\H,0,2.68063409,-0.08284005,-0.44770549\H,0,1.8029830
 2,-1.11150262,-1.57677044\H,0,2.47581156,-1.80408877,-0.09081622\H,0,1

 Normal termination of Gaussian 16 at Wed Apr  9 19:21:33 2025.
 Gaussian 16:  ES64L-G16RevC.01  3-Jul-2019

 ----------------------------------------------------------------------
 #t hf aug-cc-pvdz iop(5/13=1,5/36=2,99/5=2) pseudo=read geom=check gue
 ss=(read,tcheck) scf=(maxcycle=1)
 ----------------------------------------------------------------------
 -----
 title
 -----
 Structure from the checkpoint file:  "Grambow2020_wb97xd3_008673_reverse_mol1.chk"
 Charge =  0 Multiplicity = 1

                         Standard orientation:
 ---------------------------------------------------------------------
 Center     Atomic      Atomic             Coordinates (Angstroms)
 Number     Number       Type             X           Y           Z
 ---------------------------------------------------------------------
      1          6           0       -2.136815   -0.438606   -0.592541
      2          6           0       -0.896114    0.140603    0.001358
      3          8           0       -0.875198    0.259267    1.372763
      4          6           0        0.898756   -1.521008   -0.162054
      5          6           0        2.037002   -0.812374    0.061916
      6          6           0        1.229212    1.411118   -0.064456
      7          6           0       -0.033024    0.987644   -0.674697
      8          1           0       -2.277829   -1.473196   -0.262345
      9          1           0       -2.073624   -0.447795   -1.680110
     10          1           0       -3.029741    0.128344   -0.303761
     11          1           0       -1.497003   -0.360667    1.756498
     12          1           0        0.356893   -1.972688    0.658925
     13          1           0        0.647738   -1.878444   -1.153796
     14          1           0        2.422032   -0.681625    1.064865
     15          1           0        2.734151   -0.609904   -0.741485
     16          1           0        1.935363    1.962720   -0.670451
     17          1           0        1.256757    1.551481    1.006110
     18          1           0       -0.056008    0.946165   -1.756470
     19          1           0       -0.011249    2.157215   -0.317250
 ---------------------------------------------------------------------

 SCF Done:  E(RHF) =  -310.412818391     A.U. after    2 cycles

 The electronic state is 1-A.
 Alpha  occ. eigenvalues --  -21.08502 -11.47191 -11.42729 -11.40701 -11.38751
 Alpha  occ. eigenvalues --  -11.37212 -11.33923  -1.74203  -1.23612  -1.09897
 Alpha  occ. eigenvalues --   -1.09071  -0.91518  -0.80598  -0.76867  -0.66208
 Alpha  occ. eigenvalues --   -0.62390  -0.61610  -0.59570  -0.58042  -0.55125
 Alpha  occ. eigenvalues --   -0.53061  -0.51487  -0.48201  -0.46933  -0.41224
 Alpha  occ. eigenvalues --   -0.39284  -0.31499  -0.20313
 Alpha virt. eigenvalues --    0.03781   0.04797   0.05086   0.05399   0.05765
 Alpha virt. eigenvalues --    0.05958   0.06105   0.06759   0.07197   0.08418
 Alpha virt. eigenvalues --    0.08701   0.09117   0.12061   0.12667   0.13188

 Mulliken charges:
               1
     1  C   -5.271491
     2  C    5.834465
     3  O   -3.973507
     4  C   -3.209065
     5  C   -2.975008
     6  C   -3.227331
     7  C   -2.725977
     8  H    1.173359
     9  H    1.244992
    10  H    1.131329
    11  H    0.888401
    12  H    1.441954
    13  H    1.365863
    14  H    1.349817
    15  H    1.397796
    16  H    1.275303
    17  H    1.505111
    18  H    1.493971
    19  H    1.280018
 Sum of Mulliken charges =   0.00000

 Dipole moment (field-independent basis, Debye):
    X=             -0.9663    Y=              0.4910    Z=             -0.2456  Tot=              1.1114

 Test job not archived.
 1\1\GINC-SE231\SP\RHF\Aug-CC-pVDZ\C6H12O1\OHZDE\09-Apr-2025\0\\#t hf a
 ug-cc-pvdz iop(5/13=1,5/36=2,99/5=2) pseudo=read geom=check guess=(rea
 d,tcheck) scf=(maxcycle=1)\\title\\0,1\C,0,1.98235819,-0.92346587,-0.5
 1877631\C,0,0.70363841,-0.60834898,0.18344435\O,0,0.78901214,-0.405023
 39,1.54235578\C,0,0.0340662,1.67679718,-0.39878706\C,0,-1.27006879,1.7
 5320217,-0.02285801\C,0,-1.7621905,-0.52469247,0.40308145\C,0,-0.54844
 351,-0.98218718,-0.27697857\H,0,2.68063409,-0.08284005,-0.44770549\H,0
 ,1.80298302,-1.11150262,-1.57677044\H,0,2.47581156,-1.80408877,-0.0908

 Normal termination of Gaussian 16 at Wed Apr  9 19:21:40 2025.
