 Gaussian 16, Revision C.01,

 ----------------------------------------------------------------------
 #t hf aug-cc-pvdz symm=none int=(grid=ultrafine) guess=(read,tcheck) s
 table=(opt,rrhf)
 ----------------------------------------------------------------------
 -----
 title
 -----
 Symbolic Z-matrix:
 Charge =  0 Multiplicity = 1

 SCF Done:  E(RHF) =  -322.632564732     A.U. after   16 cycles
 Normal termination of Gaussian 16 at Wed Apr  9 18:55:46 2025.
 Gaussian 16:  ES64L-G16RevC.01  3-Jul-2019

 ----------------------------------------------------------------------
 #t hf aug-cc-pvdz iop(5/13=1,5/36=2,99/5=2) pseudo=read geom=check gue
 ss=(read,tcheck) scf=(maxcycle=1)
 ----------------------------------------------------------------------
 -----
 title
 -----
 Structure from the checkpoint file:  "Grambow2020_wb97xd3_007789_reverse_mol1.chk"
 Charge =  0 Multiplicity = 1

                         Standard orientation:
 ---------------------------------------------------------------------
 Center     Atomic      Atomic             Coordinates (Angstroms)
 Number     Number       Type             X           Y           Z
 ---------------------------------------------------------------------
      1          6           0        2.507248   -0.468283    0.072365
      2          6           0        1.075387   -0.055947    0.032371
      3          6           0        0.593576    1.202804    0.024405
      4          7           0       -0.816323    1.181584   -0.113574
      5          6           0       -1.201763   -0.102052   -0.138729
      6          8           0       -2.340303   -0.633475    0.153029
      7          6           0       -0.068075   -0.960832   -0.115713
      8          1           0        2.700950   -1.112277    0.932979
      9          1           0        3.168686    0.396239    0.134768
     10          1           0        2.775281   -1.035960   -0.822298
     11          1           0        1.115278    2.144814    0.083840
     12          1           0       -1.426490    1.923799    0.181944
     13          1           0       -0.036589   -1.832522   -0.760421
     14          1           0       -1.298676   -1.381521    0.571787
 ---------------------------------------------------------------------

 SCF Done:  E(RHF) =  -324.144884797     A.U. after    2 cycles

 The electronic state is 1-A.
 Alpha  occ. eigenvalues --  -21.03684 -15.79252 -11.50179 -11.45215 -11.41763
 Alpha  occ. eigenvalues --  -11.39463 -11.36092  -1.73811  -1.48012  -1.20034
 Alpha  occ. eigenvalues --   -1.07108  -0.99268  -0.82638  -0.79635  -0.68552
 Alpha  occ. eigenvalues --   -0.66375  -0.59546  -0.57099  -0.55570  -0.53024
 Alpha  occ. eigenvalues --   -0.50382  -0.48307  -0.43299  -0.37229  -0.30758
 Alpha  occ. eigenvalues --   -0.24027
 Alpha virt. eigenvalues --    0.03196   0.04689   0.05381   0.06293   0.06355
 Alpha virt. eigenvalues --    0.07023   0.07448   0.09188   0.10431   0.11372
 Alpha virt. eigenvalues --    0.11841   0.12204   0.13419   0.13779   0.14678

 Mulliken charges:
               1
     1  C   -4.687548
     2  C    4.171875
     3  C   -1.176721
     4  N   -3.459241
     5  C    4.715918
     6  O   -3.189848
     7  C   -4.520924
     8  H    1.232721
     9  H    1.312116
    10  H    1.172054
    11  H    1.355729
    12  H    0.726301
    13  H    1.204386
    14  H    1.143182
 Sum of Mulliken charges =  -0.00000

 Dipole moment (field-independent basis, Debye):
    X=              0.8023    Y=              1.9834    Z=             -0.1163  Tot=              2.1427

 Test job not archived.
 1\1\GINC-SE229\SP\RHF\Aug-CC-pVDZ\C5H7N1O1\OHZDE\09-Apr-2025\0\\#t hf
 aug-cc-pvdz iop(5/13=1,5/36=2,99/5=2) pseudo=read geom=check guess=(re
 ad,tcheck) scf=(maxcycle=1)\\title\\0,1\C,0,-1.92354353,0.69164893,-0.
 28930151\C,0,-0.5062014,0.30009223,-0.04502697\C,0,0.49331084,1.096713
 32,0.38279303\N,0,1.66999864,0.33340806,0.58297999\C,0,1.39927292,-0.9
 2986093,0.22552284\O,0,2.19180242,-1.87325906,-0.1561882\C,0,0.0274830
 2,-1.06255547,-0.12642399\H,0,-2.21571471,0.46705258,-1.31745441\H,0,-
 2.07815938,1.75650559,-0.11332382\H,0,-2.60018966,0.13817222,0.3666972

 Normal termination of Gaussian 16 at Wed Apr  9 18:55:50 2025.
