 Gaussian 16, Revision C.01,

 ----------------------------------------------------------------------
 #t hf aug-cc-pvdz symm=none int=(grid=ultrafine) guess=(read,tcheck) s
 table=(opt,rrhf)
 ----------------------------------------------------------------------
 -----
 title
 -----
 Symbolic Z-matrix:
 Charge =  0 Multiplicity = 1

 SCF Done:  E(RHF) =  -359.767064946     A.U. after   13 cycles
 Normal termination of Gaussian 16 at Wed Apr  9 19:11:56 2025.
 Gaussian 16:  ES64L-G16RevC.01  3-Jul-2019

 ----------------------------------------------------------------------
 #t hf aug-cc-pvdz iop(5/13=1,5/36=2,99/5=2) pseudo=read geom=check gue
 ss=(read,tcheck) scf=(maxcycle=1)
 ----------------------------------------------------------------------
 -----
 title
 -----
 Structure from the checkpoint file:  "Grambow2020_wb97xd3_008271_reverse_mol2.chk"
 Charge =  0 Multiplicity = 1

                         Standard orientation:
 ---------------------------------------------------------------------
 Center     Atomic      Atomic             Coordinates (Angstroms)
 Number     Number       Type             X           Y           Z
 ---------------------------------------------------------------------
      1          6           0        2.307092   -0.553513   -0.247446
      2          6           0        1.041163   -0.072480    0.413865
      3          6           0        0.513490    1.271681   -0.071278
      4          7           0       -2.310507   -0.751133   -0.104454
      5          6           0       -1.179232   -0.225560   -0.012411
      6          8           0       -0.896922    1.104092   -0.003612
      7          8           0       -0.046481   -0.944380    0.094647
      8          1           0        2.183103   -0.593881   -1.330609
      9          1           0        2.569546   -1.549082    0.109506
     10          1           0        3.132190    0.121924   -0.012709
     11          1           0        1.153749   -0.065546    1.503675
     12          1           0        0.807020    1.474767   -1.106102
     13          1           0        0.800977    2.109222    0.562037
     14          1           0       -3.020889   -0.037937   -0.219284
 ---------------------------------------------------------------------

 SCF Done:  E(RHF) =  -361.360779749     A.U. after    2 cycles

 The electronic state is 1-A.
 Alpha  occ. eigenvalues --  -21.09801 -21.09129 -15.71191 -11.50567 -11.49879
 Alpha  occ. eigenvalues --  -11.44384 -11.39433  -1.92431  -1.71643  -1.31823
 Alpha  occ. eigenvalues --   -1.17574  -1.02059  -0.88030  -0.80441  -0.73453
 Alpha  occ. eigenvalues --   -0.67359  -0.62012  -0.60928  -0.58905  -0.56785
 Alpha  occ. eigenvalues --   -0.52786  -0.51087  -0.43697  -0.41121  -0.37686
 Alpha  occ. eigenvalues --   -0.34399  -0.31153
 Alpha virt. eigenvalues --    0.03243   0.04734   0.04973   0.05453   0.05675
 Alpha virt. eigenvalues --    0.06072   0.06446   0.10260   0.10944   0.11892
 Alpha virt. eigenvalues --    0.13016   0.13461   0.14057   0.14592   0.15242

 Mulliken charges:
               1
     1  C   -3.582453
     2  C   -0.857928
     3  C   -1.058560
     4  N   -3.361936
     5  C    6.467739
     6  O   -3.008448
     7  O   -3.205202
     8  H    1.178506
     9  H    1.231873
    10  H    1.206242
    11  H    1.517525
    12  H    1.510892
    13  H    1.472463
    14  H    0.489286
 Sum of Mulliken charges =  -0.00000

 Dipole moment (field-independent basis, Debye):
    X=              3.3901    Y=              2.3385    Z=              0.2284  Tot=              4.1247

 Test job not archived.
 1\1\GINC-SE018\SP\RHF\Aug-CC-pVDZ\C4H7N1O2\OHZDE\09-Apr-2025\0\\#t hf
 aug-cc-pvdz iop(5/13=1,5/36=2,99/5=2) pseudo=read geom=check guess=(re
 ad,tcheck) scf=(maxcycle=1)\\title\\0,1\C,0,-1.727935,-0.81117165,-0.2
 6031499\C,0,-0.29351191,-0.41742559,-0.50258527\C,0,-0.00533287,1.0780
 0442,-0.46774873\N,0,2.49897578,-0.26215234,1.53231435\C,0,1.52529964,
 -0.01379726,0.78749515\O,0,1.29443182,1.13925966,0.10565016\O,0,0.5378
 4409,-0.89867324,0.55681421\H,0,-2.08231943,-0.40612442,0.68868149\H,0
 ,-1.82651348,-1.89607519,-0.23343083\H,0,-2.36158983,-0.43052379,-1.06

 Normal termination of Gaussian 16 at Wed Apr  9 19:12:00 2025.
