 Gaussian 16, Revision C.01,

 ----------------------------------------------------------------------
 #t hf aug-cc-pvdz symm=none int=(grid=ultrafine) guess=(read,tcheck) s
 table=(opt,rrhf)
 ----------------------------------------------------------------------
 -----
 title
 -----
 Symbolic Z-matrix:
 Charge =  0 Multiplicity = 1

 SCF Done:  E(RHF) =  -359.608480828     A.U. after   18 cycles
 Normal termination of Gaussian 16 at Wed Apr  9 04:05:52 2025.
 Gaussian 16:  ES64L-G16RevC.01  3-Jul-2019

 ----------------------------------------------------------------------
 #t hf aug-cc-pvdz iop(5/13=1,5/36=2,99/5=2) pseudo=read geom=check gue
 ss=(read,tcheck) scf=(maxcycle=1)
 ----------------------------------------------------------------------
 -----
 title
 -----
 Structure from the checkpoint file:  "Grambow2020_wb97xd3_009257_forward_mol1.chk"
 Charge =  0 Multiplicity = 1

                         Standard orientation:
 ---------------------------------------------------------------------
 Center     Atomic      Atomic             Coordinates (Angstroms)
 Number     Number       Type             X           Y           Z
 ---------------------------------------------------------------------
      1          6           0        0.756234    1.744267   -0.241067
      2          6           0        0.254378    0.385845    0.007825
      3          6           0        1.201870   -0.704794    0.332347
      4          8           0        2.393510   -0.631786    0.173542
      5          6           0       -1.104860   -0.109096   -0.258728
      6          8           0       -0.975014   -1.359357   -0.599787
      7          7           0       -2.171467    0.386272    0.560022
      8          1           0        1.343755    2.048471    0.630427
      9          1           0        1.461606    1.751931   -1.078815
     10          1           0       -0.051583    2.453902   -0.409922
     11          1           0       -1.115479    0.522857   -1.219942
     12          1           0        0.699488   -1.562437    0.816190
     13          1           0       -2.075227    0.058106    1.511594
     14          1           0       -3.056002    0.055076    0.198018
 ---------------------------------------------------------------------

 SCF Done:  E(RHF) =  -361.200030095     A.U. after    2 cycles

 The electronic state is 1-A.
 Alpha  occ. eigenvalues --  -21.09771 -20.98207 -15.75129 -11.55484 -11.50227
 Alpha  occ. eigenvalues --  -11.47386 -11.43314  -1.74594  -1.66091  -1.32409
 Alpha  occ. eigenvalues --   -1.23238  -1.02727  -0.93335  -0.77034  -0.70764
 Alpha  occ. eigenvalues --   -0.66655  -0.63482  -0.60088  -0.58535  -0.58102
 Alpha  occ. eigenvalues --   -0.51481  -0.49715  -0.47805  -0.36310  -0.33296
 Alpha  occ. eigenvalues --   -0.26187  -0.25185
 Alpha virt. eigenvalues --    0.01344   0.03266   0.04990   0.05451   0.05776
 Alpha virt. eigenvalues --    0.06154   0.06466   0.07312   0.09873   0.11486
 Alpha virt. eigenvalues --    0.12054   0.12907   0.13185   0.13951   0.14560

 Mulliken charges:
               1
     1  C   -3.839415
     2  C    0.315066
     3  C    1.828828
     4  O   -3.039448
     5  C    2.847261
     6  O   -2.842363
     7  N   -2.618817
     8  H    1.192949
     9  H    1.231974
    10  H    1.305340
    11  H    1.205089
    12  H    1.374612
    13  H    0.526526
    14  H    0.512400
 Sum of Mulliken charges =   0.00000

 Dipole moment (field-independent basis, Debye):
    X=              0.0548    Y=              2.0664    Z=              0.7662  Tot=              2.2046

 Test job not archived.
 1\1\GINC-SE220\SP\RHF\Aug-CC-pVDZ\C4H7N1O2\OHZDE\09-Apr-2025\0\\#t hf
 aug-cc-pvdz iop(5/13=1,5/36=2,99/5=2) pseudo=read geom=check guess=(re
 ad,tcheck) scf=(maxcycle=1)\\title\\0,1\C,0,-1.12900893,-1.22722936,0.
 16140638\C,0,-0.3741671,0.03341839,0.17121431\C,0,-0.97796672,1.252516
 54,0.75583006\O,0,-2.14854481,1.36700192,1.01505023\C,0,0.86969498,0.3
 1613104,-0.56119639\O,0,0.82045594,1.5763474,-0.8864129\N,0,2.06474663
 ,-0.35027609,-0.13558405\H,0,-1.42138357,-1.449808,1.1920364\H,0,-2.07
 112477,-1.11332281,-0.38528604\H,0,-0.54421154,-2.05065718,-0.24435418

 Normal termination of Gaussian 16 at Wed Apr  9 04:05:57 2025.
