 Gaussian 16, Revision C.01,

 ----------------------------------------------------------------------
 #t hf aug-cc-pvdz symm=none int=(grid=ultrafine) guess=(read,tcheck) s
 table=(opt,rrhf)
 ----------------------------------------------------------------------
 -----
 title
 -----
 Symbolic Z-matrix:
 Charge =  0 Multiplicity = 1

 SCF Done:  E(RHF) =  -287.949455629     A.U. after   15 cycles

 1\1\GINC-SE232\Stability\RHF\Aug-CC-pVDZ\C6H11N1\OHZDE\09-Apr-2025\0\\
 #t hf aug-cc-pvdz symm=none int=(grid=ultrafine) guess=(read,tcheck) s
 table=(opt,rrhf)\\title\\0,1\C,0,-2.82663925,0.20232023,-0.2649801\C,0
 ,-1.41576393,-0.37909764,-0.30323827\C,0,-0.41607953,0.42418411,0.4926
 003\C,0,1.51882927,-0.83713422,0.49358488\C,0,2.60021001,-0.15259594,-
 0.02779364\C,0,0.26876975,1.44953784,-0.05218322\N,0,1.20401323,2.0382
 4562,-0.49724509\H,0,-3.52082945,-0.42381288,-0.82868331\H,0,-2.844424
 35,1.20447005,-0.69653229\H,0,-3.19537982,0.27362148,0.7606562\H,0,-1.

 Normal termination of Gaussian 16 at Wed Apr  9 18:03:59 2025.
 Gaussian 16:  ES64L-G16RevC.01  3-Jul-2019

 ----------------------------------------------------------------------
 #t hf aug-cc-pvdz iop(5/13=1,5/36=2,99/5=2) pseudo=read geom=check gue
 ss=(read,tcheck) scf=(maxcycle=1)
 ----------------------------------------------------------------------
 -----
 title
 -----
 Structure from the checkpoint file:  "Grambow2020_wb97xd3_006567_reverse_mol1.chk"
 Charge =  0 Multiplicity = 1

                         Standard orientation:
 ---------------------------------------------------------------------
 Center     Atomic      Atomic             Coordinates (Angstroms)
 Number     Number       Type             X           Y           Z
 ---------------------------------------------------------------------
      1          6           0       -2.927605    0.015132   -0.092886
      2          6           0       -1.541409   -0.576132   -0.335679
      3          6           0       -0.475418    0.012942    0.555749
      4          6           0        1.412350   -1.262329    0.175206
      5          6           0        2.488798   -0.505929   -0.247797
      6          6           0        0.215821    1.116066    0.205799
      7          7           0        1.146981    1.765736   -0.155042
      8          1           0       -3.670760   -0.458221   -0.737371
      9          1           0       -2.932714    1.087068   -0.297299
     10          1           0       -3.241029   -0.128871    0.943460
     11          1           0       -1.572237   -1.655664   -0.160283
     12          1           0       -1.253488   -0.436319   -1.380644
     13          1           0       -0.602819   -0.133160    1.625227
     14          1           0        1.355758   -1.612994    1.197563
     15          1           0        0.827271   -1.825891   -0.540120
     16          1           0        2.767909   -0.537871   -1.296194
     17          1           0        1.959853    0.854260   -0.279625
     18          1           0        3.298169   -0.310990    0.448228
 ---------------------------------------------------------------------

 SCF Done:  E(RHF) =  -289.423747862     A.U. after    2 cycles

 The electronic state is 1-A.
 Alpha  occ. eigenvalues --  -15.74420 -11.46445 -11.44375 -11.43334 -11.40455
 Alpha  occ. eigenvalues --  -11.36898 -11.36355  -1.36407  -1.21601  -1.14103
 Alpha  occ. eigenvalues --   -1.03322  -0.88447  -0.85231  -0.71358  -0.65700
 Alpha  occ. eigenvalues --   -0.64685  -0.62145  -0.58455  -0.56274  -0.52438
 Alpha  occ. eigenvalues --   -0.52195  -0.50174  -0.49113  -0.47842  -0.41508
 Alpha  occ. eigenvalues --   -0.33699  -0.32380
 Alpha virt. eigenvalues --    0.03603   0.04815   0.05061   0.05567   0.05790
 Alpha virt. eigenvalues --    0.06081   0.06476   0.06944   0.07547   0.07905
 Alpha virt. eigenvalues --    0.08596   0.10789   0.11729   0.12236   0.13032

 Mulliken charges:
               1
     1  C   -3.900669
     2  C   -3.446623
     3  C   -0.612738
     4  C   -3.223033
     5  C   -3.450628
     6  C    2.332776
     7  N   -2.975138
     8  H    1.076371
     9  H    1.373278
    10  H    1.185830
    11  H    1.571045
    12  H    1.535685
    13  H    1.403369
    14  H    1.309602
    15  H    1.508195
    16  H    1.161880
    17  H    1.987253
    18  H    1.163545
 Sum of Mulliken charges =   0.00000

 Dipole moment (field-independent basis, Debye):
    X=             -0.8895    Y=             -2.3743    Z=              0.3784  Tot=              2.5635

 Test job not archived.
 1\1\GINC-SE232\SP\RHF\Aug-CC-pVDZ\C6H11N1\OHZDE\09-Apr-2025\0\\#t hf a
 ug-cc-pvdz iop(5/13=1,5/36=2,99/5=2) pseudo=read geom=check guess=(rea
 d,tcheck) scf=(maxcycle=1)\\title\\0,1\C,0,-2.82663925,0.20232023,-0.2
 649801\C,0,-1.41576393,-0.37909764,-0.30323827\C,0,-0.41607953,0.42418
 411,0.4926003\C,0,1.51882927,-0.83713422,0.49358488\C,0,2.60021001,-0.
 15259594,-0.02779364\C,0,0.26876975,1.44953784,-0.05218322\N,0,1.20401
 323,2.03824562,-0.49724509\H,0,-3.52082945,-0.42381288,-0.82868331\H,0
 ,-2.84442435,1.20447005,-0.69653229\H,0,-3.19537982,0.27362148,0.76065

 Normal termination of Gaussian 16 at Wed Apr  9 18:04:05 2025.
