 Gaussian 16, Revision C.01,

 ----------------------------------------------------------------------
 #t hf aug-cc-pvdz symm=none int=(grid=ultrafine) guess=(read,tcheck) s
 table=(opt,rrhf)
 ----------------------------------------------------------------------
 -----
 title
 -----
 Symbolic Z-matrix:
 Charge =  0 Multiplicity = 1

 SCF Done:  E(RHF) =  -359.694338964     A.U. after   15 cycles
 Normal termination of Gaussian 16 at Wed Apr  9 04:05:48 2025.
 Gaussian 16:  ES64L-G16RevC.01  3-Jul-2019

 ----------------------------------------------------------------------
 #t hf aug-cc-pvdz iop(5/13=1,5/36=2,99/5=2) pseudo=read geom=check gue
 ss=(read,tcheck) scf=(maxcycle=1)
 ----------------------------------------------------------------------
 -----
 title
 -----
 Structure from the checkpoint file:  "Grambow2020_wb97xd3_009254_reverse_mol1.chk"
 Charge =  0 Multiplicity = 1

                         Standard orientation:
 ---------------------------------------------------------------------
 Center     Atomic      Atomic             Coordinates (Angstroms)
 Number     Number       Type             X           Y           Z
 ---------------------------------------------------------------------
      1          6           0        0.269715    1.899172    0.436426
      2          6           0        0.296674    0.607061   -0.393194
      3          6           0        1.641284   -0.068469   -0.244223
      4          8           0        1.841314   -1.196474    0.110009
      5          6           0       -0.897558   -0.248901   -0.097705
      6          8           0       -2.090780    0.213099   -0.231235
      7          7           0       -0.991463   -1.475702    0.305012
      8          1           0        0.317162    1.675724    1.503142
      9          1           0        1.117179    2.536917    0.179224
     10          1           0       -0.650602    2.445193    0.240294
     11          1           0        0.218818    0.893352   -1.450001
     12          1           0        2.493719    0.597450   -0.493552
     13          1           0       -0.191915   -2.066373    0.477435
     14          1           0       -2.229083   -1.018528    0.170365
 ---------------------------------------------------------------------

 SCF Done:  E(RHF) =  -361.319122739     A.U. after    2 cycles

 The electronic state is 1-A.
 Alpha  occ. eigenvalues --  -21.08839 -21.03765 -15.73420 -11.52146 -11.51380
 Alpha  occ. eigenvalues --  -11.45154 -11.40198  -1.76609  -1.73491  -1.30428
 Alpha  occ. eigenvalues --   -1.23630  -0.98918  -0.89707  -0.77782  -0.71820
 Alpha  occ. eigenvalues --   -0.69088  -0.62074  -0.59345  -0.56342  -0.52889
 Alpha  occ. eigenvalues --   -0.50812  -0.49048  -0.45200  -0.44635  -0.34319
 Alpha  occ. eigenvalues --   -0.31462  -0.29948
 Alpha virt. eigenvalues --    0.03164   0.04936   0.05100   0.06072   0.06507
 Alpha virt. eigenvalues --    0.06760   0.07489   0.09941   0.10844   0.11824
 Alpha virt. eigenvalues --    0.12229   0.12704   0.14278   0.14550   0.14984

 Mulliken charges:
               1
     1  C   -3.562419
     2  C   -3.941719
     3  C    2.219540
     4  O   -3.049852
     5  C    6.411049
     6  O   -3.059600
     7  N   -3.483010
     8  H    1.377458
     9  H    1.269389
    10  H    1.285128
    11  H    1.625967
    12  H    1.467060
    13  H    0.831568
    14  H    0.609442
 Sum of Mulliken charges =  -0.00000

 Dipole moment (field-independent basis, Debye):
    X=              1.5899    Y=              1.4835    Z=             -0.3164  Tot=              2.1975

 Test job not archived.
 1\1\GINC-SE141\SP\RHF\Aug-CC-pVDZ\C4H7N1O2\OHZDE\09-Apr-2025\0\\#t hf
 aug-cc-pvdz iop(5/13=1,5/36=2,99/5=2) pseudo=read geom=check guess=(re
 ad,tcheck) scf=(maxcycle=1)\\title\\0,1\C,0,-1.16360301,-1.10383847,-0
 .35974242\C,0,-0.44568115,0.25200762,-0.2903556\C,0,-0.96970958,1.0487
 8424,0.88312349\O,0,-0.32206876,1.52246253,1.77423455\C,0,1.0418987,0.
 07836955,-0.34629493\O,0,1.597599,-0.5481992,-1.32285128\N,0,1.9783372
 6,0.46205317,0.46111502\H,0,-0.90152881,-1.72530534,0.497672\H,0,-2.24
 59344,-0.96392012,-0.36679697\H,0,-0.87340887,-1.62971849,-1.26684103\

 Normal termination of Gaussian 16 at Wed Apr  9 04:05:53 2025.
