 Gaussian 16, Revision C.01,

 ----------------------------------------------------------------------
 #t hf aug-cc-pvdz symm=none int=(grid=ultrafine) guess=(read,tcheck) s
 table=(opt,rrhf)
 ----------------------------------------------------------------------
 -----
 title
 -----
 Symbolic Z-matrix:
 Charge =  0 Multiplicity = 1

 SCF Done:  E(RHF) =  -359.498335432     A.U. after   17 cycles
 Normal termination of Gaussian 16 at Wed Apr  9 18:06:44 2025.
 Gaussian 16:  ES64L-G16RevC.01  3-Jul-2019

 ----------------------------------------------------------------------
 #t hf aug-cc-pvdz iop(5/13=1,5/36=2,99/5=2) pseudo=read geom=check gue
 ss=(read,tcheck) scf=(maxcycle=1)
 ----------------------------------------------------------------------
 -----
 title
 -----
 Structure from the checkpoint file:  "Grambow2020_wb97xd3_006596_forward_mol1.chk"
 Charge =  0 Multiplicity = 1

                         Standard orientation:
 ---------------------------------------------------------------------
 Center     Atomic      Atomic             Coordinates (Angstroms)
 Number     Number       Type             X           Y           Z
 ---------------------------------------------------------------------
      1          6           0       -2.294641   -0.344847   -0.423644
      2          7           0       -0.858756    1.440834    0.027026
      3          6           0        0.188482    0.932455    0.348233
      4          6           0        1.508615    0.677121   -0.347009
      5          8           0        1.310146   -0.697907   -0.691558
      6          6           0        0.283589   -1.166099    0.138927
      7          8           0        0.178363   -0.354797    1.186176
      8          1           0       -2.768388    0.166030    0.396539
      9          1           0       -2.335821    0.161691   -1.377012
     10          1           0       -2.479483   -1.414774   -0.450218
     11          1           0        2.365114    0.781514    0.318404
     12          1           0        1.625406    1.262307   -1.255259
     13          1           0        0.356099   -2.233570    0.343098
     14          1           0       -0.775973   -0.979190   -0.420721
 ---------------------------------------------------------------------

 SCF Done:  E(RHF) =  -361.117732103     A.U. after    2 cycles

 The electronic state is 1-A.
 Alpha  occ. eigenvalues --  -21.07266 -21.05619 -15.69863 -11.49482 -11.49059
 Alpha  occ. eigenvalues --  -11.46657 -11.41298  -1.88948  -1.66985  -1.26869
 Alpha  occ. eigenvalues --   -1.08474  -1.03577  -0.88876  -0.78196  -0.70656
 Alpha  occ. eigenvalues --   -0.65767  -0.63325  -0.62867  -0.61283  -0.54486
 Alpha  occ. eigenvalues --   -0.49140  -0.46137  -0.39152  -0.38676  -0.32854
 Alpha  occ. eigenvalues --   -0.31769  -0.26033
 Alpha virt. eigenvalues --    0.01224   0.03847   0.05441   0.05718   0.06106
 Alpha virt. eigenvalues --    0.06679   0.06984   0.07630   0.10053   0.10400
 Alpha virt. eigenvalues --    0.11936   0.12910   0.13527   0.14421   0.14883

 Mulliken charges:
               1
     1  C   -3.965589
     2  N   -3.093448
     3  C    3.648102
     4  C   -1.648227
     5  O   -2.814646
     6  C    0.670624
     7  O   -2.691702
     8  H    1.261329
     9  H    1.183783
    10  H    0.855614
    11  H    1.423098
    12  H    1.356449
    13  H    1.347388
    14  H    2.467226
 Sum of Mulliken charges =  -0.00000

 Dipole moment (field-independent basis, Debye):
    X=             -0.3753    Y=             -2.8467    Z=             -0.5488  Tot=              2.9233

 Test job not archived.
 1\1\GINC-SE112\SP\RHF\Aug-CC-pVDZ\C4H7N1O2\OHZDE\09-Apr-2025\0\\#t hf
 aug-cc-pvdz iop(5/13=1,5/36=2,99/5=2) pseudo=read geom=check guess=(re
 ad,tcheck) scf=(maxcycle=1)\\title\\0,1\C,0,1.71939887,-1.1305137,-0.4
 4792193\N,0,1.2035514,1.14663402,-0.49288201\C,0,0.00292261,1.19755978
 ,-0.61215544\C,0,-1.15374802,1.44877228,0.33140859\O,0,-1.55042648,0.0
 9172295,0.55472399\C,0,-1.00269185,-0.65504468,-0.49649207\O,0,-0.7130
 6384,0.16788382,-1.49894762\H,0,2.23173625,-0.76749783,-1.32191378\H,0
 ,2.1432677,-0.83320577,0.50030254\H,0,1.39759248,-2.16558701,-0.516336

 Normal termination of Gaussian 16 at Wed Apr  9 18:06:49 2025.
