 Gaussian 16, Revision C.01,

 ----------------------------------------------------------------------
 #t hf aug-cc-pvdz symm=none int=(grid=ultrafine) guess=(read,tcheck) s
 table=(opt,rrhf)
 ----------------------------------------------------------------------
 -----
 title
 -----
 Symbolic Z-matrix:
 Charge =  0 Multiplicity = 1

 SCF Done:  E(RHF) =  -323.932639338     A.U. after   13 cycles
 Normal termination of Gaussian 16 at Wed Apr  9 03:52:59 2025.
 Gaussian 16:  ES64L-G16RevC.01  3-Jul-2019

 ----------------------------------------------------------------------
 #t hf aug-cc-pvdz iop(5/13=1,5/36=2,99/5=2) pseudo=read geom=check gue
 ss=(read,tcheck) scf=(maxcycle=1)
 ----------------------------------------------------------------------
 -----
 title
 -----
 Structure from the checkpoint file:  "Grambow2020_wb97xd3_008324_reverse_mol2.chk"
 Charge =  0 Multiplicity = 1

                         Standard orientation:
 ---------------------------------------------------------------------
 Center     Atomic      Atomic             Coordinates (Angstroms)
 Number     Number       Type             X           Y           Z
 ---------------------------------------------------------------------
      1          7           0        0.842007    1.882677   -0.012169
      2          6           0        0.112229    0.862838    0.066832
      3          6           0        1.964023   -0.857617   -0.149195
      4          6           0        0.582853   -0.537941    0.390028
      5          6           0       -0.568105   -1.389133   -0.145115
      6          6           0       -1.759651   -0.459982    0.036627
      7          8           0       -1.232984    0.861642   -0.126636
      8          1           0        0.291072    2.710256   -0.226214
      9          1           0        1.971492   -0.807253   -1.239901
     10          1           0        2.692570   -0.137591    0.221799
     11          1           0        0.596752   -0.608473    1.484540
     12          1           0        2.274640   -1.859703    0.152274
     13          1           0       -0.411414   -1.602738   -1.205758
     14          1           0       -0.690504   -2.335901    0.380034
     15          1           0       -2.193868   -0.543220    1.037818
     16          1           0       -2.549012   -0.596242   -0.701379
 ---------------------------------------------------------------------

 SCF Done:  E(RHF) =  -325.450148730     A.U. after    2 cycles

 The electronic state is 1-A.
 Alpha  occ. eigenvalues --  -21.07665 -15.71141 -11.49866 -11.46452 -11.42530
 Alpha  occ. eigenvalues --  -11.39764 -11.36515  -1.81576  -1.31143  -1.24245
 Alpha  occ. eigenvalues --   -1.06962  -0.96964  -0.86502  -0.75871  -0.69075
 Alpha  occ. eigenvalues --   -0.67028  -0.60985  -0.59874  -0.56224  -0.53971
 Alpha  occ. eigenvalues --   -0.52266  -0.47783  -0.44813  -0.43984  -0.40945
 Alpha  occ. eigenvalues --   -0.36000  -0.30401
 Alpha virt. eigenvalues --    0.03723   0.04894   0.05169   0.05225   0.05789
 Alpha virt. eigenvalues --    0.06347   0.06653   0.07427   0.08285   0.11121
 Alpha virt. eigenvalues --    0.11788   0.12672   0.13605   0.13867   0.14084

 Mulliken charges:
               1
     1  N   -3.726571
     2  C    5.938111
     3  C   -4.006144
     4  C   -1.544117
     5  C   -3.088790
     6  C   -1.688466
     7  O   -3.460907
     8  H    0.703485
     9  H    1.232272
    10  H    1.212132
    11  H    1.581568
    12  H    1.226599
    13  H    1.463229
    14  H    1.246989
    15  H    1.523502
    16  H    1.387105
 Sum of Mulliken charges =   0.00000

 Dipole moment (field-independent basis, Debye):
    X=             -1.9702    Y=             -2.2159    Z=              0.0683  Tot=              2.9659

 Test job not archived.
 1\1\GINC-SE363\SP\RHF\Aug-CC-pVDZ\C5H9N1O1\OHZDE\09-Apr-2025\0\\#t hf
 aug-cc-pvdz iop(5/13=1,5/36=2,99/5=2) pseudo=read geom=check guess=(re
 ad,tcheck) scf=(maxcycle=1)\\title\\0,1\N,0,2.25317879,0.47540958,0.39
 719175\C,0,1.00692598,0.59454268,0.2897215\C,0,0.51128367,-1.8345938,-
 0.24824737\C,0,0.00281145,-0.53533782,0.34671088\C,0,-1.21550418,0.090
 372,-0.33137843\C,0,-1.05444142,1.5614049,0.02394328\O,0,0.35924049,1.
 77500146,0.10519674\H,0,2.71268415,1.38097088,0.34200244\H,0,0.7294867
 5,-1.71079094,-1.31092885\H,0,1.43136824,-2.14424996,0.24613378\H,0,-0

 Normal termination of Gaussian 16 at Wed Apr  9 03:53:08 2025.
