 Gaussian 16, Revision C.01,

 ----------------------------------------------------------------------
 #t hf aug-cc-pvdz symm=none int=(grid=ultrafine) guess=(read,tcheck) s
 table=(opt,rrhf)
 ----------------------------------------------------------------------
 -----
 title
 -----
 Symbolic Z-matrix:
 Charge =  0 Multiplicity = 1

 SCF Done:  E(RHF) =  -374.453468282     A.U. after   15 cycles
 Normal termination of Gaussian 16 at Wed Apr  9 18:37:14 2025.
 Gaussian 16:  ES64L-G16RevC.01  3-Jul-2019

 ----------------------------------------------------------------------
 #t hf aug-cc-pvdz iop(5/13=1,5/36=2,99/5=2) pseudo=read geom=check gue
 ss=(read,tcheck) scf=(maxcycle=1)
 ----------------------------------------------------------------------
 -----
 title
 -----
 Structure from the checkpoint file:  "Grambow2020_wb97xd3_007338_reverse_mol1.chk"
 Charge =  0 Multiplicity = 1

                         Standard orientation:
 ---------------------------------------------------------------------
 Center     Atomic      Atomic             Coordinates (Angstroms)
 Number     Number       Type             X           Y           Z
 ---------------------------------------------------------------------
      1          7           0       -2.369443   -0.280710    0.077285
      2          6           0       -0.956558   -0.182170   -0.168384
      3          6           0       -0.648097    1.109453   -0.077615
      4          8           0        0.734433    1.167903    0.020072
      5          6           0        1.240132   -0.109928    0.033867
      6          8           0        2.402796   -0.381781    0.035240
      7          7           0        0.158104   -0.995357    0.028620
      8          1           0       -2.943075   -0.706581   -0.643762
      9          1           0       -2.639858   -0.621347    0.996018
     10          1           0       -2.163566    0.974987    0.099917
     11          1           0        0.315174   -1.907703   -0.363217
 ---------------------------------------------------------------------

 SCF Done:  E(RHF) =  -376.097797150     A.U. after    2 cycles

 The electronic state is 1-A.
 Alpha  occ. eigenvalues --  -21.09645 -21.03268 -15.86527 -15.78947 -11.51758
 Alpha  occ. eigenvalues --  -11.42871 -11.37478  -1.86327  -1.67258  -1.48423
 Alpha  occ. eigenvalues --   -1.37075  -1.05683  -0.84657  -0.80820  -0.76733
 Alpha  occ. eigenvalues --   -0.75359  -0.63776  -0.60311  -0.55558  -0.51492
 Alpha  occ. eigenvalues --   -0.43737  -0.42091  -0.41003  -0.38024  -0.29212
 Alpha  occ. eigenvalues --   -0.25005
 Alpha virt. eigenvalues --    0.01439   0.04146   0.04564   0.05452   0.09097
 Alpha virt. eigenvalues --    0.10613   0.10879   0.11814   0.12372   0.12510
 Alpha virt. eigenvalues --    0.12833   0.14657   0.15372   0.16135   0.16583

 Mulliken charges:
               1
     1  N   -3.192544
     2  C    4.017257
     3  C   -0.412865
     4  O   -2.920125
     5  C    5.539922
     6  O   -3.156430
     7  N   -2.760830
     8  H    0.652798
     9  H    0.565655
    10  H    0.989533
    11  H    0.677629
 Sum of Mulliken charges =   0.00000

 Dipole moment (field-independent basis, Debye):
    X=             -5.9459    Y=             -3.5487    Z=              0.1312  Tot=              6.9256

 Test job not archived.
 1\1\GINC-SE220\SP\RHF\Aug-CC-pVDZ\C3H4N2O2\OHZDE\09-Apr-2025\0\\#t hf
 aug-cc-pvdz iop(5/13=1,5/36=2,99/5=2) pseudo=read geom=check guess=(re
 ad,tcheck) scf=(maxcycle=1)\\title\\0,1\N,0,-1.75566727,0.10098676,-0.
 03823664\C,0,-0.32914141,0.010009,-0.19007373\C,0,0.12924941,1.2596252
 4,-0.19388761\O,0,1.50010533,1.16612269,-0.00321062\C,0,1.84363922,-0.
 15434675,0.1614711\O,0,2.96201278,-0.55815617,0.27042199\N,0,0.6635546
 8,-0.9041383,0.15841638\H,0,-2.33267644,-0.32370604,-0.7572811\H,0,-2.
 12064315,-0.1144149,0.88568002\H,0,-1.39919759,1.32036593,-0.11384657\

 Normal termination of Gaussian 16 at Wed Apr  9 18:37:18 2025.
