 Gaussian 16, Revision C.01,

 ----------------------------------------------------------------------
 #t hf aug-cc-pvdz symm=none int=(grid=ultrafine) guess=(read,tcheck) s
 table=(opt,rrhf)
 ----------------------------------------------------------------------
 -----
 title
 -----
 Symbolic Z-matrix:
 Charge =  0 Multiplicity = 1

 SCF Done:  E(RHF) =  -284.831855239     A.U. after   15 cycles
 Normal termination of Gaussian 16 at Wed Apr  9 03:06:52 2025.
 Gaussian 16:  ES64L-G16RevC.01  3-Jul-2019

 ----------------------------------------------------------------------
 #t hf aug-cc-pvdz iop(5/13=1,5/36=2,99/5=2) pseudo=read geom=check gue
 ss=(read,tcheck) scf=(maxcycle=1)
 ----------------------------------------------------------------------
 -----
 title
 -----
 Structure from the checkpoint file:  "Grambow2020_b97d3_006536_reverse_mol2.chk"
 Charge =  0 Multiplicity = 1

                         Standard orientation:
 ---------------------------------------------------------------------
 Center     Atomic      Atomic             Coordinates (Angstroms)
 Number     Number       Type             X           Y           Z
 ---------------------------------------------------------------------
      1          6           0        1.917446    0.708533   -0.459250
      2          6           0       -1.245094    1.236797    0.275269
      3          8           0       -1.611238   -0.046810   -0.262276
      4          6           0       -0.739721   -1.086625   -0.181887
      5          7           0        0.478616   -1.170844    0.174628
      6          6           0        1.425014   -0.184701    0.425822
      7          1           0       -0.519555    1.745308   -0.370617
      8          1           0        2.759952    1.341844   -0.188117
      9          1           0       -0.811021    1.129344    1.277116
     10          1           0       -2.181066    1.802946    0.329539
     11          1           0       -1.275391   -1.995839   -0.468298
     12          1           0        1.530827    0.780136   -1.475862
     13          1           0        1.889977   -0.277378    1.412319
 ---------------------------------------------------------------------

 SCF Done:  E(RHF) =  -286.139333536     A.U. after    2 cycles

 The electronic state is 1-A.
 Alpha  occ. eigenvalues --  -21.09313 -15.73386 -11.47892 -11.43288 -11.41994
 Alpha  occ. eigenvalues --  -11.36814  -1.79566  -1.37528  -1.11076  -1.01582
 Alpha  occ. eigenvalues --   -0.88588  -0.75568  -0.67998  -0.65413  -0.62431
 Alpha  occ. eigenvalues --   -0.59721  -0.56142  -0.52644  -0.48319  -0.44446
 Alpha  occ. eigenvalues --   -0.42397  -0.32049  -0.28791
 Alpha virt. eigenvalues --    0.03401   0.05283   0.05721   0.05765   0.06271
 Alpha virt. eigenvalues --    0.06648   0.07304   0.10390   0.10945   0.11792
 Alpha virt. eigenvalues --    0.12676   0.13217   0.14017   0.14864   0.15127

 Mulliken charges:
               1
     1  C   -2.775774
     2  C   -3.036241
     3  O   -3.014536
     4  C    1.913770
     5  N   -3.339079
     6  C    0.004331
     7  H    1.448668
     8  H    1.286282
     9  H    1.422934
    10  H    1.260490
    11  H    1.828449
    12  H    1.501802
    13  H    1.498905
 Sum of Mulliken charges =   0.00000

 Dipole moment (field-independent basis, Debye):
    X=             -1.6458    Y=              1.3851    Z=              0.2158  Tot=              2.1619

 Test job not archived.
 1\1\GINC-SE120\SP\RHF\Aug-CC-pVDZ\C4H7N1O1\OHZDE\09-Apr-2025\0\\#t hf
 aug-cc-pvdz iop(5/13=1,5/36=2,99/5=2) pseudo=read geom=check guess=(re
 ad,tcheck) scf=(maxcycle=1)\\title\\0,1\C,0,1.82585122,-0.10233337,0.3
 8781983\C,0,-1.3204246,-1.04088299,0.18703137\O,0,-1.7616558,0.3244966
 4,0.29527627\C,0,-0.99562122,1.32465996,-0.21470971\N,0,0.18150718,1.3
 5534256,-0.6963407\C,0,1.19272965,0.40210412,-0.69310997\H,0,-0.507601
 62,-1.25242446,0.8918221\H,0,2.70057478,-0.73790117,0.26402694\H,0,-0.
 97057377,-1.25699804,-0.83010214\H,0,-2.20290048,-1.64699234,0.4180721

 Normal termination of Gaussian 16 at Wed Apr  9 03:06:56 2025.
