 Gaussian 16, Revision C.01,

 ----------------------------------------------------------------------
 #t hf aug-cc-pvdz symm=none int=(grid=ultrafine) guess=(read,tcheck) s
 table=(opt,rrhf)
 ----------------------------------------------------------------------
 -----
 title
 -----
 Symbolic Z-matrix:
 Charge =  0 Multiplicity = 1

 SCF Done:  E(RHF) =  -332.489611774     A.U. after   17 cycles
 Normal termination of Gaussian 16 at Wed Apr  9 19:27:49 2025.
 Gaussian 16:  ES64L-G16RevC.01  3-Jul-2019

 ----------------------------------------------------------------------
 #t hf aug-cc-pvdz iop(5/13=1,5/36=2,99/5=2) pseudo=read geom=check gue
 ss=(read,tcheck) scf=(maxcycle=1)
 ----------------------------------------------------------------------
 -----
 title
 -----
 Structure from the checkpoint file:  "Grambow2020_wb97xd3_009011_reverse_mol1.chk"
 Charge =  0 Multiplicity = 1

                         Standard orientation:
 ---------------------------------------------------------------------
 Center     Atomic      Atomic             Coordinates (Angstroms)
 Number     Number       Type             X           Y           Z
 ---------------------------------------------------------------------
      1          7           0        2.884603    0.074718   -0.000846
      2          6           0        1.735225    0.022668    0.000388
      3          6           0        0.327298    0.008743    0.001301
      4          6           0       -0.587132    1.112310    0.000150
      5          7           0       -1.828601    0.829599   -0.000265
      6          7           0       -1.534142   -1.298036   -0.000635
      7          7           0       -0.406451   -1.117630    0.000343
      8          1           0       -0.175438    2.118507   -0.000533
      9          1           0       -2.484769    1.598612   -0.000683
 ---------------------------------------------------------------------

 SCF Done:  E(RHF) =  -333.970304922     A.U. after    2 cycles

 The electronic state is 1-A.
 Alpha  occ. eigenvalues --  -15.92125 -15.91743 -15.77081 -15.76641 -11.50911
 Alpha  occ. eigenvalues --  -11.47144 -11.44407  -1.67310  -1.38529  -1.31867
 Alpha  occ. eigenvalues --   -1.19321  -0.94100  -0.86516  -0.79252  -0.67805
 Alpha  occ. eigenvalues --   -0.65692  -0.64850  -0.56429  -0.52063  -0.51346
 Alpha  occ. eigenvalues --   -0.46974  -0.45397  -0.42837  -0.31960
 Alpha virt. eigenvalues --    0.03091   0.05331   0.07664   0.08982   0.09076
 Alpha virt. eigenvalues --    0.10167   0.10901   0.11756   0.12572   0.13364
 Alpha virt. eigenvalues --    0.13528   0.13968   0.14232   0.14989   0.16415

 Mulliken charges:
               1
     1  N   -2.689848
     2  C    1.842661
     3  C    2.002673
     4  C    1.310504
     5  N   -2.862797
     6  N   -1.315302
     7  N   -0.671536
     8  H    1.601901
     9  H    0.781746
 Sum of Mulliken charges =  -0.00000

 Dipole moment (field-independent basis, Debye):
    X=             -3.4748    Y=              1.4671    Z=             -0.0005  Tot=              3.7718

 Test job not archived.
 1\1\GINC-SE084\SP\RHF\Aug-CC-pVDZ\C3H2N4\OHZDE\09-Apr-2025\0\\#t hf au
 g-cc-pvdz iop(5/13=1,5/36=2,99/5=2) pseudo=read geom=check guess=(read
 ,tcheck) scf=(maxcycle=1)\\title\\0,1\N,0,3.07288868,0.31135282,0.5125
 2591\C,0,1.94268964,0.35519272,0.30155038\C,0,0.5572197,0.35965514,0.0
 5073953\C,0,-0.36374719,-0.73845552,0.04671273\N,0,-1.58056871,-0.4666
 7399,-0.21145929\N,0,-1.25097418,1.6412235,-0.45979982\N,0,-0.1441373,
 1.46988047,-0.23666636\H,0,0.02255764,-1.73159946,0.26202247\H,0,-2.24
 092827,-1.23206368,-0.21797754\\Version=ES64L-G16RevC.01\State=1-A\HF=

 Normal termination of Gaussian 16 at Wed Apr  9 19:27:52 2025.
