 Gaussian 16, Revision C.01,

 ----------------------------------------------------------------------
 #t hf aug-cc-pvdz symm=none int=(grid=ultrafine) guess=(read,tcheck) s
 table=(opt,rrhf)
 ----------------------------------------------------------------------
 -----
 title
 -----
 Symbolic Z-matrix:
 Charge =  0 Multiplicity = 1

 SCF Done:  E(RHF) =  -336.269161056     A.U. after   18 cycles
 Normal termination of Gaussian 16 at Wed Apr  9 03:46:12 2025.
 Gaussian 16:  ES64L-G16RevC.01  3-Jul-2019

 ----------------------------------------------------------------------
 #t hf aug-cc-pvdz iop(5/13=1,5/36=2,99/5=2) pseudo=read geom=check gue
 ss=(read,tcheck) scf=(maxcycle=1)
 ----------------------------------------------------------------------
 -----
 title
 -----
 Structure from the checkpoint file:  "Grambow2020_wb97xd3_007921_reverse_mol2.chk"
 Charge =  0 Multiplicity = 1

                         Standard orientation:
 ---------------------------------------------------------------------
 Center     Atomic      Atomic             Coordinates (Angstroms)
 Number     Number       Type             X           Y           Z
 ---------------------------------------------------------------------
      1          7           0       -1.442615    1.123237   -0.045506
      2          6           0       -1.770175   -0.207911   -0.034519
      3          8           0       -2.668817   -0.970536    0.055845
      4          6           0       -0.377240    0.208000   -0.082872
      5          6           0        0.914429    0.119264   -0.028310
      6          6           0        2.167562   -0.090259    0.002692
      7          7           0        3.356002   -0.378174    0.022410
      8          1           0        4.007500    0.392602    0.127517
      9          1           0       -1.658131    1.981680    0.445448
 ---------------------------------------------------------------------

 SCF Done:  E(RHF) =  -337.721386349     A.U. after    2 cycles

 The electronic state is 1-A.
 Alpha  occ. eigenvalues --  -21.09234 -15.82910 -15.78452 -11.58139 -11.54094
 Alpha  occ. eigenvalues --  -11.51063 -11.43151  -1.75449  -1.51796  -1.37295
 Alpha  occ. eigenvalues --   -1.13034  -0.97274  -0.88026  -0.72598  -0.67778
 Alpha  occ. eigenvalues --   -0.65273  -0.62613  -0.56140  -0.52031  -0.51988
 Alpha  occ. eigenvalues --   -0.41165  -0.36117  -0.33122  -0.29531
 Alpha virt. eigenvalues --    0.02768   0.04353   0.06898   0.07446   0.08326
 Alpha virt. eigenvalues --    0.10394   0.10990   0.11372   0.11558   0.11846
 Alpha virt. eigenvalues --    0.13937   0.14952   0.15703   0.16169   0.17198

 Mulliken charges:
               1
     1  N   -2.492489
     2  C    3.281158
     3  O   -3.206371
     4  C    2.029856
     5  C    0.912528
     6  C    1.763449
     7  N   -3.653479
     8  H    0.672235
     9  H    0.693113
 Sum of Mulliken charges =   0.00000

 Dipole moment (field-independent basis, Debye):
    X=             -0.3364    Y=              3.0932    Z=              0.8157  Tot=              3.2166

 Test job not archived.
 1\1\GINC-SE341\SP\RHF\Aug-CC-pVDZ\C4H2N2O1\OHZDE\09-Apr-2025\0\\#t hf
 aug-cc-pvdz iop(5/13=1,5/36=2,99/5=2) pseudo=read geom=check guess=(re
 ad,tcheck) scf=(maxcycle=1)\\title\\0,1\N,0,-1.79836268,-0.42791344,0.
 31229295\C,0,-1.27106814,-1.60936361,0.76562099\O,0,-1.54399078,-2.697
 75503,1.1374261\C,0,-0.40957844,-0.46295771,0.52236188\C,0,0.65381888,
 0.27731855,0.54330975\C,0,1.76210399,0.89809696,0.58257031\N,0,2.86753
 888,1.4181603,0.63932353\H,0,2.90867932,2.41622706,0.46109953\H,0,-2.5
 5645504,0.21270892,0.51055095\\Version=ES64L-G16RevC.01\State=1-A\HF=-

 Normal termination of Gaussian 16 at Wed Apr  9 03:46:15 2025.
