 Gaussian 16, Revision C.01,

 ----------------------------------------------------------------------
 #t hf aug-cc-pvdz symm=none int=(grid=ultrafine) guess=(read,tcheck) s
 table=(opt,rrhf)
 ----------------------------------------------------------------------
 -----
 title
 -----
 Symbolic Z-matrix:
 Charge =  0 Multiplicity = 1

 SCF Done:  E(RHF) =  -322.442286561     A.U. after   14 cycles
 Normal termination of Gaussian 16 at Wed Apr  9 18:03:05 2025.
 Gaussian 16:  ES64L-G16RevC.01  3-Jul-2019

 ----------------------------------------------------------------------
 #t hf aug-cc-pvdz iop(5/13=1,5/36=2,99/5=2) pseudo=read geom=check gue
 ss=(read,tcheck) scf=(maxcycle=1)
 ----------------------------------------------------------------------
 -----
 title
 -----
 Structure from the checkpoint file:  "Grambow2020_wb97xd3_006560_reverse_mol1.chk"
 Charge =  0 Multiplicity = 1

                         Standard orientation:
 ---------------------------------------------------------------------
 Center     Atomic      Atomic             Coordinates (Angstroms)
 Number     Number       Type             X           Y           Z
 ---------------------------------------------------------------------
      1          8           0        2.296380    0.391318   -0.002279
      2          6           0        1.141050   -0.216388    0.001208
      3          6           0       -0.050062   -0.098341    0.936828
      4          6           0       -0.682108    0.967415   -0.005435
      5          6           0       -1.959024    0.146756   -0.001263
      6          7           0       -0.917660   -0.953769    0.005683
      7          6           0       -0.049768   -0.109623   -0.935134
      8          1           0        2.173139   -0.997606    0.007239
      9          1           0        1.401376   -1.594962    0.006264
     10          1           0       -0.128481   -0.167321    2.019368
     11          1           0       -0.508233    2.042299   -0.012125
     12          1           0       -2.579444    0.163750    0.896708
     13          1           0       -2.579042    0.153022   -0.899683
     14          1           0       -0.127266   -0.192258   -2.016536
 ---------------------------------------------------------------------

 SCF Done:  E(RHF) =  -323.965620179     A.U. after    2 cycles

 The electronic state is 1-A.
 Alpha  occ. eigenvalues --  -21.00276 -15.73947 -11.57274 -11.50242 -11.48738
 Alpha  occ. eigenvalues --  -11.46125 -11.41141  -1.71488  -1.59528  -1.12846
 Alpha  occ. eigenvalues --   -1.02134  -0.97239  -0.89617  -0.78397  -0.74593
 Alpha  occ. eigenvalues --   -0.67526  -0.65526  -0.57580  -0.53494  -0.48706
 Alpha  occ. eigenvalues --   -0.46538  -0.44042  -0.42066  -0.34492  -0.29325
 Alpha  occ. eigenvalues --   -0.26787
 Alpha virt. eigenvalues --    0.03684   0.04408   0.05173   0.05543   0.06069
 Alpha virt. eigenvalues --    0.06194   0.07692   0.09702   0.10121   0.10943
 Alpha virt. eigenvalues --    0.12697   0.12767   0.13679   0.13851   0.14288

 Mulliken charges:
               1
     1  O   -3.165880
     2  C    2.164051
     3  C   -0.781308
     4  C   -0.972911
     5  C   -2.219778
     6  N   -1.421762
     7  C   -0.778732
     8  H    0.891552
     9  H    0.210762
    10  H    1.141269
    11  H    1.182833
    12  H    1.304063
    13  H    1.304515
    14  H    1.141325
 Sum of Mulliken charges =  -0.00000

 Dipole moment (field-independent basis, Debye):
    X=             -1.8228    Y=              0.6476    Z=             -0.0036  Tot=              1.9345

 Test job not archived.
 1\1\GINC-SE173\SP\RHF\Aug-CC-pVDZ\C5H7N1O1\OHZDE\09-Apr-2025\0\\#t hf
 aug-cc-pvdz iop(5/13=1,5/36=2,99/5=2) pseudo=read geom=check guess=(re
 ad,tcheck) scf=(maxcycle=1)\\title\\0,1\O,0,2.45811601,-0.20095291,0.4
 9424332\C,0,1.33045827,0.09679855,-0.09213438\C,0,0.1621486,-0.7757535
 8,-0.51848529\C,0,-0.54124405,-0.49509428,0.84153179\C,0,-1.78117853,-
 0.09172291,0.06444174\N,0,-0.69380408,0.45597935,-0.83737982\C,0,0.110
 31004,0.85060833,0.40705798\H,0,2.39485347,0.48548226,-0.71785994\H,0,
 1.64968989,0.78302267,-1.27342598\H,0,0.11721827,-1.67870743,-1.123015

 Normal termination of Gaussian 16 at Wed Apr  9 18:03:10 2025.
