 Gaussian 16, Revision C.01,

 ----------------------------------------------------------------------
 #t hf aug-cc-pvdz symm=none int=(grid=ultrafine) guess=(read,tcheck) s
 table=(opt,rrhf)
 ----------------------------------------------------------------------
 -----
 title
 -----
 Symbolic Z-matrix:
 Charge =  0 Multiplicity = 1

 SCF Done:  E(RHF) =  -323.735424959     A.U. after   15 cycles
 Normal termination of Gaussian 16 at Wed Apr  9 18:19:28 2025.
 Gaussian 16:  ES64L-G16RevC.01  3-Jul-2019

 ----------------------------------------------------------------------
 #t hf aug-cc-pvdz iop(5/13=1,5/36=2,99/5=2) pseudo=read geom=check gue
 ss=(read,tcheck) scf=(maxcycle=1)
 ----------------------------------------------------------------------
 -----
 title
 -----
 Structure from the checkpoint file:  "Grambow2020_wb97xd3_006868_forward_mol1.chk"
 Charge =  0 Multiplicity = 1

                         Standard orientation:
 ---------------------------------------------------------------------
 Center     Atomic      Atomic             Coordinates (Angstroms)
 Number     Number       Type             X           Y           Z
 ---------------------------------------------------------------------
      1          6           0        2.670250    0.130506   -0.098088
      2          7           0        1.344246    0.148253    0.456638
      3          6           0       -0.777208   -1.386861    0.380626
      4          6           0        0.397544   -0.361726   -0.317842
      5          6           0       -0.912049    0.334472   -0.361659
      6          8           0       -1.822434   -0.664644   -0.235051
      7          6           0       -1.244935    1.679223    0.129522
      8          1           0        3.411048    0.047933    0.701886
      9          1           0        2.911064    1.049756   -0.653146
     10          1           0        2.829782   -0.708148   -0.799856
     11          1           0       -0.712573   -2.422155    0.057097
     12          1           0       -0.730802   -1.228267    1.452396
     13          1           0        0.648871   -0.870912   -1.266126
     14          1           0       -2.226340    1.965968   -0.253845
     15          1           0       -1.293751    1.690467    1.223606
     16          1           0       -0.469158    2.381053   -0.173423
 ---------------------------------------------------------------------

 SCF Done:  E(RHF) =  -325.256639516     A.U. after    2 cycles

 The electronic state is 1-A.
 Alpha  occ. eigenvalues --  -21.12778 -15.63321 -11.53086 -11.48869 -11.43942
 Alpha  occ. eigenvalues --  -11.41213 -11.34383  -1.87243  -1.33872  -1.15594
 Alpha  occ. eigenvalues --   -1.07860  -0.95616  -0.88101  -0.77237  -0.67580
 Alpha  occ. eigenvalues --   -0.66043  -0.62742  -0.59688  -0.55703  -0.55135
 Alpha  occ. eigenvalues --   -0.53799  -0.52901  -0.47979  -0.41530  -0.37913
 Alpha  occ. eigenvalues --   -0.31770  -0.22180
 Alpha virt. eigenvalues --    0.03495   0.04486   0.05382   0.06000   0.06153
 Alpha virt. eigenvalues --    0.06244   0.06888   0.07347   0.07933   0.08224
 Alpha virt. eigenvalues --    0.10060   0.11712   0.12698   0.13085   0.13772

 Mulliken charges:
               1
     1  C   -3.489224
     2  N   -3.144729
     3  C   -1.564950
     4  C    0.063981
     5  C    3.553336
     6  O   -3.278723
     7  C   -3.761554
     8  H    1.321921
     9  H    1.291534
    10  H    1.165337
    11  H    1.383249
    12  H    1.284906
    13  H    1.487627
    14  H    1.279230
    15  H    1.191490
    16  H    1.216569
 Sum of Mulliken charges =  -0.00000

 Dipole moment (field-independent basis, Debye):
    X=             -3.7600    Y=             -0.4172    Z=             -1.0022  Tot=              3.9136

 Test job not archived.
 1\1\GINC-SE014\SP\RHF\Aug-CC-pVDZ\C5H9N1O1\OHZDE\09-Apr-2025\0\\#t hf
 aug-cc-pvdz iop(5/13=1,5/36=2,99/5=2) pseudo=read geom=check guess=(re
 ad,tcheck) scf=(maxcycle=1)\\title\\0,1\C,0,1.29156465,0.29078975,-2.0
 6954055\N,0,0.8895294,0.36786168,-0.69158942\C,0,0.24587725,-1.3195588
 7,1.20610476\C,0,0.01701093,-0.55038718,-0.30213791\C,0,-1.07658635,-0
 .12630136,0.60662008\O,0,-1.09834712,-1.08456597,1.56803458\C,0,-1.504
 17151,1.23967212,0.94085567\H,0,2.31274089,0.66437928,-2.18438081\H,0,
 0.65922304,0.90152584,-2.73154244\H,0,1.25723755,-0.73911143,-2.468782

 Normal termination of Gaussian 16 at Wed Apr  9 18:19:34 2025.
