 Gaussian 16, Revision C.01,

 ----------------------------------------------------------------------
 #t hf aug-cc-pvdz symm=none int=(grid=ultrafine) guess=(read,tcheck) s
 table=(opt,rrhf)
 ----------------------------------------------------------------------
 -----
 title
 -----
 Symbolic Z-matrix:
 Charge =  0 Multiplicity = 1

 SCF Done:  E(RHF) =  -322.727736122     A.U. after   15 cycles
 Normal termination of Gaussian 16 at Wed Apr  9 03:33:20 2025.
 Gaussian 16:  ES64L-G16RevC.01  3-Jul-2019

 ----------------------------------------------------------------------
 #t hf aug-cc-pvdz iop(5/13=1,5/36=2,99/5=2) pseudo=read geom=check gue
 ss=(read,tcheck) scf=(maxcycle=1)
 ----------------------------------------------------------------------
 -----
 title
 -----
 Structure from the checkpoint file:  "Grambow2020_wb97xd3_007012_reverse_mol2.chk"
 Charge =  0 Multiplicity = 1

                         Standard orientation:
 ---------------------------------------------------------------------
 Center     Atomic      Atomic             Coordinates (Angstroms)
 Number     Number       Type             X           Y           Z
 ---------------------------------------------------------------------
      1          6           0       -1.446595   -0.917961    0.928282
      2          6           0       -0.120480    1.190757    0.270182
      3          6           0        1.203674    1.066878    0.285126
      4          6           0        1.944247   -0.163168   -0.034667
      5          7           0        1.363288   -1.208831   -0.451449
      6          6           0       -1.133979    0.139824   -0.093531
      7          8           0       -1.739967    0.253377   -1.128456
      8          1           0       -2.066808   -0.465908    1.708396
      9          1           0       -0.537761   -1.298360    1.390895
     10          1           0       -2.001671   -1.726911    0.457731
     11          1           0       -0.558410    2.162162    0.481522
     12          1           0        1.805990    1.935956    0.527442
     13          1           0        3.029034   -0.108246    0.106575
     14          1           0        2.025140   -1.961875   -0.617118
 ---------------------------------------------------------------------

 SCF Done:  E(RHF) =  -324.206590594     A.U. after    2 cycles

 The electronic state is 1-A.
 Alpha  occ. eigenvalues --  -21.04430 -15.75113 -11.49850 -11.47004 -11.45188
 Alpha  occ. eigenvalues --  -11.39786 -11.37736  -1.70493  -1.36898  -1.18862
 Alpha  occ. eigenvalues --   -1.08959  -0.95387  -0.81999  -0.72875  -0.70161
 Alpha  occ. eigenvalues --   -0.62261  -0.59970  -0.57824  -0.56209  -0.52722
 Alpha  occ. eigenvalues --   -0.47930  -0.47323  -0.42576  -0.38280  -0.35038
 Alpha  occ. eigenvalues --   -0.27684
 Alpha virt. eigenvalues --    0.03110   0.04736   0.04907   0.05564   0.06292
 Alpha virt. eigenvalues --    0.06916   0.07442   0.08027   0.10753   0.11812
 Alpha virt. eigenvalues --    0.12004   0.13047   0.13999   0.14080   0.14716

 Mulliken charges:
               1
     1  C   -4.461460
     2  C   -0.323794
     3  C   -0.314927
     4  C   -0.635164
     5  N   -2.984996
     6  C    3.084986
     7  O   -3.262601
     8  H    1.192011
     9  H    1.509426
    10  H    1.226959
    11  H    1.283358
    12  H    1.454078
    13  H    1.507991
    14  H    0.724133
 Sum of Mulliken charges =   0.00000

 Dipole moment (field-independent basis, Debye):
    X=              2.1524    Y=              0.1884    Z=              1.3502  Tot=              2.5479

 Test job not archived.
 1\1\GINC-SE396\SP\RHF\Aug-CC-pVDZ\C5H7N1O1\OHZDE\09-Apr-2025\0\\#t hf
 aug-cc-pvdz iop(5/13=1,5/36=2,99/5=2) pseudo=read geom=check guess=(re
 ad,tcheck) scf=(maxcycle=1)\\title\\0,1\C,0,-1.69194328,-0.75512034,0.
 41298631\C,0,-0.19901867,0.84617719,-0.9454641\C,0,0.9469259,1.1953013
 8,-0.36764404\C,0,1.74070109,0.33968385,0.52766038\N,0,1.43144894,-0.8
 67942,0.75268561\C,0,-0.91131851,-0.47506559,-0.84118027\O,0,-0.931408
 12,-1.1995957,-1.8033844\H,0,-2.6118062,-0.1631258,0.38154547\H,0,-1.1
 2919267,-0.46666223,1.29887368\H,0,-1.95065096,-1.81122924,0.45339816\

 Normal termination of Gaussian 16 at Wed Apr  9 03:33:24 2025.
