 Gaussian 16, Revision C.01,

 ----------------------------------------------------------------------
 #t hf aug-cc-pvdz symm=none int=(grid=ultrafine) guess=(read,tcheck) s
 table=(opt,rrhf)
 ----------------------------------------------------------------------
 -----
 title
 -----
 Symbolic Z-matrix:
 Charge =  0 Multiplicity = 1

 SCF Done:  E(RHF) =  -359.591974806     A.U. after   15 cycles
 Normal termination of Gaussian 16 at Wed Apr  9 18:07:10 2025.
 Gaussian 16:  ES64L-G16RevC.01  3-Jul-2019

 ----------------------------------------------------------------------
 #t hf aug-cc-pvdz iop(5/13=1,5/36=2,99/5=2) pseudo=read geom=check gue
 ss=(read,tcheck) scf=(maxcycle=1)
 ----------------------------------------------------------------------
 -----
 title
 -----
 Structure from the checkpoint file:  "Grambow2020_wb97xd3_006597_forward_mol1.chk"
 Charge =  0 Multiplicity = 1

                         Standard orientation:
 ---------------------------------------------------------------------
 Center     Atomic      Atomic             Coordinates (Angstroms)
 Number     Number       Type             X           Y           Z
 ---------------------------------------------------------------------
      1          6           0       -2.501572   -0.645211   -0.045408
      2          7           0       -1.813351    0.613750   -0.039503
      3          6           0       -0.602530    0.819628   -0.005187
      4          6           0        0.486241   -1.144898    0.249052
      5          8           0        1.631325   -0.777046   -0.358255
      6          6           0        2.429868    0.097956    0.074527
      7          8           0        0.341147    1.543065    0.006124
      8          1           0       -2.369462   -1.170749   -0.995420
      9          1           0       -2.168790   -1.301860    0.763923
     10          1           0       -3.566818   -0.461466    0.090183
     11          1           0        0.079622   -2.029614   -0.218735
     12          1           0        0.510027   -1.097505    1.334406
     13          1           0        3.214537    0.397324   -0.604289
     14          1           0        2.342527    0.474620    1.085595
 ---------------------------------------------------------------------

 SCF Done:  E(RHF) =  -361.239737614     A.U. after    2 cycles

 The electronic state is 1-A.
 Alpha  occ. eigenvalues --  -21.20216 -21.06072 -15.70662 -11.51334 -11.50735
 Alpha  occ. eigenvalues --  -11.38483 -11.38312  -1.89951  -1.72028  -1.35073
 Alpha  occ. eigenvalues --   -1.06188  -0.99683  -0.88898  -0.73988  -0.68623
 Alpha  occ. eigenvalues --   -0.66095  -0.62993  -0.60079  -0.59801  -0.56281
 Alpha  occ. eigenvalues --   -0.54961  -0.50590  -0.47154  -0.44304  -0.33156
 Alpha  occ. eigenvalues --   -0.29232  -0.28151
 Alpha virt. eigenvalues --    0.03035   0.04793   0.05048   0.05762   0.06071
 Alpha virt. eigenvalues --    0.07314   0.07550   0.08333   0.10748   0.11601
 Alpha virt. eigenvalues --    0.12094   0.12734   0.13264   0.14195   0.14598

 Mulliken charges:
               1
     1  C   -3.559287
     2  N   -2.451139
     3  C    4.611749
     4  C   -1.469379
     5  O   -3.009513
     6  C   -1.541254
     7  O   -2.659615
     8  H    1.410115
     9  H    1.434039
    10  H    1.291239
    11  H    1.452876
    12  H    1.349574
    13  H    1.488026
    14  H    1.652569
 Sum of Mulliken charges =  -0.00000

 Dipole moment (field-independent basis, Debye):
    X=              3.5783    Y=             -1.8355    Z=              0.3225  Tot=              4.0345

 Test job not archived.
 1\1\GINC-SE103\SP\RHF\Aug-CC-pVDZ\C4H7N1O2\OHZDE\09-Apr-2025\0\\#t hf
 aug-cc-pvdz iop(5/13=1,5/36=2,99/5=2) pseudo=read geom=check guess=(re
 ad,tcheck) scf=(maxcycle=1)\\title\\0,1\C,0,2.3063497,0.27013764,-0.79
 633767\N,0,1.67642406,-0.93411915,-0.33630854\C,0,0.48734652,-1.127110
 97,-0.09444358\C,0,-0.64544185,0.8184778,-0.29666888\O,0,-1.83685124,0
 .28083345,-0.62352785\C,0,-2.54279811,-0.43072377,0.14193044\O,0,-0.41
 774858,-1.81973619,0.24480466\H,0,2.04335455,0.48949157,-1.8350307\H,0
 ,2.04250601,1.13549256,-0.18111729\H,0,3.38684653,0.14066043,-0.744790

 Normal termination of Gaussian 16 at Wed Apr  9 18:07:14 2025.
