 Gaussian 16, Revision C.01,

 ----------------------------------------------------------------------
 #t hf aug-cc-pvdz symm=none int=(grid=ultrafine) guess=(read,tcheck) s
 table=(opt,rrhf)
 ----------------------------------------------------------------------
 -----
 title
 -----
 Symbolic Z-matrix:
 Charge =  0 Multiplicity = 1

 SCF Done:  E(RHF) =  -302.768966539     A.U. after   17 cycles
 Normal termination of Gaussian 16 at Wed Apr  9 18:23:25 2025.
 Gaussian 16:  ES64L-G16RevC.01  3-Jul-2019

 ----------------------------------------------------------------------
 #t hf aug-cc-pvdz iop(5/13=1,5/36=2,99/5=2) pseudo=read geom=check gue
 ss=(read,tcheck) scf=(maxcycle=1)
 ----------------------------------------------------------------------
 -----
 title
 -----
 Structure from the checkpoint file:  "Grambow2020_wb97xd3_006957_forward_mol1.chk"
 Charge =  0 Multiplicity = 1

                         Standard orientation:
 ---------------------------------------------------------------------
 Center     Atomic      Atomic             Coordinates (Angstroms)
 Number     Number       Type             X           Y           Z
 ---------------------------------------------------------------------
      1          6           0        0.781934    1.564301    0.136535
      2          6           0        0.872040    0.071530   -0.085584
      3          6           0        2.226942   -0.497056   -0.442647
      4          7           0        0.211900   -0.741275    0.964101
      5          6           0       -0.635600   -1.037176   -0.157281
      6          6           0       -1.831560   -0.215586   -0.200513
      7          7           0       -2.849509    0.322206   -0.266341
      8          1           0        1.175102    2.106830   -0.723341
      9          1           0        1.376831    1.837774    1.011273
     10          1           0       -0.247847    1.885204    0.302190
     11          1           0        2.893464   -0.375427    0.412892
     12          1           0        2.135907   -1.561076   -0.655996
     13          1           0        2.655682    0.012228   -1.306792
     14          1           0       -0.234992   -0.096764    1.612979
     15          1           0        0.226585   -0.191365   -1.040584
 ---------------------------------------------------------------------

 SCF Done:  E(RHF) =  -304.213222253     A.U. after    2 cycles

 The electronic state is 1-A.
 Alpha  occ. eigenvalues --  -15.77356 -15.77231 -11.53065 -11.48095 -11.43598
 Alpha  occ. eigenvalues --  -11.42634 -11.39889  -1.51027  -1.30785  -1.17439
 Alpha  occ. eigenvalues --   -1.05444  -0.98698  -0.88090  -0.72253  -0.67171
 Alpha  occ. eigenvalues --   -0.64325  -0.59760  -0.57618  -0.55117  -0.53204
 Alpha  occ. eigenvalues --   -0.52740  -0.50154  -0.49133  -0.45059  -0.40808
 Alpha  occ. eigenvalues --   -0.32234
 Alpha virt. eigenvalues --    0.02973   0.04925   0.05139   0.05614   0.06047
 Alpha virt. eigenvalues --    0.06489   0.07160   0.07675   0.08693   0.10207
 Alpha virt. eigenvalues --    0.11655   0.11691   0.12877   0.13118   0.13943

 Mulliken charges:
               1
     1  C   -3.772115
     2  C    0.042244
     3  C   -4.427636
     4  N   -2.034630
     5  C   -0.964662
     6  C    3.092205
     7  N   -2.625627
     8  H    1.171220
     9  H    1.199613
    10  H    1.369860
    11  H    1.243177
    12  H    1.204536
    13  H    1.176109
    14  H    0.719332
    15  H    2.606374
 Sum of Mulliken charges =   0.00000

 Dipole moment (field-independent basis, Debye):
    X=              3.9031    Y=              1.9483    Z=              0.7007  Tot=              4.4183

 Test job not archived.
 1\1\GINC-SE114\SP\RHF\Aug-CC-pVDZ\C5H8N2\OHZDE\09-Apr-2025\0\\#t hf au
 g-cc-pvdz iop(5/13=1,5/36=2,99/5=2) pseudo=read geom=check guess=(read
 ,tcheck) scf=(maxcycle=1)\\title\\0,1\C,0,-0.6437672,1.23106603,-0.013
 20007\C,0,-0.22973492,-0.22022079,0.07717011\C,0,-1.27361185,-1.213014
 87,0.53676063\N,0,0.49580291,-0.72184153,-1.11457075\C,0,1.54327348,-0
 .78530347,-0.13370837\C,0,2.4154449,0.37489393,-0.15511678\N,0,3.21245
 969,1.20827305,-0.15976962\H,0,-1.06090531,1.57306996,0.93407785\H,0,-
 1.41202989,1.34224355,-0.78213922\H,0,0.19942284,1.87509021,-0.2684081

 Normal termination of Gaussian 16 at Wed Apr  9 18:23:30 2025.
