 Gaussian 16, Revision C.01,

 ----------------------------------------------------------------------
 #t hf aug-cc-pvdz symm=none int=(grid=ultrafine) guess=(read,tcheck) s
 table=(opt,rrhf)
 ----------------------------------------------------------------------
 -----
 title
 -----
 Symbolic Z-matrix:
 Charge =  0 Multiplicity = 1

 SCF Done:  E(RHF) =  -354.754377011     A.U. after   15 cycles
 Normal termination of Gaussian 16 at Wed Apr  9 18:36:14 2025.
 Gaussian 16:  ES64L-G16RevC.01  3-Jul-2019

 ----------------------------------------------------------------------
 #t hf aug-cc-pvdz iop(5/13=1,5/36=2,99/5=2) pseudo=read geom=check gue
 ss=(read,tcheck) scf=(maxcycle=1)
 ----------------------------------------------------------------------
 -----
 title
 -----
 Structure from the checkpoint file:  "Grambow2020_wb97xd3_007309_forward_mol2.chk"
 Charge =  0 Multiplicity = 1

                         Standard orientation:
 ---------------------------------------------------------------------
 Center     Atomic      Atomic             Coordinates (Angstroms)
 Number     Number       Type             X           Y           Z
 ---------------------------------------------------------------------
      1          8           0        2.439597    0.470289   -0.076173
      2          6           0        1.597262   -0.645989    0.050174
      3          6           0        0.149010   -0.277400    0.009873
      4          7           0       -0.241073    0.976798    0.027398
      5          7           0       -1.580607    0.868285    0.006577
      6          6           0       -1.933153   -0.422398   -0.022909
      7          7           0       -0.864086   -1.181211   -0.020317
      8          1           0        1.919576    1.258227    0.107699
      9          1           0        1.792970   -1.179193    0.989375
     10          1           0        1.807859   -1.344167   -0.764409
     11          1           0       -2.157429    1.689800    0.006580
     12          1           0       -2.958095   -0.759367   -0.048291
 ---------------------------------------------------------------------

 SCF Done:  E(RHF) =  -356.334435089     A.U. after    2 cycles

 The electronic state is 1-A.
 Alpha  occ. eigenvalues --  -21.06172 -15.83253 -15.75973 -15.73656 -11.46715
 Alpha  occ. eigenvalues --  -11.46341 -11.40380  -1.72211  -1.66216  -1.32646
 Alpha  occ. eigenvalues --   -1.22453  -1.01959  -0.88755  -0.79765  -0.77447
 Alpha  occ. eigenvalues --   -0.67222  -0.61107  -0.60955  -0.59182  -0.53918
 Alpha  occ. eigenvalues --   -0.47266  -0.40696  -0.39785  -0.39307  -0.35670
 Alpha  occ. eigenvalues --   -0.31438
 Alpha virt. eigenvalues --    0.02939   0.04818   0.05514   0.07179   0.07468
 Alpha virt. eigenvalues --    0.09665   0.09995   0.10241   0.12622   0.13465
 Alpha virt. eigenvalues --    0.13811   0.14229   0.14590   0.15989   0.16970

 Mulliken charges:
               1
     1  O   -2.788889
     2  C   -1.144836
     3  C    3.727677
     4  N   -2.018047
     5  N   -1.581973
     6  C    1.354389
     7  N   -3.258081
     8  H    0.869745
     9  H    1.203741
    10  H    1.237458
    11  H    0.895103
    12  H    1.503713
 Sum of Mulliken charges =  -0.00000

 Dipole moment (field-independent basis, Debye):
    X=             -3.3094    Y=              1.4683    Z=              0.1172  Tot=              3.6224

 Test job not archived.
 1\1\GINC-SE041\SP\RHF\Aug-CC-pVDZ\C3H5N3O1\OHZDE\09-Apr-2025\0\\#t hf
 aug-cc-pvdz iop(5/13=1,5/36=2,99/5=2) pseudo=read geom=check guess=(re
 ad,tcheck) scf=(maxcycle=1)\\title\\0,1\O,0,-2.26675757,0.97105502,-0.
 55516382\C,0,-1.69135171,-0.18028247,0.00599453\C,0,-0.19725695,-0.152
 00062,-0.03637442\N,0,0.45356171,0.78367427,-0.68939164\N,0,1.73772271
 ,0.43383885,-0.50202237\C,0,1.80396569,-0.6762205,0.2425599\N,0,0.5969
 9513,-1.08001361,0.5570108\H,0,-1.59667731,1.40964622,-1.08780413\H,0,
 -2.03560952,-1.08302746,-0.51481696\H,0,-2.01457988,-0.26800996,1.0467

 Normal termination of Gaussian 16 at Wed Apr  9 18:36:19 2025.
