 Gaussian 16, Revision C.01,

 ----------------------------------------------------------------------
 #t hf aug-cc-pvdz symm=none int=(grid=ultrafine) guess=(read,tcheck) s
 table=(opt,rrhf)
 ----------------------------------------------------------------------
 -----
 title
 -----
 Symbolic Z-matrix:
 Charge =  0 Multiplicity = 1

 SCF Done:  E(RHF) =  -272.082152080     A.U. after   13 cycles
 Normal termination of Gaussian 16 at Wed Apr  9 03:39:51 2025.
 Gaussian 16:  ES64L-G16RevC.01  3-Jul-2019

 ----------------------------------------------------------------------
 #t hf aug-cc-pvdz iop(5/13=1,5/36=2,99/5=2) pseudo=read geom=check gue
 ss=(read,tcheck) scf=(maxcycle=1)
 ----------------------------------------------------------------------
 -----
 title
 -----
 Structure from the checkpoint file:  "Grambow2020_wb97xd3_007420_reverse_mol2.chk"
 Charge =  0 Multiplicity = 1

                         Standard orientation:
 ---------------------------------------------------------------------
 Center     Atomic      Atomic             Coordinates (Angstroms)
 Number     Number       Type             X           Y           Z
 ---------------------------------------------------------------------
      1          6           0       -2.024390   -0.741367   -0.712463
      2          6           0       -1.251511   -0.171291    0.472170
      3          6           0        0.097935   -0.897687    0.656772
      4          6           0        1.102542    0.017263    0.001498
      5          6           0        2.500543   -0.425692   -0.273289
      6          6           0        0.571347    1.211996   -0.230409
      7          6           0       -0.858779    1.303479    0.223576
      8          1           0       -1.431766   -0.665442   -1.628712
      9          1           0       -2.267116   -1.794873   -0.555676
     10          1           0       -2.960300   -0.201296   -0.872045
     11          1           0       -1.868688   -0.262468    1.368649
     12          1           0        0.350091   -1.033058    1.715086
     13          1           0        0.090258   -1.897423    0.209860
     14          1           0       -0.935087    1.903014    1.137700
     15          1           0        2.511764   -1.288990   -0.944756
     16          1           0        2.996585   -0.737289    0.650564
     17          1           0        3.091870    0.369860   -0.727486
     18          1           0        1.107504    2.047812   -0.666007
     19          1           0       -1.511241    1.779950   -0.514309
 ---------------------------------------------------------------------

 SCF Done:  E(RHF) =  -273.477105511     A.U. after    2 cycles

 The electronic state is 1-A.
 Alpha  occ. eigenvalues --  -11.44312 -11.43865 -11.39720 -11.38732 -11.37853
 Alpha  occ. eigenvalues --  -11.35747 -11.33447  -1.34922  -1.13199  -1.05032
 Alpha  occ. eigenvalues --   -0.99593  -0.92162  -0.79404  -0.73067  -0.65843
 Alpha  occ. eigenvalues --   -0.62440  -0.58290  -0.56921  -0.55740  -0.53424
 Alpha  occ. eigenvalues --   -0.51607  -0.46763  -0.44961  -0.43903  -0.42038
 Alpha  occ. eigenvalues --   -0.40577  -0.31250
 Alpha virt. eigenvalues --    0.03841   0.05038   0.05409   0.05530   0.05753
 Alpha virt. eigenvalues --    0.05806   0.06158   0.06570   0.07260   0.08368
 Alpha virt. eigenvalues --    0.08534   0.09216   0.11598   0.12505   0.13190

 Mulliken charges:
               1
     1  C   -4.040145
     2  C   -1.258420
     3  C   -4.755363
     4  C    5.608277
     5  C   -5.224593
     6  C   -1.830793
     7  C   -4.318090
     8  H    1.409764
     9  H    1.237517
    10  H    1.246281
    11  H    1.549428
    12  H    1.166225
    13  H    1.376470
    14  H    1.237806
    15  H    1.181949
    16  H    1.181000
    17  H    1.320081
    18  H    1.607375
    19  H    1.305228
 Sum of Mulliken charges =   0.00000

 Dipole moment (field-independent basis, Debye):
    X=              0.1067    Y=             -0.1000    Z=              0.2463  Tot=              0.2865

 Test job not archived.
 1\1\GINC-SE273\SP\RHF\Aug-CC-pVDZ\C7H12\OHZDE\09-Apr-2025\0\\#t hf aug
 -cc-pvdz iop(5/13=1,5/36=2,99/5=2) pseudo=read geom=check guess=(read,
 tcheck) scf=(maxcycle=1)\\title\\0,1\C,0,-2.14402258,-0.45267764,-0.22
 15672\C,0,-1.15177915,0.60999637,0.23871785\C,0,-0.01881993,-0.0149265
 5,1.08050526\C,0,1.12314148,-0.16845241,0.10679777\C,0,2.33437011,-0.9
 7220837,0.44298934\C,0,0.89284184,0.5233504,-1.00302524\C,0,-0.4224820
 8,1.25013784,-0.9651631\H,0,-1.63380825,-1.22805732,-0.80031533\H,0,-2
 .6303665,-0.93426054,0.62985504\H,0,-2.92337834,-0.02032227,-0.8530275

 Normal termination of Gaussian 16 at Wed Apr  9 03:39:59 2025.
