 Gaussian 16, Revision C.01,

 ----------------------------------------------------------------------
 #t hf aug-cc-pvdz symm=none int=(grid=ultrafine) guess=(read,tcheck) s
 table=(opt,rrhf)
 ----------------------------------------------------------------------
 -----
 title
 -----
 Symbolic Z-matrix:
 Charge =  0 Multiplicity = 1

 SCF Done:  E(RHF) =  -266.607012805     A.U. after   15 cycles
 Normal termination of Gaussian 16 at Wed Apr  9 03:09:40 2025.
 Gaussian 16:  ES64L-G16RevC.01  3-Jul-2019

 ----------------------------------------------------------------------
 #t hf aug-cc-pvdz iop(5/13=1,5/36=2,99/5=2) pseudo=read geom=check gue
 ss=(read,tcheck) scf=(maxcycle=1)
 ----------------------------------------------------------------------
 -----
 title
 -----
 Structure from the checkpoint file:  "Grambow2020_b97d3_006692_reverse_mol1.chk"
 Charge =  0 Multiplicity = 1

                         Standard orientation:
 ---------------------------------------------------------------------
 Center     Atomic      Atomic             Coordinates (Angstroms)
 Number     Number       Type             X           Y           Z
 ---------------------------------------------------------------------
      1          6           0       -0.943400   -0.685132    0.104839
      2          6           0       -0.842057    0.735919   -0.097347
      3          8           0        0.394085    1.199064   -0.002083
      4          6           0        1.234206   -0.074848    0.180823
      5          8           0        0.500814   -1.098266   -0.336438
      6          1           0       -2.072869   -0.874095   -0.266941
      7          1           0       -1.016025   -1.100011    1.113287
      8          1           0       -1.557886    1.394071   -0.570747
      9          1           0       -2.774186   -0.071511    0.418104
     10          1           0        2.154076    0.098719   -0.387410
     11          1           0        1.415204   -0.109197    1.271983
 ---------------------------------------------------------------------

 SCF Done:  E(RHF) =  -267.799905118     A.U. after    2 cycles

 The electronic state is 1-A.
 Alpha  occ. eigenvalues --  -21.13477 -21.06888 -11.53815 -11.49397 -11.45665
 Alpha  occ. eigenvalues --   -1.88743  -1.69589  -1.15017  -0.95601  -0.86257
 Alpha  occ. eigenvalues --   -0.75017  -0.70705  -0.61408  -0.57693  -0.55644
 Alpha  occ. eigenvalues --   -0.51308  -0.44632  -0.38730  -0.32877  -0.26885
 Alpha virt. eigenvalues --    0.02994   0.05043   0.05555   0.05906   0.06281
 Alpha virt. eigenvalues --    0.07226   0.08979   0.09410   0.11244   0.12265
 Alpha virt. eigenvalues --    0.13386   0.14182   0.14991   0.16306   0.16705

 Mulliken charges:
               1
     1  C   -1.637274
     2  C    1.304951
     3  O   -2.850667
     4  C   -0.762996
     5  O   -2.555007
     6  H    0.930853
     7  H    1.402079
     8  H    1.536678
     9  H   -0.407191
    10  H    1.446787
    11  H    1.591789
 Sum of Mulliken charges =   0.00000

 Dipole moment (field-independent basis, Debye):
    X=              4.5931    Y=              1.1974    Z=             -0.8131  Tot=              4.8157

 Test job not archived.
 1\1\GINC-SE362\SP\RHF\Aug-CC-pVDZ\C3H6O2\OHZDE\09-Apr-2025\0\\#t hf au
 g-cc-pvdz iop(5/13=1,5/36=2,99/5=2) pseudo=read geom=check guess=(read
 ,tcheck) scf=(maxcycle=1)\\title\\0,1\C,0,0.47074017,0.70662287,0.2854
 4201\C,0,0.69828397,-0.51359,-0.44245932\O,0,-0.40388633,-1.21056112,-
 0.66845827\C,0,-1.51452064,-0.30040822,-0.12053248\O,0,-1.01589779,0.9
 6610867,-0.13137185\H,0,1.53891736,1.24342618,0.1423797\H,0,0.41846609
 ,0.70198328,1.37705238\H,0,1.55757051,-0.78099453,-1.04229632\H,0,2.38
 276599,0.39251767,0.55365631\H,0,-2.3545782,-0.41645103,-0.81336155\H,

 Normal termination of Gaussian 16 at Wed Apr  9 03:09:42 2025.
