 Gaussian 16, Revision C.01,

 ----------------------------------------------------------------------
 #t hf aug-cc-pvdz symm=none int=(grid=ultrafine) guess=(read,tcheck) s
 table=(opt,rrhf)
 ----------------------------------------------------------------------
 -----
 title
 -----
 Symbolic Z-matrix:
 Charge =  0 Multiplicity = 1

 SCF Done:  E(RHF) =  -306.470753173     A.U. after   15 cycles
 Normal termination of Gaussian 16 at Wed Apr  9 19:08:59 2025.
 Gaussian 16:  ES64L-G16RevC.01  3-Jul-2019

 ----------------------------------------------------------------------
 #t hf aug-cc-pvdz iop(5/13=1,5/36=2,99/5=2) pseudo=read geom=check gue
 ss=(read,tcheck) scf=(maxcycle=1)
 ----------------------------------------------------------------------
 -----
 title
 -----
 Structure from the checkpoint file:  "Grambow2020_wb97xd3_008164_forward_mol1.chk"
 Charge =  0 Multiplicity = 1

                         Standard orientation:
 ---------------------------------------------------------------------
 Center     Atomic      Atomic             Coordinates (Angstroms)
 Number     Number       Type             X           Y           Z
 ---------------------------------------------------------------------
      1          8           0        2.124850   -0.197161   -0.083991
      2          6           0        0.766955    0.025891   -0.076506
      3          6           0        0.096964    1.345938   -0.398059
      4          6           0       -1.142049    0.760621    0.366346
      5          6           0       -1.703011   -0.782179   -0.467022
      6          6           0       -0.269016   -1.129955   -0.109692
      7          6           0       -0.167749   -0.229709    1.065879
      8          1           0        2.360995   -0.648319   -0.896739
      9          1           0       -0.034508    1.667113   -1.436465
     10          1           0        0.542001    2.145717    0.194256
     11          1           0       -1.889667    1.388196    0.834544
     12          1           0       -1.538059    0.396078   -0.783195
     13          1           0       -2.012894   -0.754577   -1.533390
     14          1           0        0.124283   -2.138033   -0.113664
     15          1           0       -0.043517   -0.422529    2.120909
 ---------------------------------------------------------------------

 SCF Done:  E(RHF) =  -307.917207428     A.U. after    2 cycles

 The electronic state is 1-A.
 Alpha  occ. eigenvalues --  -21.09184 -11.52501 -11.48238 -11.44644 -11.42159
 Alpha  occ. eigenvalues --  -11.39475 -11.36643  -1.74538  -1.46636  -1.07933
 Alpha  occ. eigenvalues --   -1.05481  -0.91586  -0.79680  -0.76964  -0.72002
 Alpha  occ. eigenvalues --   -0.65705  -0.60979  -0.58608  -0.55751  -0.49844
 Alpha  occ. eigenvalues --   -0.46111  -0.44537  -0.39156  -0.37360  -0.32865
 Alpha  occ. eigenvalues --   -0.25133
 Alpha virt. eigenvalues --    0.03596   0.04489   0.05110   0.05742   0.05852
 Alpha virt. eigenvalues --    0.06333   0.06579   0.08206   0.09960   0.11472
 Alpha virt. eigenvalues --    0.12075   0.12627   0.13235   0.14197   0.14594

 Mulliken charges:
               1
     1  O   -3.698098
     2  C    4.601143
     3  C   -3.083928
     4  C   -2.652718
     5  C   -3.056062
     6  C   -0.893476
     7  C   -0.873485
     8  H    0.492162
     9  H    1.188573
    10  H    1.226230
    11  H    1.233257
    12  H    2.082725
    13  H    0.794649
    14  H    1.438031
    15  H    1.200997
 Sum of Mulliken charges =   0.00000

 Dipole moment (field-independent basis, Debye):
    X=              1.6742    Y=              1.7123    Z=             -0.2688  Tot=              2.4098

 Test job not archived.
 1\1\GINC-SE226\SP\RHF\Aug-CC-pVDZ\C6H8O1\OHZDE\09-Apr-2025\0\\#t hf au
 g-cc-pvdz iop(5/13=1,5/36=2,99/5=2) pseudo=read geom=check guess=(read
 ,tcheck) scf=(maxcycle=1)\\title\\0,1\O,0,2.20235949,0.7178516,-0.3658
 9832\C,0,0.92743697,0.24045156,-0.16502607\C,0,0.57581916,-1.19113187,
 0.1838925\C,0,-0.86163982,-0.83250506,-0.33298494\C,0,-1.54501576,0.55
 246825,0.66914189\C,0,-0.28167056,1.17645067,0.10383006\C,0,-0.2196191
 8,0.34353609,-1.12298238\H,0,2.48723315,1.18398728,0.42241163\H,0,0.68
 498742,-1.55893755,1.20933166\H,0,1.05197847,-1.87545046,-0.51861877\H

 Normal termination of Gaussian 16 at Wed Apr  9 19:09:04 2025.
