 Gaussian 16, Revision C.01,

 ----------------------------------------------------------------------
 #t hf aug-cc-pvdz symm=none int=(grid=ultrafine) guess=(read,tcheck) s
 table=(opt,rrhf)
 ----------------------------------------------------------------------
 -----
 title
 -----
 Symbolic Z-matrix:
 Charge =  0 Multiplicity = 1

 SCF Done:  E(RHF) =  -299.502631283     A.U. after   16 cycles
 Normal termination of Gaussian 16 at Wed Apr  9 15:40:37 2025.
 Gaussian 16:  ES64L-G16RevC.01  3-Jul-2019

 ----------------------------------------------------------------------
 #t hf aug-cc-pvdz iop(5/13=1,5/36=2,99/5=2) pseudo=read geom=check gue
 ss=(read,tcheck) scf=(maxcycle=1)
 ----------------------------------------------------------------------
 -----
 title
 -----
 Structure from the checkpoint file:  "Grambow2020_b97d3_006604_forward_mol1.chk"
 Charge =  0 Multiplicity = 1

                         Standard orientation:
 ---------------------------------------------------------------------
 Center     Atomic      Atomic             Coordinates (Angstroms)
 Number     Number       Type             X           Y           Z
 ---------------------------------------------------------------------
      1          6           0        2.082924   -0.118540    0.000135
      2          6           0        0.597162    0.168970   -0.000351
      3          7           0        0.068048    1.322387   -0.000072
      4          6           0       -1.824798    0.467713    0.000107
      5          7           0       -1.513947   -0.730328    0.000081
      6          8           0       -0.116153   -1.022484   -0.000111
      7          1           0        2.645408    0.817577   -0.003265
      8          1           0        2.345571   -0.711383   -0.885476
      9          1           0        2.345861   -0.705025    0.889894
     10          1           0       -1.418052    1.525437    0.000314
 ---------------------------------------------------------------------

 SCF Done:  E(RHF) =  -300.845594066     A.U. after    2 cycles

 The electronic state is 1-A.
 Alpha  occ. eigenvalues --  -21.14503 -15.82494 -15.77055 -11.50761 -11.47485
 Alpha  occ. eigenvalues --  -11.41361  -1.87647  -1.32917  -1.31306  -1.09078
 Alpha  occ. eigenvalues --   -0.86680  -0.80804  -0.65016  -0.64100  -0.59555
 Alpha  occ. eigenvalues --   -0.56994  -0.55797  -0.48985  -0.45784  -0.44156
 Alpha  occ. eigenvalues --   -0.35680  -0.32037
 Alpha virt. eigenvalues --    0.03203   0.05464   0.06148   0.06251   0.08573
 Alpha virt. eigenvalues --    0.09012   0.10725   0.11572   0.12949   0.13376
 Alpha virt. eigenvalues --    0.13653   0.13724   0.15346   0.15759   0.16144

 Mulliken charges:
               1
     1  C   -3.997901
     2  C    4.728410
     3  N   -2.877032
     4  C   -0.287778
     5  N   -0.574092
     6  O   -2.802226
     7  H    1.250216
     8  H    1.268810
     9  H    1.268108
    10  H    2.023485
 Sum of Mulliken charges =   0.00000

 Dipole moment (field-independent basis, Debye):
    X=              2.6981    Y=             -0.7384    Z=              0.0005  Tot=              2.7973

 Test job not archived.
 1\1\GINC-SE114\SP\RHF\Aug-CC-pVDZ\C3H4N2O1\OHZDE\09-Apr-2025\0\\#t hf
 aug-cc-pvdz iop(5/13=1,5/36=2,99/5=2) pseudo=read geom=check guess=(re
 ad,tcheck) scf=(maxcycle=1)\\title\\0,1\C,0,-1.57518765,0.06829618,0.0
 6214684\C,0,-0.06191389,0.05608662,0.05999706\N,0,0.68344032,0.7566378
 9,0.81100134\C,0,2.3715216,-0.0768202,-0.06595959\N,0,1.83141285,-0.83
 715628,-0.87965538\O,0,0.40347721,-0.84066933,-0.89269434\H,0,-1.94285
 404,0.77081012,0.81315313\H,0,-1.95322501,-0.93869537,0.28079912\H,0,-
 1.9441122,0.36010816,-0.92957433\H,0,2.18045982,0.6883992,0.74777116\\

 Normal termination of Gaussian 16 at Wed Apr  9 15:40:40 2025.
