 Gaussian 16, Revision C.01,

 ----------------------------------------------------------------------
 #t hf aug-cc-pvdz symm=none int=(grid=ultrafine) guess=(read,tcheck) s
 table=(opt,rrhf)
 ----------------------------------------------------------------------
 -----
 title
 -----
 Symbolic Z-matrix:
 Charge =  0 Multiplicity = 1

 SCF Done:  E(RHF) =  -343.753264698     A.U. after   14 cycles
 Normal termination of Gaussian 16 at Wed Apr  9 18:19:21 2025.
 Gaussian 16:  ES64L-G16RevC.01  3-Jul-2019

 ----------------------------------------------------------------------
 #t hf aug-cc-pvdz iop(5/13=1,5/36=2,99/5=2) pseudo=read geom=check gue
 ss=(read,tcheck) scf=(maxcycle=1)
 ----------------------------------------------------------------------
 -----
 title
 -----
 Structure from the checkpoint file:  "Grambow2020_wb97xd3_006882_reverse_mol2.chk"
 Charge =  0 Multiplicity = 1

                         Standard orientation:
 ---------------------------------------------------------------------
 Center     Atomic      Atomic             Coordinates (Angstroms)
 Number     Number       Type             X           Y           Z
 ---------------------------------------------------------------------
      1          6           0       -2.008205   -0.903883   -0.501888
      2          6           0       -1.198866    0.197150    0.116259
      3          6           0       -0.034705   -0.231044    0.964816
      4          6           0       -1.471168    1.484962   -0.040849
      5          8           0        2.080422    0.890073   -0.306913
      6          6           0        1.901659   -0.288820   -0.388592
      7          8           0        0.923669   -0.983787    0.193581
      8          1           0       -1.386033   -1.522429   -1.152736
      9          1           0       -2.835064   -0.507334   -1.090029
     10          1           0       -2.417501   -1.563355    0.268694
     11          1           0       -0.357059   -0.922849    1.744714
     12          1           0        0.459692    0.626734    1.417265
     13          1           0       -2.322528    1.816269   -0.624315
     14          1           0       -0.846374    2.250650    0.403296
     15          1           0        2.539851   -0.978164   -0.958707
 ---------------------------------------------------------------------

 SCF Done:  E(RHF) =  -345.304775251     A.U. after    2 cycles

 The electronic state is 1-A.
 Alpha  occ. eigenvalues --  -21.09882 -21.05796 -11.50721 -11.45584 -11.41433
 Alpha  occ. eigenvalues --  -11.38999 -11.36567  -1.84934  -1.67083  -1.24220
 Alpha  occ. eigenvalues --   -1.02444  -0.99771  -0.83813  -0.76108  -0.70741
 Alpha  occ. eigenvalues --   -0.64207  -0.60251  -0.59636  -0.55577  -0.54827
 Alpha  occ. eigenvalues --   -0.53874  -0.50072  -0.46044  -0.42614  -0.34514
 Alpha  occ. eigenvalues --   -0.32305  -0.30847
 Alpha virt. eigenvalues --    0.03431   0.05157   0.05456   0.05608   0.05987
 Alpha virt. eigenvalues --    0.06353   0.07699   0.08940   0.09865   0.10965
 Alpha virt. eigenvalues --    0.12177   0.12384   0.13127   0.13412   0.14511

 Mulliken charges:
               1
     1  C   -4.309443
     2  C    2.236790
     3  C   -2.398988
     4  C   -4.285874
     5  O   -2.474978
     6  C    2.404202
     7  O   -2.717818
     8  H    1.264636
     9  H    1.344252
    10  H    1.157245
    11  H    1.291789
    12  H    1.630058
    13  H    1.610670
    14  H    1.593833
    15  H    1.653627
 Sum of Mulliken charges =   0.00000

 Dipole moment (field-independent basis, Debye):
    X=             -1.0595    Y=             -0.9626    Z=              0.3304  Tot=              1.4692

 Test job not archived.
 1\1\GINC-SE454\SP\RHF\Aug-CC-pVDZ\C5H8O2\OHZDE\09-Apr-2025\0\\#t hf au
 g-cc-pvdz iop(5/13=1,5/36=2,99/5=2) pseudo=read geom=check guess=(read
 ,tcheck) scf=(maxcycle=1)\\title\\0,1\C,0,-0.82912684,1.60632039,-0.33
 783835\C,0,-0.73480841,0.19296202,0.15504083\C,0,-0.01235252,-0.774919
 7,-0.73934793\C,0,-1.25804852,-0.22108843,1.30049934\O,0,2.03529926,-1
 .62222081,0.82179306\C,0,2.25404362,-0.864242,-0.0760018\O,0,1.3597875
 1,-0.37744831,-0.93722519\H,0,0.16622375,2.03226968,-0.48325264\H,0,-1
 .37495068,2.23631316,0.36361795\H,0,-1.33739296,1.6460568,-1.30547014\

 Normal termination of Gaussian 16 at Wed Apr  9 18:19:25 2025.
