 Gaussian 16, Revision C.01,

 ----------------------------------------------------------------------
 #t hf aug-cc-pvdz symm=none int=(grid=ultrafine) guess=(read,tcheck) s
 table=(opt,rrhf)
 ----------------------------------------------------------------------
 -----
 title
 -----
 Symbolic Z-matrix:
 Charge =  0 Multiplicity = 1

 SCF Done:  E(RHF) =  -359.656435025     A.U. after   15 cycles
 Normal termination of Gaussian 16 at Wed Apr  9 19:33:48 2025.
 Gaussian 16:  ES64L-G16RevC.01  3-Jul-2019

 ----------------------------------------------------------------------
 #t hf aug-cc-pvdz iop(5/13=1,5/36=2,99/5=2) pseudo=read geom=check gue
 ss=(read,tcheck) scf=(maxcycle=1)
 ----------------------------------------------------------------------
 -----
 title
 -----
 Structure from the checkpoint file:  "Grambow2020_wb97xd3_009386_forward_mol1.chk"
 Charge =  0 Multiplicity = 1

                         Standard orientation:
 ---------------------------------------------------------------------
 Center     Atomic      Atomic             Coordinates (Angstroms)
 Number     Number       Type             X           Y           Z
 ---------------------------------------------------------------------
      1          6           0        2.022930    1.134269    0.007830
      2          7           0        0.131717    0.113955   -0.007206
      3          6           0        0.798039   -1.003372    0.000626
      4          8           0        2.039009   -0.914431   -0.014851
      5          6           0       -1.242322    0.292208   -0.002178
      6          8           0       -1.705000    1.407593   -0.004365
      7          6           0       -2.129392   -0.936438    0.002433
      8          1           0        2.997397    0.918430   -0.404245
      9          1           0        1.440167    1.841751   -0.560180
     10          1           0        1.993111    1.281232    1.076768
     11          1           0        0.331122   -1.991712    0.025525
     12          1           0       -1.935940   -1.558869   -0.873137
     13          1           0       -3.167095   -0.613669   -0.006759
     14          1           0       -1.948385   -1.540153    0.893932
 ---------------------------------------------------------------------

 SCF Done:  E(RHF) =  -361.269279735     A.U. after    2 cycles

 The electronic state is 1-A.
 Alpha  occ. eigenvalues --  -21.04872 -21.02682 -15.71405 -11.50716 -11.49502
 Alpha  occ. eigenvalues --  -11.47904 -11.38697  -1.74041  -1.70280  -1.33965
 Alpha  occ. eigenvalues --   -1.09330  -1.04803  -0.88581  -0.78083  -0.66184
 Alpha  occ. eigenvalues --   -0.65236  -0.64287  -0.60641  -0.57137  -0.53337
 Alpha  occ. eigenvalues --   -0.52608  -0.47660  -0.42943  -0.40195  -0.33376
 Alpha  occ. eigenvalues --   -0.28846  -0.27406
 Alpha virt. eigenvalues --    0.02639   0.04527   0.05476   0.05915   0.06408
 Alpha virt. eigenvalues --    0.06823   0.07536   0.08733   0.10238   0.11880
 Alpha virt. eigenvalues --    0.12207   0.12564   0.13265   0.13622   0.14285

 Mulliken charges:
               1
     1  C   -3.796986
     2  N   -2.892601
     3  C    2.233874
     4  O   -2.672181
     5  C    4.953911
     6  O   -3.245372
     7  C   -4.224723
     8  H    1.360582
     9  H    1.294017
    10  H    1.347592
    11  H    1.892891
    12  H    1.324320
    13  H    1.109187
    14  H    1.315488
 Sum of Mulliken charges =  -0.00000

 Dipole moment (field-independent basis, Debye):
    X=              2.1238    Y=             -0.7465    Z=              0.1169  Tot=              2.2542

 Test job not archived.
 1\1\GINC-SE229\SP\RHF\Aug-CC-pVDZ\C4H7N1O2\OHZDE\09-Apr-2025\0\\#t hf
 aug-cc-pvdz iop(5/13=1,5/36=2,99/5=2) pseudo=read geom=check guess=(re
 ad,tcheck) scf=(maxcycle=1)\\title\\0,1\C,0,-2.30368401,-0.64872457,-0
 .16076663\N,0,-0.21685667,-0.13987251,-0.09617023\C,0,-0.53722548,0.83
 635968,0.7018264\O,0,-1.74648285,0.97254799,0.96126213\C,0,1.0429926,-
 0.50019963,-0.54642371\O,0,1.17050396,-1.44604466,-1.28620511\C,0,2.23
 372021,0.31912519,-0.09105597\H,0,-3.21897462,-0.07764731,-0.11501492\
 H,0,-2.01220973,-0.95400714,-1.15304858\H,0,-2.19377769,-1.41091544,0.

 Normal termination of Gaussian 16 at Wed Apr  9 19:33:52 2025.
