 Gaussian 16, Revision C.01,

 ----------------------------------------------------------------------
 #t hf aug-cc-pvdz symm=none int=(grid=ultrafine) guess=(read,tcheck) s
 table=(opt,rrhf)
 ----------------------------------------------------------------------
 -----
 title
 -----
 Symbolic Z-matrix:
 Charge =  0 Multiplicity = 1

 SCF Done:  E(RHF) =  -323.760748222     A.U. after   15 cycles
 Normal termination of Gaussian 16 at Wed Apr  9 19:06:02 2025.
 Gaussian 16:  ES64L-G16RevC.01  3-Jul-2019

 ----------------------------------------------------------------------
 #t hf aug-cc-pvdz iop(5/13=1,5/36=2,99/5=2) pseudo=read geom=check gue
 ss=(read,tcheck) scf=(maxcycle=1)
 ----------------------------------------------------------------------
 -----
 title
 -----
 Structure from the checkpoint file:  "Grambow2020_wb97xd3_008093_forward_mol1.chk"
 Charge =  0 Multiplicity = 1

                         Standard orientation:
 ---------------------------------------------------------------------
 Center     Atomic      Atomic             Coordinates (Angstroms)
 Number     Number       Type             X           Y           Z
 ---------------------------------------------------------------------
      1          6           0        2.061438   -0.790053    0.568576
      2          6           0        1.116991    0.027241   -0.265701
      3          7           0        1.075926    1.327296   -0.090705
      4          8           0        0.275367   -0.618718   -0.990380
      5          6           0       -1.348606    0.019607   -0.406526
      6          6           0       -1.056772    0.960605    0.620451
      7          6           0       -2.158042   -0.822929    0.327670
      8          1           0        1.483717   -1.364671    1.299654
      9          1           0        2.577517   -1.513325   -0.063483
     10          1           0        2.782707   -0.159393    1.082228
     11          1           0        0.533778    1.736846   -0.847796
     12          1           0       -1.712829    0.385948   -1.355968
     13          1           0       -0.745150    0.621737    1.596307
     14          1           0       -1.410856    1.981308    0.552238
     15          1           0       -1.835488   -1.198561    1.288800
     16          1           0       -3.097865   -1.198053   -0.060820
 ---------------------------------------------------------------------

 SCF Done:  E(RHF) =  -325.302745997     A.U. after    2 cycles

 The electronic state is 1-A.
 Alpha  occ. eigenvalues --  -21.01152 -15.69705 -11.50305 -11.47656 -11.45364
 Alpha  occ. eigenvalues --  -11.41899 -11.36329  -1.71138  -1.28220  -1.25849
 Alpha  occ. eigenvalues --   -1.06216  -0.97308  -0.85189  -0.74899  -0.70955
 Alpha  occ. eigenvalues --   -0.63173  -0.60690  -0.59288  -0.56764  -0.55819
 Alpha  occ. eigenvalues --   -0.52160  -0.50853  -0.47902  -0.39738  -0.32185
 Alpha  occ. eigenvalues --   -0.29514  -0.26602
 Alpha virt. eigenvalues --    0.03340   0.04657   0.05219   0.05306   0.05721
 Alpha virt. eigenvalues --    0.06251   0.07185   0.07472   0.08315   0.08650
 Alpha virt. eigenvalues --    0.11383   0.11576   0.12924   0.13500   0.13882

 Mulliken charges:
               1
     1  C   -3.931073
     2  C    5.879318
     3  N   -3.232756
     4  O   -3.257551
     5  C   -2.105823
     6  C   -2.590392
     7  C   -1.920949
     8  H    1.168218
     9  H    1.279891
    10  H    1.264407
    11  H    0.689004
    12  H    1.352746
    13  H    1.468838
    14  H    1.257359
    15  H    1.267840
    16  H    1.410923
 Sum of Mulliken charges =   0.00000

 Dipole moment (field-independent basis, Debye):
    X=             -2.8480    Y=             -0.5095    Z=              0.2973  Tot=              2.9084

 Test job not archived.
 1\1\GINC-SE117\SP\RHF\Aug-CC-pVDZ\C5H9N1O1\OHZDE\09-Apr-2025\0\\#t hf
 aug-cc-pvdz iop(5/13=1,5/36=2,99/5=2) pseudo=read geom=check guess=(re
 ad,tcheck) scf=(maxcycle=1)\\title\\0,1\C,0,1.93546939,-0.53128918,-1.
 12219182\C,0,1.28913288,0.19036528,0.02560207\N,0,1.33208459,-0.349082
 27,1.22126271\O,0,0.5789755,1.22138607,-0.26323597\C,0,-1.06781833,0.7
 9971882,0.44096296\C,0,-0.93171682,-0.49526827,1.01525507\C,0,-2.09997
 651,0.51727964,-0.43022926\H,0,1.15381996,-0.93453249,-1.77399132\H,0,
 2.51202639,0.17413145,-1.72129169\H,0,2.57598816,-1.33710907,-0.772634

 Normal termination of Gaussian 16 at Wed Apr  9 19:06:08 2025.
