 Gaussian 16, Revision C.01,

 ----------------------------------------------------------------------
 #t hf aug-cc-pvdz symm=none int=(grid=ultrafine) guess=(read,tcheck) s
 table=(opt,rrhf)
 ----------------------------------------------------------------------
 -----
 title
 -----
 Symbolic Z-matrix:
 Charge =  0 Multiplicity = 1

 SCF Done:  E(RHF) =  -321.783179410     A.U. after   14 cycles
 Normal termination of Gaussian 16 at Wed Apr  9 16:01:49 2025.
 Gaussian 16:  ES64L-G16RevC.01  3-Jul-2019

 ----------------------------------------------------------------------
 #t hf aug-cc-pvdz iop(5/13=1,5/36=2,99/5=2) pseudo=read geom=check gue
 ss=(read,tcheck) scf=(maxcycle=1)
 ----------------------------------------------------------------------
 -----
 title
 -----
 Structure from the checkpoint file:  "Grambow2020_b97d3_006698_reverse_mol2.chk"
 Charge =  0 Multiplicity = 1

                         Standard orientation:
 ---------------------------------------------------------------------
 Center     Atomic      Atomic             Coordinates (Angstroms)
 Number     Number       Type             X           Y           Z
 ---------------------------------------------------------------------
      1          6           0       -2.113970   -0.674195    0.618290
      2          7           0       -1.362011   -0.032449   -0.581219
      3          6           0        0.002297    0.412886   -0.208897
      4          8           0        0.239309    1.510943    0.256047
      5          8           0        0.842230   -0.632583   -0.369445
      6          6           0        2.147585   -0.445139    0.225674
      7          1           0       -1.450263   -1.500432    0.921153
      8          1           0       -1.888030    0.788674   -0.898320
      9          1           0       -2.060755    0.105674    1.395041
     10          1           0       -1.326628   -0.712255   -1.348916
     11          1           0        2.636067    0.441575   -0.194306
     12          1           0        2.705513   -1.351930   -0.021455
     13          1           0        2.050397   -0.332361    1.312116
 ---------------------------------------------------------------------

 SCF Done:  E(RHF) =  -323.211536104     A.U. after    2 cycles

 The electronic state is 1-A.
 Alpha  occ. eigenvalues --  -21.13311 -21.09102 -15.86480 -11.56314 -11.44471
 Alpha  occ. eigenvalues --  -11.31561  -1.87501  -1.70447  -1.44156  -1.05226
 Alpha  occ. eigenvalues --   -0.92592  -0.83888  -0.75808  -0.71276  -0.66068
 Alpha  occ. eigenvalues --   -0.59167  -0.58589  -0.57096  -0.50189  -0.49163
 Alpha  occ. eigenvalues --   -0.46409  -0.35806  -0.35096  -0.25513
 Alpha virt. eigenvalues --    0.02808   0.04252   0.05392   0.05849   0.06164
 Alpha virt. eigenvalues --    0.06873   0.07777   0.08724   0.11649   0.12586
 Alpha virt. eigenvalues --    0.13001   0.13940   0.14320   0.15415   0.15660

 Mulliken charges:
               1
     1  C   -3.067499
     2  N   -2.427579
     3  C    6.491040
     4  O   -2.873642
     5  O   -2.941591
     6  C   -3.076620
     7  H    1.318203
     8  H    0.624628
     9  H    1.301621
    10  H    0.764943
    11  H    1.289952
    12  H    1.328261
    13  H    1.268283
 Sum of Mulliken charges =  -0.00000

 Dipole moment (field-independent basis, Debye):
    X=              4.3603    Y=              0.6543    Z=             -2.7896  Tot=              5.2175

 Test job not archived.
 1\1\GINC-SE092\SP\RHF\Aug-CC-pVDZ\C3H7N1O2\OHZDE\09-Apr-2025\0\\#t hf
 aug-cc-pvdz iop(5/13=1,5/36=2,99/5=2) pseudo=read geom=check guess=(re
 ad,tcheck) scf=(maxcycle=1)\\title\\0,1\C,0,-2.16595453,0.05847372,-0.
 76260471\N,0,-1.35645188,0.19939333,0.55684519\C,0,0.02064877,-0.33387
 989,0.42457327\O,0,0.30377404,-1.49964368,0.62183887\O,0,0.80897403,0.
 6555225,-0.04860022\C,0,2.10917876,0.21474134,-0.505146\H,0,-1.5522479
 ,0.60585141,-1.49652792\H,0,-1.83264187,-0.3316081,1.29357625\H,0,-2.0
 8938475,-1.01680704,-0.99124601\H,0,-1.33961046,1.18872811,0.82828655\

 Normal termination of Gaussian 16 at Wed Apr  9 16:01:52 2025.
