 Gaussian 16, Revision C.01,

 ----------------------------------------------------------------------
 #t hf aug-cc-pvdz symm=none int=(grid=ultrafine) guess=(read,tcheck) s
 table=(opt,rrhf)
 ----------------------------------------------------------------------
 -----
 title
 -----
 Symbolic Z-matrix:
 Charge =  0 Multiplicity = 1

 SCF Done:  E(RHF) =  -270.639508615     A.U. after   16 cycles
 Normal termination of Gaussian 16 at Wed Apr  9 03:53:52 2025.
 Gaussian 16:  ES64L-G16RevC.01  3-Jul-2019

 ----------------------------------------------------------------------
 #t hf aug-cc-pvdz iop(5/13=1,5/36=2,99/5=2) pseudo=read geom=check gue
 ss=(read,tcheck) scf=(maxcycle=1)
 ----------------------------------------------------------------------
 -----
 title
 -----
 Structure from the checkpoint file:  "Grambow2020_wb97xd3_008386_reverse_mol1.chk"
 Charge =  0 Multiplicity = 1

                         Standard orientation:
 ---------------------------------------------------------------------
 Center     Atomic      Atomic             Coordinates (Angstroms)
 Number     Number       Type             X           Y           Z
 ---------------------------------------------------------------------
      1          6           0        1.909111    0.361842   -0.140104
      2          6           0        0.357816    0.673327    0.777687
      3          6           0       -0.332470   -0.625855    1.217845
      4          6           0       -0.843820   -0.943220   -0.177038
      5          6           0        0.556917   -0.851806   -0.807148
      6          6           0       -1.504821    0.362331   -0.562268
      7          6           0       -0.705532    1.310135   -0.071852
      8          1           0        2.379412   -0.130183   -1.016462
      9          1           0        2.037138    1.418055   -0.370214
     10          1           0        2.521001    0.072692    0.709106
     11          1           0       -1.105980   -0.405711    1.956027
     12          1           0        0.359851   -1.368732    1.620984
     13          1           0       -1.400439   -1.861338   -0.403000
     14          1           0        0.584927   -0.538263   -1.848507
     15          1           0        1.159610   -1.745401   -0.644187
     16          1           0       -2.385858    0.460678   -1.184771
     17          1           0       -0.772869    2.377678   -0.241711
 ---------------------------------------------------------------------

 SCF Done:  E(RHF) =  -272.033290741     A.U. after    2 cycles

 The electronic state is 1-A.
 Alpha  occ. eigenvalues --  -11.45468 -11.44747 -11.42535 -11.40705 -11.38754
 Alpha  occ. eigenvalues --  -11.37808 -11.33941  -1.40675  -1.09096  -1.03928
 Alpha  occ. eigenvalues --   -1.00276  -0.88821  -0.79054  -0.73469  -0.67014
 Alpha  occ. eigenvalues --   -0.65029  -0.61115  -0.55709  -0.53966  -0.52321
 Alpha  occ. eigenvalues --   -0.46018  -0.45334  -0.44188  -0.41680  -0.32884
 Alpha  occ. eigenvalues --   -0.23855
 Alpha virt. eigenvalues --    0.03775   0.04613   0.04836   0.05066   0.05374
 Alpha virt. eigenvalues --    0.05595   0.06694   0.07184   0.07610   0.08783
 Alpha virt. eigenvalues --    0.10167   0.11594   0.11994   0.12822   0.14111

 Mulliken charges:
               1
     1  C   -3.468926
     2  C   -1.465260
     3  C   -2.784090
     4  C   -3.684815
     5  C   -1.636118
     6  C   -0.194199
     7  C   -0.124816
     8  H    0.822283
     9  H    1.230526
    10  H    1.203587
    11  H    1.490317
    12  H    1.357609
    13  H    1.622595
    14  H    1.581291
    15  H    1.269544
    16  H    1.367462
    17  H    1.413010
 Sum of Mulliken charges =   0.00000

 Dipole moment (field-independent basis, Debye):
    X=             -0.3578    Y=             -1.7466    Z=             -1.9866  Tot=              2.6693

 Test job not archived.
 1\1\GINC-SE398\SP\RHF\Aug-CC-pVDZ\C7H10\OHZDE\09-Apr-2025\0\\#t hf aug
 -cc-pvdz iop(5/13=1,5/36=2,99/5=2) pseudo=read geom=check guess=(read,
 tcheck) scf=(maxcycle=1)\\title\\0,1\C,0,1.75365615,-0.21695099,-0.355
 44454\C,0,0.56587506,0.27873438,0.94430576\C,0,-0.55323984,-0.75459706
 ,1.1390197\C,0,-1.2819646,-0.35122255,-0.13147217\C,0,-0.03642844,-0.5
 4727415,-1.01332432\C,0,-1.37872086,1.14939135,0.03759685\C,0,-0.21618
 383,1.50963362,0.58205843\H,0,1.89188252,-0.49836911,-1.4198569\H,0,2.
 28350403,0.73203454,-0.29532723\H,0,2.27036248,-0.98646994,0.21026657\

 Normal termination of Gaussian 16 at Wed Apr  9 03:53:57 2025.
