 Gaussian 16, Revision C.01,

 ----------------------------------------------------------------------
 #t hf aug-cc-pvdz symm=none int=(grid=ultrafine) guess=(read,tcheck) s
 table=(opt,rrhf)
 ----------------------------------------------------------------------
 -----
 title
 -----
 Symbolic Z-matrix:
 Charge =  0 Multiplicity = 1

 SCF Done:  E(RHF) =  -394.316560729     A.U. after   15 cycles
 Normal termination of Gaussian 16 at Wed Apr  9 18:30:06 2025.
 Gaussian 16:  ES64L-G16RevC.01  3-Jul-2019

 ----------------------------------------------------------------------
 #t hf aug-cc-pvdz iop(5/13=1,5/36=2,99/5=2) pseudo=read geom=check gue
 ss=(read,tcheck) scf=(maxcycle=1)
 ----------------------------------------------------------------------
 -----
 title
 -----
 Structure from the checkpoint file:  "Grambow2020_wb97xd3_007199_forward_mol1.chk"
 Charge =  0 Multiplicity = 1

                         Standard orientation:
 ---------------------------------------------------------------------
 Center     Atomic      Atomic             Coordinates (Angstroms)
 Number     Number       Type             X           Y           Z
 ---------------------------------------------------------------------
      1          7           0       -1.259619    1.117347    0.302996
      2          6           0       -0.179560    0.418971    0.360103
      3          8           0        0.885328    0.794994   -0.365363
      4          6           0        2.020383    0.004634   -0.287656
      5          8           0        2.162190   -0.929882    0.416600
      6          6           0       -1.650879   -0.447125    0.353796
      7          8           0       -2.015006   -1.022365   -0.634430
      8          1           0       -1.429888    1.827108   -0.411418
      9          1           0        2.754329    0.413798   -0.991742
     10          1           0       -1.906872   -0.663186    1.390273
 ---------------------------------------------------------------------

 SCF Done:  E(RHF) =  -395.972254386     A.U. after    2 cycles

 The electronic state is 1-A.
 Alpha  occ. eigenvalues --  -21.15819 -21.10291 -21.04676 -15.80511 -11.55059
 Alpha  occ. eigenvalues --  -11.54543 -11.48208  -1.90253  -1.72851  -1.71476
 Alpha  occ. eigenvalues --   -1.43356  -0.96224  -0.93162  -0.80771  -0.71681
 Alpha  occ. eigenvalues --   -0.66876  -0.64980  -0.58000  -0.55944  -0.54610
 Alpha  occ. eigenvalues --   -0.50128  -0.46741  -0.39087  -0.34376  -0.30510
 Alpha  occ. eigenvalues --   -0.29579
 Alpha virt. eigenvalues --    0.03350   0.04698   0.05679   0.07717   0.08914
 Alpha virt. eigenvalues --    0.10035   0.10690   0.11462   0.11672   0.12607
 Alpha virt. eigenvalues --    0.13216   0.14778   0.15055   0.15306   0.17088

 Mulliken charges:
               1
     1  N   -2.127989
     2  C    2.489884
     3  O   -3.016747
     4  C    2.201292
     5  O   -2.392006
     6  C    1.845314
     7  O   -2.816161
     8  H    0.709628
     9  H    1.618027
    10  H    1.488758
 Sum of Mulliken charges =  -0.00000

 Dipole moment (field-independent basis, Debye):
    X=              0.8344    Y=              2.2454    Z=             -0.6437  Tot=              2.4804

 Test job not archived.
 1\1\GINC-SE174\SP\RHF\Aug-CC-pVDZ\C3H3N1O3\OHZDE\09-Apr-2025\0\\#t hf
 aug-cc-pvdz iop(5/13=1,5/36=2,99/5=2) pseudo=read geom=check guess=(re
 ad,tcheck) scf=(maxcycle=1)\\title\\0,1\N,0,-1.0277241,0.88160087,-0.7
 809731\C,0,-0.09981133,0.43815636,-0.00647125\O,0,1.07613759,0.0660366
 4,-0.53595423\C,0,2.03959996,-0.42183979,0.33167072\O,0,1.94773575,-0.
 47126527,1.50577621\C,0,-1.69581311,-0.04793914,0.35606169\O,0,-2.0665
 7893,-1.16047043,0.10133382\H,0,-1.00308192,0.78273734,-1.79722044\H,0
 ,2.89533521,-0.74194142,-0.27420165\H,0,-2.07864613,0.63048983,1.11742

 Normal termination of Gaussian 16 at Wed Apr  9 18:30:10 2025.
