 Gaussian 16, Revision C.01,

 ----------------------------------------------------------------------
 #t hf aug-cc-pvdz symm=none int=(grid=ultrafine) guess=(read,tcheck) s
 table=(opt,rrhf)
 ----------------------------------------------------------------------
 -----
 title
 -----
 Symbolic Z-matrix:
 Charge =  0 Multiplicity = 1

 SCF Done:  E(RHF) =  -264.989886545     A.U. after   14 cycles
 Normal termination of Gaussian 16 at Wed Apr  9 16:52:07 2025.
 Gaussian 16:  ES64L-G16RevC.01  3-Jul-2019

 ----------------------------------------------------------------------
 #t hf aug-cc-pvdz iop(5/13=1,5/36=2,99/5=2) pseudo=read geom=check gue
 ss=(read,tcheck) scf=(maxcycle=1)
 ----------------------------------------------------------------------
 -----
 title
 -----
 Structure from the checkpoint file:  "Grambow2020_b97d3_006849_reverse_mol2.chk"
 Charge =  0 Multiplicity = 1

                         Standard orientation:
 ---------------------------------------------------------------------
 Center     Atomic      Atomic             Coordinates (Angstroms)
 Number     Number       Type             X           Y           Z
 ---------------------------------------------------------------------
      1          6           0       -1.464856   -0.679826    0.001949
      2          7           0       -0.102897   -1.157736    0.066213
      3          6           0        0.712483    0.060714    0.419420
      4          6           0        2.098960    0.012455   -0.221628
      5          6           0       -0.093734    1.312380    0.065239
      6          7           0       -1.286795    0.820710   -0.182746
      7          1           0       -2.004217   -0.838574    0.949353
      8          1           0       -2.039131   -1.123699   -0.821876
      9          1           0       -2.091516    1.414012   -0.385011
     10          1           0        0.178585   -1.432430   -0.879235
     11          1           0        0.830504    0.089488    1.519204
     12          1           0        2.697116    0.869868    0.108612
     13          1           0        2.620482   -0.914564    0.052864
     14          1           0        2.018901    0.060745   -1.318066
 ---------------------------------------------------------------------

 SCF Done:  E(RHF) =  -266.262838481     A.U. after    2 cycles

 The electronic state is 1-A.
 Alpha  occ. eigenvalues --  -15.77682 -15.72573 -11.43536 -11.42655 -11.38063
 Alpha  occ. eigenvalues --  -11.35799  -1.50663  -1.27971  -1.13482  -0.97738
 Alpha  occ. eigenvalues --   -0.88612  -0.78190  -0.68338  -0.66682  -0.60283
 Alpha  occ. eigenvalues --   -0.58260  -0.54856  -0.50492  -0.48288  -0.45347
 Alpha  occ. eigenvalues --   -0.40751  -0.36375  -0.31715
 Alpha virt. eigenvalues --    0.03666   0.05259   0.05475   0.05748   0.06578
 Alpha virt. eigenvalues --    0.06826   0.06838   0.07993   0.10584   0.11092
 Alpha virt. eigenvalues --    0.11989   0.12546   0.14164   0.14625   0.14856

 Mulliken charges:
               1
     1  C   -1.650640
     2  N   -2.401190
     3  C    0.166492
     4  C   -3.513422
     5  C   -0.356138
     6  N   -1.907971
     7  H    1.528296
     8  H    1.435930
     9  H    0.773862
    10  H    0.527015
    11  H    1.665211
    12  H    1.231743
    13  H    1.229351
    14  H    1.271460
 Sum of Mulliken charges =   0.00000

 Dipole moment (field-independent basis, Debye):
    X=             -1.9816    Y=             -1.7760    Z=             -0.8266  Tot=              2.7865

 Test job not archived.
 1\1\GINC-SE043\SP\RHF\Aug-CC-pVDZ\C4H8N2\OHZDE\09-Apr-2025\0\\#t hf au
 g-cc-pvdz iop(5/13=1,5/36=2,99/5=2) pseudo=read geom=check guess=(read
 ,tcheck) scf=(maxcycle=1)\\title\\0,1\C,0,1.63467674,0.13648316,0.4319
 1777\N,0,0.63306068,-0.85178923,0.10398116\C,0,-0.44880315,-0.07722158
 ,-0.60583439\C,0,-1.83290138,-0.66048007,-0.32357736\C,0,-0.3119738,1.
 40363076,-0.24465609\N,0,0.85683114,1.44277185,0.35450422\H,0,2.436323
 12,0.17929529,-0.32254564\H,0,2.07815285,-0.01225381,1.42524994\H,0,1.
 28462976,2.31617456,0.66215669\H,0,0.22370509,-1.18708716,0.98065958\H

 Normal termination of Gaussian 16 at Wed Apr  9 16:52:12 2025.
