 Gaussian 16, Revision C.01,

 ----------------------------------------------------------------------
 #t hf aug-cc-pvdz symm=none int=(grid=ultrafine) guess=(read,tcheck) s
 table=(opt,rrhf)
 ----------------------------------------------------------------------
 -----
 title
 -----
 Symbolic Z-matrix:
 Charge =  0 Multiplicity = 1

 SCF Done:  E(RHF) =  -320.200107211     A.U. after   21 cycles
 Normal termination of Gaussian 16 at Wed Apr  9 19:31:55 2025.
 Gaussian 16:  ES64L-G16RevC.01  3-Jul-2019

 ----------------------------------------------------------------------
 #t hf aug-cc-pvdz iop(5/13=1,5/36=2,99/5=2) pseudo=read geom=check gue
 ss=(read,tcheck) scf=(maxcycle=1)
 ----------------------------------------------------------------------
 -----
 title
 -----
 Structure from the checkpoint file:  "Grambow2020_wb97xd3_009368_forward_mol1.chk"
 Charge =  0 Multiplicity = 1

                         Standard orientation:
 ---------------------------------------------------------------------
 Center     Atomic      Atomic             Coordinates (Angstroms)
 Number     Number       Type             X           Y           Z
 ---------------------------------------------------------------------
      1          6           0        2.790747   -0.150946   -0.186390
      2          6           0        1.601063   -0.101611   -0.010835
      3          6           0        0.217222   -0.012232    0.205433
      4          6           0       -0.662798   -1.140606    0.163468
      5          8           0       -1.828548   -1.116826   -0.162867
      6          7           0       -1.491628    1.350381   -0.303148
      7          6           0       -0.404679    1.331666    0.262677
      8          1           0        3.843185   -0.207363   -0.338264
      9          1           0       -0.193932   -2.064691    0.549537
     10          1           0        0.171202    2.196363    0.607583
 ---------------------------------------------------------------------

 SCF Done:  E(RHF) =  -321.597706645     A.U. after    2 cycles

 The electronic state is 1-A.
 Alpha  occ. eigenvalues --  -21.05615 -15.86048 -11.50497 -11.49154 -11.46998
 Alpha  occ. eigenvalues --  -11.43305 -11.42640  -1.71168  -1.40864  -1.19948
 Alpha  occ. eigenvalues --   -1.05202  -0.89802  -0.81264  -0.77248  -0.68097
 Alpha  occ. eigenvalues --   -0.61769  -0.58045  -0.55689  -0.50865  -0.46641
 Alpha  occ. eigenvalues --   -0.42669  -0.39937  -0.32077  -0.25664
 Alpha virt. eigenvalues --    0.01501   0.02777   0.04369   0.06167   0.08470
 Alpha virt. eigenvalues --    0.09133   0.09644   0.10350   0.11262   0.11692
 Alpha virt. eigenvalues --    0.11745   0.12664   0.13451   0.14711   0.15654

 Mulliken charges:
               1
     1  C   -3.452466
     2  C    4.088577
     3  C    1.252570
     4  C    0.812449
     5  O   -2.836364
     6  N   -2.117249
     7  C   -1.080695
     8  H    0.628796
     9  H    1.346218
    10  H    1.358164
 Sum of Mulliken charges =   0.00000

 Dipole moment (field-independent basis, Debye):
    X=              1.4421    Y=              1.4037    Z=              0.6962  Tot=              2.1295

 Test job not archived.
 1\1\GINC-SE174\SP\RHF\Aug-CC-pVDZ\C5H3N1O1\OHZDE\09-Apr-2025\0\\#t hf
 aug-cc-pvdz iop(5/13=1,5/36=2,99/5=2) pseudo=read geom=check guess=(re
 ad,tcheck) scf=(maxcycle=1)\\title\\0,1\C,0,2.33884383,0.10876678,0.45
 807628\C,0,1.1614024,0.0915947,0.20920183\C,0,-0.20637012,0.04524144,-
 0.10196416\C,0,-1.13156472,1.07930214,0.2503999\O,0,-2.3092277,0.92488
 027,0.4855524\N,0,-1.88127378,-1.44721321,-0.15501882\C,0,-0.77104326,
 -1.22209198,-0.62264612\H,0,3.38010111,0.13715044,0.67910085\H,0,-0.68
 25487,2.08898118,0.20856383\H,0,-0.14597106,-1.91582776,-1.19388598\\V

 Normal termination of Gaussian 16 at Wed Apr  9 19:31:59 2025.
