 Gaussian 16, Revision C.01,

 ----------------------------------------------------------------------
 #t hf aug-cc-pvdz symm=none int=(grid=ultrafine) guess=(read,tcheck) s
 table=(opt,rrhf)
 ----------------------------------------------------------------------
 -----
 title
 -----
 Symbolic Z-matrix:
 Charge =  0 Multiplicity = 1

 SCF Done:  E(RHF) =  -343.563257492     A.U. after   15 cycles
 Normal termination of Gaussian 16 at Wed Apr  9 18:48:45 2025.
 Gaussian 16:  ES64L-G16RevC.01  3-Jul-2019

 ----------------------------------------------------------------------
 #t hf aug-cc-pvdz iop(5/13=1,5/36=2,99/5=2) pseudo=read geom=check gue
 ss=(read,tcheck) scf=(maxcycle=1)
 ----------------------------------------------------------------------
 -----
 title
 -----
 Structure from the checkpoint file:  "Grambow2020_wb97xd3_007679_forward_mol1.chk"
 Charge =  0 Multiplicity = 1

                         Standard orientation:
 ---------------------------------------------------------------------
 Center     Atomic      Atomic             Coordinates (Angstroms)
 Number     Number       Type             X           Y           Z
 ---------------------------------------------------------------------
      1          6           0        1.764561   -0.838226    0.307499
      2          6           0        0.643274   -0.477672   -0.641885
      3          6           0       -0.749799   -1.039284   -0.394223
      4          8           0       -1.091085   -0.706678    0.954826
      5          6           0       -1.415856    0.312771   -0.453941
      6          6           0       -0.018206    0.941341   -0.566117
      7          8           0        0.396081    1.860576    0.391344
      8          1           0        2.058639   -1.882688    0.184681
      9          1           0        1.471026   -0.693401    1.347460
     10          1           0        2.639314   -0.214880    0.115756
     11          1           0        0.939854   -0.672816   -1.674564
     12          1           0       -1.137031   -1.993655   -0.737977
     13          1           0       -1.994113   -0.106480    0.763859
     14          1           0        0.030647    1.445358   -1.535572
     15          1           0        0.207855    1.493798    1.259015
 ---------------------------------------------------------------------

 SCF Done:  E(RHF) =  -345.144221477     A.U. after    2 cycles

 The electronic state is 1-A.
 Alpha  occ. eigenvalues --  -21.10491 -21.07894 -11.51988 -11.47049 -11.42387
 Alpha  occ. eigenvalues --  -11.40067 -11.37237  -1.81610  -1.71985  -1.26250
 Alpha  occ. eigenvalues --   -1.07500  -0.93597  -0.88054  -0.78907  -0.73629
 Alpha  occ. eigenvalues --   -0.62490  -0.59699  -0.58191  -0.56055  -0.52435
 Alpha  occ. eigenvalues --   -0.50600  -0.46973  -0.43411  -0.38831  -0.36250
 Alpha  occ. eigenvalues --   -0.34939  -0.28875
 Alpha virt. eigenvalues --    0.03916   0.04847   0.05080   0.05544   0.05968
 Alpha virt. eigenvalues --    0.06485   0.06858   0.07806   0.08282   0.12563
 Alpha virt. eigenvalues --    0.13002   0.13343   0.13680   0.14241   0.14795

 Mulliken charges:
               1
     1  C   -3.805605
     2  C   -1.384043
     3  C    0.927196
     4  O   -2.539487
     5  C   -1.678810
     6  C    1.709495
     7  O   -3.339615
     8  H    1.193060
     9  H    1.309346
    10  H    1.199281
    11  H    1.388807
    12  H    1.432216
    13  H    1.357684
    14  H    1.591792
    15  H    0.638682
 Sum of Mulliken charges =   0.00000

 Dipole moment (field-independent basis, Debye):
    X=              1.4972    Y=             -1.8778    Z=              0.8492  Tot=              2.5474

 Test job not archived.
 1\1\GINC-SE117\SP\RHF\Aug-CC-pVDZ\C5H8O2\OHZDE\09-Apr-2025\0\\#t hf au
 g-cc-pvdz iop(5/13=1,5/36=2,99/5=2) pseudo=read geom=check guess=(read
 ,tcheck) scf=(maxcycle=1)\\title\\0,1\C,0,1.61839949,-0.53107146,0.028
 3035\C,0,0.4245276,0.19385251,0.60948248\C,0,-0.20241943,1.33950533,-0
 .1727022\O,0,-0.49427508,0.83204568,-1.47820577\C,0,-1.59487499,0.7648
 1731,-0.09489875\C,0,-0.99063213,-0.47920674,0.57473131\O,0,-1.1627891
 2,-1.72529679,-0.01770522\H,0,2.50846761,0.10107631,0.05349297\H,0,1.4
 4449051,-0.822815,-1.00769799\H,0,1.8286963,-1.43571627,0.60093846\H,0

 Normal termination of Gaussian 16 at Wed Apr  9 18:48:51 2025.
