 Gaussian 16, Revision C.01,

 ----------------------------------------------------------------------
 #t hf aug-cc-pvdz symm=none int=(grid=ultrafine) guess=(read,tcheck) s
 table=(opt,rrhf)
 ----------------------------------------------------------------------
 -----
 title
 -----
 Symbolic Z-matrix:
 Charge =  0 Multiplicity = 1

 SCF Done:  E(RHF) =  -284.720487020     A.U. after   15 cycles
 Normal termination of Gaussian 16 at Wed Apr  9 03:06:35 2025.
 Gaussian 16:  ES64L-G16RevC.01  3-Jul-2019

 ----------------------------------------------------------------------
 #t hf aug-cc-pvdz iop(5/13=1,5/36=2,99/5=2) pseudo=read geom=check gue
 ss=(read,tcheck) scf=(maxcycle=1)
 ----------------------------------------------------------------------
 -----
 title
 -----
 Structure from the checkpoint file:  "Grambow2020_b97d3_006534_forward_mol1.chk"
 Charge =  0 Multiplicity = 1

                         Standard orientation:
 ---------------------------------------------------------------------
 Center     Atomic      Atomic             Coordinates (Angstroms)
 Number     Number       Type             X           Y           Z
 ---------------------------------------------------------------------
      1          6           0        1.127132    0.807680    0.262505
      2          6           0       -0.172728    1.173129   -0.442547
      3          8           0       -1.280162    0.581039    0.194768
      4          6           0       -1.125268   -0.741600    0.255639
      5          7           0       -0.057577   -1.223705   -0.414018
      6          6           0        1.269042   -0.723420    0.099679
      7          1           0        1.963764    1.375797   -0.165762
      8          1           0        1.057924    1.067453    1.335475
      9          1           0       -0.392150    2.233514   -0.581818
     10          1           0       -0.079182   -0.321794   -1.215836
     11          1           0       -2.018214   -1.293997    0.538307
     12          1           0        2.015832   -0.995829   -0.657056
     13          1           0        1.507297   -1.242257    1.035022
 ---------------------------------------------------------------------

 SCF Done:  E(RHF) =  -286.072872944     A.U. after    2 cycles

 The electronic state is 1-A.
 Alpha  occ. eigenvalues --  -21.13863 -15.73401 -11.48382 -11.46486 -11.40452
 Alpha  occ. eigenvalues --  -11.36185  -1.85197  -1.39040  -1.15556  -0.94685
 Alpha  occ. eigenvalues --   -0.92771  -0.76994  -0.70098  -0.67136  -0.61850
 Alpha  occ. eigenvalues --   -0.57944  -0.55332  -0.52702  -0.48722  -0.43468
 Alpha  occ. eigenvalues --   -0.40435  -0.35296  -0.27860
 Alpha virt. eigenvalues --    0.03944   0.05371   0.05691   0.05866   0.06102
 Alpha virt. eigenvalues --    0.06362   0.08241   0.09568   0.10146   0.11822
 Alpha virt. eigenvalues --    0.13058   0.13794   0.13942   0.14857   0.15318

 Mulliken charges:
               1
     1  C   -2.822173
     2  C   -0.368719
     3  O   -3.031434
     4  C    2.028218
     5  N   -2.242262
     6  C   -2.689400
     7  H    1.377509
     8  H    1.299573
     9  H    1.422617
    10  H    0.738427
    11  H    1.675070
    12  H    1.205179
    13  H    1.407394
 Sum of Mulliken charges =  -0.00000

 Dipole moment (field-independent basis, Debye):
    X=             -0.2873    Y=              0.5435    Z=              1.2051  Tot=              1.3529

 Test job not archived.
 1\1\GINC-SE195\SP\RHF\Aug-CC-pVDZ\C4H7N1O1\OHZDE\09-Apr-2025\0\\#t hf
 aug-cc-pvdz iop(5/13=1,5/36=2,99/5=2) pseudo=read geom=check guess=(re
 ad,tcheck) scf=(maxcycle=1)\\title\\0,1\C,0,0.66545593,-0.91188983,0.0
 483173\C,0,-0.84526485,-0.93243339,0.24219333\O,0,-1.49110116,-0.12458
 066,-0.71353694\C,0,-1.01950627,1.12112289,-0.65976667\N,0,-0.16937132
 ,1.36722986,0.35882665\C,0,1.09645849,0.54873065,0.31616178\H,0,1.1435
 3175,-1.64177062,0.71528129\H,0,0.91411662,-1.19310629,-0.99217447\H,0
 ,-1.34123877,-1.90500415,0.25080667\H,0,-0.67850844,0.53007359,1.06364

 Normal termination of Gaussian 16 at Wed Apr  9 03:06:39 2025.
