 Gaussian 16, Revision C.01,

 ----------------------------------------------------------------------
 #t hf aug-cc-pvdz symm=none int=(grid=ultrafine) guess=(read,tcheck) s
 table=(opt,rrhf)
 ----------------------------------------------------------------------
 -----
 title
 -----
 Symbolic Z-matrix:
 Charge =  0 Multiplicity = 1

 SCF Done:  E(RHF) =  -322.624392883     A.U. after   15 cycles
 Normal termination of Gaussian 16 at Wed Apr  9 18:18:14 2025.
 Gaussian 16:  ES64L-G16RevC.01  3-Jul-2019

 ----------------------------------------------------------------------
 #t hf aug-cc-pvdz iop(5/13=1,5/36=2,99/5=2) pseudo=read geom=check gue
 ss=(read,tcheck) scf=(maxcycle=1)
 ----------------------------------------------------------------------
 -----
 title
 -----
 Structure from the checkpoint file:  "Grambow2020_wb97xd3_006853_reverse_mol2.chk"
 Charge =  0 Multiplicity = 1

                         Standard orientation:
 ---------------------------------------------------------------------
 Center     Atomic      Atomic             Coordinates (Angstroms)
 Number     Number       Type             X           Y           Z
 ---------------------------------------------------------------------
      1          6           0        2.647877   -0.604190    0.009292
      2          6           0        1.324046    0.132582   -0.016959
      3          6           0        0.127278   -0.684747   -0.003145
      4          6           0       -1.074326   -0.064845    0.055534
      5          7           0       -2.471750   -0.584798   -0.051468
      6          6           0       -2.033865    0.844515    0.148758
      7          8           0        1.288116    1.352250   -0.034051
      8          1           0        2.666689   -1.408687   -0.728855
      9          1           0        2.796101   -1.056930    0.992993
     10          1           0        3.457305    0.096802   -0.183213
     11          1           0        0.176445   -1.764539   -0.000016
     12          1           0       -2.894415   -1.068579    0.729215
     13          1           0       -2.725720   -0.956829   -0.960743
     14          1           0       -2.425142    1.694452   -0.377570
 ---------------------------------------------------------------------

 SCF Done:  E(RHF) =  -324.111912748     A.U. after    2 cycles

 The electronic state is 1-A.
 Alpha  occ. eigenvalues --  -21.00228 -15.86024 -11.49498 -11.46706 -11.42002
 Alpha  occ. eigenvalues --  -11.37432 -11.36299  -1.66895  -1.51620  -1.14959
 Alpha  occ. eigenvalues --   -1.06302  -1.00127  -0.81681  -0.76074  -0.72152
 Alpha  occ. eigenvalues --   -0.65810  -0.60281  -0.57377  -0.54504  -0.51522
 Alpha  occ. eigenvalues --   -0.48142  -0.46103  -0.43790  -0.38295  -0.25490
 Alpha  occ. eigenvalues --   -0.24648
 Alpha virt. eigenvalues --    0.02369   0.04484   0.04865   0.05068   0.06217
 Alpha virt. eigenvalues --    0.06837   0.07854   0.09078   0.10839   0.11408
 Alpha virt. eigenvalues --    0.11916   0.12909   0.13126   0.13474   0.15045

 Mulliken charges:
               1
     1  C   -4.562439
     2  C    3.834886
     3  C   -2.980093
     4  C    5.389424
     5  N   -2.741349
     6  C   -3.012571
     7  O   -3.602824
     8  H    1.242369
     9  H    1.221119
    10  H    1.208802
    11  H    1.684734
    12  H    0.618313
    13  H    0.632551
    14  H    1.067078
 Sum of Mulliken charges =   0.00000

 Dipole moment (field-independent basis, Debye):
    X=             -4.3404    Y=             -2.9780    Z=             -1.0694  Tot=              5.3713

 Test job not archived.
 1\1\GINC-SE219\SP\RHF\Aug-CC-pVDZ\C5H7N1O1\OHZDE\09-Apr-2025\0\\#t hf
 aug-cc-pvdz iop(5/13=1,5/36=2,99/5=2) pseudo=read geom=check guess=(re
 ad,tcheck) scf=(maxcycle=1)\\title\\0,1\C,0,2.60795796,-0.20570423,-0.
 04211362\C,0,1.26209271,0.45398109,0.18040502\C,0,0.09115269,-0.344400
 38,-0.12283935\C,0,-1.12934139,0.1788752,0.13822102\N,0,-2.50945768,-0
 .30410224,-0.17259609\C,0,-2.11701924,0.96562604,0.54053434\O,0,1.1885
 0056,1.59478413,0.60740033\H,0,2.65527089,-0.68558333,-1.0218617\H,0,2
 .76532825,-0.98119911,0.7118452\H,0,3.39622322,0.53890945,0.04626939\H

 Normal termination of Gaussian 16 at Wed Apr  9 18:18:18 2025.
