 Gaussian 16, Revision C.01,

 ----------------------------------------------------------------------
 #t hf aug-cc-pvdz symm=none int=(grid=ultrafine) guess=(read,tcheck) s
 table=(opt,rrhf)
 ----------------------------------------------------------------------
 -----
 title
 -----
 Symbolic Z-matrix:
 Charge =  0 Multiplicity = 1

 SCF Done:  E(RHF) =  -354.634157343     A.U. after   15 cycles
 Normal termination of Gaussian 16 at Wed Apr  9 03:39:44 2025.
 Gaussian 16:  ES64L-G16RevC.01  3-Jul-2019

 ----------------------------------------------------------------------
 #t hf aug-cc-pvdz iop(5/13=1,5/36=2,99/5=2) pseudo=read geom=check gue
 ss=(read,tcheck) scf=(maxcycle=1)
 ----------------------------------------------------------------------
 -----
 title
 -----
 Structure from the checkpoint file:  "Grambow2020_wb97xd3_007463_forward_mol1.chk"
 Charge =  0 Multiplicity = 1

                         Standard orientation:
 ---------------------------------------------------------------------
 Center     Atomic      Atomic             Coordinates (Angstroms)
 Number     Number       Type             X           Y           Z
 ---------------------------------------------------------------------
      1          7           0       -2.360127   -0.514019   -0.075632
      2          6           0       -1.078553    0.020792   -0.022219
      3          6           0       -0.726259    1.331407   -0.092903
      4          7           0        0.830921    1.132314    0.037453
      5          6           0        1.196697   -0.236522    0.009107
      6          8           0        2.311333   -0.691254   -0.023181
      7          7           0       -0.009367   -0.872790    0.010942
      8          1           0       -2.587667   -1.108549    0.709065
      9          1           0       -3.044856    0.221594   -0.169110
     10          1           0        0.174705    1.555081    0.900593
     11          1           0        1.465170    1.820271   -0.338890
     12          1           0       -0.079320   -1.870960   -0.089466
 ---------------------------------------------------------------------

 SCF Done:  E(RHF) =  -356.215167967     A.U. after    2 cycles

 The electronic state is 1-A.
 Alpha  occ. eigenvalues --  -21.04929 -15.81553 -15.80555 -15.77557 -11.52910
 Alpha  occ. eigenvalues --  -11.46479 -11.36161  -1.74608  -1.56324  -1.38077
 Alpha  occ. eigenvalues --   -1.31396  -1.04581  -0.90416  -0.84888  -0.73867
 Alpha  occ. eigenvalues --   -0.68027  -0.64797  -0.63735  -0.60372  -0.52984
 Alpha  occ. eigenvalues --   -0.48896  -0.46979  -0.38479  -0.37442  -0.30354
 Alpha  occ. eigenvalues --   -0.25638
 Alpha virt. eigenvalues --    0.03119   0.04918   0.05606   0.06275   0.06570
 Alpha virt. eigenvalues --    0.09986   0.10488   0.11028   0.11750   0.12607
 Alpha virt. eigenvalues --    0.14019   0.14035   0.14539   0.15438   0.16003

 Mulliken charges:
               1
     1  N   -2.958945
     2  C    4.569804
     3  C   -2.010613
     4  N   -2.306340
     5  C    4.809839
     6  O   -3.184177
     7  N   -2.738422
     8  H    0.534216
     9  H    0.587133
    10  H    1.253747
    11  H    0.653125
    12  H    0.790632
 Sum of Mulliken charges =   0.00000

 Dipole moment (field-independent basis, Debye):
    X=             -0.4172    Y=             -1.7564    Z=              1.1584  Tot=              2.1450

 Test job not archived.
 1\1\GINC-SE015\SP\RHF\Aug-CC-pVDZ\C3H5N3O1\OHZDE\09-Apr-2025\0\\#t hf
 aug-cc-pvdz iop(5/13=1,5/36=2,99/5=2) pseudo=read geom=check guess=(re
 ad,tcheck) scf=(maxcycle=1)\\title\\0,1\N,0,2.09941989,-0.24806223,0.0
 8970647\C,0,0.74674239,0.07061635,0.08588832\C,0,0.18558616,1.29525662
 ,0.2652705\N,0,-1.31992775,0.85318499,0.12583108\C,0,-1.45569004,-0.55
 504006,0.0435061\O,0,-2.47990159,-1.18846764,0.04328407\N,0,-0.1618319
 1,-0.98148353,-0.01572265\H,0,2.40738057,-0.7321305,-0.74205569\H,0,2.
 65578765,0.58051263,0.24016325\H,0,-0.75740328,1.44614712,-0.70261547\

 Normal termination of Gaussian 16 at Wed Apr  9 03:39:48 2025.
