 Gaussian 16, Revision C.01,

 ----------------------------------------------------------------------
 #t hf aug-cc-pvdz symm=none int=(grid=ultrafine) guess=(read,tcheck) s
 table=(opt,rrhf)
 ----------------------------------------------------------------------
 -----
 title
 -----
 Symbolic Z-matrix:
 Charge =  0 Multiplicity = 1

 SCF Done:  E(RHF) =  -283.584890970     A.U. after   15 cycles
 Normal termination of Gaussian 16 at Wed Apr  9 03:15:49 2025.
 Gaussian 16:  ES64L-G16RevC.01  3-Jul-2019

 ----------------------------------------------------------------------
 #t hf aug-cc-pvdz iop(5/13=1,5/36=2,99/5=2) pseudo=read geom=check gue
 ss=(read,tcheck) scf=(maxcycle=1)
 ----------------------------------------------------------------------
 -----
 title
 -----
 Structure from the checkpoint file:  "Grambow2020_b97d3_007000_reverse_mol1.chk"
 Charge =  0 Multiplicity = 1

                         Standard orientation:
 ---------------------------------------------------------------------
 Center     Atomic      Atomic             Coordinates (Angstroms)
 Number     Number       Type             X           Y           Z
 ---------------------------------------------------------------------
      1          6           0        0.981477    1.359896    0.084968
      2          6           0        0.848520   -0.047131    0.003039
      3          8           0        2.008794   -0.623396   -0.076559
      4          6           0       -0.368401   -0.939132    0.071852
      5          6           0       -1.631045   -0.209141   -0.013280
      6          7           0       -2.628159    0.397817   -0.072330
      7          1           0        1.448305    1.797858   -0.806172
      8          1           0        2.287246    0.616295    0.254167
      9          1           0        0.225316    1.996420    0.543951
     10          1           0       -0.335665   -1.530615    1.000466
     11          1           0       -0.281746   -1.664451   -0.753102
 ---------------------------------------------------------------------

 SCF Done:  E(RHF) =  -284.883032539     A.U. after    2 cycles

 The electronic state is 1-A.
 Alpha  occ. eigenvalues --  -21.08698 -15.78398 -11.54974 -11.49005 -11.45128
 Alpha  occ. eigenvalues --  -11.38605  -1.76550  -1.33420  -1.19285  -1.08245
 Alpha  occ. eigenvalues --   -0.82270  -0.73089  -0.69100  -0.67554  -0.58427
 Alpha  occ. eigenvalues --   -0.55490  -0.51337  -0.49916  -0.45539  -0.44328
 Alpha  occ. eigenvalues --   -0.39049  -0.29589
 Alpha virt. eigenvalues --    0.02255   0.05272   0.05709   0.06431   0.06662
 Alpha virt. eigenvalues --    0.07957   0.09267   0.09891   0.11153   0.11894
 Alpha virt. eigenvalues --    0.12378   0.13520   0.14376   0.14664   0.15656

 Mulliken charges:
               1
     1  C   -4.300299
     2  C    4.315479
     3  O   -2.988881
     4  C   -3.131132
     5  C    2.145695
     6  N   -2.357265
     7  H    0.950772
     8  H    1.123792
     9  H    1.284177
    10  H    1.479489
    11  H    1.478172
 Sum of Mulliken charges =  -0.00000

 Dipole moment (field-independent basis, Debye):
    X=              1.9843    Y=             -2.4673    Z=             -0.1163  Tot=              3.1684

 Test job not archived.
 1\1\GINC-SE458\SP\RHF\Aug-CC-pVDZ\C4H5N1O1\OHZDE\09-Apr-2025\0\\#t hf
 aug-cc-pvdz iop(5/13=1,5/36=2,99/5=2) pseudo=read geom=check guess=(re
 ad,tcheck) scf=(maxcycle=1)\\title\\0,1\C,0,-1.36570391,0.47328065,-0.
 17872736\C,0,-0.36857716,-0.51056612,0.02596801\O,0,-0.89273039,-1.692
 84818,0.13607576\C,0,1.13834003,-0.4119357,0.05371606\C,0,1.63124537,0
 .96270998,0.09614593\N,0,2.00153029,2.07108385,0.11888484\H,0,-2.06359
 438,0.55648774,0.66382524\H,0,-1.87720512,-0.94417084,-0.3044277\H,0,-
 1.16367334,1.42040987,-0.67846392\H,0,1.55483586,-0.93595679,-0.821029

 Normal termination of Gaussian 16 at Wed Apr  9 03:15:53 2025.
