 Gaussian 16, Revision C.01,

 ----------------------------------------------------------------------
 #t hf aug-cc-pvdz symm=none int=(grid=ultrafine) guess=(read,tcheck) s
 table=(opt,rrhf)
 ----------------------------------------------------------------------
 -----
 title
 -----
 Symbolic Z-matrix:
 Charge =  0 Multiplicity = 1

 SCF Done:  E(RHF) =  -306.548013721     A.U. after   18 cycles
 Normal termination of Gaussian 16 at Wed Apr  9 18:39:42 2025.
 Gaussian 16:  ES64L-G16RevC.01  3-Jul-2019

 ----------------------------------------------------------------------
 #t hf aug-cc-pvdz iop(5/13=1,5/36=2,99/5=2) pseudo=read geom=check gue
 ss=(read,tcheck) scf=(maxcycle=1)
 ----------------------------------------------------------------------
 -----
 title
 -----
 Structure from the checkpoint file:  "Grambow2020_wb97xd3_007369_forward_mol1.chk"
 Charge =  0 Multiplicity = 1

                         Standard orientation:
 ---------------------------------------------------------------------
 Center     Atomic      Atomic             Coordinates (Angstroms)
 Number     Number       Type             X           Y           Z
 ---------------------------------------------------------------------
      1          6           0       -1.964873   -0.385935    0.704594
      2          6           0       -2.005367    0.174743   -0.678082
      3          6           0       -0.685493   -0.007034    0.028843
      4          6           0        0.343117    1.038842    0.361387
      5          6           0        1.549910    0.176933   -0.435379
      6          8           0        2.463186   -0.309878    0.319445
      7          6           0        0.433687   -0.826234   -0.388647
      8          1           0       -2.291749    0.242186    1.522833
      9          1           0       -2.160399   -1.443117    0.832240
     10          1           0       -2.233775   -0.488920   -1.501147
     11          1           0       -2.328407    1.200280   -0.808479
     12          1           0        0.220094    2.013067   -0.108427
     13          1           0        0.625566    1.086934    1.406910
     14          1           0        1.781927    0.685855   -1.386727
     15          1           0        0.655370   -1.845157   -0.069058
 ---------------------------------------------------------------------

 SCF Done:  E(RHF) =  -307.984225202     A.U. after    2 cycles

 The electronic state is 1-A.
 Alpha  occ. eigenvalues --  -20.95701 -11.53244 -11.48081 -11.47178 -11.44315
 Alpha  occ. eigenvalues --  -11.41420 -11.39509  -1.63495  -1.38771  -1.18921
 Alpha  occ. eigenvalues --   -0.96236  -0.90000  -0.86485  -0.77570  -0.69635
 Alpha  occ. eigenvalues --   -0.68320  -0.62585  -0.58604  -0.54345  -0.51913
 Alpha  occ. eigenvalues --   -0.47444  -0.45368  -0.41145  -0.40241  -0.23678
 Alpha  occ. eigenvalues --   -0.22162
 Alpha virt. eigenvalues --    0.02996   0.03909   0.04615   0.05067   0.05228
 Alpha virt. eigenvalues --    0.05906   0.06088   0.07506   0.08486   0.09812
 Alpha virt. eigenvalues --    0.10592   0.11595   0.12471   0.13238   0.13823

 Mulliken charges:
               1
     1  C   -2.159433
     2  C   -2.132446
     3  C    2.701162
     4  C   -4.336922
     5  C    1.654246
     6  O   -3.020208
     7  C   -2.791487
     8  H    1.148316
     9  H    1.177643
    10  H    1.186474
    11  H    1.180028
    12  H    1.285528
    13  H    1.331597
    14  H    1.358631
    15  H    1.416871
 Sum of Mulliken charges =  -0.00000

 Dipole moment (field-independent basis, Debye):
    X=             -3.8988    Y=              0.1478    Z=             -0.5308  Tot=              3.9375

 Test job not archived.
 1\1\GINC-SE108\SP\RHF\Aug-CC-pVDZ\C6H8O1\OHZDE\09-Apr-2025\0\\#t hf au
 g-cc-pvdz iop(5/13=1,5/36=2,99/5=2) pseudo=read geom=check guess=(read
 ,tcheck) scf=(maxcycle=1)\\title\\0,1\C,0,-1.69428518,0.28344194,-0.55
 358728\C,0,-1.52449898,-0.15294416,0.86364012\C,0,-0.31650754,0.074518
 03,-0.01035735\C,0,0.76073113,-0.90734873,-0.38180638\C,0,1.96456278,0
 .11998058,0.19217742\O,0,2.73643742,0.61197244,-0.7039094\C,0,0.761467
 2,1.01827685,0.20234159\H,0,-2.05208716,-0.44031974,-1.27403578\H,0,-2
 .00098922,1.30497671,-0.73948267\H,0,-1.71869575,0.56017345,1.65345374

 Normal termination of Gaussian 16 at Wed Apr  9 18:39:47 2025.
