 Gaussian 16, Revision C.01,

 ----------------------------------------------------------------------
 #t hf aug-cc-pvdz symm=none int=(grid=ultrafine) guess=(read,tcheck) s
 table=(opt,rrhf)
 ----------------------------------------------------------------------
 -----
 title
 -----
 Symbolic Z-matrix:
 Charge =  0 Multiplicity = 1

 SCF Done:  E(RHF) =  -302.876447652     A.U. after   15 cycles
 Normal termination of Gaussian 16 at Wed Apr  9 19:30:14 2025.
 Gaussian 16:  ES64L-G16RevC.01  3-Jul-2019

 ----------------------------------------------------------------------
 #t hf aug-cc-pvdz iop(5/13=1,5/36=2,99/5=2) pseudo=read geom=check gue
 ss=(read,tcheck) scf=(maxcycle=1)
 ----------------------------------------------------------------------
 -----
 title
 -----
 Structure from the checkpoint file:  "Grambow2020_wb97xd3_009084_reverse_mol2.chk"
 Charge =  0 Multiplicity = 1

                         Standard orientation:
 ---------------------------------------------------------------------
 Center     Atomic      Atomic             Coordinates (Angstroms)
 Number     Number       Type             X           Y           Z
 ---------------------------------------------------------------------
      1          6           0       -2.315107   -0.468090    0.470558
      2          7           0       -0.653349    1.241969   -0.125756
      3          6           0       -1.150173   -0.102360   -0.441574
      4          6           0        0.065676   -0.949038   -0.341677
      5          6           0        1.069813   -0.135170   -0.022610
      6          6           0        2.517108   -0.370473    0.212847
      7          7           0        0.568165    1.207241    0.096931
      8          1           0       -3.113262    0.267054    0.372736
      9          1           0       -1.989436   -0.490348    1.511370
     10          1           0       -2.708708   -1.450342    0.208300
     11          1           0       -1.505010   -0.044387   -1.478990
     12          1           0        0.106536   -2.015459   -0.504153
     13          1           0        3.116541    0.192613   -0.505226
     14          1           0        2.765065   -1.427137    0.123303
     15          1           0        2.800658   -0.025681    1.209169
 ---------------------------------------------------------------------

 SCF Done:  E(RHF) =  -304.326935811     A.U. after    2 cycles

 The electronic state is 1-A.
 Alpha  occ. eigenvalues --  -15.77818 -15.77090 -11.46998 -11.43496 -11.41107
 Alpha  occ. eigenvalues --  -11.39640 -11.37059  -1.59563  -1.20210  -1.19179
 Alpha  occ. eigenvalues --   -1.03122  -0.97626  -0.81802  -0.76360  -0.68221
 Alpha  occ. eigenvalues --   -0.63366  -0.59250  -0.57477  -0.56412  -0.54140
 Alpha  occ. eigenvalues --   -0.51050  -0.47265  -0.45623  -0.44779  -0.34064
 Alpha  occ. eigenvalues --   -0.33773
 Alpha virt. eigenvalues --    0.03238   0.04745   0.05307   0.05772   0.06059
 Alpha virt. eigenvalues --    0.06583   0.06894   0.07626   0.09604   0.10896
 Alpha virt. eigenvalues --    0.11443   0.12292   0.12956   0.13665   0.14127

 Mulliken charges:
               1
     1  C   -3.552262
     2  N   -1.135249
     3  C   -1.652666
     4  C   -1.627477
     5  C    5.191108
     6  C   -5.344899
     7  N   -1.885153
     8  H    1.232054
     9  H    1.275356
    10  H    1.211170
    11  H    1.540627
    12  H    1.313293
    13  H    1.139025
    14  H    1.178586
    15  H    1.116487
 Sum of Mulliken charges =   0.00000

 Dipole moment (field-independent basis, Debye):
    X=             -0.0939    Y=             -2.7592    Z=             -0.3922  Tot=              2.7885

 Test job not archived.
 1\1\GINC-SE174\SP\RHF\Aug-CC-pVDZ\C5H8N2\OHZDE\09-Apr-2025\0\\#t hf au
 g-cc-pvdz iop(5/13=1,5/36=2,99/5=2) pseudo=read geom=check guess=(read
 ,tcheck) scf=(maxcycle=1)\\title\\0,1\C,0,2.28010733,0.14675879,0.4325
 972\N,0,0.75010529,-0.42305631,-1.40471991\C,0,1.02210591,0.54099147,-
 0.33214299\C,0,-0.2469521,0.56281024,0.43866664\C,0,-1.07602574,-0.281
 72718,-0.17114399\C,0,-2.4755963,-0.69243543,0.1081268\N,0,-0.40770731
 ,-0.86165352,-1.3047415\H,0,3.12840398,0.08302262,-0.24812842\H,0,2.14
 483416,-0.82444468,0.91041501\H,0,2.50312049,0.88522828,1.20295331\H,0

 Normal termination of Gaussian 16 at Wed Apr  9 19:30:19 2025.
