 Gaussian 16, Revision C.01,

 ----------------------------------------------------------------------
 #t hf aug-cc-pvdz symm=none int=(grid=ultrafine) guess=(read,tcheck) s
 table=(opt,rrhf)
 ----------------------------------------------------------------------
 -----
 title
 -----
 Symbolic Z-matrix:
 Charge =  0 Multiplicity = 1

 SCF Done:  E(RHF) =  -307.698978344     A.U. after   15 cycles

 1\1\GINC-SE014\Stability\RHF\Aug-CC-pVDZ\C6H10O1\OHZDE\09-Apr-2025\0\\
 #t hf aug-cc-pvdz symm=none int=(grid=ultrafine) guess=(read,tcheck) s
 table=(opt,rrhf)\\title\\0,1\C,0,1.86111991,-0.654935,0.08147068\C,0,0
 .63199966,0.13149827,0.49427539\C,0,0.36281243,1.43128087,-0.33545764\
 C,0,-1.16448169,1.64805494,-0.48238884\C,0,-1.4916014,0.52597481,0.037
 29073\C,0,-0.71153811,-0.6716515,0.42137176\O,0,-0.77055112,-1.7288563
 2,-0.50642513\H,0,1.795435,-0.98647216,-0.95672433\H,0,2.75145592,-0.0
 290247,0.17325889\H,0,2.0013096,-1.54073794,0.70284823\H,0,0.73338753,

 Normal termination of Gaussian 16 at Wed Apr  9 18:57:00 2025.
 Gaussian 16:  ES64L-G16RevC.01  3-Jul-2019

 ----------------------------------------------------------------------
 #t hf aug-cc-pvdz iop(5/13=1,5/36=2,99/5=2) pseudo=read geom=check gue
 ss=(read,tcheck) scf=(maxcycle=1)
 ----------------------------------------------------------------------
 -----
 title
 -----
 Structure from the checkpoint file:  "Grambow2020_wb97xd3_007814_forward_mol1.chk"
 Charge =  0 Multiplicity = 1

                         Standard orientation:
 ---------------------------------------------------------------------
 Center     Atomic      Atomic             Coordinates (Angstroms)
 Number     Number       Type             X           Y           Z
 ---------------------------------------------------------------------
      1          6           0       -2.112090   -0.136321   -0.050102
      2          6           0       -0.719068   -0.408342    0.483861
      3          6           0        0.079544   -1.521124   -0.273957
      4          6           0        1.585625   -1.157218   -0.296356
      5          6           0        1.430675    0.009557    0.204409
      6          6           0        0.234438    0.835155    0.483211
      7          8           0       -0.022695    1.832805   -0.476241
      8          1           0       -2.086047    0.189135   -1.091966
      9          1           0       -2.713069   -1.047078   -0.002854
     10          1           0       -2.621015    0.638446    0.525349
     11          1           0       -0.790864   -0.716769    1.530139
     12          1           0       -0.241411   -1.609309   -1.316187
     13          1           0       -0.072205   -2.500603    0.181044
     14          1           0        2.663040    1.073895   -0.067122
     15          1           0        2.756786    0.781118    0.655723
     16          1           0        0.230588    1.352888    1.441347
     17          1           0        0.061008    1.445591   -1.351940
 ---------------------------------------------------------------------

 SCF Done:  E(RHF) =  -309.196386720     A.U. after    2 cycles

 The electronic state is 1-A.
 Alpha  occ. eigenvalues --  -21.08519 -11.51564 -11.44205 -11.42701 -11.40189
 Alpha  occ. eigenvalues --  -11.37167 -11.35277  -1.73928  -1.33528  -1.11590
 Alpha  occ. eigenvalues --   -1.02093  -0.95372  -0.81478  -0.77476  -0.71310
 Alpha  occ. eigenvalues --   -0.64939  -0.59964  -0.57347  -0.56233  -0.51352
 Alpha  occ. eigenvalues --   -0.50848  -0.47832  -0.45886  -0.43159  -0.35645
 Alpha  occ. eigenvalues --   -0.33729  -0.30755
 Alpha virt. eigenvalues --    0.03490   0.04608   0.04890   0.05515   0.05743
 Alpha virt. eigenvalues --    0.06075   0.06408   0.07019   0.07733   0.08928
 Alpha virt. eigenvalues --    0.10689   0.12033   0.12614   0.13374   0.13539

 Mulliken charges:
               1
     1  C   -3.816881
     2  C   -1.292516
     3  C   -2.938800
     4  C   -2.588929
     5  C    1.962909
     6  C    0.567778
     7  O   -3.224714
     8  H    1.328847
     9  H    1.216814
    10  H    1.186637
    11  H    1.348326
    12  H    1.485936
    13  H    1.258280
    14  H    0.596304
    15  H    0.581681
    16  H    1.544051
    17  H    0.784276
 Sum of Mulliken charges =  -0.00000

 Dipole moment (field-independent basis, Debye):
    X=             -1.5626    Y=              2.3442    Z=              1.1034  Tot=              3.0256

 Test job not archived.
 1\1\GINC-SE014\SP\RHF\Aug-CC-pVDZ\C6H10O1\OHZDE\09-Apr-2025\0\\#t hf a
 ug-cc-pvdz iop(5/13=1,5/36=2,99/5=2) pseudo=read geom=check guess=(rea
 d,tcheck) scf=(maxcycle=1)\\title\\0,1\C,0,1.86111991,-0.654935,0.0814
 7068\C,0,0.63199966,0.13149827,0.49427539\C,0,0.36281243,1.43128087,-0
 .33545764\C,0,-1.16448169,1.64805494,-0.48238884\C,0,-1.4916014,0.5259
 7481,0.03729073\C,0,-0.71153811,-0.6716515,0.42137176\O,0,-0.77055112,
 -1.72885632,-0.50642513\H,0,1.795435,-0.98647216,-0.95672433\H,0,2.751
 45592,-0.0290247,0.17325889\H,0,2.0013096,-1.54073794,0.70284823\H,0,0

 Normal termination of Gaussian 16 at Wed Apr  9 18:57:06 2025.
