 Gaussian 16, Revision C.01,

 ----------------------------------------------------------------------
 #t hf aug-cc-pvdz symm=none int=(grid=ultrafine) guess=(read,tcheck) s
 table=(opt,rrhf)
 ----------------------------------------------------------------------
 -----
 title
 -----
 Symbolic Z-matrix:
 Charge =  0 Multiplicity = 1

 SCF Done:  E(RHF) =  -271.905982899     A.U. after   17 cycles
 Normal termination of Gaussian 16 at Wed Apr  9 03:40:00 2025.
 Gaussian 16:  ES64L-G16RevC.01  3-Jul-2019

 ----------------------------------------------------------------------
 #t hf aug-cc-pvdz iop(5/13=1,5/36=2,99/5=2) pseudo=read geom=check gue
 ss=(read,tcheck) scf=(maxcycle=1)
 ----------------------------------------------------------------------
 -----
 title
 -----
 Structure from the checkpoint file:  "Grambow2020_wb97xd3_007420_reverse_mol1.chk"
 Charge =  0 Multiplicity = 1

                         Standard orientation:
 ---------------------------------------------------------------------
 Center     Atomic      Atomic             Coordinates (Angstroms)
 Number     Number       Type             X           Y           Z
 ---------------------------------------------------------------------
      1          6           0       -2.529362   -0.557620   -0.195576
      2          6           0       -1.201961   -0.061276    0.354920
      3          6           0       -0.002546   -0.968988    0.022301
      4          6           0        1.203356   -0.086343    0.100966
      5          6           0        2.601989   -0.552470   -0.067394
      6          6           0        0.725532    1.230963   -0.106509
      7          6           0       -0.726933    1.280504   -0.163365
      8          1           0       -2.476558   -0.663614   -1.280992
      9          1           0       -2.797814   -1.525504    0.235548
     10          1           0       -3.334252    0.144171    0.032279
     11          1           0       -1.297562   -0.016088    1.459923
     12          1           0        0.041768   -1.891127    0.604093
     13          1           0       -0.101314   -1.249728   -1.049103
     14          1           0        0.496101    1.282804    1.023567
     15          1           0        2.759453   -0.968726   -1.073514
     16          1           0        2.858140   -1.342595    0.642766
     17          1           0        3.315799    0.262925    0.062082
     18          1           0        1.376382    2.058159   -0.371516
     19          1           0       -1.260598    2.200697    0.042808
 ---------------------------------------------------------------------

 SCF Done:  E(RHF) =  -273.299729847     A.U. after    2 cycles

 The electronic state is 1-A.
 Alpha  occ. eigenvalues --  -11.47885 -11.44782 -11.41088 -11.39752 -11.38232
 Alpha  occ. eigenvalues --  -11.37681 -11.34152  -1.38131  -1.13755  -1.08304
 Alpha  occ. eigenvalues --   -1.00313  -0.91311  -0.78117  -0.74858  -0.66545
 Alpha  occ. eigenvalues --   -0.65398  -0.58411  -0.57009  -0.55315  -0.54056
 Alpha  occ. eigenvalues --   -0.52568  -0.48857  -0.47305  -0.44691  -0.42800
 Alpha  occ. eigenvalues --   -0.40678  -0.19484
 Alpha virt. eigenvalues --    0.03859   0.04712   0.05272   0.05468   0.05701
 Alpha virt. eigenvalues --    0.05873   0.06247   0.06829   0.07517   0.08339
 Alpha virt. eigenvalues --    0.08575   0.08944   0.09677   0.10957   0.13012

 Mulliken charges:
               1
     1  C   -4.082740
     2  C   -0.571500
     3  C   -4.981403
     4  C    4.663733
     5  C   -4.878226
     6  C   -3.902069
     7  C   -2.032170
     8  H    1.330796
     9  H    1.208056
    10  H    1.161535
    11  H    1.393561
    12  H    1.305707
    13  H    1.311799
    14  H    1.687410
    15  H    1.161717
    16  H    1.240434
    17  H    1.227846
    18  H    1.456605
    19  H    1.298909
 Sum of Mulliken charges =  -0.00000

 Dipole moment (field-independent basis, Debye):
    X=              1.6897    Y=              0.0213    Z=              0.6103  Tot=              1.7966

 Test job not archived.
 1\1\GINC-SE127\SP\RHF\Aug-CC-pVDZ\C7H12\OHZDE\09-Apr-2025\0\\#t hf aug
 -cc-pvdz iop(5/13=1,5/36=2,99/5=2) pseudo=read geom=check guess=(read,
 tcheck) scf=(maxcycle=1)\\title\\0,1\C,0,-2.55829793,-0.19885429,0.050
 92361\C,0,-1.16519423,0.40949211,0.02693065\C,0,-0.10437361,-0.4145048
 1,0.78115897\C,0,1.20946065,-0.02427706,0.18031633\C,0,2.5298623,-0.51
 025133,0.65165866\C,0,0.90642002,0.4630305,-1.11481064\C,0,-0.52749064
 ,0.55753473,-1.33910764\H,0,-2.54343633,-1.20322824,-0.37705084\H,0,-2
 .94353503,-0.26171825,1.07189056\H,0,-3.2577791,0.40241661,-0.53343549

 Normal termination of Gaussian 16 at Wed Apr  9 03:40:07 2025.
