 Gaussian 16, Revision C.01,

 ----------------------------------------------------------------------
 #t hf aug-cc-pvdz symm=none int=(grid=ultrafine) guess=(read,tcheck) s
 table=(opt,rrhf)
 ----------------------------------------------------------------------
 -----
 title
 -----
 Symbolic Z-matrix:
 Charge =  0 Multiplicity = 1

 SCF Done:  E(RHF) =  -307.791342044     A.U. after   14 cycles

 1\1\GINC-SE145\Stability\RHF\Aug-CC-pVDZ\C6H10O1\OHZDE\09-Apr-2025\0\\
 #t hf aug-cc-pvdz symm=none int=(grid=ultrafine) guess=(read,tcheck) s
 table=(opt,rrhf)\\title\\0,1\C,0,1.8740169,-0.66059853,1.11166482\C,0,
 0.52489365,-0.08988029,0.8737975\C,0,0.01340617,1.14462673,0.79780477\
 C,0,-1.36756106,0.65389253,0.45430878\O,0,-1.61675431,0.53437301,-0.96
 707728\C,0,-1.0968612,-0.80197011,-0.98799773\C,0,-0.77805314,-0.77267
 493,0.52138292\H,0,1.86124888,-1.33559822,1.97119197\H,0,2.61163733,0.
 12042569,1.29608852\H,0,2.19813924,-1.24767012,0.24803478\H,0,0.646458

 Normal termination of Gaussian 16 at Wed Apr  9 19:16:14 2025.
 Gaussian 16:  ES64L-G16RevC.01  3-Jul-2019

 ----------------------------------------------------------------------
 #t hf aug-cc-pvdz iop(5/13=1,5/36=2,99/5=2) pseudo=read geom=check gue
 ss=(read,tcheck) scf=(maxcycle=1)
 ----------------------------------------------------------------------
 -----
 title
 -----
 Structure from the checkpoint file:  "Grambow2020_wb97xd3_008497_reverse_mol2.chk"
 Charge =  0 Multiplicity = 1

                         Standard orientation:
 ---------------------------------------------------------------------
 Center     Atomic      Atomic             Coordinates (Angstroms)
 Number     Number       Type             X           Y           Z
 ---------------------------------------------------------------------
      1          6           0       -2.426043   -0.241320    0.399016
      2          6           0       -1.090706    0.081565   -0.162283
      3          6           0       -0.407531    1.206220   -0.406873
      4          6           0        0.819165    0.471391   -0.877112
      5          8           0        1.780265    0.193401    0.169659
      6          6           0        1.124891   -1.038216    0.501540
      7          6           0        0.042345   -0.830239   -0.578074
      8          1           0       -3.009348   -0.834376   -0.309938
      9          1           0       -2.987651    0.661452    0.639210
     10          1           0       -2.323614   -0.839153    1.308779
     11          1           0        1.211201    1.700649    2.974208
     12          1           0       -0.613217    2.255084   -0.231214
     13          1           0        1.371696    1.476988    2.279362
     14          1           0        1.295295    0.717453   -1.825494
     15          1           0        0.782130   -1.065552    1.540329
     16          1           0        1.783639   -1.889073    0.309795
     17          1           0       -0.124975   -1.627082   -1.299588
 ---------------------------------------------------------------------

 SCF Done:  E(RHF) =  -309.275736834     A.U. after    2 cycles

 The electronic state is 1-A.
 Alpha  occ. eigenvalues --  -21.02878 -11.50918 -11.45012 -11.42498 -11.40277
 Alpha  occ. eigenvalues --  -11.39540 -11.36241  -1.76932  -1.31227  -1.08315
 Alpha  occ. eigenvalues --   -1.03450  -0.90668  -0.83514  -0.71565  -0.69655
 Alpha  occ. eigenvalues --   -0.64189  -0.61344  -0.59343  -0.57395  -0.56972
 Alpha  occ. eigenvalues --   -0.52654  -0.47094  -0.44825  -0.40643  -0.34978
 Alpha  occ. eigenvalues --   -0.32677  -0.28104
 Alpha virt. eigenvalues --    0.03554   0.04603   0.05125   0.05232   0.06069
 Alpha virt. eigenvalues --    0.06370   0.06746   0.07137   0.08161   0.10268
 Alpha virt. eigenvalues --    0.10751   0.11882   0.12212   0.12784   0.13292

 Mulliken charges:
               1
     1  C   -4.905557
     2  C    4.624488
     3  C   -2.185480
     4  C   -0.404473
     5  O   -2.544241
     6  C   -1.387830
     7  C   -3.201572
     8  H    1.152073
     9  H    1.191968
    10  H    1.185742
    11  H    0.304880
    12  H    1.188962
    13  H   -0.418511
    14  H    1.368158
    15  H    1.523208
    16  H    1.369523
    17  H    1.138662
 Sum of Mulliken charges =  -0.00000

 Dipole moment (field-independent basis, Debye):
    X=             -1.0270    Y=             -0.5676    Z=             -0.3712  Tot=              1.2307

 Test job not archived.
 1\1\GINC-SE145\SP\RHF\Aug-CC-pVDZ\C6H10O1\OHZDE\09-Apr-2025\0\\#t hf a
 ug-cc-pvdz iop(5/13=1,5/36=2,99/5=2) pseudo=read geom=check guess=(rea
 d,tcheck) scf=(maxcycle=1)\\title\\0,1\C,0,1.8740169,-0.66059853,1.111
 66482\C,0,0.52489365,-0.08988029,0.8737975\C,0,0.01340617,1.14462673,0
 .79780477\C,0,-1.36756106,0.65389253,0.45430878\O,0,-1.61675431,0.5343
 7301,-0.96707728\C,0,-1.0968612,-0.80197011,-0.98799773\C,0,-0.7780531
 4,-0.77267493,0.52138292\H,0,1.86124888,-1.33559822,1.97119197\H,0,2.6
 1163733,0.12042569,1.29608852\H,0,2.19813924,-1.24767012,0.24803478\H,

 Normal termination of Gaussian 16 at Wed Apr  9 19:16:20 2025.
