 Gaussian 16, Revision C.01,

 ----------------------------------------------------------------------
 #t hf aug-cc-pvdz symm=none int=(grid=ultrafine) guess=(read,tcheck) s
 table=(opt,rrhf)
 ----------------------------------------------------------------------
 -----
 title
 -----
 Symbolic Z-matrix:
 Charge =  0 Multiplicity = 1

 SCF Done:  E(RHF) =  -338.607954297     A.U. after   15 cycles
 Normal termination of Gaussian 16 at Wed Apr  9 03:40:24 2025.
 Gaussian 16:  ES64L-G16RevC.01  3-Jul-2019

 ----------------------------------------------------------------------
 #t hf aug-cc-pvdz iop(5/13=1,5/36=2,99/5=2) pseudo=read geom=check gue
 ss=(read,tcheck) scf=(maxcycle=1)
 ----------------------------------------------------------------------
 -----
 title
 -----
 Structure from the checkpoint file:  "Grambow2020_wb97xd3_007487_forward_mol1.chk"
 Charge =  0 Multiplicity = 1

                         Standard orientation:
 ---------------------------------------------------------------------
 Center     Atomic      Atomic             Coordinates (Angstroms)
 Number     Number       Type             X           Y           Z
 ---------------------------------------------------------------------
      1          6           0        2.377581    0.040479   -0.141108
      2          8           0        1.012447    0.080516   -0.513020
      3          6           0        0.124693    0.613020    0.719725
      4          6           0       -0.085443   -0.822483    0.490970
      5          7           0       -1.265263   -1.141756   -0.123055
      6          6           0       -1.807716    0.034267   -0.331448
      7          7           0       -1.066452    1.069830    0.071749
      8          1           0        2.551503   -0.622753    0.710305
      9          1           0        2.704125    1.044922    0.132825
     10          1           0        2.929801   -0.331856   -1.005444
     11          1           0        0.550237   -1.609050    0.874776
     12          1           0       -2.790033    0.163235   -0.772527
     13          1           0       -1.377893    2.023155    0.094541
 ---------------------------------------------------------------------

 SCF Done:  E(RHF) =  -340.162298043     A.U. after    2 cycles

 The electronic state is 1-A.
 Alpha  occ. eigenvalues --  -21.06636 -15.78220 -15.72057 -11.49141 -11.46631
 Alpha  occ. eigenvalues --  -11.40202 -11.39880  -1.78820  -1.52835  -1.28481
 Alpha  occ. eigenvalues --   -1.08896  -0.95586  -0.85192  -0.83663  -0.73554
 Alpha  occ. eigenvalues --   -0.62344  -0.61643  -0.61325  -0.57056  -0.54709
 Alpha  occ. eigenvalues --   -0.47066  -0.45064  -0.42077  -0.35824  -0.33709
 Alpha  occ. eigenvalues --   -0.26495
 Alpha virt. eigenvalues --    0.03430   0.05154   0.05409   0.06246   0.06503
 Alpha virt. eigenvalues --    0.07002   0.09716   0.09995   0.10647   0.11386
 Alpha virt. eigenvalues --    0.11813   0.13494   0.14282   0.15410   0.15756

 Mulliken charges:
               1
     1  C   -2.681492
     2  O   -2.365079
     3  C   -0.185667
     4  C    1.588612
     5  N   -3.164518
     6  C    1.144410
     7  N   -2.361388
     8  H    1.380809
     9  H    1.300925
    10  H    1.354098
    11  H    1.613939
    12  H    1.561683
    13  H    0.813669
 Sum of Mulliken charges =  -0.00000

 Dipole moment (field-independent basis, Debye):
    X=             -0.2747    Y=              1.2581    Z=             -1.8598  Tot=              2.2621

 Test job not archived.
 1\1\GINC-SE419\SP\RHF\Aug-CC-pVDZ\C4H6N2O1\OHZDE\09-Apr-2025\0\\#t hf
 aug-cc-pvdz iop(5/13=1,5/36=2,99/5=2) pseudo=read geom=check guess=(re
 ad,tcheck) scf=(maxcycle=1)\\title\\0,1\C,0,-2.04039514,0.00489468,-0.
 43732518\O,0,-0.66507065,-0.3243792,-0.49709366\C,0,0.03312056,-0.0184
 0881,0.92073538\C,0,0.44968055,0.95178379,-0.10022325\N,0,1.71059359,0
 .76215855,-0.59527575\C,0,2.10969422,-0.3135894,0.04048887\N,0,1.20602
 94,-0.83660807,0.87371872\H,0,-2.19959326,1.06107464,-0.20458006\H,0,-
 2.51911668,-0.59442036,0.33870604\H,0,-2.46072435,-0.21388123,-1.42023

 Normal termination of Gaussian 16 at Wed Apr  9 03:40:28 2025.
