 Gaussian 16, Revision C.01,

 ----------------------------------------------------------------------
 #t hf aug-cc-pvdz symm=none int=(grid=ultrafine) guess=(read,tcheck) s
 table=(opt,rrhf)
 ----------------------------------------------------------------------
 -----
 title
 -----
 Symbolic Z-matrix:
 Charge =  0 Multiplicity = 1

 SCF Done:  E(RHF) =  -304.598419631     A.U. after   17 cycles
 Normal termination of Gaussian 16 at Wed Apr  9 03:16:24 2025.
 Gaussian 16:  ES64L-G16RevC.01  3-Jul-2019

 ----------------------------------------------------------------------
 #t hf aug-cc-pvdz iop(5/13=1,5/36=2,99/5=2) pseudo=read geom=check gue
 ss=(read,tcheck) scf=(maxcycle=1)
 ----------------------------------------------------------------------
 -----
 title
 -----
 Structure from the checkpoint file:  "Grambow2020_b97d3_007019_reverse_mol1.chk"
 Charge =  0 Multiplicity = 1

                         Standard orientation:
 ---------------------------------------------------------------------
 Center     Atomic      Atomic             Coordinates (Angstroms)
 Number     Number       Type             X           Y           Z
 ---------------------------------------------------------------------
      1          8           0        1.665076   -1.032648    0.280387
      2          6           0        1.656787    0.186965   -0.215716
      3          6           0        0.433963    0.912882   -0.499799
      4          6           0       -0.484488    0.739001    0.692801
      5          6           0       -1.600658   -0.063447    0.421388
      6          8           0       -1.825788   -0.630979   -0.688482
      7          1           0        0.712595   -1.263834    0.465726
      8          1           0        2.668714    0.576709   -0.348706
      9          1           0        0.642878    1.935103   -0.841830
     10          1           0       -0.154037    0.361321   -1.295509
     11          1           0       -0.263392    1.186749    1.658344
     12          1           0       -2.354684   -0.139438    1.234693
 ---------------------------------------------------------------------

 SCF Done:  E(RHF) =  -305.952090169     A.U. after    2 cycles

 The electronic state is 1-A.
 Alpha  occ. eigenvalues --  -21.20753 -20.96450 -11.59289 -11.44008 -11.42122
 Alpha  occ. eigenvalues --  -11.34166  -1.85640  -1.61687  -1.22151  -1.01953
 Alpha  occ. eigenvalues --   -0.90896  -0.73917  -0.72355  -0.69688  -0.64423
 Alpha  occ. eigenvalues --   -0.57129  -0.51775  -0.50804  -0.47212  -0.42576
 Alpha  occ. eigenvalues --   -0.41601  -0.24071  -0.21341
 Alpha virt. eigenvalues --    0.02180   0.03712   0.04499   0.05106   0.06457
 Alpha virt. eigenvalues --    0.06896   0.07321   0.09852   0.11072   0.11553
 Alpha virt. eigenvalues --    0.12731   0.13667   0.14070   0.14829   0.15055

 Mulliken charges:
               1
     1  O   -3.174854
     2  C    1.728062
     3  C   -3.867630
     4  C   -1.411214
     5  C    1.270706
     6  O   -2.816201
     7  H    1.152027
     8  H    1.645283
     9  H    1.259453
    10  H    1.372806
    11  H    1.360234
    12  H    1.481328
 Sum of Mulliken charges =   0.00000

 Dipole moment (field-independent basis, Debye):
    X=              6.3409    Y=             -0.3511    Z=             -0.0127  Tot=              6.3507

 Test job not archived.
 1\1\GINC-SE102\SP\RHF\Aug-CC-pVDZ\C4H6O2\OHZDE\09-Apr-2025\0\\#t hf au
 g-cc-pvdz iop(5/13=1,5/36=2,99/5=2) pseudo=read geom=check guess=(read
 ,tcheck) scf=(maxcycle=1)\\title\\0,1\O,0,-1.92267675,0.46170894,0.243
 06693\C,0,-1.32210697,-0.11884309,-0.77473406\C,0,0.11874125,-0.256156
 72,-0.86449653\C,0,0.61361805,-0.73764402,0.48433581\C,0,1.3459826,0.2
 301777,1.18461121\O,0,1.55673363,1.40963691,0.77345685\H,0,-1.20544032
 ,0.68139996,0.90058109\H,0,-2.04015628,-0.50043444,-1.50437583\H,0,0.4
 1392086,-0.82874955,-1.75363816\H,0,0.5923479,0.77210011,-0.90326492\H

 Normal termination of Gaussian 16 at Wed Apr  9 03:16:28 2025.
