 Gaussian 16, Revision C.01,

 ----------------------------------------------------------------------
 #t hf aug-cc-pvdz symm=none int=(grid=ultrafine) guess=(read,tcheck) s
 table=(opt,rrhf)
 ----------------------------------------------------------------------
 -----
 title
 -----
 Symbolic Z-matrix:
 Charge =  0 Multiplicity = 1

 SCF Done:  E(RHF) =  -268.659389164     A.U. after   16 cycles
 Normal termination of Gaussian 16 at Wed Apr  9 03:16:39 2025.
 Gaussian 16:  ES64L-G16RevC.01  3-Jul-2019

 ----------------------------------------------------------------------
 #t hf aug-cc-pvdz iop(5/13=1,5/36=2,99/5=2) pseudo=read geom=check gue
 ss=(read,tcheck) scf=(maxcycle=1)
 ----------------------------------------------------------------------
 -----
 title
 -----
 Structure from the checkpoint file:  "Grambow2020_b97d3_007032_forward_mol1.chk"
 Charge =  0 Multiplicity = 1

                         Standard orientation:
 ---------------------------------------------------------------------
 Center     Atomic      Atomic             Coordinates (Angstroms)
 Number     Number       Type             X           Y           Z
 ---------------------------------------------------------------------
      1          6           0       -2.669998    0.206470    0.060899
      2          6           0       -1.339100   -0.442066   -0.006973
      3          6           0       -0.111412   -0.078804   -0.106585
      4          6           0        0.929380    1.105477   -0.076812
      5          6           0        2.124223    0.261437    0.156239
      6          8           0        0.972319   -1.158942   -0.148078
      7          1           0       -3.264774   -0.184693    0.902117
      8          1           0       -2.625670    1.307953    0.168792
      9          1           0       -3.249086   -0.008683   -0.851896
     10          1           0        0.965215    1.650873   -1.029005
     11          1           0        0.704196    1.809230    0.734206
     12          1           0        2.851909    0.087164   -0.632982
     13          1           0        2.488924    0.110103    1.172138
     14          1           0        0.752175   -1.815504    0.560655
 ---------------------------------------------------------------------

 SCF Done:  E(RHF) =  -269.944157369     A.U. after    2 cycles

 The electronic state is 1-A.
 Alpha  occ. eigenvalues --  -21.10910 -11.53906 -11.44544 -11.39826 -11.36287
 Alpha  occ. eigenvalues --  -11.30223  -1.74508  -1.19730  -1.09788  -0.96675
 Alpha  occ. eigenvalues --   -0.87694  -0.72935  -0.69873  -0.58799  -0.55698
 Alpha  occ. eigenvalues --   -0.55588  -0.54143  -0.52341  -0.51261  -0.43031
 Alpha  occ. eigenvalues --   -0.41278  -0.28019  -0.21877
 Alpha virt. eigenvalues --    0.02351   0.04489   0.04740   0.05637   0.05978
 Alpha virt. eigenvalues --    0.06525   0.07606   0.07839   0.08266   0.10881
 Alpha virt. eigenvalues --    0.11661   0.12462   0.13622   0.14169   0.14866

 Mulliken charges:
               1
     1  C   -4.414630
     2  C   -0.471069
     3  C    3.548087
     4  C   -3.335396
     5  C   -2.650435
     6  O   -2.154260
     7  H    1.131117
     8  H    1.246711
     9  H    1.152527
    10  H    1.139093
    11  H    1.116123
    12  H    1.394514
    13  H    1.390684
    14  H    0.906933
 Sum of Mulliken charges =  -0.00000

 Dipole moment (field-independent basis, Debye):
    X=              5.2159    Y=              1.4514    Z=              0.5520  Tot=              5.4422

 Test job not archived.
 1\1\GINC-SE044\SP\RHF\Aug-CC-pVDZ\C5H8O1\OHZDE\09-Apr-2025\0\\#t hf au
 g-cc-pvdz iop(5/13=1,5/36=2,99/5=2) pseudo=read geom=check guess=(read
 ,tcheck) scf=(maxcycle=1)\\title\\0,1\C,0,2.52697553,0.2388098,-0.3190
 3697\C,0,1.18678886,0.71932681,0.09266546\C,0,-0.03272162,0.33033949,-
 0.01021513\C,0,-1.0284583,-0.82593823,-0.40794\C,0,-2.19233304,-0.2984
 3144,0.34139194\O,0,-1.13478514,1.20287863,0.59560956\H,0,3.23528213,0
 .25284494,0.52507165\H,0,2.52559674,-0.78777796,-0.7349532\H,0,2.95288
 63,0.90212827,-1.08938585\H,0,-1.19823467,-0.87332637,-1.49161088\H,0,

 Normal termination of Gaussian 16 at Wed Apr  9 03:16:43 2025.
