 Gaussian 16, Revision C.01,

 ----------------------------------------------------------------------
 #t hf aug-cc-pvdz symm=none int=(grid=ultrafine) guess=(read,tcheck) s
 table=(opt,rrhf)
 ----------------------------------------------------------------------
 -----
 title
 -----
 Symbolic Z-matrix:
 Charge =  0 Multiplicity = 1

 SCF Done:  E(RHF) =  -299.587408994     A.U. after   15 cycles
 Normal termination of Gaussian 16 at Wed Apr  9 17:34:11 2025.
 Gaussian 16:  ES64L-G16RevC.01  3-Jul-2019

 ----------------------------------------------------------------------
 #t hf aug-cc-pvdz iop(5/13=1,5/36=2,99/5=2) pseudo=read geom=check gue
 ss=(read,tcheck) scf=(maxcycle=1)
 ----------------------------------------------------------------------
 -----
 title
 -----
 Structure from the checkpoint file:  "Grambow2020_b97d3_007184_reverse_mol2.chk"
 Charge =  0 Multiplicity = 1

                         Standard orientation:
 ---------------------------------------------------------------------
 Center     Atomic      Atomic             Coordinates (Angstroms)
 Number     Number       Type             X           Y           Z
 ---------------------------------------------------------------------
      1          6           0       -2.122380    0.028470    0.001521
      2          6           0       -0.766385   -0.090316   -0.000134
      3          7           0        0.047696   -1.218872   -0.001282
      4          8           0        1.399442   -0.684019    0.000655
      5          6           0        1.368930    0.611902    0.000620
      6          7           0        0.118702    1.048645   -0.001163
      7          1           0       -2.746458   -0.858322   -0.000024
      8          1           0       -2.596944    1.006008   -0.000775
      9          1           0       -0.178338    2.018533   -0.001716
     10          1           0        2.280431    1.197186    0.002340
 ---------------------------------------------------------------------

 SCF Done:  E(RHF) =  -300.908062653     A.U. after    2 cycles

 The electronic state is 1-A.
 Alpha  occ. eigenvalues --  -21.15262 -15.84903 -15.71939 -11.55251 -11.46127
 Alpha  occ. eigenvalues --  -11.33337  -1.90901  -1.46185  -1.24956  -1.02012
 Alpha  occ. eigenvalues --   -0.93178  -0.85140  -0.76080  -0.65811  -0.62514
 Alpha  occ. eigenvalues --   -0.57455  -0.52350  -0.45341  -0.43811  -0.42253
 Alpha  occ. eigenvalues --   -0.40961  -0.22177
 Alpha virt. eigenvalues --    0.01684   0.03937   0.05609   0.07459   0.08246
 Alpha virt. eigenvalues --    0.09295   0.10270   0.12185   0.12971   0.14035
 Alpha virt. eigenvalues --    0.14392   0.14596   0.15262   0.16840   0.17441

 Mulliken charges:
               1
     1  C   -4.091572
     2  C    4.008361
     3  N   -1.411895
     4  O   -2.543950
     5  C    1.729452
     6  N   -2.845218
     7  H    1.402559
     8  H    1.259762
     9  H    0.777013
    10  H    1.715489
 Sum of Mulliken charges =   0.00000

 Dipole moment (field-independent basis, Debye):
    X=              3.9354    Y=              4.2894    Z=             -0.0046  Tot=              5.8212

 Test job not archived.
 1\1\GINC-SE219\SP\RHF\Aug-CC-pVDZ\C3H4N2O1\OHZDE\09-Apr-2025\0\\#t hf
 aug-cc-pvdz iop(5/13=1,5/36=2,99/5=2) pseudo=read geom=check guess=(re
 ad,tcheck) scf=(maxcycle=1)\\title\\0,1\C,0,-1.76661934,-0.36550364,-0
 .23128414\C,0,-0.41231173,-0.2679138,-0.32701121\N,0,0.4733113,-0.7918
 5542,-1.26377439\O,0,1.77888301,-0.33751097,-0.81395164\C,0,1.65963207
 ,0.37307692,0.26363191\N,0,0.3881764,0.4661669,0.62217518\H,0,-2.32552
 239,-0.92736296,-0.97143051\H,0,-2.30511812,0.1185382,0.57897422\H,0,0
 .0266288,0.96572178,1.42755939\H,0,2.524619,0.80289899,0.75398318\\Ver

 Normal termination of Gaussian 16 at Wed Apr  9 17:34:14 2025.
