 Gaussian 16, Revision C.01,

 ----------------------------------------------------------------------
 #t hf aug-cc-pvdz symm=none int=(grid=ultrafine) guess=(read,tcheck) s
 table=(opt,rrhf)
 ----------------------------------------------------------------------
 -----
 title
 -----
 Symbolic Z-matrix:
 Charge =  0 Multiplicity = 1

 SCF Done:  E(RHF) =  -358.483527927     A.U. after   15 cycles
 Normal termination of Gaussian 16 at Wed Apr  9 18:14:58 2025.
 Gaussian 16:  ES64L-G16RevC.01  3-Jul-2019

 ----------------------------------------------------------------------
 #t hf aug-cc-pvdz iop(5/13=1,5/36=2,99/5=2) pseudo=read geom=check gue
 ss=(read,tcheck) scf=(maxcycle=1)
 ----------------------------------------------------------------------
 -----
 title
 -----
 Structure from the checkpoint file:  "Grambow2020_wb97xd3_006800_reverse_mol2.chk"
 Charge =  0 Multiplicity = 1

                         Standard orientation:
 ---------------------------------------------------------------------
 Center     Atomic      Atomic             Coordinates (Angstroms)
 Number     Number       Type             X           Y           Z
 ---------------------------------------------------------------------
      1          8           0       -0.262245    2.002203    0.276224
      2          6           0        0.221266    1.246185   -0.517808
      3          6           0        1.043798    0.082999   -0.085847
      4          6           0        1.851418   -1.087158   -0.338164
      5          7           0        1.356895   -0.491251    0.975531
      6          6           0       -2.093381   -0.756489    0.455632
      7          8           0       -1.666310   -0.795491   -0.665266
      8          1           0        0.092538    1.360159   -1.605513
      9          1           0       -1.612780   -0.145984    1.241609
     10          1           0        2.913250   -0.990666   -0.537712
     11          1           0        1.386449   -2.017820   -0.646239
     12          1           0       -2.987887   -1.333853    0.748595
 ---------------------------------------------------------------------

 SCF Done:  E(RHF) =  -360.033466197     A.U. after    2 cycles

 The electronic state is 1-A.
 Alpha  occ. eigenvalues --  -21.09149 -21.09099 -15.77875 -11.52261 -11.48883
 Alpha  occ. eigenvalues --  -11.46976 -11.43518  -1.73977  -1.73193  -1.47318
 Alpha  occ. eigenvalues --   -0.99409  -0.93114  -0.90928  -0.75108  -0.68673
 Alpha  occ. eigenvalues --   -0.66646  -0.65438  -0.55832  -0.54688  -0.50366
 Alpha  occ. eigenvalues --   -0.49429  -0.47040  -0.39259  -0.38575  -0.32693
 Alpha  occ. eigenvalues --   -0.31445
 Alpha virt. eigenvalues --    0.03338   0.04789   0.05352   0.06229   0.07440
 Alpha virt. eigenvalues --    0.08118   0.09218   0.09567   0.10425   0.11205
 Alpha virt. eigenvalues --    0.12047   0.13943   0.14711   0.15034   0.15423

 Mulliken charges:
               1
     1  O   -2.711964
     2  C    0.327999
     3  C    2.463297
     4  C   -2.222883
     5  N   -1.994655
     6  C   -0.873429
     7  O   -2.004974
     8  H    1.420086
     9  H    1.627533
    10  H    1.279238
    11  H    1.318546
    12  H    1.371206
 Sum of Mulliken charges =   0.00000

 Dipole moment (field-independent basis, Debye):
    X=             -0.8178    Y=             -0.4445    Z=             -0.9962  Tot=              1.3633

 Test job not archived.
 1\1\GINC-SE041\SP\RHF\Aug-CC-pVDZ\C4H5N1O2\OHZDE\09-Apr-2025\0\\#t hf
 aug-cc-pvdz iop(5/13=1,5/36=2,99/5=2) pseudo=read geom=check guess=(re
 ad,tcheck) scf=(maxcycle=1)\\title\\0,1\O,0,1.38437033,-1.14127167,-1.
 31849577\C,0,1.37096723,-0.13694453,-0.66505708\C,0,0.22189398,0.80834
 729,-0.71201065\C,0,-0.46540297,2.01922532,-0.32915524\N,0,-0.92351994
 ,0.85573321,-1.20200571\C,0,-0.74637362,-1.72529852,1.15425066\O,0,-0.
 01226695,-0.90205047,1.62719088\H,0,2.19692573,0.15100355,0.0039291\H,
 0,-0.83845665,-1.86537408,0.0618435\H,0,-0.26377527,2.95279681,-0.8433

 Normal termination of Gaussian 16 at Wed Apr  9 18:15:02 2025.
