 Gaussian 16, Revision C.01,

 ----------------------------------------------------------------------
 #t hf aug-cc-pvdz symm=none int=(grid=ultrafine) guess=(read,tcheck) s
 table=(opt,rrhf)
 ----------------------------------------------------------------------
 -----
 title
 -----
 Symbolic Z-matrix:
 Charge =  0 Multiplicity = 1

 SCF Done:  E(RHF) =  -323.737672218     A.U. after   16 cycles
 Normal termination of Gaussian 16 at Wed Apr  9 18:45:48 2025.
 Gaussian 16:  ES64L-G16RevC.01  3-Jul-2019

 ----------------------------------------------------------------------
 #t hf aug-cc-pvdz iop(5/13=1,5/36=2,99/5=2) pseudo=read geom=check gue
 ss=(read,tcheck) scf=(maxcycle=1)
 ----------------------------------------------------------------------
 -----
 title
 -----
 Structure from the checkpoint file:  "Grambow2020_wb97xd3_007618_forward_mol1.chk"
 Charge =  0 Multiplicity = 1

                         Standard orientation:
 ---------------------------------------------------------------------
 Center     Atomic      Atomic             Coordinates (Angstroms)
 Number     Number       Type             X           Y           Z
 ---------------------------------------------------------------------
      1          6           0       -2.036016    0.366363    0.261891
      2          6           0       -1.087870   -0.559450   -0.386615
      3          7           0        0.906985   -0.561265   -0.960648
      4          6           0        0.100958   -1.204037    0.121549
      5          6           0        0.858055   -0.385274    1.155478
      6          6           0        1.186694    0.624409   -0.024485
      7          8           0        0.367069    1.600385   -0.201167
      8          1           0       -1.656037    0.789239    1.184424
      9          1           0       -2.323175    1.176472   -0.404990
     10          1           0       -2.939130   -0.234862    0.459295
     11          1           0       -1.431931   -0.983749   -1.328607
     12          1           0        0.531456   -0.347552   -1.880915
     13          1           0        0.115657   -2.293068    0.140266
     14          1           0        1.729442   -0.924646    1.524089
     15          1           0        0.289004    0.039500    1.978653
     16          1           0        2.268341    0.852370   -0.105252
 ---------------------------------------------------------------------

 SCF Done:  E(RHF) =  -325.263144114     A.U. after    2 cycles

 The electronic state is 1-A.
 Alpha  occ. eigenvalues --  -20.91273 -15.73908 -11.55383 -11.48473 -11.44516
 Alpha  occ. eigenvalues --  -11.42373 -11.36924  -1.62235  -1.43376  -1.18730
 Alpha  occ. eigenvalues --   -1.06545  -1.00425  -0.84461  -0.78765  -0.73388
 Alpha  occ. eigenvalues --   -0.67036  -0.60884  -0.59527  -0.56781  -0.53341
 Alpha  occ. eigenvalues --   -0.52429  -0.48166  -0.46611  -0.41039  -0.34446
 Alpha  occ. eigenvalues --   -0.21114  -0.20171
 Alpha virt. eigenvalues --    0.02871   0.04151   0.04358   0.04933   0.05449
 Alpha virt. eigenvalues --    0.06328   0.06738   0.07455   0.08015   0.08413
 Alpha virt. eigenvalues --    0.10777   0.12614   0.12727   0.13278   0.13924

 Mulliken charges:
               1
     1  C   -4.298861
     2  C   -0.019432
     3  N   -1.649369
     4  C   -1.089341
     5  C   -3.613059
     6  C    2.778442
     7  O   -3.199242
     8  H    1.526625
     9  H    1.284562
    10  H    1.061981
    11  H    1.284360
    12  H    0.640358
    13  H    1.355505
    14  H    1.178229
    15  H    1.284549
    16  H    1.474694
 Sum of Mulliken charges =   0.00000

 Dipole moment (field-independent basis, Debye):
    X=             -2.9912    Y=             -3.4041    Z=             -0.2514  Tot=              4.5386

 Test job not archived.
 1\1\GINC-SE220\SP\RHF\Aug-CC-pVDZ\C5H9N1O1\OHZDE\09-Apr-2025\0\\#t hf
 aug-cc-pvdz iop(5/13=1,5/36=2,99/5=2) pseudo=read geom=check guess=(re
 ad,tcheck) scf=(maxcycle=1)\\title\\0,1\C,0,-1.31462895,-1.2376173,0.6
 5498822\C,0,-1.09621567,-0.05723791,-0.20272423\N,0,0.27089263,1.49721
 485,-0.35652741\C,0,-0.03224104,0.2541056,-1.12904038\C,0,1.32292761,-
 0.30952925,-0.73103251\C,0,1.28004937,0.70519583,0.48891417\O,0,0.7735
 4095,0.27181789,1.58944267\H,0,-0.43184418,-1.85702621,0.76128416\H,0,
 -1.66669684,-0.95329105,1.64426789\H,0,-2.12435422,-1.80497835,0.16662

 Normal termination of Gaussian 16 at Wed Apr  9 18:45:54 2025.
