 Gaussian 16, Revision C.01,

 ----------------------------------------------------------------------
 #t hf aug-cc-pvdz symm=none int=(grid=ultrafine) guess=(read,tcheck) s
 table=(opt,rrhf)
 ----------------------------------------------------------------------
 -----
 title
 -----
 Symbolic Z-matrix:
 Charge =  0 Multiplicity = 1

 SCF Done:  E(RHF) =  -359.445945516     A.U. after   18 cycles
 Normal termination of Gaussian 16 at Wed Apr  9 03:46:38 2025.
 Gaussian 16:  ES64L-G16RevC.01  3-Jul-2019

 ----------------------------------------------------------------------
 #t hf aug-cc-pvdz iop(5/13=1,5/36=2,99/5=2) pseudo=read geom=check gue
 ss=(read,tcheck) scf=(maxcycle=1)
 ----------------------------------------------------------------------
 -----
 title
 -----
 Structure from the checkpoint file:  "Grambow2020_wb97xd3_007902_forward_mol1.chk"
 Charge =  0 Multiplicity = 1

                         Standard orientation:
 ---------------------------------------------------------------------
 Center     Atomic      Atomic             Coordinates (Angstroms)
 Number     Number       Type             X           Y           Z
 ---------------------------------------------------------------------
      1          6           0       -0.358669    1.680751   -0.055847
      2          6           0       -0.313947    0.143812   -0.061704
      3          7           0       -1.321971   -0.590407    0.493675
      4          8           0       -2.443492   -0.450048   -0.330562
      5          6           0        0.918884   -0.467843    0.530550
      6          6           0        1.776040   -0.821789   -0.518285
      7          8           0        2.224328    0.241421    0.083643
      8          1           0       -0.289687    2.051483    0.967719
      9          1           0        0.445550    2.109621   -0.653925
     10          1           0       -1.315209    1.983211   -0.479640
     11          1           0       -3.075657   -1.056800    0.059244
     12          1           0        0.966010   -0.807526    1.557547
     13          1           0        2.287510   -1.555971   -1.124610
     14          1           0       -0.145257   -0.131744   -1.174990
 ---------------------------------------------------------------------

 SCF Done:  E(RHF) =  -361.057065249     A.U. after    2 cycles

 The electronic state is 1-A.
 Alpha  occ. eigenvalues --  -21.17350 -21.04039 -15.67422 -11.59766 -11.53609
 Alpha  occ. eigenvalues --  -11.43176 -11.36657  -1.88568  -1.72736  -1.27878
 Alpha  occ. eigenvalues --   -1.05007  -1.02281  -0.93913  -0.82333  -0.74636
 Alpha  occ. eigenvalues --   -0.64875  -0.60954  -0.56766  -0.54325  -0.53048
 Alpha  occ. eigenvalues --   -0.52196  -0.48420  -0.43481  -0.41941  -0.36959
 Alpha  occ. eigenvalues --   -0.30478  -0.16538
 Alpha virt. eigenvalues --    0.02116   0.03456   0.04644   0.06081   0.06699
 Alpha virt. eigenvalues --    0.07107   0.07334   0.07763   0.08970   0.10456
 Alpha virt. eigenvalues --    0.11936   0.12692   0.14058   0.14248   0.14671

 Mulliken charges:
               1
     1  C   -3.682623
     2  C    0.128033
     3  N   -0.775352
     4  O   -2.571507
     5  C    0.078676
     6  C    0.541324
     7  O   -2.383861
     8  H    1.242724
     9  H    1.240005
    10  H    1.250839
    11  H    0.871427
    12  H    1.413185
    13  H    1.010809
    14  H    1.636322
 Sum of Mulliken charges =   0.00000

 Dipole moment (field-independent basis, Debye):
    X=              5.1504    Y=             -0.2663    Z=             -0.4784  Tot=              5.1795

 Test job not archived.
 1\1\GINC-SE273\SP\RHF\Aug-CC-pVDZ\C4H7N1O2\OHZDE\09-Apr-2025\0\\#t hf
 aug-cc-pvdz iop(5/13=1,5/36=2,99/5=2) pseudo=read geom=check guess=(re
 ad,tcheck) scf=(maxcycle=1)\\title\\0,1\C,0,-0.96481986,-1.21660476,0.
 06683688\C,0,-0.2131828,0.1228703,0.13799336\N,0,-0.88503872,1.3095878
 3,0.07516334\O,0,-1.59634229,1.45028855,1.27145946\C,0,0.8853813,0.300
 11057,-0.86525223\C,0,2.10250614,0.02278647,-0.23141671\O,0,1.77684743
 ,-0.96020918,-1.01968068\H,0,-1.42103478,-1.33590719,-0.91679122\H,0,-
 0.30440349,-2.06046409,0.26720029\H,0,-1.7492396,-1.19367919,0.8219607

 Normal termination of Gaussian 16 at Wed Apr  9 03:46:43 2025.
