 Gaussian 16, Revision C.01,

 ----------------------------------------------------------------------
 #t hf aug-cc-pvdz symm=none int=(grid=ultrafine) guess=(read,tcheck) s
 table=(opt,rrhf)
 ----------------------------------------------------------------------
 -----
 title
 -----
 Symbolic Z-matrix:
 Charge =  0 Multiplicity = 1

 SCF Done:  E(RHF) =  -307.862245525     A.U. after   13 cycles

 1\1\GINC-SE338\Stability\RHF\Aug-CC-pVDZ\C6H10O1\OHZDE\09-Apr-2025\0\\
 #t hf aug-cc-pvdz symm=none int=(grid=ultrafine) guess=(read,tcheck) s
 table=(opt,rrhf)\\title\\0,1\C,0,1.87031,0.38838579,-0.60489329\C,0,0.
 56232043,0.12488294,0.07898181\C,0,0.18046525,-1.31521324,0.47590571\C
 ,0,-1.23580873,-1.09497392,-0.11783193\C,0,-0.85634753,0.34675448,-0.5
 0796008\C,0,-1.00425027,1.36494958,0.61975453\O,0,0.29745848,1.0561124
 6,1.14759073\H,0,2.6927637,0.21866608,0.09435367\H,0,2.0018777,-0.2799
 5046,-1.45790735\H,0,1.92367904,1.42085058,-0.95352844\H,0,0.75716538,

 Normal termination of Gaussian 16 at Wed Apr  9 03:33:34 2025.
 Gaussian 16:  ES64L-G16RevC.01  3-Jul-2019

 ----------------------------------------------------------------------
 #t hf aug-cc-pvdz iop(5/13=1,5/36=2,99/5=2) pseudo=read geom=check gue
 ss=(read,tcheck) scf=(maxcycle=1)
 ----------------------------------------------------------------------
 -----
 title
 -----
 Structure from the checkpoint file:  "Grambow2020_wb97xd3_007029_forward_mol2.chk"
 Charge =  0 Multiplicity = 1

                         Standard orientation:
 ---------------------------------------------------------------------
 Center     Atomic      Atomic             Coordinates (Angstroms)
 Number     Number       Type             X           Y           Z
 ---------------------------------------------------------------------
      1          6           0       -1.975549   -0.295208    0.404574
      2          6           0       -0.557651   -0.118225   -0.049517
      3          6           0        0.198331   -1.302772   -0.684009
      4          6           0        1.425404   -0.989491    0.212099
      5          6           0        0.672328    0.198860    0.840963
      6          6           0        0.742570    1.490325    0.030087
      7          8           0       -0.363327    1.096996   -0.801009
      8          1           0       -2.627533   -0.422006   -0.463194
      9          1           0       -2.071068   -1.179461    1.037494
     10          1           0       -2.314628    0.577957    0.964027
     11          1           0       -0.254481   -2.274552   -0.481360
     12          1           0        0.342022   -1.194103   -1.758596
     13          1           0        2.348352   -0.730422   -0.308954
     14          1           0        1.647546   -1.783208    0.924849
     15          1           0        0.637576    0.278631    1.925359
     16          1           0        1.658464    1.650391   -0.547989
     17          1           0        0.507780    2.399875    0.591253
 ---------------------------------------------------------------------

 SCF Done:  E(RHF) =  -309.337910710     A.U. after    2 cycles

 The electronic state is 1-A.
 Alpha  occ. eigenvalues --  -21.02362 -11.53003 -11.44189 -11.41655 -11.39017
 Alpha  occ. eigenvalues --  -11.38373 -11.34458  -1.77072  -1.28000  -1.09707
 Alpha  occ. eigenvalues --   -1.02247  -0.90062  -0.89495  -0.71974  -0.67737
 Alpha  occ. eigenvalues --   -0.64425  -0.63045  -0.57120  -0.56113  -0.55908
 Alpha  occ. eigenvalues --   -0.50690  -0.46776  -0.43543  -0.42592  -0.36868
 Alpha  occ. eigenvalues --   -0.32851  -0.27688
 Alpha virt. eigenvalues --    0.04063   0.04834   0.04973   0.05413   0.05471
 Alpha virt. eigenvalues --    0.06081   0.06365   0.06879   0.07672   0.08895
 Alpha virt. eigenvalues --    0.11032   0.12253   0.12710   0.13381   0.13804

 Mulliken charges:
               1
     1  C   -4.478681
     2  C    5.628730
     3  C   -3.468692
     4  C   -3.009910
     5  C   -2.742339
     6  C   -1.692805
     7  O   -3.479458
     8  H    1.227930
     9  H    1.108925
    10  H    1.124340
    11  H    1.434058
    12  H    1.313401
    13  H    1.313469
    14  H    1.312117
    15  H    1.335892
    16  H    1.531199
    17  H    1.541825
 Sum of Mulliken charges =   0.00000

 Dipole moment (field-independent basis, Debye):
    X=              0.2273    Y=             -0.4178    Z=              0.6917  Tot=              0.8395

 Test job not archived.
 1\1\GINC-SE338\SP\RHF\Aug-CC-pVDZ\C6H10O1\OHZDE\09-Apr-2025\0\\#t hf a
 ug-cc-pvdz iop(5/13=1,5/36=2,99/5=2) pseudo=read geom=check guess=(rea
 d,tcheck) scf=(maxcycle=1)\\title\\0,1\C,0,1.87031,0.38838579,-0.60489
 329\C,0,0.56232043,0.12488294,0.07898181\C,0,0.18046525,-1.31521324,0.
 47590571\C,0,-1.23580873,-1.09497392,-0.11783193\C,0,-0.85634753,0.346
 75448,-0.50796008\C,0,-1.00425027,1.36494958,0.61975453\O,0,0.29745848
 ,1.05611246,1.14759073\H,0,2.6927637,0.21866608,0.09435367\H,0,2.00187
 77,-0.27995046,-1.45790735\H,0,1.92367904,1.42085058,-0.95352844\H,0,0

 Normal termination of Gaussian 16 at Wed Apr  9 03:33:39 2025.
