 Gaussian 16, Revision C.01,

 ----------------------------------------------------------------------
 #t hf aug-cc-pvdz symm=none int=(grid=ultrafine) guess=(read,tcheck) s
 table=(opt,rrhf)
 ----------------------------------------------------------------------
 -----
 title
 -----
 Symbolic Z-matrix:
 Charge =  0 Multiplicity = 1

 SCF Done:  E(RHF) =  -281.275602491     A.U. after   15 cycles
 Normal termination of Gaussian 16 at Wed Apr  9 03:05:10 2025.
 Gaussian 16:  ES64L-G16RevC.01  3-Jul-2019

 ----------------------------------------------------------------------
 #t hf aug-cc-pvdz iop(5/13=1,5/36=2,99/5=2) pseudo=read geom=check gue
 ss=(read,tcheck) scf=(maxcycle=1)
 ----------------------------------------------------------------------
 -----
 title
 -----
 Structure from the checkpoint file:  "Grambow2020_b97d3_006501_reverse_mol2.chk"
 Charge =  0 Multiplicity = 1

                         Standard orientation:
 ---------------------------------------------------------------------
 Center     Atomic      Atomic             Coordinates (Angstroms)
 Number     Number       Type             X           Y           Z
 ---------------------------------------------------------------------
      1          8           0        0.282558    1.679435    0.000739
      2          6           0        0.106300    0.477182   -0.000760
      3          6           0       -1.178751   -0.175597   -0.001340
      4          6           0       -2.284166   -0.686779    0.000413
      5          6           0        2.136405   -1.158934    0.000772
      6          7           0        1.188165   -0.433293   -0.000523
      7          1           0       -3.256348   -1.137656    0.003239
 ---------------------------------------------------------------------

 SCF Done:  E(RHF) =  -282.466370855     A.U. after    2 cycles

 The electronic state is 1-A.
 Alpha  occ. eigenvalues --  -21.11273 -15.81447 -11.60683 -11.48821 -11.47632
 Alpha  occ. eigenvalues --  -11.45830  -1.76757  -1.41836  -1.16930  -1.01541
 Alpha  occ. eigenvalues --   -0.84970  -0.73107  -0.61275  -0.60732  -0.51216
 Alpha  occ. eigenvalues --   -0.49040  -0.46444  -0.42834  -0.39428  -0.35847
 Alpha virt. eigenvalues --    0.02420   0.05485   0.07429   0.08670   0.09231
 Alpha virt. eigenvalues --    0.09725   0.10688   0.11220   0.11686   0.12503
 Alpha virt. eigenvalues --    0.12748   0.14092   0.14214   0.16693   0.17093

 Mulliken charges:
               1
     1  O   -2.839081
     2  C    4.582098
     3  C    1.757504
     4  C   -2.896722
     5  C   -0.561856
     6  N   -0.915129
     7  H    0.873186
 Sum of Mulliken charges =  -0.00000

 Dipole moment (field-independent basis, Debye):
    X=             -3.2182    Y=              0.4551    Z=              0.0026  Tot=              3.2502

 Test job not archived.
 1\1\GINC-SE462\SP\RHF\Aug-CC-pVDZ\C4H1N1O1\OHZDE\09-Apr-2025\0\\#t hf
 aug-cc-pvdz iop(5/13=1,5/36=2,99/5=2) pseudo=read geom=check guess=(re
 ad,tcheck) scf=(maxcycle=1)\\title\\0,1\O,0,-1.00631684,-0.96859185,1.
 44800547\C,0,-0.63783537,-0.34323752,0.47351329\C,0,0.73401822,-0.0497
 9324,0.14277884\C,0,1.9058215,0.1780152,-0.09853371\C,0,-2.37304191,0.
 59919093,-1.2291582\N,0,-1.55626584,0.17882456,-0.46634402\H,0,2.93653
 124,0.38014392,-0.31117667\\Version=ES64L-G16RevC.01\State=1-A\HF=-282
 .4663709\RMSD=7.538e-01\Dipole=1.2183908,-0.1427772,0.3609664\Quadrupo

 Normal termination of Gaussian 16 at Wed Apr  9 03:05:13 2025.
