 Gaussian 16, Revision C.01,

 ----------------------------------------------------------------------
 #t hf aug-cc-pvdz symm=none int=(grid=ultrafine) guess=(read,tcheck) s
 table=(opt,rrhf)
 ----------------------------------------------------------------------
 -----
 title
 -----
 Symbolic Z-matrix:
 Charge =  0 Multiplicity = 1

 SCF Done:  E(RHF) =  -264.874387750     A.U. after   16 cycles
 Normal termination of Gaussian 16 at Wed Apr  9 16:48:30 2025.
 Gaussian 16:  ES64L-G16RevC.01  3-Jul-2019

 ----------------------------------------------------------------------
 #t hf aug-cc-pvdz iop(5/13=1,5/36=2,99/5=2) pseudo=read geom=check gue
 ss=(read,tcheck) scf=(maxcycle=1)
 ----------------------------------------------------------------------
 -----
 title
 -----
 Structure from the checkpoint file:  "Grambow2020_b97d3_006846_reverse_mol1.chk"
 Charge =  0 Multiplicity = 1

                         Standard orientation:
 ---------------------------------------------------------------------
 Center     Atomic      Atomic             Coordinates (Angstroms)
 Number     Number       Type             X           Y           Z
 ---------------------------------------------------------------------
      1          6           0        0.294555    1.984156    0.081714
      2          7           0       -0.537812    0.820892   -0.240227
      3          6           0       -0.100069   -0.422758    0.395420
      4          6           0       -2.608375   -1.137184   -0.186705
      5          6           0        1.277590   -0.846820    0.081740
      6          7           0        2.365570   -1.143295   -0.237122
      7          1           0        0.224039    2.184434    1.159740
      8          1           0       -0.097587    2.857516   -0.454307
      9          1           0        1.361469    1.856145   -0.177505
     10          1           0       -0.559633    0.676883   -1.251468
     11          1           0       -0.219293   -0.345405    1.484402
     12          1           0       -0.825162   -1.224701    0.036906
     13          1           0       -2.882989   -1.050001    0.896724
     14          1           0       -2.977352   -0.162409   -0.586061
 ---------------------------------------------------------------------

 SCF Done:  E(RHF) =  -266.109966871     A.U. after    2 cycles

 The electronic state is 1-A.
 Alpha  occ. eigenvalues --  -15.76735 -15.75241 -11.48179 -11.43354 -11.42727
 Alpha  occ. eigenvalues --  -11.40135  -1.42195  -1.28957  -1.08781  -0.95456
 Alpha  occ. eigenvalues --   -0.94472  -0.73422  -0.68961  -0.63204  -0.59874
 Alpha  occ. eigenvalues --   -0.56579  -0.53429  -0.53170  -0.52131  -0.44230
 Alpha  occ. eigenvalues --   -0.43535  -0.37810  -0.35330
 Alpha virt. eigenvalues --    0.02733   0.03308   0.04874   0.05530   0.06484
 Alpha virt. eigenvalues --    0.06782   0.07439   0.07723   0.08016   0.10786
 Alpha virt. eigenvalues --    0.11289   0.12339   0.12459   0.13587   0.14285

 Mulliken charges:
               1
     1  C   -3.291127
     2  N   -1.972649
     3  C   -2.610595
     4  C   -3.339591
     5  C    2.289821
     6  N   -2.390313
     7  H    1.339025
     8  H    1.285781
     9  H    1.411051
    10  H    0.654836
    11  H    1.577420
    12  H    2.422465
    13  H    1.175211
    14  H    1.448666
 Sum of Mulliken charges =  -0.00000

 Dipole moment (field-independent basis, Debye):
    X=             -2.9690    Y=              2.5447    Z=              0.9984  Tot=              4.0357

 Test job not archived.
 1\1\GINC-SE026\SP\RHF\Aug-CC-pVDZ\C4H8N2\OHZDE\09-Apr-2025\0\\#t hf au
 g-cc-pvdz iop(5/13=1,5/36=2,99/5=2) pseudo=read geom=check guess=(read
 ,tcheck) scf=(maxcycle=1)\\title\\0,1\C,0,1.77273172,-0.04579532,0.447
 86564\N,0,0.32901989,-0.3009324,0.46417161\C,0,-0.4257546,0.46655897,-
 0.52759726\C,0,-2.23517948,-1.43860242,-0.04055075\C,0,-0.30111375,1.9
 3298212,-0.42642867\N,0,-0.18620794,3.08831091,-0.26742607\H,0,2.17991
 6,-0.36837279,-0.52031217\H,0,2.24588064,-0.64659541,1.23464328\H,0,2.
 04103159,1.01571483,0.59984675\H,0,-0.05102717,-0.09503876,1.38991086\

 Normal termination of Gaussian 16 at Wed Apr  9 16:48:35 2025.
