 Gaussian 16, Revision C.01,

 ----------------------------------------------------------------------
 #t hf aug-cc-pvdz symm=none int=(grid=ultrafine) guess=(read,tcheck) s
 table=(opt,rrhf)
 ----------------------------------------------------------------------
 -----
 title
 -----
 Symbolic Z-matrix:
 Charge =  0 Multiplicity = 1

 SCF Done:  E(RHF) =  -338.741271891     A.U. after   14 cycles
 Normal termination of Gaussian 16 at Wed Apr  9 19:21:59 2025.
 Gaussian 16:  ES64L-G16RevC.01  3-Jul-2019

 ----------------------------------------------------------------------
 #t hf aug-cc-pvdz iop(5/13=1,5/36=2,99/5=2) pseudo=read geom=check gue
 ss=(read,tcheck) scf=(maxcycle=1)
 ----------------------------------------------------------------------
 -----
 title
 -----
 Structure from the checkpoint file:  "Grambow2020_wb97xd3_008820_reverse_mol2.chk"
 Charge =  0 Multiplicity = 1

                         Standard orientation:
 ---------------------------------------------------------------------
 Center     Atomic      Atomic             Coordinates (Angstroms)
 Number     Number       Type             X           Y           Z
 ---------------------------------------------------------------------
      1          7           0        1.939321   -0.731569    0.145589
      2          6           0        0.677924   -0.588649    0.125480
      3          6           0        0.086449    0.790745    0.429927
      4          8           0        0.508594    1.740791   -0.513458
      5          7           0       -1.339425    0.571575    0.319036
      6          6           0       -1.556620   -0.696015   -0.150316
      7          6           0       -0.440163   -1.448145   -0.221283
      8          1           0        2.213481   -1.673220   -0.122849
      9          1           0        0.347651    1.115524    1.443405
     10          1           0        1.438322    1.551650   -0.688494
     11          1           0       -1.923915    1.336778    0.031711
     12          1           0       -2.566312   -1.002297   -0.391500
     13          1           0       -0.382791   -2.482427   -0.519835
 ---------------------------------------------------------------------

 SCF Done:  E(RHF) =  -340.268679741     A.U. after    2 cycles

 The electronic state is 1-A.
 Alpha  occ. eigenvalues --  -21.07527 -15.75936 -15.72562 -11.50148 -11.46678
 Alpha  occ. eigenvalues --  -11.44112 -11.37960  -1.74215  -1.46806  -1.31799
 Alpha  occ. eigenvalues --   -1.10947  -1.01731  -0.83689  -0.79488  -0.73267
 Alpha  occ. eigenvalues --   -0.66398  -0.60043  -0.57571  -0.56513  -0.54972
 Alpha  occ. eigenvalues --   -0.48637  -0.45085  -0.41171  -0.37318  -0.32206
 Alpha  occ. eigenvalues --   -0.28210
 Alpha virt. eigenvalues --    0.03476   0.04833   0.05550   0.06317   0.06767
 Alpha virt. eigenvalues --    0.07434   0.09813   0.10421   0.11937   0.12264
 Alpha virt. eigenvalues --    0.13233   0.13474   0.13943   0.14710   0.15348

 Mulliken charges:
               1
     1  N   -3.453623
     2  C    4.426790
     3  C    1.098182
     4  O   -2.929676
     5  N   -2.999788
     6  C    0.668459
     7  C   -3.025064
     8  H    0.774839
     9  H    1.467583
    10  H    0.682487
    11  H    0.547244
    12  H    1.402050
    13  H    1.340517
 Sum of Mulliken charges =   0.00000

 Dipole moment (field-independent basis, Debye):
    X=             -2.9254    Y=             -0.1488    Z=             -0.6210  Tot=              2.9943

 Test job not archived.
 1\1\GINC-SE048\SP\RHF\Aug-CC-pVDZ\C4H6N2O1\OHZDE\09-Apr-2025\0\\#t hf
 aug-cc-pvdz iop(5/13=1,5/36=2,99/5=2) pseudo=read geom=check guess=(re
 ad,tcheck) scf=(maxcycle=1)\\title\\0,1\N,0,-1.92690052,0.82206018,-0.
 21040669\C,0,-0.70172752,0.5488268,-0.02001818\C,0,-0.32602576,-0.8503
 6973,0.47632264\O,0,-0.71010625,-1.83438326,-0.44832234\N,0,1.11613838
 ,-0.79022211,0.57629665\C,0,1.54619031,0.39988397,0.05384981\C,0,0.547
 49309,1.25324478,-0.24879159\H,0,-2.04706313,1.75833261,-0.58840699\H,
 0,-0.77113479,-1.05225143,1.45712242\H,0,-1.57514444,-1.56739864,-0.78

 Normal termination of Gaussian 16 at Wed Apr  9 19:22:03 2025.
