 Gaussian 16, Revision C.01,

 ----------------------------------------------------------------------
 #t hf aug-cc-pvdz symm=none int=(grid=ultrafine) guess=(read,tcheck) s
 table=(opt,rrhf)
 ----------------------------------------------------------------------
 -----
 title
 -----
 Symbolic Z-matrix:
 Charge =  0 Multiplicity = 1

 SCF Done:  E(RHF) =  -304.647995646     A.U. after   15 cycles
 Normal termination of Gaussian 16 at Wed Apr  9 03:15:52 2025.
 Gaussian 16:  ES64L-G16RevC.01  3-Jul-2019

 ----------------------------------------------------------------------
 #t hf aug-cc-pvdz iop(5/13=1,5/36=2,99/5=2) pseudo=read geom=check gue
 ss=(read,tcheck) scf=(maxcycle=1)
 ----------------------------------------------------------------------
 -----
 title
 -----
 Structure from the checkpoint file:  "Grambow2020_b97d3_006983_reverse_mol1.chk"
 Charge =  0 Multiplicity = 1

                         Standard orientation:
 ---------------------------------------------------------------------
 Center     Atomic      Atomic             Coordinates (Angstroms)
 Number     Number       Type             X           Y           Z
 ---------------------------------------------------------------------
      1          6           0        2.087871   -0.251827   -0.456823
      2          6           0        1.086454    0.298106    0.491903
      3          6           0        0.059255    1.204799    0.126896
      4          6           0       -1.071981   -0.181288   -0.009893
      5          8           0       -2.191061    0.116670   -0.353106
      6          8           0       -0.442094   -1.225121    0.299223
      7          1           0        3.018761    0.333639   -0.343780
      8          1           0        1.753958   -0.162701   -1.497257
      9          1           0        2.325002   -1.298106   -0.231481
     10          1           0        1.229253    0.061360    1.546886
     11          1           0       -0.352381    1.849145    0.905064
     12          1           0        0.121054    1.665540   -0.860861
 ---------------------------------------------------------------------

 SCF Done:  E(RHF) =  -306.018086315     A.U. after    2 cycles

 The electronic state is 1-A.
 Alpha  occ. eigenvalues --  -21.03818 -21.02626 -11.55429 -11.51856 -11.43712
 Alpha  occ. eigenvalues --  -11.41703  -1.75285  -1.61494  -1.26439  -1.07048
 Alpha  occ. eigenvalues --   -0.86666  -0.70838  -0.70237  -0.63524  -0.62550
 Alpha  occ. eigenvalues --   -0.56905  -0.55336  -0.54633  -0.50764  -0.48820
 Alpha  occ. eigenvalues --   -0.30588  -0.27923  -0.27015
 Alpha virt. eigenvalues --    0.02260   0.04229   0.04880   0.05271   0.05445
 Alpha virt. eigenvalues --    0.05937   0.06748   0.11102   0.11291   0.11669
 Alpha virt. eigenvalues --    0.12268   0.13362   0.13943   0.14858   0.15161

 Mulliken charges:
               1
     1  C   -4.111525
     2  C   -0.274855
     3  C   -3.898800
     4  C    5.326866
     5  O   -2.567915
     6  O   -2.225549
     7  H    1.186307
     8  H    1.271944
     9  H    1.347142
    10  H    1.412047
    11  H    1.261784
    12  H    1.272554
 Sum of Mulliken charges =   0.00000

 Dipole moment (field-independent basis, Debye):
    X=              4.1187    Y=              1.1541    Z=              0.4678  Tot=              4.3029

 Test job not archived.
 1\1\GINC-SE059\SP\RHF\Aug-CC-pVDZ\C4H6O2\OHZDE\09-Apr-2025\0\\#t hf au
 g-cc-pvdz iop(5/13=1,5/36=2,99/5=2) pseudo=read geom=check guess=(read
 ,tcheck) scf=(maxcycle=1)\\title\\0,1\C,0,-1.50267532,0.06415925,0.430
 57418\C,0,-0.35454148,0.37172188,-0.45967125\C,0,0.94141016,0.71341802
 ,0.00316137\C,0,1.43705383,-0.99674361,-0.21893935\O,0,2.57916895,-1.2
 3275619,0.09536114\O,0,0.45215899,-1.62659006,-0.68280814\H,0,-2.12814
 164,0.97282427,0.50285402\H,0,-1.17304489,-0.20343878,1.44135534\H,0,-
 2.12823989,-0.7369437,0.01994737\H,0,-0.56605785,0.43607674,-1.5276366

 Normal termination of Gaussian 16 at Wed Apr  9 03:15:56 2025.
