 Gaussian 16, Revision C.01,

 ----------------------------------------------------------------------
 #t hf aug-cc-pvdz symm=none int=(grid=ultrafine) guess=(read,tcheck) s
 table=(opt,rrhf)
 ----------------------------------------------------------------------
 -----
 title
 -----
 Symbolic Z-matrix:
 Charge =  0 Multiplicity = 1

 SCF Done:  E(RHF) =  -281.211731287     A.U. after   17 cycles
 Normal termination of Gaussian 16 at Wed Apr  9 03:05:11 2025.
 Gaussian 16:  ES64L-G16RevC.01  3-Jul-2019

 ----------------------------------------------------------------------
 #t hf aug-cc-pvdz iop(5/13=1,5/36=2,99/5=2) pseudo=read geom=check gue
 ss=(read,tcheck) scf=(maxcycle=1)
 ----------------------------------------------------------------------
 -----
 title
 -----
 Structure from the checkpoint file:  "Grambow2020_b97d3_006501_forward_mol1.chk"
 Charge =  0 Multiplicity = 1

                         Standard orientation:
 ---------------------------------------------------------------------
 Center     Atomic      Atomic             Coordinates (Angstroms)
 Number     Number       Type             X           Y           Z
 ---------------------------------------------------------------------
      1          8           0       -0.669224    1.553425   -0.000761
      2          6           0       -0.215574    0.451979    0.008139
      3          6           0        1.119874   -0.009318    0.000988
      4          6           0        2.285580   -0.360803   -0.002994
      5          6           0       -1.301792   -0.948412    0.646773
      6          7           0       -1.326824   -0.937555   -0.555776
      7          1           0        3.313029   -0.665193   -0.020906
 ---------------------------------------------------------------------

 SCF Done:  E(RHF) =  -282.435212060     A.U. after    2 cycles

 The electronic state is 1-A.
 Alpha  occ. eigenvalues --  -21.14951 -15.80535 -11.62563 -11.49597 -11.47411
 Alpha  occ. eigenvalues --  -11.43553  -1.79127  -1.39033  -1.18109  -0.97064
 Alpha  occ. eigenvalues --   -0.76952  -0.69745  -0.67520  -0.61364  -0.54721
 Alpha  occ. eigenvalues --   -0.48599  -0.45940  -0.42596  -0.41300  -0.36976
 Alpha virt. eigenvalues --    0.02450   0.04723   0.08053   0.08448   0.09335
 Alpha virt. eigenvalues --    0.10095   0.10832   0.10935   0.11890   0.12405
 Alpha virt. eigenvalues --    0.12515   0.14702   0.14742   0.15850   0.16729

 Mulliken charges:
               1
     1  O   -3.037251
     2  C    3.385556
     3  C    2.645792
     4  C   -3.061686
     5  C    0.128121
     6  N   -0.896592
     7  H    0.836059
 Sum of Mulliken charges =  -0.00000

 Dipole moment (field-independent basis, Debye):
    X=              3.1019    Y=              1.2194    Z=             -0.6054  Tot=              3.3874

 Test job not archived.
 1\1\GINC-SE461\SP\RHF\Aug-CC-pVDZ\C4H1N1O1\OHZDE\09-Apr-2025\0\\#t hf
 aug-cc-pvdz iop(5/13=1,5/36=2,99/5=2) pseudo=read geom=check guess=(re
 ad,tcheck) scf=(maxcycle=1)\\title\\0,1\O,0,-1.09190563,-1.05970943,1.
 33533241\C,0,-0.66066929,-0.38239813,0.45536286\C,0,0.66386957,-0.0405
 841,0.10176974\C,0,1.8211776,0.22509518,-0.16745365\C,0,-1.74941377,-0
 .09254058,-1.05441603\N,0,-1.82092217,0.85722318,-0.31977123\H,0,2.840
 77469,0.46746586,-0.3917381\\Version=ES64L-G16RevC.01\State=1-A\HF=-28
 2.4352121\RMSD=7.386e-01\Dipole=1.2196623,-0.0472127,0.5351147\Quadrup

 Normal termination of Gaussian 16 at Wed Apr  9 03:05:14 2025.
