 Gaussian 16, Revision C.01,

 ----------------------------------------------------------------------
 #t hf aug-cc-pvdz symm=none int=(grid=ultrafine) guess=(read,tcheck) s
 table=(opt,rrhf)
 ----------------------------------------------------------------------
 -----
 title
 -----
 Symbolic Z-matrix:
 Charge =  0 Multiplicity = 1

 SCF Done:  E(RHF) =  -233.965322435     A.U. after   16 cycles
 Normal termination of Gaussian 16 at Wed Apr  9 16:19:19 2025.
 Gaussian 16:  ES64L-G16RevC.01  3-Jul-2019

 ----------------------------------------------------------------------
 #t hf aug-cc-pvdz iop(5/13=1,5/36=2,99/5=2) pseudo=read geom=check gue
 ss=(read,tcheck) scf=(maxcycle=1)
 ----------------------------------------------------------------------
 -----
 title
 -----
 Structure from the checkpoint file:  "Grambow2020_b97d3_006793_reverse_mol1.chk"
 Charge =  0 Multiplicity = 1

                         Standard orientation:
 ---------------------------------------------------------------------
 Center     Atomic      Atomic             Coordinates (Angstroms)
 Number     Number       Type             X           Y           Z
 ---------------------------------------------------------------------
      1          6           0        2.409749    0.267091    0.327579
      2          6           0        1.142678   -0.062887   -0.445796
      3          6           0        0.161856   -1.101087    0.116126
      4          6           0       -1.161986   -0.248496   -0.352100
      5          6           0       -2.345805   -0.012962    0.410445
      6          6           0       -0.087947    0.818488   -0.235068
      7          1           0        2.189335    0.394599    1.398082
      8          1           0        2.851777    1.206014   -0.037469
      9          1           0        3.165680   -0.525072    0.226583
     10          1           0        1.351133   -0.247577   -1.509461
     11          1           0        0.211522   -1.191070    1.204637
     12          1           0        0.131299   -2.081160   -0.371709
     13          1           0       -1.355202   -0.513435   -1.399298
     14          1           0       -2.267903    0.228877    1.470665
     15          1           0       -2.159282    1.731174   -0.199187
     16          1           0       -3.327833   -0.289934    0.035450
     17          1           0       -1.445038    2.045870   -0.510640
     18          1           0       -0.056760    1.280826    0.765227
 ---------------------------------------------------------------------

 SCF Done:  E(RHF) =  -235.202443019     A.U. after    2 cycles

 The electronic state is 1-A.
 Alpha  occ. eigenvalues --  -11.49585 -11.43892 -11.42261 -11.39878 -11.38338
 Alpha  occ. eigenvalues --  -11.36248  -1.37401  -1.11600  -1.01568  -0.92352
 Alpha  occ. eigenvalues --   -0.84148  -0.78966  -0.66007  -0.61710  -0.61523
 Alpha  occ. eigenvalues --   -0.59346  -0.55692  -0.55120  -0.49635  -0.48765
 Alpha  occ. eigenvalues --   -0.43469  -0.42661  -0.41670  -0.23419
 Alpha virt. eigenvalues --    0.03724   0.04907   0.05026   0.05579   0.05736
 Alpha virt. eigenvalues --    0.05902   0.06129   0.06446   0.07358   0.08162
 Alpha virt. eigenvalues --    0.08607   0.09522   0.10356   0.12473   0.12899

 Mulliken charges:
               1
     1  C   -4.437686
     2  C   -1.028458
     3  C   -2.437352
     4  C   -0.469066
     5  C   -3.868075
     6  C   -0.984595
     7  H    1.201601
     8  H    1.224110
     9  H    1.193850
    10  H    1.413865
    11  H    1.457495
    12  H    1.196391
    13  H    1.214373
    14  H    1.204286
    15  H    0.361348
    16  H    1.357543
    17  H   -0.338960
    18  H    1.739329
 Sum of Mulliken charges =  -0.00000

 Dipole moment (field-independent basis, Debye):
    X=              2.0163    Y=             -1.9703    Z=              0.2126  Tot=              2.8271

 Test job not archived.
 1\1\GINC-SE129\SP\RHF\Aug-CC-pVDZ\C6H12\OHZDE\09-Apr-2025\0\\#t hf aug
 -cc-pvdz iop(5/13=1,5/36=2,99/5=2) pseudo=read geom=check guess=(read,
 tcheck) scf=(maxcycle=1)\\title\\0,1\C,0,-2.44372589,0.17106426,0.2241
 966\C,0,-1.11467635,0.44431329,-0.46240629\C,0,0.00789813,1.1463271,0.
 3138864\C,0,1.184085,0.20688736,-0.34394731\C,0,2.28594004,-0.39281725
 ,0.33770285\C,0,-0.05730957,-0.6591516,-0.46489769\H,0,-2.28291737,-0.
 22922163,1.23648516\H,0,-3.02519622,-0.57210798,-0.34132397\H,0,-3.051
 99292,1.08307009,0.31027535\H,0,-1.25431163,0.89587585,-1.45515062\H,0

 Normal termination of Gaussian 16 at Wed Apr  9 16:19:25 2025.
