 Gaussian 16, Revision C.01,

 ----------------------------------------------------------------------
 #t hf aug-cc-pvdz symm=none int=(grid=ultrafine) guess=(read,tcheck) s
 table=(opt,rrhf)
 ----------------------------------------------------------------------
 -----
 title
 -----
 Symbolic Z-matrix:
 Charge =  0 Multiplicity = 1

 SCF Done:  E(RHF) =  -284.600461182     A.U. after   17 cycles
 Normal termination of Gaussian 16 at Wed Apr  9 03:06:53 2025.
 Gaussian 16:  ES64L-G16RevC.01  3-Jul-2019

 ----------------------------------------------------------------------
 #t hf aug-cc-pvdz iop(5/13=1,5/36=2,99/5=2) pseudo=read geom=check gue
 ss=(read,tcheck) scf=(maxcycle=1)
 ----------------------------------------------------------------------
 -----
 title
 -----
 Structure from the checkpoint file:  "Grambow2020_b97d3_006558_forward_mol1.chk"
 Charge =  0 Multiplicity = 1

                         Standard orientation:
 ---------------------------------------------------------------------
 Center     Atomic      Atomic             Coordinates (Angstroms)
 Number     Number       Type             X           Y           Z
 ---------------------------------------------------------------------
      1          8           0        1.819516   -0.563386   -0.196442
      2          6           0        0.997583    0.166963    0.442965
      3          6           0        0.124731    1.229456   -0.305694
      4          7           0       -1.226548    0.656517   -0.106557
      5          6           0       -1.320711   -0.709189   -0.354039
      6          6           0       -0.715769   -0.558738    0.850597
      7          1           0        0.758946   -1.288021   -1.225587
      8          1           0        1.263434    0.442195    1.486291
      9          1           0        0.379296    1.339369   -1.368299
     10          1           0        0.174982    2.209317    0.189372
     11          1           0        0.018333   -1.477974   -1.477789
     12          1           0       -2.017315   -1.293401   -0.945702
     13          1           0       -1.062969   -0.790967    1.856176
 ---------------------------------------------------------------------

 SCF Done:  E(RHF) =  -285.944138318     A.U. after    2 cycles

 The electronic state is 1-A.
 Alpha  occ. eigenvalues --  -21.00317 -15.77738 -11.54365 -11.49893 -11.44104
 Alpha  occ. eigenvalues --  -11.41328  -1.66366  -1.50971  -1.10931  -0.96502
 Alpha  occ. eigenvalues --   -0.86470  -0.80213  -0.72566  -0.68173  -0.62451
 Alpha  occ. eigenvalues --   -0.58538  -0.56137  -0.48638  -0.46330  -0.43030
 Alpha  occ. eigenvalues --   -0.37162  -0.28045  -0.25329
 Alpha virt. eigenvalues --    0.03501   0.04087   0.05401   0.05981   0.06351
 Alpha virt. eigenvalues --    0.07382   0.08180   0.09184   0.09867   0.11117
 Alpha virt. eigenvalues --    0.11922   0.12775   0.13449   0.13714   0.14123

 Mulliken charges:
               1
     1  O   -2.994523
     2  C    1.822371
     3  C   -2.596518
     4  N   -1.852743
     5  C    0.534050
     6  C   -1.209060
     7  H    0.012291
     8  H    1.329325
     9  H    1.441350
    10  H    1.419228
    11  H   -0.124677
    12  H    1.145828
    13  H    1.073077
 Sum of Mulliken charges =  -0.00000

 Dipole moment (field-independent basis, Debye):
    X=             -1.8542    Y=             -0.0807    Z=              0.2531  Tot=              1.8731

 Test job not archived.
 1\1\GINC-SE250\SP\RHF\Aug-CC-pVDZ\C4H7N1O1\OHZDE\09-Apr-2025\0\\#t hf
 aug-cc-pvdz iop(5/13=1,5/36=2,99/5=2) pseudo=read geom=check guess=(re
 ad,tcheck) scf=(maxcycle=1)\\title\\0,1\O,0,-1.50398114,-0.70437343,1.
 03506408\C,0,-1.20910153,0.04197066,0.04823039\C,0,-0.24931309,1.26521
 167,0.2319116\N,0,0.90550424,0.82650949,-0.58528341\C,0,1.30569052,-0.
 48783439,-0.36706879\C,0,0.18021608,-0.52951132,-1.12291765\H,0,0.0142
 7822,-1.19843991,1.43485062\H,0,-1.98211679,0.17746224,-0.73856622\H,0
 ,0.02723113,1.45538191,1.2775563\H,0,-0.6746148,2.17742256,-0.20937471

 Normal termination of Gaussian 16 at Wed Apr  9 03:06:57 2025.
