 Gaussian 16, Revision C.01,

 ----------------------------------------------------------------------
 #t hf aug-cc-pvdz symm=none int=(grid=ultrafine) guess=(read,tcheck) s
 table=(opt,rrhf)
 ----------------------------------------------------------------------
 -----
 title
 -----
 Symbolic Z-matrix:
 Charge =  0 Multiplicity = 1

 SCF Done:  E(RHF) =  -283.640916696     A.U. after   15 cycles
 Normal termination of Gaussian 16 at Wed Apr  9 17:32:22 2025.
 Gaussian 16:  ES64L-G16RevC.01  3-Jul-2019

 ----------------------------------------------------------------------
 #t hf aug-cc-pvdz iop(5/13=1,5/36=2,99/5=2) pseudo=read geom=check gue
 ss=(read,tcheck) scf=(maxcycle=1)
 ----------------------------------------------------------------------
 -----
 title
 -----
 Structure from the checkpoint file:  "Grambow2020_b97d3_007170_reverse_mol2.chk"
 Charge =  0 Multiplicity = 1

                         Standard orientation:
 ---------------------------------------------------------------------
 Center     Atomic      Atomic             Coordinates (Angstroms)
 Number     Number       Type             X           Y           Z
 ---------------------------------------------------------------------
      1          6           0        2.634372    0.703146    0.038373
      2          7           0        1.823551   -0.515092   -0.086368
      3          6           0        0.501534   -0.479921   -0.015941
      4          8           0       -2.808735    0.742524   -0.029308
      5          6           0       -0.727222   -0.375075    0.003225
      6          6           0       -2.151041   -0.295860    0.038721
      7          1           0        3.633486    0.505017   -0.368328
      8          1           0        2.724525    1.034442    1.084401
      9          1           0        2.162373    1.498202   -0.548383
     10          1           0        2.281765   -1.392427    0.146668
     11          1           0       -2.642992   -1.293513    0.138414
 ---------------------------------------------------------------------

 SCF Done:  E(RHF) =  -284.914307044     A.U. after    2 cycles

 The electronic state is 1-A.
 Alpha  occ. eigenvalues --  -21.04831 -15.80199 -11.50957 -11.46800 -11.42557
 Alpha  occ. eigenvalues --  -11.40501  -1.68417  -1.43856  -1.12106  -1.01983
 Alpha  occ. eigenvalues --   -0.90393  -0.75709  -0.68109  -0.63924  -0.62467
 Alpha  occ. eigenvalues --   -0.56829  -0.51963  -0.51138  -0.43966  -0.38232
 Alpha  occ. eigenvalues --   -0.29344  -0.29018
 Alpha virt. eigenvalues --    0.02452   0.04605   0.04862   0.05607   0.06782
 Alpha virt. eigenvalues --    0.09759   0.10308   0.11492   0.11802   0.12667
 Alpha virt. eigenvalues --    0.12984   0.13055   0.14324   0.14968   0.15481

 Mulliken charges:
               1
     1  C   -3.533447
     2  N   -3.702188
     3  C    1.390099
     4  O   -2.584968
     5  C    1.724667
     6  C    0.894667
     7  H    1.337192
     8  H    1.279854
     9  H    1.289832
    10  H    0.811078
    11  H    1.093214
 Sum of Mulliken charges =  -0.00000

 Dipole moment (field-independent basis, Debye):
    X=              4.1097    Y=             -0.9510    Z=              0.3597  Tot=              4.2336

 Test job not archived.
 1\1\GINC-SE113\SP\RHF\Aug-CC-pVDZ\C4H5N1O1\OHZDE\09-Apr-2025\0\\#t hf
 aug-cc-pvdz iop(5/13=1,5/36=2,99/5=2) pseudo=read geom=check guess=(re
 ad,tcheck) scf=(maxcycle=1)\\title\\0,1\C,0,-2.08795047,0.06738743,-0.
 41826084\N,0,-0.73344981,0.09220848,-0.98554237\C,0,0.34305173,0.08116
 58,-0.21421341\O,0,2.41764451,-0.31383149,2.61288262\C,0,1.30554269,0.
 01380235,0.55408062\C,0,2.44370763,-0.04443766,1.41197527\H,0,-2.79169
 657,-0.24539727,-1.19915555\H,0,-2.3901112,1.05084241,-0.02637394\H,0,
 -2.11187948,-0.66408759,0.39632512\H,0,-0.63771634,0.48733948,-1.91757

 Normal termination of Gaussian 16 at Wed Apr  9 17:32:25 2025.
