 Gaussian 16, Revision C.01,

 ----------------------------------------------------------------------
 #t hf aug-cc-pvdz symm=none int=(grid=ultrafine) guess=(read,tcheck) s
 table=(opt,rrhf)
 ----------------------------------------------------------------------
 -----
 title
 -----
 Symbolic Z-matrix:
 Charge =  0 Multiplicity = 1

 SCF Done:  E(RHF) =  -317.569508213     A.U. after   17 cycles
 Normal termination of Gaussian 16 at Wed Apr  9 19:00:34 2025.
 Gaussian 16:  ES64L-G16RevC.01  3-Jul-2019

 ----------------------------------------------------------------------
 #t hf aug-cc-pvdz iop(5/13=1,5/36=2,99/5=2) pseudo=read geom=check gue
 ss=(read,tcheck) scf=(maxcycle=1)
 ----------------------------------------------------------------------
 -----
 title
 -----
 Structure from the checkpoint file:  "Grambow2020_wb97xd3_007986_reverse_mol1.chk"
 Charge =  0 Multiplicity = 1

                         Standard orientation:
 ---------------------------------------------------------------------
 Center     Atomic      Atomic             Coordinates (Angstroms)
 Number     Number       Type             X           Y           Z
 ---------------------------------------------------------------------
      1          7           0       -2.077667   -0.001743    0.058653
      2          6           0       -0.683646   -0.001530    0.129736
      3          7           0       -0.111696    1.230634   -0.403114
      4          6           0        1.132807    1.177725   -0.093681
      5          6           0        1.339029    0.001578    0.718878
      6          6           0        1.136439   -1.175078   -0.093895
      7          7           0       -0.108003   -1.232325   -0.403573
      8          1           0       -2.508214   -0.840550    0.411620
      9          1           0       -2.505847    0.842922    0.400643
     10          1           0        1.870079    1.914427   -0.387178
     11          1           0       -0.200462   -0.001484    1.231671
     12          1           0        1.878232   -1.907447   -0.386737
 ---------------------------------------------------------------------

 SCF Done:  E(RHF) =  -319.033427417     A.U. after    2 cycles

 The electronic state is 1-A.
 Alpha  occ. eigenvalues --  -15.74703 -15.73961 -15.73934 -11.49271 -11.47029
 Alpha  occ. eigenvalues --  -11.46834 -11.43341  -1.57435  -1.32516  -1.32416
 Alpha  occ. eigenvalues --   -1.06822  -0.94016  -0.89472  -0.74321  -0.70440
 Alpha  occ. eigenvalues --   -0.68243  -0.64139  -0.56596  -0.55611  -0.53406
 Alpha  occ. eigenvalues --   -0.42476  -0.39641  -0.37260  -0.35723  -0.32293
 Alpha virt. eigenvalues --    0.02965   0.04610   0.04888   0.05302   0.06852
 Alpha virt. eigenvalues --    0.07030   0.09651   0.09908   0.10957   0.11729
 Alpha virt. eigenvalues --    0.12198   0.13904   0.14621   0.14918   0.14945

 Mulliken charges:
               1
     1  N   -2.983647
     2  C    2.783067
     3  N   -2.569988
     4  C    1.238633
     5  C   -2.655789
     6  C    1.242924
     7  N   -2.572154
     8  H    0.558286
     9  H    0.555816
    10  H    1.451264
    11  H    1.499509
    12  H    1.452078
 Sum of Mulliken charges =  -0.00000

 Dipole moment (field-independent basis, Debye):
    X=              1.1741    Y=              0.0112    Z=              0.7563  Tot=              1.3966

 Test job not archived.
 1\1\GINC-SE168\SP\RHF\Aug-CC-pVDZ\C4H5N3\OHZDE\09-Apr-2025\0\\#t hf au
 g-cc-pvdz iop(5/13=1,5/36=2,99/5=2) pseudo=read geom=check guess=(read
 ,tcheck) scf=(maxcycle=1)\\title\\0,1\N,0,2.03809249,-0.19938877,0.009
 39718\C,0,0.65121335,-0.05189502,0.06561982\N,0,-0.04140248,-1.3027460
 7,-0.22582294\C,0,-1.27220938,-1.07189433,0.05552491\C,0,-1.35699966,0
 .25287748,0.62463855\C,0,-1.04944674,1.22615816,-0.39727023\N,0,0.1918
 9595,1.10284362,-0.70004662\H,0,2.55050321,0.64629915,0.1986081\H,0,2.
 38607026,-0.99966253,0.51162045\H,0,-2.07955164,-1.77693615,-0.0979535

 Normal termination of Gaussian 16 at Wed Apr  9 19:00:39 2025.
