 Gaussian 16, Revision C.01,

 ----------------------------------------------------------------------
 #t hf aug-cc-pvdz symm=none int=(grid=ultrafine) guess=(read,tcheck) s
 table=(opt,rrhf)
 ----------------------------------------------------------------------
 -----
 title
 -----
 Symbolic Z-matrix:
 Charge =  0 Multiplicity = 1

 SCF Done:  E(RHF) =  -268.851923235     A.U. after   14 cycles
 Normal termination of Gaussian 16 at Wed Apr  9 17:55:53 2025.
 Gaussian 16:  ES64L-G16RevC.01  3-Jul-2019

 ----------------------------------------------------------------------
 #t hf aug-cc-pvdz iop(5/13=1,5/36=2,99/5=2) pseudo=read geom=check gue
 ss=(read,tcheck) scf=(maxcycle=1)
 ----------------------------------------------------------------------
 -----
 title
 -----
 Structure from the checkpoint file:  "Grambow2020_wb97xd3_006252_reverse_mol2.chk"
 Charge =  0 Multiplicity = 1

                         Standard orientation:
 ---------------------------------------------------------------------
 Center     Atomic      Atomic             Coordinates (Angstroms)
 Number     Number       Type             X           Y           Z
 ---------------------------------------------------------------------
      1          6           0        1.609711   -0.951746    0.470267
      2          6           0        1.512133    0.319749   -0.313712
      3          6           0        0.492673    1.181295   -0.307683
      4          6           0       -0.786387    1.022392    0.399459
      5          6           0       -1.595821   -0.028428    0.268597
      6          8           0       -1.384530   -1.107231   -0.515139
      7          1           0        0.805703   -1.038500    1.200904
      8          1           0        1.574322   -1.833727   -0.177257
      9          1           0        2.565661   -0.993793    0.996686
     10          1           0        2.381529    0.578287   -0.912096
     11          1           0       -0.573903   -0.964964   -1.018377
     12          1           0        0.611967    2.103229   -0.871720
     13          1           0       -1.139310    1.842821    1.012701
     14          1           0       -2.543570   -0.095082    0.788704
 ---------------------------------------------------------------------

 SCF Done:  E(RHF) =  -270.122676613     A.U. after    2 cycles

 The electronic state is 1-A.
 Alpha  occ. eigenvalues --  -21.09803 -11.45479 -11.44098 -11.39638 -11.39273
 Alpha  occ. eigenvalues --  -11.36411  -1.75362  -1.24104  -1.10196  -0.98580
 Alpha  occ. eigenvalues --   -0.84921  -0.73925  -0.68101  -0.63087  -0.60108
 Alpha  occ. eigenvalues --   -0.56637  -0.53616  -0.50406  -0.47934  -0.45688
 Alpha  occ. eigenvalues --   -0.43591  -0.36120  -0.27065
 Alpha virt. eigenvalues --    0.03482   0.05120   0.05390   0.05595   0.06021
 Alpha virt. eigenvalues --    0.06652   0.07171   0.08048   0.11279   0.11921
 Alpha virt. eigenvalues --    0.12811   0.12871   0.13758   0.14586   0.14814

 Mulliken charges:
               1
     1  C   -4.674173
     2  C   -0.890281
     3  C   -0.565282
     4  C   -1.457946
     5  C    0.759598
     6  O   -3.518746
     7  H    1.530555
     8  H    1.083920
     9  H    1.124535
    10  H    1.374159
    11  H    1.163624
    12  H    1.263845
    13  H    1.240697
    14  H    1.565495
 Sum of Mulliken charges =  -0.00000

 Dipole moment (field-independent basis, Debye):
    X=              0.3404    Y=             -0.2885    Z=             -0.0749  Tot=              0.4524

 Test job not archived.
 1\1\GINC-SE162\SP\RHF\Aug-CC-pVDZ\C5H8O1\OHZDE\09-Apr-2025\0\\#t hf au
 g-cc-pvdz iop(5/13=1,5/36=2,99/5=2) pseudo=read geom=check guess=(read
 ,tcheck) scf=(maxcycle=1)\\title\\0,1\C,0,-1.26655715,-0.94399165,-0.5
 1675416\C,0,-1.02100397,0.53218534,-0.55482697\C,0,0.16652228,1.141358
 07,-0.53788617\C,0,1.48037662,0.49877042,-0.38901822\C,0,1.81434903,-0
 .31302826,0.61396551\O,0,1.02063243,-0.68143674,1.64206676\H,0,-0.3433
 31,-1.51030455,-0.63811487\H,0,-1.73288657,-1.25563009,0.42337746\H,0,
 -1.95772174,-1.22853866,-1.31302656\H,0,-1.90334027,1.15957815,-0.6476

 Normal termination of Gaussian 16 at Wed Apr  9 17:55:57 2025.
