 Gaussian 16, Revision C.01,

 ----------------------------------------------------------------------
 #t hf aug-cc-pvdz symm=none int=(grid=ultrafine) guess=(read,tcheck) s
 table=(opt,rrhf)
 ----------------------------------------------------------------------
 -----
 title
 -----
 Symbolic Z-matrix:
 Charge =  0 Multiplicity = 1

 SCF Done:  E(RHF) =  -359.596623959     A.U. after   16 cycles
 Normal termination of Gaussian 16 at Wed Apr  9 19:33:53 2025.
 Gaussian 16:  ES64L-G16RevC.01  3-Jul-2019

 ----------------------------------------------------------------------
 #t hf aug-cc-pvdz iop(5/13=1,5/36=2,99/5=2) pseudo=read geom=check gue
 ss=(read,tcheck) scf=(maxcycle=1)
 ----------------------------------------------------------------------
 -----
 title
 -----
 Structure from the checkpoint file:  "Grambow2020_wb97xd3_009405_forward_mol1.chk"
 Charge =  0 Multiplicity = 1

                         Standard orientation:
 ---------------------------------------------------------------------
 Center     Atomic      Atomic             Coordinates (Angstroms)
 Number     Number       Type             X           Y           Z
 ---------------------------------------------------------------------
      1          8           0       -1.736583   -0.085496   -0.855755
      2          6           0       -1.090480    0.144842    0.393489
      3          6           0       -0.265278   -1.104835    0.688201
      4          8           0        0.837443   -1.219262   -0.220865
      5          6           0        1.566947   -0.117385   -0.374046
      6          7           0        1.196696    1.041434    0.034713
      7          6           0       -0.186156    1.329450    0.376290
      8          1           0       -1.800435    0.770449   -1.285310
      9          1           0       -1.846393    0.252321    1.181990
     10          1           0        0.116738   -1.067127    1.712597
     11          1           0       -0.845848   -2.013640    0.546866
     12          1           0        2.503039   -0.269078   -0.894219
     13          1           0       -0.241883    2.064957    1.169119
     14          1           0        0.780834    1.897715   -0.564677
 ---------------------------------------------------------------------

 SCF Done:  E(RHF) =  -361.203322576     A.U. after    2 cycles

 The electronic state is 1-A.
 Alpha  occ. eigenvalues --  -21.10016 -21.05465 -15.77438 -11.47653 -11.46654
 Alpha  occ. eigenvalues --  -11.43303 -11.36405  -1.83267  -1.70041  -1.42443
 Alpha  occ. eigenvalues --   -1.14505  -0.96722  -0.93684  -0.76548  -0.73676
 Alpha  occ. eigenvalues --   -0.66405  -0.64202  -0.62072  -0.58213  -0.53869
 Alpha  occ. eigenvalues --   -0.52188  -0.46574  -0.44591  -0.38891  -0.34609
 Alpha  occ. eigenvalues --   -0.31221  -0.23094
 Alpha virt. eigenvalues --    0.03565   0.05046   0.05514   0.05784   0.06198
 Alpha virt. eigenvalues --    0.06712   0.07196   0.09822   0.10842   0.11799
 Alpha virt. eigenvalues --    0.12539   0.13105   0.14079   0.14510   0.15259

 Mulliken charges:
               1
     1  O   -3.045093
     2  C    0.605665
     3  C   -1.423418
     4  O   -3.149995
     5  C    2.133756
     6  N   -3.181241
     7  C   -1.243957
     8  H    0.764628
     9  H    1.683176
    10  H    1.486536
    11  H    1.300230
    12  H    1.810618
    13  H    1.311448
    14  H    0.947646
 Sum of Mulliken charges =   0.00000

 Dipole moment (field-independent basis, Debye):
    X=              1.1493    Y=             -1.1537    Z=              0.2225  Tot=              1.6436

 Test job not archived.
 1\1\GINC-SE118\SP\RHF\Aug-CC-pVDZ\C4H7N1O2\OHZDE\09-Apr-2025\0\\#t hf
 aug-cc-pvdz iop(5/13=1,5/36=2,99/5=2) pseudo=read geom=check guess=(re
 ad,tcheck) scf=(maxcycle=1)\\title\\0,1\O,0,-1.19658178,-0.35624746,1.
 49273351\C,0,-1.02870175,0.10876901,0.15606185\C,0,-0.11401959,1.32797
 004,0.23612703\O,0,1.21766972,0.94840413,0.60764046\C,0,1.7341468,-0.0
 6661136,-0.07994116\N,0,1.04090711,-0.83634684,-0.83754058\C,0,-0.4076
 973,-0.90434392,-0.74357599\H,0,-1.28542791,-1.31016411,1.43454105\H,0
 ,-1.99866968,0.4315157,-0.24354669\H,0,-0.08506942,1.837336,-0.7315779

 Normal termination of Gaussian 16 at Wed Apr  9 19:33:58 2025.
