 Gaussian 16, Revision C.01,

 ----------------------------------------------------------------------
 #t hf aug-cc-pvdz symm=none int=(grid=ultrafine) guess=(read,tcheck) s
 table=(opt,rrhf)
 ----------------------------------------------------------------------
 -----
 title
 -----
 Symbolic Z-matrix:
 Charge =  0 Multiplicity = 1

 SCF Done:  E(RHF) =  -321.399603073     A.U. after   17 cycles
 Normal termination of Gaussian 16 at Wed Apr  9 03:40:12 2025.
 Gaussian 16:  ES64L-G16RevC.01  3-Jul-2019

 ----------------------------------------------------------------------
 #t hf aug-cc-pvdz iop(5/13=1,5/36=2,99/5=2) pseudo=read geom=check gue
 ss=(read,tcheck) scf=(maxcycle=1)
 ----------------------------------------------------------------------
 -----
 title
 -----
 Structure from the checkpoint file:  "Grambow2020_wb97xd3_007494_reverse_mol1.chk"
 Charge =  0 Multiplicity = 1

                         Standard orientation:
 ---------------------------------------------------------------------
 Center     Atomic      Atomic             Coordinates (Angstroms)
 Number     Number       Type             X           Y           Z
 ---------------------------------------------------------------------
      1          8           0       -1.207883    1.727131    0.239929
      2          6           0       -0.515471    0.752259    0.015219
      3          6           0       -1.156000   -0.579471   -0.053143
      4          6           0       -1.759904   -1.610746   -0.144149
      5          6           0        0.886694    0.842151   -0.298488
      6          6           0        1.554141   -0.788386    0.708902
      7          7           0        1.675005   -0.284847   -0.521022
      8          1           0       -2.310946   -2.519165   -0.216176
      9          1           0        1.293480    1.833112   -0.472027
     10          1           0        1.191625   -1.796533    0.892201
     11          1           0        1.965217   -0.220209    1.529226
     12          1           0        1.741896   -0.815164   -1.375545
 ---------------------------------------------------------------------

 SCF Done:  E(RHF) =  -322.864262775     A.U. after    2 cycles

 The electronic state is 1-A.
 Alpha  occ. eigenvalues --  -21.01601 -15.81549 -11.50790 -11.48550 -11.43086
 Alpha  occ. eigenvalues --  -11.41036 -11.40915  -1.68682  -1.48722  -1.13140
 Alpha  occ. eigenvalues --   -1.03323  -0.96407  -0.86545  -0.74845  -0.71395
 Alpha  occ. eigenvalues --   -0.66531  -0.63176  -0.59995  -0.51108  -0.49571
 Alpha  occ. eigenvalues --   -0.41675  -0.38780  -0.36878  -0.27474  -0.27163
 Alpha virt. eigenvalues --    0.02876   0.03957   0.04560   0.05165   0.06114
 Alpha virt. eigenvalues --    0.07201   0.10316   0.10472   0.10665   0.10927
 Alpha virt. eigenvalues --    0.11759   0.13161   0.13936   0.14771   0.15125

 Mulliken charges:
               1
     1  O   -3.662690
     2  C    4.497761
     3  C    2.719524
     4  C   -3.477886
     5  C   -0.978831
     6  C   -1.927691
     7  N   -2.790186
     8  H    0.752363
     9  H    1.429381
    10  H    1.495659
    11  H    1.351596
    12  H    0.590999
 Sum of Mulliken charges =  -0.00000

 Dipole moment (field-independent basis, Debye):
    X=              2.7298    Y=             -3.2913    Z=             -0.6120  Tot=              4.3196

 Test job not archived.
 1\1\GINC-SE453\SP\RHF\Aug-CC-pVDZ\C5H5N1O1\OHZDE\09-Apr-2025\0\\#t hf
 aug-cc-pvdz iop(5/13=1,5/36=2,99/5=2) pseudo=read geom=check guess=(re
 ad,tcheck) scf=(maxcycle=1)\\title\\0,1\O,0,1.57879055,1.92720335,0.48
 6365\C,0,0.81587184,0.98659064,0.3701417\C,0,1.37125638,-0.38395046,0.
 32985453\C,0,1.89751986,-1.46039062,0.35873546\C,0,-0.6162701,1.132945
 57,0.38053175\C,0,-1.09756961,-0.24275581,-1.0318306\N,0,-1.47787354,0
 .0509554,0.21314972\H,0,2.38151393,-2.40872225,0.38055317\H,0,-1.01313
 733,2.10882916,0.64080569\H,0,-0.74218343,-1.230318,-1.31431471\H,0,-1

 Normal termination of Gaussian 16 at Wed Apr  9 03:40:16 2025.
