 Gaussian 16, Revision C.01,

 ----------------------------------------------------------------------
 #t hf aug-cc-pvdz symm=none int=(grid=ultrafine) guess=(read,tcheck) s
 table=(opt,rrhf)
 ----------------------------------------------------------------------
 -----
 title
 -----
 Symbolic Z-matrix:
 Charge =  0 Multiplicity = 1

 SCF Done:  E(RHF) =  -262.508376021     A.U. after   18 cycles
 Normal termination of Gaussian 16 at Wed Apr  9 17:02:23 2025.
 Gaussian 16:  ES64L-G16RevC.01  3-Jul-2019

 ----------------------------------------------------------------------
 #t hf aug-cc-pvdz iop(5/13=1,5/36=2,99/5=2) pseudo=read geom=check gue
 ss=(read,tcheck) scf=(maxcycle=1)
 ----------------------------------------------------------------------
 -----
 title
 -----
 Structure from the checkpoint file:  "Grambow2020_b97d3_006907_forward_mol1.chk"
 Charge =  0 Multiplicity = 1

                         Standard orientation:
 ---------------------------------------------------------------------
 Center     Atomic      Atomic             Coordinates (Angstroms)
 Number     Number       Type             X           Y           Z
 ---------------------------------------------------------------------
      1          6           0        0.854878    0.610525    0.543821
      2          6           0       -0.465214    1.133353   -0.037392
      3          7           0       -1.406566    0.223900   -0.187312
      4          7           0       -0.977134   -0.995616    0.099643
      5          6           0        0.401161   -0.988854    0.104497
      6          6           0        1.317334   -0.032255   -0.595411
      7          1           0        1.380792    1.012710    1.416135
      8          1           0       -0.557444    2.139994   -0.434625
      9          1           0        0.885102   -1.882010    0.503193
     10          1           0        2.328497   -0.205296   -0.964109
 ---------------------------------------------------------------------

 SCF Done:  E(RHF) =  -263.730977178     A.U. after    2 cycles

 The electronic state is 1-A.
 Alpha  occ. eigenvalues --  -15.76485 -15.75774 -11.49625 -11.47476 -11.45083
 Alpha  occ. eigenvalues --  -11.42044  -1.58428  -1.27782  -1.15108  -0.89694
 Alpha  occ. eigenvalues --   -0.87355  -0.75880  -0.74768  -0.63899  -0.58286
 Alpha  occ. eigenvalues --   -0.54676  -0.51994  -0.44768  -0.37370  -0.35911
 Alpha  occ. eigenvalues --   -0.29692
 Alpha virt. eigenvalues --    0.02932   0.04469   0.04737   0.05561   0.06008
 Alpha virt. eigenvalues --    0.09303   0.10108   0.10657   0.12095   0.12768
 Alpha virt. eigenvalues --    0.13151   0.13812   0.14330   0.14621   0.15610

 Mulliken charges:
               1
     1  C   -1.563877
     2  C    0.396921
     3  N   -1.645230
     4  N   -1.752905
     5  C    0.280191
     6  C   -0.995506
     7  H    1.045445
     8  H    1.534001
     9  H    1.476957
    10  H    1.224003
 Sum of Mulliken charges =  -0.00000

 Dipole moment (field-independent basis, Debye):
    X=              3.9781    Y=              1.2160    Z=              0.9037  Tot=              4.2569

 Test job not archived.
 1\1\GINC-SE045\SP\RHF\Aug-CC-pVDZ\C4H4N2\OHZDE\09-Apr-2025\0\\#t hf au
 g-cc-pvdz iop(5/13=1,5/36=2,99/5=2) pseudo=read geom=check guess=(read
 ,tcheck) scf=(maxcycle=1)\\title\\0,1\C,0,0.29018331,0.64115316,-0.505
 65089\C,0,1.25013031,-0.44991653,-0.01384738\N,0,0.71296699,-1.6455104
 8,0.11931659\N,0,-0.59303939,-1.63675798,-0.10032726\C,0,-1.04358469,-
 0.33589158,-0.03308036\C,0,-0.40978517,0.81988316,0.67882442\H,0,0.449
 79548,1.30332437,-1.36316049\H,0,2.24955756,-0.21609805,0.3412607\H,0,
 -2.06595643,-0.16280894,-0.37320205\H,0,-0.88879598,1.70096687,1.10611

 Normal termination of Gaussian 16 at Wed Apr  9 17:02:29 2025.
