 Gaussian 16, Revision C.01,

 ----------------------------------------------------------------------
 #t hf aug-cc-pvdz symm=none int=(grid=ultrafine) guess=(read,tcheck) s
 table=(opt,rrhf)
 ----------------------------------------------------------------------
 -----
 title
 -----
 Symbolic Z-matrix:
 Charge =  0 Multiplicity = 1

 SCF Done:  E(RHF) =  -295.758494911     A.U. after   15 cycles
 Normal termination of Gaussian 16 at Wed Apr  9 16:18:42 2025.
 Gaussian 16:  ES64L-G16RevC.01  3-Jul-2019

 ----------------------------------------------------------------------
 #t hf aug-cc-pvdz iop(5/13=1,5/36=2,99/5=2) pseudo=read geom=check gue
 ss=(read,tcheck) scf=(maxcycle=1)
 ----------------------------------------------------------------------
 -----
 title
 -----
 Structure from the checkpoint file:  "Grambow2020_b97d3_006782_reverse_mol1.chk"
 Charge =  0 Multiplicity = 1

                         Standard orientation:
 ---------------------------------------------------------------------
 Center     Atomic      Atomic             Coordinates (Angstroms)
 Number     Number       Type             X           Y           Z
 ---------------------------------------------------------------------
      1          7           0       -2.003636    0.035017   -0.010834
      2          6           0       -0.701013   -0.236240   -0.002128
      3          7           0        0.213918   -1.234055    0.000170
      4          7           0        1.402759   -0.507960   -0.001411
      5          6           0        1.215774    0.827133   -0.000025
      6          7           0       -0.096453    1.029309    0.003172
      7          1           0       -1.316272    1.350921    0.013167
      8          1           0       -2.684131   -0.716222    0.054183
      9          1           0        2.288218   -1.002708    0.006998
     10          1           0        2.007502    1.566469    0.000891
 ---------------------------------------------------------------------

 SCF Done:  E(RHF) =  -297.106395635     A.U. after    2 cycles

 The electronic state is 1-A.
 Alpha  occ. eigenvalues --  -15.82801 -15.76038 -15.73069 -15.69243 -11.50553
 Alpha  occ. eigenvalues --  -11.45442  -1.64993  -1.39135  -1.26697  -1.14172
 Alpha  occ. eigenvalues --   -0.92885  -0.79676  -0.76928  -0.66785  -0.64983
 Alpha  occ. eigenvalues --   -0.56245  -0.53576  -0.45518  -0.40713  -0.40205
 Alpha  occ. eigenvalues --   -0.39956  -0.25338
 Alpha virt. eigenvalues --    0.02663   0.04921   0.05892   0.07131   0.09168
 Alpha virt. eigenvalues --    0.09745   0.10903   0.13181   0.13541   0.13727
 Alpha virt. eigenvalues --    0.15501   0.16346   0.16398   0.18055   0.18139

 Mulliken charges:
               1
     1  N   -2.865052
     2  C    4.226082
     3  N   -1.731556
     4  N   -1.897948
     5  C    1.201460
     6  N   -2.711765
     7  H    0.645850
     8  H    0.786299
     9  H    0.880576
    10  H    1.466054
 Sum of Mulliken charges =  -0.00000

 Dipole moment (field-independent basis, Debye):
    X=              4.2052    Y=              1.4941    Z=              0.1171  Tot=              4.4643

 Test job not archived.
 1\1\GINC-SE125\SP\RHF\Aug-CC-pVDZ\C2H4N4\OHZDE\09-Apr-2025\0\\#t hf au
 g-cc-pvdz iop(5/13=1,5/36=2,99/5=2) pseudo=read geom=check guess=(read
 ,tcheck) scf=(maxcycle=1)\\title\\0,1\N,0,2.02840647,-0.1018388,-0.149
 3101\C,0,0.72353674,-0.3537991,-0.08364004\N,0,-0.20973298,-1.33389066
 ,-0.11782622\N,0,-1.37932361,-0.59670645,0.05297813\C,0,-1.16483945,0.
 72855306,0.17595872\N,0,0.14722951,0.91295589,0.09053549\H,0,1.3691845
 8,1.21803019,0.01808924\H,0,2.68586027,-0.85076004,-0.34560342\H,0,-2.
 2730582,-1.0763171,0.06281727\H,0,-1.93849534,1.47403302,0.31440094\\V

 Normal termination of Gaussian 16 at Wed Apr  9 16:18:45 2025.
