 Gaussian 16, Revision C.01,

 ----------------------------------------------------------------------
 #t hf aug-cc-pvdz symm=none int=(grid=ultrafine) guess=(read,tcheck) s
 table=(opt,rrhf)
 ----------------------------------------------------------------------
 -----
 title
 -----
 Symbolic Z-matrix:
 Charge =  0 Multiplicity = 1

 SCF Done:  E(RHF) =  -305.846648728     A.U. after   13 cycles
 Normal termination of Gaussian 16 at Wed Apr  9 03:05:46 2025.
 Gaussian 16:  ES64L-G16RevC.01  3-Jul-2019

 ----------------------------------------------------------------------
 #t hf aug-cc-pvdz iop(5/13=1,5/36=2,99/5=2) pseudo=read geom=check gue
 ss=(read,tcheck) scf=(maxcycle=1)
 ----------------------------------------------------------------------
 -----
 title
 -----
 Structure from the checkpoint file:  "Grambow2020_b97d3_006519_reverse_mol2.chk"
 Charge =  0 Multiplicity = 1

                         Standard orientation:
 ---------------------------------------------------------------------
 Center     Atomic      Atomic             Coordinates (Angstroms)
 Number     Number       Type             X           Y           Z
 ---------------------------------------------------------------------
      1          8           0       -0.693031   -1.304118   -0.691457
      2          6           0       -1.107523   -0.829896    0.563601
      3          6           0       -1.480074    0.633322    0.523881
      4          6           0        2.436244   -0.462094    0.120131
      5          6           0        2.193166    0.845212   -0.046361
      6          8           0       -1.386617    1.288945   -0.503173
      7          1           0       -0.746248   -0.522768   -1.286415
      8          1           0       -1.981488   -1.396188    0.941615
      9          1           0       -0.306943   -0.938556    1.321446
     10          1           0       -1.835414    1.082736    1.478476
     11          1           0        3.330758   -0.815741    0.636366
     12          1           0        1.746767   -1.217359   -0.259615
     13          1           0        1.302029    1.198941   -0.566690
     14          1           0        2.876840    1.611043    0.324345
 ---------------------------------------------------------------------

 SCF Done:  E(RHF) =  -307.217101225     A.U. after    2 cycles

 The electronic state is 1-A.
 Alpha  occ. eigenvalues --  -21.08603 -21.07749 -11.50762 -11.43649 -11.40665
 Alpha  occ. eigenvalues --  -11.36874  -1.75839  -1.68998  -1.12681  -1.07493
 Alpha  occ. eigenvalues --   -0.82357  -0.81691  -0.70138  -0.65150  -0.63201
 Alpha  occ. eigenvalues --   -0.59545  -0.55149  -0.51153  -0.49399  -0.44450
 Alpha  occ. eigenvalues --   -0.43062  -0.35564  -0.33581  -0.32526
 Alpha virt. eigenvalues --    0.03482   0.04868   0.05037   0.05584   0.06593
 Alpha virt. eigenvalues --    0.07544   0.07895   0.08481   0.10310   0.10562
 Alpha virt. eigenvalues --    0.11513   0.12851   0.13707   0.14310   0.14894

 Mulliken charges:
               1
     1  O   -2.555171
     2  C   -1.095924
     3  C    0.792376
     4  C   -2.843234
     5  C   -2.842645
     6  O   -2.456314
     7  H    0.892793
     8  H    1.254580
     9  H    1.699904
    10  H    1.560667
    11  H    1.269798
    12  H    1.533010
    13  H    1.480765
    14  H    1.309394
 Sum of Mulliken charges =   0.00000

 Dipole moment (field-independent basis, Debye):
    X=             -0.4284    Y=              0.0387    Z=              0.9710  Tot=              1.0620

 Test job not archived.
 1\1\GINC-SE368\SP\RHF\Aug-CC-pVDZ\C4H8O2\OHZDE\09-Apr-2025\0\\#t hf au
 g-cc-pvdz iop(5/13=1,5/36=2,99/5=2) pseudo=read geom=check guess=(read
 ,tcheck) scf=(maxcycle=1)\\title\\0,1\O,0,-1.63060635,0.39505945,-0.67
 320889\C,0,-1.50826475,-0.57400831,0.33565297\C,0,-1.04471465,0.022301
 37,1.64367256\C,0,1.55046467,-0.19469435,-1.50568488\C,0,2.01677524,0.
 45534681,-0.43057772\O,0,-0.79278517,1.21342605,1.74935578\H,0,-1.3598
 3991,1.23883864,-0.24655204\H,0,-2.47017646,-1.09286983,0.5170491\H,0,
 -0.77342708,-1.35532047,0.05883588\H,0,-0.9376455,-0.68001641,2.500863

 Normal termination of Gaussian 16 at Wed Apr  9 03:05:49 2025.
