 Gaussian 16, Revision C.01,

 ----------------------------------------------------------------------
 #t hf aug-cc-pvdz symm=none int=(grid=ultrafine) guess=(read,tcheck) s
 table=(opt,rrhf)
 ----------------------------------------------------------------------
 -----
 title
 -----
 Symbolic Z-matrix:
 Charge =  0 Multiplicity = 1

 SCF Done:  E(RHF) =  -301.700954186     A.U. after   14 cycles
 Normal termination of Gaussian 16 at Wed Apr  9 03:46:27 2025.
 Gaussian 16:  ES64L-G16RevC.01  3-Jul-2019

 ----------------------------------------------------------------------
 #t hf aug-cc-pvdz iop(5/13=1,5/36=2,99/5=2) pseudo=read geom=check gue
 ss=(read,tcheck) scf=(maxcycle=1)
 ----------------------------------------------------------------------
 -----
 title
 -----
 Structure from the checkpoint file:  "Grambow2020_wb97xd3_007927_forward_mol2.chk"
 Charge =  0 Multiplicity = 1

                         Standard orientation:
 ---------------------------------------------------------------------
 Center     Atomic      Atomic             Coordinates (Angstroms)
 Number     Number       Type             X           Y           Z
 ---------------------------------------------------------------------
      1          6           0       -1.609281    0.793448    0.001105
      2          6           0       -1.662634   -0.775645    0.001275
      3          6           0       -0.151732   -0.676286   -0.002575
      4          7           0        1.035005   -1.215195    0.000048
      5          6           0        1.861187   -0.106737    0.001213
      6          6           0        1.159842    1.077197    0.000242
      7          7           0       -0.145383    0.661252   -0.003601
      8          1           0       -1.999837    1.276035    0.896720
      9          1           0       -2.006814    1.274771   -0.892099
     10          1           0       -2.105491   -1.214134    0.894319
     11          1           0       -2.111879   -1.216101   -0.887651
     12          1           0        2.934306   -0.219919    0.002943
     13          1           0        1.478068    2.105085    0.003082
 ---------------------------------------------------------------------

 SCF Done:  E(RHF) =  -303.128339091     A.U. after    2 cycles

 The electronic state is 1-A.
 Alpha  occ. eigenvalues --  -15.76272 -15.70779 -11.50200 -11.44091 -11.43430
 Alpha  occ. eigenvalues --  -11.39798 -11.37194  -1.60734  -1.32633  -1.17017
 Alpha  occ. eigenvalues --   -0.99650  -0.95880  -0.81735  -0.73043  -0.70723
 Alpha  occ. eigenvalues --   -0.69957  -0.58392  -0.55538  -0.54788  -0.51697
 Alpha  occ. eigenvalues --   -0.50023  -0.46750  -0.37034  -0.34751  -0.29456
 Alpha virt. eigenvalues --    0.03264   0.05223   0.05447   0.05469   0.06019
 Alpha virt. eigenvalues --    0.06265   0.08707   0.10011   0.11633   0.12158
 Alpha virt. eigenvalues --    0.12470   0.13138   0.13429   0.13706   0.14137

 Mulliken charges:
               1
     1  C   -1.866295
     2  C   -3.570591
     3  C    4.123945
     4  N   -3.699203
     5  C    0.395894
     6  C   -0.485337
     7  N   -2.946670
     8  H    1.504712
     9  H    1.506590
    10  H    1.275161
    11  H    1.278106
    12  H    1.359645
    13  H    1.124043
 Sum of Mulliken charges =   0.00000

 Dipole moment (field-independent basis, Debye):
    X=             -2.7989    Y=              2.5788    Z=              0.0088  Tot=              3.8058

 Test job not archived.
 1\1\GINC-SE455\SP\RHF\Aug-CC-pVDZ\C5H6N2\OHZDE\09-Apr-2025\0\\#t hf au
 g-cc-pvdz iop(5/13=1,5/36=2,99/5=2) pseudo=read geom=check guess=(read
 ,tcheck) scf=(maxcycle=1)\\title\\0,1\C,0,-1.39461105,-0.56541591,0.00
 990419\C,0,-1.339271,0.99806945,0.14163337\C,0,0.15998445,0.80012215,0
 .06573597\N,0,1.38001013,1.25849493,0.05136835\C,0,2.12677921,0.102530
 2,-0.08030278\C,0,1.34587809,-1.02873271,-0.14374526\N,0,0.0738456,-0.
 53015065,-0.0438244\H,0,-1.85459902,-0.94311603,-0.90295171\H,0,-1.786
 90861,-1.09426817,0.87819864\H,0,-1.78757597,1.53929664,-0.69024268\H,

 Normal termination of Gaussian 16 at Wed Apr  9 03:46:31 2025.
