 Gaussian 16, Revision C.01,

 ----------------------------------------------------------------------
 #t hf aug-cc-pvdz symm=none int=(grid=ultrafine) guess=(read,tcheck) s
 table=(opt,rrhf)
 ----------------------------------------------------------------------
 -----
 title
 -----
 Symbolic Z-matrix:
 Charge =  0 Multiplicity = 1

 SCF Done:  E(RHF) =  -266.651774877     A.U. after   16 cycles
 Normal termination of Gaussian 16 at Wed Apr  9 03:05:15 2025.
 Gaussian 16:  ES64L-G16RevC.01  3-Jul-2019

 ----------------------------------------------------------------------
 #t hf aug-cc-pvdz iop(5/13=1,5/36=2,99/5=2) pseudo=read geom=check gue
 ss=(read,tcheck) scf=(maxcycle=1)
 ----------------------------------------------------------------------
 -----
 title
 -----
 Structure from the checkpoint file:  "Grambow2020_b97d3_006484_forward_mol1.chk"
 Charge =  0 Multiplicity = 1

                         Standard orientation:
 ---------------------------------------------------------------------
 Center     Atomic      Atomic             Coordinates (Angstroms)
 Number     Number       Type             X           Y           Z
 ---------------------------------------------------------------------
      1          8           0        1.181292    0.839631    0.158206
      2          6           0        1.027214   -0.673219   -0.168517
      3          6           0       -0.281767   -1.179181    0.210261
      4          6           0       -0.944895    0.914473    0.143749
      5          8           0       -1.314075   -0.234454   -0.355722
      6          1           0        1.616174    1.269084   -0.616570
      7          1           0        1.206186   -0.703456   -1.256476
      8          1           0        1.817105   -1.226455    0.355492
      9          1           0       -0.503538   -1.392997    1.257857
     10          1           0       -1.029273    1.802411   -0.495601
     11          1           0       -0.847702    1.037560    1.222464
 ---------------------------------------------------------------------

 SCF Done:  E(RHF) =  -267.847098129     A.U. after    2 cycles

 The electronic state is 1-A.
 Alpha  occ. eigenvalues --  -21.11515 -21.07945 -11.53355 -11.42664 -11.33655
 Alpha  occ. eigenvalues --   -1.81510  -1.67845  -1.07007  -0.96513  -0.82270
 Alpha  occ. eigenvalues --   -0.70021  -0.64795  -0.63513  -0.58089  -0.51713
 Alpha  occ. eigenvalues --   -0.44941  -0.42779  -0.38657  -0.34493  -0.23350
 Alpha virt. eigenvalues --    0.03006   0.04473   0.04837   0.06126   0.06681
 Alpha virt. eigenvalues --    0.07091   0.09137   0.10750   0.11559   0.12384
 Alpha virt. eigenvalues --    0.14414   0.14721   0.14892   0.16917   0.17793

 Mulliken charges:
               1
     1  O   -1.930394
     2  C   -1.352694
     3  C   -0.974325
     4  C   -0.917273
     5  O   -2.567661
     6  H    0.763139
     7  H    1.396313
     8  H    1.299288
     9  H    1.373505
    10  H    1.416285
    11  H    1.493816
 Sum of Mulliken charges =   0.00000

 Dipole moment (field-independent basis, Debye):
    X=              0.3076    Y=              3.7530    Z=              0.1247  Tot=              3.7677

 Test job not archived.
 1\1\GINC-SE115\SP\RHF\Aug-CC-pVDZ\C3H6O2\OHZDE\09-Apr-2025\0\\#t hf au
 g-cc-pvdz iop(5/13=1,5/36=2,99/5=2) pseudo=read geom=check guess=(read
 ,tcheck) scf=(maxcycle=1)\\title\\0,1\O,0,-1.07223752,-0.49596629,0.52
 018079\C,0,-0.70641335,0.87811989,-0.11010889\C,0,0.73188674,1.0742089
 2,-0.18589441\C,0,0.88748871,-1.11212167,-0.03327241\O,0,1.3254127,-0.
 16252246,-0.81575623\H,0,-1.79815343,-0.88832764,-0.02104669\H,0,-1.19
 005251,0.82473941,-1.09998022\H,0,-1.16935617,1.67233199,0.48947018\H,
 0,1.2949164,1.34613092,0.70932263\H,0,0.58852322,-2.06106801,-0.496353

 Normal termination of Gaussian 16 at Wed Apr  9 03:05:18 2025.
