 Gaussian 16, Revision C.01,

 ----------------------------------------------------------------------
 #t hf aug-cc-pvdz symm=none int=(grid=ultrafine) guess=(read,tcheck) s
 table=(opt,rrhf)
 ----------------------------------------------------------------------
 -----
 title
 -----
 Symbolic Z-matrix:
 Charge =  0 Multiplicity = 1

 SCF Done:  E(RHF) =  -323.736404201     A.U. after   15 cycles
 Normal termination of Gaussian 16 at Wed Apr  9 19:06:01 2025.
 Gaussian 16:  ES64L-G16RevC.01  3-Jul-2019

 ----------------------------------------------------------------------
 #t hf aug-cc-pvdz iop(5/13=1,5/36=2,99/5=2) pseudo=read geom=check gue
 ss=(read,tcheck) scf=(maxcycle=1)
 ----------------------------------------------------------------------
 -----
 title
 -----
 Structure from the checkpoint file:  "Grambow2020_wb97xd3_008089_forward_mol1.chk"
 Charge =  0 Multiplicity = 1

                         Standard orientation:
 ---------------------------------------------------------------------
 Center     Atomic      Atomic             Coordinates (Angstroms)
 Number     Number       Type             X           Y           Z
 ---------------------------------------------------------------------
      1          6           0       -2.606901   -0.834925    0.003974
      2          6           0       -1.837498    0.397375    0.001410
      3          7           0       -1.512800    1.513226    0.000360
      4          8           0        0.045948   -0.796302   -0.015884
      5          6           0        1.051050   -0.057949   -0.004061
      6          6           0        2.326323   -0.035635   -0.767772
      7          6           0        2.314501   -0.047220    0.779540
      8          1           0       -2.358737   -1.407214   -0.887360
      9          1           0       -2.326017   -1.424167    0.874104
     10          1           0       -3.670581   -0.598084    0.025448
     11          1           0       -0.129373    1.585496    0.001220
     12          1           0        0.721613    1.306394    0.000718
     13          1           0        2.592304   -0.955495   -1.274214
     14          1           0        2.676615    0.867581   -1.249487
     15          1           0        2.572692   -0.974877    1.275821
     16          1           0        2.658656    0.848320    1.279757
 ---------------------------------------------------------------------

 SCF Done:  E(RHF) =  -325.296049774     A.U. after    2 cycles

 The electronic state is 1-A.
 Alpha  occ. eigenvalues --  -21.00279 -15.76161 -11.49179 -11.48352 -11.42604
 Alpha  occ. eigenvalues --  -11.42051 -11.37168  -1.67393  -1.35087  -1.25782
 Alpha  occ. eigenvalues --   -1.12268  -0.87356  -0.81173  -0.74016  -0.69931
 Alpha  occ. eigenvalues --   -0.63140  -0.61997  -0.61503  -0.55698  -0.52271
 Alpha  occ. eigenvalues --   -0.52099  -0.50174  -0.45203  -0.42114  -0.39366
 Alpha  occ. eigenvalues --   -0.32664  -0.23900
 Alpha virt. eigenvalues --    0.03403   0.05048   0.05531   0.05981   0.06311
 Alpha virt. eigenvalues --    0.06525   0.07231   0.07471   0.08932   0.10332
 Alpha virt. eigenvalues --    0.11155   0.12564   0.12774   0.13517   0.14132

 Mulliken charges:
               1
     1  C   -4.030940
     2  C    2.688209
     3  N   -2.937675
     4  O   -3.752593
     5  C    3.420472
     6  C   -2.835015
     7  C   -2.838592
     8  H    1.341149
     9  H    1.344399
    10  H    1.179731
    11  H    0.592003
    12  H    0.887136
    13  H    1.240435
    14  H    1.228771
    15  H    1.240326
    16  H    1.232183
 Sum of Mulliken charges =   0.00000

 Dipole moment (field-independent basis, Debye):
    X=             -1.3700    Y=             -1.3589    Z=              0.0187  Tot=              1.9298

 Test job not archived.
 1\1\GINC-SE015\SP\RHF\Aug-CC-pVDZ\C5H9N1O1\OHZDE\09-Apr-2025\0\\#t hf
 aug-cc-pvdz iop(5/13=1,5/36=2,99/5=2) pseudo=read geom=check guess=(re
 ad,tcheck) scf=(maxcycle=1)\\title\\0,1\C,0,2.64553267,-0.3760485,-1.0
 4340897\C,0,2.03661703,0.22920127,0.12853233\N,0,1.85353467,0.77632731
 ,1.13733705\O,0,0.02459142,-0.35991712,-0.63121944\C,0,-0.87989538,0.0
 1735812,0.14020977\C,0,-2.09154897,-0.63065421,0.70770389\C,0,-2.17938
 279,0.71280304,-0.05509083\H,0,2.38532783,-1.43205755,-1.07011823\H,0,
 2.23914183,0.09574758,-1.93530765\H,0,3.72685455,-0.24720827,-0.997451

 Normal termination of Gaussian 16 at Wed Apr  9 19:06:06 2025.
