 Gaussian 16, Revision C.01,

 ----------------------------------------------------------------------
 #t hf aug-cc-pvdz symm=none int=(grid=ultrafine) guess=(read,tcheck) s
 table=(opt,rrhf)
 ----------------------------------------------------------------------
 -----
 title
 -----
 Symbolic Z-matrix:
 Charge =  0 Multiplicity = 1

 SCF Done:  E(RHF) =  -306.409126655     A.U. after   16 cycles
 Normal termination of Gaussian 16 at Wed Apr  9 19:28:17 2025.
 Gaussian 16:  ES64L-G16RevC.01  3-Jul-2019

 ----------------------------------------------------------------------
 #t hf aug-cc-pvdz iop(5/13=1,5/36=2,99/5=2) pseudo=read geom=check gue
 ss=(read,tcheck) scf=(maxcycle=1)
 ----------------------------------------------------------------------
 -----
 title
 -----
 Structure from the checkpoint file:  "Grambow2020_wb97xd3_009021_forward_mol1.chk"
 Charge =  0 Multiplicity = 1

                         Standard orientation:
 ---------------------------------------------------------------------
 Center     Atomic      Atomic             Coordinates (Angstroms)
 Number     Number       Type             X           Y           Z
 ---------------------------------------------------------------------
      1          6           0       -2.091469   -0.111549   -0.085948
      2          6           0       -0.716349   -0.193623   -0.019200
      3          8           0        0.109198   -1.234556   -0.496904
      4          6           0        1.228705   -0.633427    0.223679
      5          6           0        1.472056    0.678713   -0.545464
      6          6           0        0.116126    1.107041    0.018554
      7          6           0        0.285311    0.167146    1.150233
      8          1           0       -2.616517    0.533098    0.599109
      9          1           0       -2.002613    1.669603   -0.871258
     10          1           0       -2.660455   -0.897431   -0.568206
     11          1           0        1.998266   -1.362895    0.466058
     12          1           0        2.269150    1.265655   -0.090928
     13          1           0        1.599587    0.593089   -1.625118
     14          1           0       -1.207810    1.887926   -0.569568
     15          1           0       -0.019473    0.101597    2.184020
 ---------------------------------------------------------------------

 SCF Done:  E(RHF) =  -307.879541766     A.U. after    2 cycles

 The electronic state is 1-A.
 Alpha  occ. eigenvalues --  -21.05446 -11.52079 -11.49489 -11.45849 -11.44433
 Alpha  occ. eigenvalues --  -11.42909 -11.37201  -1.82173  -1.33473  -1.14808
 Alpha  occ. eigenvalues --   -1.00597  -0.92590  -0.79047  -0.74446  -0.72896
 Alpha  occ. eigenvalues --   -0.65500  -0.61666  -0.58155  -0.56981  -0.50831
 Alpha  occ. eigenvalues --   -0.49115  -0.44753  -0.41023  -0.34631  -0.27968
 Alpha  occ. eigenvalues --   -0.26761
 Alpha virt. eigenvalues --    0.03466   0.04572   0.04894   0.05357   0.05895
 Alpha virt. eigenvalues --    0.06278   0.07053   0.07790   0.08400   0.10058
 Alpha virt. eigenvalues --    0.11280   0.11862   0.12158   0.12705   0.13630

 Mulliken charges:
               1
     1  C   -4.201979
     2  C    5.126669
     3  O   -3.621104
     4  C   -0.747355
     5  C   -2.924740
     6  C   -1.163675
     7  C   -0.827247
     8  H    1.256938
     9  H    0.421468
    10  H    1.425322
    11  H    1.571639
    12  H    1.267958
    13  H    1.358152
    14  H   -0.080909
    15  H    1.138863
 Sum of Mulliken charges =  -0.00000

 Dipole moment (field-independent basis, Debye):
    X=              0.4891    Y=             -2.2009    Z=              1.5544  Tot=              2.7385

 Test job not archived.
 1\1\GINC-SE220\SP\RHF\Aug-CC-pVDZ\C6H8O1\OHZDE\09-Apr-2025\0\\#t hf au
 g-cc-pvdz iop(5/13=1,5/36=2,99/5=2) pseudo=read geom=check guess=(read
 ,tcheck) scf=(maxcycle=1)\\title\\0,1\C,0,1.93197414,0.29243619,-0.290
 03965\C,0,0.55745567,0.38174476,-0.22026133\O,0,-0.30653997,1.07748803
 ,-1.09360213\C,0,-1.3910382,0.86377164,-0.13857382\C,0,-1.62125012,-0.
 65756719,-0.20959926\C,0,-0.2404838,-0.76422936,0.4401965\C,0,-0.40352
 543,0.5891744,1.01850318\H,0,2.49109518,0.04080351,0.59574442\H,0,1.86
 762122,-1.65111863,-0.16529352\H,0,2.4679254,0.77412468,-1.09915075\H,

 Normal termination of Gaussian 16 at Wed Apr  9 19:28:22 2025.
