 Gaussian 16, Revision C.01,

 ----------------------------------------------------------------------
 #t hf aug-cc-pvdz symm=none int=(grid=ultrafine) guess=(read,tcheck) s
 table=(opt,rrhf)
 ----------------------------------------------------------------------
 -----
 title
 -----
 Symbolic Z-matrix:
 Charge =  0 Multiplicity = 1

 SCF Done:  E(RHF) =  -317.586228396     A.U. after   16 cycles
 Normal termination of Gaussian 16 at Wed Apr  9 19:04:41 2025.
 Gaussian 16:  ES64L-G16RevC.01  3-Jul-2019

 ----------------------------------------------------------------------
 #t hf aug-cc-pvdz iop(5/13=1,5/36=2,99/5=2) pseudo=read geom=check gue
 ss=(read,tcheck) scf=(maxcycle=1)
 ----------------------------------------------------------------------
 -----
 title
 -----
 Structure from the checkpoint file:  "Grambow2020_wb97xd3_008064_reverse_mol1.chk"
 Charge =  0 Multiplicity = 1

                         Standard orientation:
 ---------------------------------------------------------------------
 Center     Atomic      Atomic             Coordinates (Angstroms)
 Number     Number       Type             X           Y           Z
 ---------------------------------------------------------------------
      1          7           0       -2.450403   -0.252408   -0.716521
      2          6           0       -1.524248   -0.101830   -0.055733
      3          6           0       -0.323238    0.135622    0.777246
      4          6           0        0.676720   -1.029680    0.611782
      5          7           0        1.495689   -0.704434   -0.556279
      6          6           0        1.576513    0.418619   -0.941058
      7          7           0        0.345650    1.370879    0.496037
      8          1           0       -0.642043    0.095853    1.827223
      9          1           0        1.351423   -1.077331    1.467503
     10          1           0        0.192196   -1.995256    0.482289
     11          1           0        1.258033    1.481630   -0.870611
     12          1           0       -0.330646    2.060461    0.177518
 ---------------------------------------------------------------------

 SCF Done:  E(RHF) =  -319.054753046     A.U. after    2 cycles

 The electronic state is 1-A.
 Alpha  occ. eigenvalues --  -15.80603 -15.76155 -15.71938 -11.50887 -11.50369
 Alpha  occ. eigenvalues --  -11.46384 -11.42199  -1.49935  -1.33704  -1.27047
 Alpha  occ. eigenvalues --   -1.12124  -0.94786  -0.85192  -0.75372  -0.71196
 Alpha  occ. eigenvalues --   -0.64377  -0.61904  -0.55694  -0.53146  -0.50004
 Alpha  occ. eigenvalues --   -0.49125  -0.44725  -0.42657  -0.39006  -0.31590
 Alpha virt. eigenvalues --    0.03292   0.05130   0.05528   0.05756   0.06556
 Alpha virt. eigenvalues --    0.08697   0.09253   0.10076   0.10298   0.10864
 Alpha virt. eigenvalues --    0.12100   0.12652   0.13207   0.13975   0.14069

 Mulliken charges:
               1
     1  N   -2.665997
     2  C    3.152476
     3  C   -1.251486
     4  C   -1.855674
     5  N   -2.360824
     6  C    0.224137
     7  N   -2.138792
     8  H    1.595769
     9  H    1.425545
    10  H    1.521081
    11  H    1.733774
    12  H    0.619991
 Sum of Mulliken charges =   0.00000

 Dipole moment (field-independent basis, Debye):
    X=              2.2497    Y=             -0.2074    Z=              1.4823  Tot=              2.7021

 Test job not archived.
 1\1\GINC-SE014\SP\RHF\Aug-CC-pVDZ\C4H5N3\OHZDE\09-Apr-2025\0\\#t hf au
 g-cc-pvdz iop(5/13=1,5/36=2,99/5=2) pseudo=read geom=check guess=(read
 ,tcheck) scf=(maxcycle=1)\\title\\0,1\N,0,2.17883154,-0.8184981,1.5065
 248\C,0,1.48331032,-0.49998154,0.65102728\C,0,0.58619906,-0.04448409,-
 0.43542356\C,0,-0.67398088,-0.9355149,-0.49227707\N,0,-1.62725281,-0.3
 584444,0.45594392\C,0,-1.52027185,0.77470161,0.80289132\N,0,0.18626157
 ,1.32665123,-0.32412272\H,0,1.1084521,-0.22177219,-1.38489239\H,0,-1.1
 3614499,-0.87953544,-1.47869643\H,0,-0.47417798,-1.9767731,-0.2478805\

 Normal termination of Gaussian 16 at Wed Apr  9 19:04:46 2025.
