 Gaussian 16, Revision C.01,

 ----------------------------------------------------------------------
 #t hf aug-cc-pvdz symm=none int=(grid=ultrafine) guess=(read,tcheck) s
 table=(opt,rrhf)
 ----------------------------------------------------------------------
 -----
 title
 -----
 Symbolic Z-matrix:
 Charge =  0 Multiplicity = 1

 SCF Done:  E(RHF) =  -317.570985435     A.U. after   18 cycles
 Normal termination of Gaussian 16 at Wed Apr  9 19:26:55 2025.
 Gaussian 16:  ES64L-G16RevC.01  3-Jul-2019

 ----------------------------------------------------------------------
 #t hf aug-cc-pvdz iop(5/13=1,5/36=2,99/5=2) pseudo=read geom=check gue
 ss=(read,tcheck) scf=(maxcycle=1)
 ----------------------------------------------------------------------
 -----
 title
 -----
 Structure from the checkpoint file:  "Grambow2020_wb97xd3_008980_forward_mol1.chk"
 Charge =  0 Multiplicity = 1

                         Standard orientation:
 ---------------------------------------------------------------------
 Center     Atomic      Atomic             Coordinates (Angstroms)
 Number     Number       Type             X           Y           Z
 ---------------------------------------------------------------------
      1          7           0       -2.417582    0.632871    0.282301
      2          6           0       -1.207572    0.544355   -0.192685
      3          6           0        1.815777    1.497172   -0.360769
      4          7           0        1.684318    0.398272    0.133067
      5          6           0        1.401939   -0.823641    0.377548
      6          7           0        0.267436   -1.449916   -0.097202
      7          6           0       -0.828361   -0.862718   -0.395995
      8          1           0       -2.832830    1.537408    0.440699
      9          1           0       -3.010471   -0.164779    0.511003
     10          1           0        1.480383    2.370158    0.206203
     11          1           0        2.126931   -1.434507    0.896644
     12          1           0       -1.593914   -1.507891   -0.850302
 ---------------------------------------------------------------------

 SCF Done:  E(RHF) =  -319.014443637     A.U. after    2 cycles

 The electronic state is 1-A.
 Alpha  occ. eigenvalues --  -15.82669 -15.80896 -15.75421 -11.44648 -11.44057
 Alpha  occ. eigenvalues --  -11.40283 -11.39836  -1.48557  -1.41364  -1.32876
 Alpha  occ. eigenvalues --   -1.06331  -0.95328  -0.82452  -0.74975  -0.71506
 Alpha  occ. eigenvalues --   -0.67561  -0.63138  -0.61135  -0.55058  -0.49355
 Alpha  occ. eigenvalues --   -0.45659  -0.44363  -0.39686  -0.33649  -0.25898
 Alpha virt. eigenvalues --    0.02862   0.04826   0.05090   0.06071   0.06755
 Alpha virt. eigenvalues --    0.07038   0.10046   0.10631   0.10839   0.11534
 Alpha virt. eigenvalues --    0.12366   0.12992   0.13537   0.14499   0.15023

 Mulliken charges:
               1
     1  N   -2.896307
     2  C    0.324174
     3  C   -0.865792
     4  N   -2.257281
     5  C    0.920908
     6  N   -3.206219
     7  C    1.454498
     8  H    0.827830
     9  H    0.756107
    10  H    1.616018
    11  H    1.688944
    12  H    1.637121
 Sum of Mulliken charges =  -0.00000

 Dipole moment (field-independent basis, Debye):
    X=             -4.1447    Y=             -0.0726    Z=              2.5142  Tot=              4.8482

 Test job not archived.
 1\1\GINC-SE162\SP\RHF\Aug-CC-pVDZ\C4H5N3\OHZDE\09-Apr-2025\0\\#t hf au
 g-cc-pvdz iop(5/13=1,5/36=2,99/5=2) pseudo=read geom=check guess=(read
 ,tcheck) scf=(maxcycle=1)\\title\\0,1\N,0,-2.19368724,-0.45708735,0.06
 303756\C,0,-1.04164073,-0.00808793,-0.34776683\C,0,1.23735596,2.199818
 ,-0.43764647\N,0,1.57715568,1.18002962,0.12209025\C,0,1.85557007,-0.02
 722796,0.43449223\N,0,1.15955827,-1.11615237,-0.04977644\C,0,-0.058488
 41,-1.09905668,-0.43825945\H,0,-2.98048983,0.1678954,0.14079033\H,0,-2
 .3809573,-1.42695545,0.31671776\H,0,0.50642079,2.84857601,0.05316611\H

 Normal termination of Gaussian 16 at Wed Apr  9 19:26:59 2025.
