 Gaussian 16, Revision C.01,

 ----------------------------------------------------------------------
 #t hf aug-cc-pvdz symm=none int=(grid=ultrafine) guess=(read,tcheck) s
 table=(opt,rrhf)
 ----------------------------------------------------------------------
 -----
 title
 -----
 Symbolic Z-matrix:
 Charge =  0 Multiplicity = 1

 SCF Done:  E(RHF) =  -318.768214767     A.U. after   15 cycles
 Normal termination of Gaussian 16 at Wed Apr  9 18:20:41 2025.
 Gaussian 16:  ES64L-G16RevC.01  3-Jul-2019

 ----------------------------------------------------------------------
 #t hf aug-cc-pvdz iop(5/13=1,5/36=2,99/5=2) pseudo=read geom=check gue
 ss=(read,tcheck) scf=(maxcycle=1)
 ----------------------------------------------------------------------
 -----
 title
 -----
 Structure from the checkpoint file:  "Grambow2020_wb97xd3_006915_reverse_mol1.chk"
 Charge =  0 Multiplicity = 1

                         Standard orientation:
 ---------------------------------------------------------------------
 Center     Atomic      Atomic             Coordinates (Angstroms)
 Number     Number       Type             X           Y           Z
 ---------------------------------------------------------------------
      1          7           0       -2.460405   -0.488613    0.069751
      2          6           0       -1.096991   -0.178372   -0.027086
      3          6           0        0.031153   -0.930011   -0.031462
      4          6           0        1.168918   -0.061683   -0.019098
      5          7           0        2.481470   -0.534097    0.107534
      6          6           0        0.843529    1.277168   -0.111660
      7          7           0       -0.682960    1.152900    0.021361
      8          1           0       -2.950804   -0.435893   -0.812138
      9          1           0       -2.618234   -1.393955    0.484197
     10          1           0        0.052660   -2.011399   -0.004605
     11          1           0        3.149905    0.202764   -0.060713
     12          1           0        2.682506   -1.330366   -0.477640
     13          1           0       -0.103019    1.507290    0.935943
     14          1           0       -1.259400    1.907617   -0.319737
 ---------------------------------------------------------------------

 SCF Done:  E(RHF) =  -320.282135555     A.U. after    2 cycles

 The electronic state is 1-A.
 Alpha  occ. eigenvalues --  -15.81145 -15.77305 -15.73349 -11.47796 -11.43096
 Alpha  occ. eigenvalues --  -11.37857 -11.33838  -1.54068  -1.34059  -1.31473
 Alpha  occ. eigenvalues --   -1.11380  -0.99632  -0.82918  -0.78638  -0.69860
 Alpha  occ. eigenvalues --   -0.68385  -0.66112  -0.63020  -0.55986  -0.53699
 Alpha  occ. eigenvalues --   -0.48998  -0.45970  -0.41674  -0.33893  -0.31717
 Alpha  occ. eigenvalues --   -0.25373
 Alpha virt. eigenvalues --    0.03064   0.04668   0.05091   0.05919   0.06304
 Alpha virt. eigenvalues --    0.07288   0.07958   0.10223   0.11476   0.12674
 Alpha virt. eigenvalues --    0.12830   0.13414   0.13646   0.14590   0.15838

 Mulliken charges:
               1
     1  N   -3.348081
     2  C    3.232458
     3  C   -2.397906
     4  C    5.723435
     5  N   -3.669138
     6  C   -2.746590
     7  N   -2.620955
     8  H    0.487663
     9  H    0.525186
    10  H    1.609674
    11  H    0.753913
    12  H    0.513517
    13  H    1.263883
    14  H    0.672942
 Sum of Mulliken charges =   0.00000

 Dipole moment (field-independent basis, Debye):
    X=             -3.5952    Y=             -2.4267    Z=             -0.9615  Tot=              4.4429

 Test job not archived.
 1\1\GINC-SE113\SP\RHF\Aug-CC-pVDZ\C4H7N3\OHZDE\09-Apr-2025\0\\#t hf au
 g-cc-pvdz iop(5/13=1,5/36=2,99/5=2) pseudo=read geom=check guess=(read
 ,tcheck) scf=(maxcycle=1)\\title\\0,1\N,0,-2.43240815,-0.20233001,0.02
 995796\C,0,-1.046517,-0.00520483,-0.0405478\C,0,0.01860893,-0.83871815
 ,0.05137703\C,0,1.22027914,-0.06120863,0.04020687\N,0,2.48718647,-0.62
 113192,0.24861776\C,0,1.00417277,1.2874816,-0.16301531\N,0,-0.53066997
 ,1.29043803,-0.07610061\H,0,-2.89038534,-0.18021582,-0.8704684\H,0,-2.
 67337772,-1.05854614,0.5044542\H,0,-0.04585205,-1.91334553,0.15910379\

 Normal termination of Gaussian 16 at Wed Apr  9 18:20:45 2025.
