 Gaussian 16, Revision C.01,

 ----------------------------------------------------------------------
 #t hf aug-cc-pvdz symm=none int=(grid=ultrafine) guess=(read,tcheck) s
 table=(opt,rrhf)
 ----------------------------------------------------------------------
 -----
 title
 -----
 Symbolic Z-matrix:
 Charge =  0 Multiplicity = 1

 SCF Done:  E(RHF) =  -302.744303477     A.U. after   15 cycles
 Normal termination of Gaussian 16 at Wed Apr  9 19:23:12 2025.
 Gaussian 16:  ES64L-G16RevC.01  3-Jul-2019

 ----------------------------------------------------------------------
 #t hf aug-cc-pvdz iop(5/13=1,5/36=2,99/5=2) pseudo=read geom=check gue
 ss=(read,tcheck) scf=(maxcycle=1)
 ----------------------------------------------------------------------
 -----
 title
 -----
 Structure from the checkpoint file:  "Grambow2020_wb97xd3_008870_reverse_mol1.chk"
 Charge =  0 Multiplicity = 1

                         Standard orientation:
 ---------------------------------------------------------------------
 Center     Atomic      Atomic             Coordinates (Angstroms)
 Number     Number       Type             X           Y           Z
 ---------------------------------------------------------------------
      1          6           0       -2.593482   -0.508735    0.285039
      2          7           0       -1.081222   -0.108572   -0.292492
      3          6           0       -0.664987    1.213090   -0.116326
      4          6           0        0.663794    1.231914    0.076307
      5          6           0        1.138473   -0.136918    0.007759
      6          7           0        2.458480   -0.499967    0.222003
      7          6           0        0.065750   -0.929425   -0.220400
      8          1           0       -1.895281   -0.190391   -1.005370
      9          1           0       -2.478932   -1.589569    0.388963
     10          1           0       -2.613499   -0.051995    1.275521
     11          1           0       -1.399131    2.002625   -0.138625
     12          1           0        1.274502    2.105595    0.246896
     13          1           0        3.134677    0.186219   -0.067826
     14          1           0        2.704799   -1.423885   -0.090359
     15          1           0       -0.025227   -1.998375   -0.310049
 ---------------------------------------------------------------------

 SCF Done:  E(RHF) =  -304.196025984     A.U. after    2 cycles

 The electronic state is 1-A.
 Alpha  occ. eigenvalues --  -15.78696 -15.77101 -11.49483 -11.45528 -11.41950
 Alpha  occ. eigenvalues --  -11.38014 -11.34107  -1.54170  -1.36084  -1.16064
 Alpha  occ. eigenvalues --   -1.06036  -0.93339  -0.81168  -0.80521  -0.74719
 Alpha  occ. eigenvalues --   -0.68098  -0.63164  -0.57712  -0.57007  -0.55656
 Alpha  occ. eigenvalues --   -0.49915  -0.49283  -0.47364  -0.35327  -0.28819
 Alpha  occ. eigenvalues --   -0.27429
 Alpha virt. eigenvalues --    0.03082   0.04719   0.04970   0.05966   0.06192
 Alpha virt. eigenvalues --    0.07144   0.07733   0.08469   0.10619   0.10688
 Alpha virt. eigenvalues --    0.12016   0.12552   0.13100   0.13522   0.14314

 Mulliken charges:
               1
     1  C   -3.311186
     2  N   -3.289962
     3  C   -0.393747
     4  C   -1.690221
     5  C    4.023028
     6  N   -3.666468
     7  C   -1.232914
     8  H    1.429422
     9  H    1.200267
    10  H    1.394490
    11  H    1.373104
    12  H    1.449770
    13  H    0.617438
    14  H    0.690125
    15  H    1.406855
 Sum of Mulliken charges =   0.00000

 Dipole moment (field-independent basis, Debye):
    X=              4.5263    Y=              0.3540    Z=             -0.8238  Tot=              4.6142

 Test job not archived.
 1\1\GINC-SE118\SP\RHF\Aug-CC-pVDZ\C5H8N2\OHZDE\09-Apr-2025\0\\#t hf au
 g-cc-pvdz iop(5/13=1,5/36=2,99/5=2) pseudo=read geom=check guess=(read
 ,tcheck) scf=(maxcycle=1)\\title\\0,1\C,0,2.53672504,0.25936209,0.1770
 6275\N,0,0.98472601,-0.11561006,-0.30387129\C,0,0.44228885,-1.30850248
 ,0.17970477\C,0,-0.87914906,-1.14873692,0.35689968\C,0,-1.21708076,0.2
 038548,-0.04312348\N,0,-2.49175421,0.73672844,0.06353732\C,0,-0.074427
 91,0.80815081,-0.44316001\H,0,1.79327328,-0.28823081,-1.00674638\H,0,2
 .53096731,1.33945946,0.01743338\H,0,2.52475036,0.0537523,1.24834545\H,

 Normal termination of Gaussian 16 at Wed Apr  9 19:23:17 2025.
