 Gaussian 16, Revision C.01,

 ----------------------------------------------------------------------
 #t hf aug-cc-pvdz symm=none int=(grid=ultrafine) guess=(read,tcheck) s
 table=(opt,rrhf)
 ----------------------------------------------------------------------
 -----
 title
 -----
 Symbolic Z-matrix:
 Charge =  0 Multiplicity = 1

 SCF Done:  E(RHF) =  -266.561057450     A.U. after   15 cycles
 Normal termination of Gaussian 16 at Wed Apr  9 03:05:15 2025.
 Gaussian 16:  ES64L-G16RevC.01  3-Jul-2019

 ----------------------------------------------------------------------
 #t hf aug-cc-pvdz iop(5/13=1,5/36=2,99/5=2) pseudo=read geom=check gue
 ss=(read,tcheck) scf=(maxcycle=1)
 ----------------------------------------------------------------------
 -----
 title
 -----
 Structure from the checkpoint file:  "Grambow2020_b97d3_006479_forward_mol1.chk"
 Charge =  0 Multiplicity = 1

                         Standard orientation:
 ---------------------------------------------------------------------
 Center     Atomic      Atomic             Coordinates (Angstroms)
 Number     Number       Type             X           Y           Z
 ---------------------------------------------------------------------
      1          8           0       -1.628233    0.630551   -0.213641
      2          6           0       -1.220937   -0.672116    0.059194
      3          6           0        0.868997   -0.454413    0.554882
      4          6           0        1.317522   -0.285939   -0.846983
      5          8           0        1.000094    0.823740    0.342078
      6          1           0       -0.873189    1.218609    0.024824
      7          1           0       -1.445558   -1.028029    1.080039
      8          1           0       -1.703474   -1.368013   -0.653137
      9          1           0        0.925079   -0.948567    1.527824
     10          1           0       -0.086505   -0.779559   -0.663875
     11          1           0        2.415264   -0.253951   -0.945734
 ---------------------------------------------------------------------

 SCF Done:  E(RHF) =  -267.781556144     A.U. after    2 cycles

 The electronic state is 1-A.
 Alpha  occ. eigenvalues --  -21.10499 -21.06321 -11.54512 -11.42946 -11.41796
 Alpha  occ. eigenvalues --   -1.81046  -1.70179  -1.06562  -0.94295  -0.87257
 Alpha  occ. eigenvalues --   -0.74168  -0.65016  -0.62114  -0.54563  -0.50588
 Alpha  occ. eigenvalues --   -0.43980  -0.40827  -0.36667  -0.32957  -0.29628
 Alpha virt. eigenvalues --    0.03107   0.04816   0.05236   0.05856   0.07599
 Alpha virt. eigenvalues --    0.07796   0.09838   0.10000   0.11473   0.12255
 Alpha virt. eigenvalues --    0.13018   0.14063   0.15647   0.16776   0.17667

 Mulliken charges:
               1
     1  O   -2.529943
     2  C   -1.861349
     3  C    0.219454
     4  C   -1.859039
     5  O   -2.107024
     6  H    0.871054
     7  H    1.287952
     8  H    0.679570
     9  H    0.981245
    10  H    3.252538
    11  H    1.065541
 Sum of Mulliken charges =   0.00000

 Dipole moment (field-independent basis, Debye):
    X=              0.8479    Y=             -0.5417    Z=              2.6164  Tot=              2.8032

 Test job not archived.
 1\1\GINC-SE106\SP\RHF\Aug-CC-pVDZ\C3H6O2\OHZDE\09-Apr-2025\0\\#t hf au
 g-cc-pvdz iop(5/13=1,5/36=2,99/5=2) pseudo=read geom=check guess=(read
 ,tcheck) scf=(maxcycle=1)\\title\\0,1\O,0,-1.67388808,-0.45217431,-0.6
 5317434\C,0,-1.12722163,0.51119149,0.1896488\C,0,0.99758165,0.32914643
 ,-0.14650131\C,0,1.15160386,-0.90186899,0.66322871\O,0,0.99103342,-0.6
 79008,-0.97095736\H,0,-0.93194663,-0.80312016,-1.2001004\H,0,-1.122556
 99,1.53837952,-0.21546275\H,0,-1.68679406,0.52889214,1.14416139\H,0,1.
 2776299,1.3555517,-0.39552659\H,0,-0.15016278,-0.17424762,0.81959949\H

 Normal termination of Gaussian 16 at Wed Apr  9 03:05:18 2025.
