 Gaussian 16, Revision C.01,

 ----------------------------------------------------------------------
 #t hf aug-cc-pvdz symm=none int=(grid=ultrafine) guess=(read,tcheck) s
 table=(opt,rrhf)
 ----------------------------------------------------------------------
 -----
 title
 -----
 Symbolic Z-matrix:
 Charge =  0 Multiplicity = 1

 SCF Done:  E(RHF) =  -332.350157513     A.U. after   17 cycles
 Normal termination of Gaussian 16 at Wed Apr  9 19:27:50 2025.
 Gaussian 16:  ES64L-G16RevC.01  3-Jul-2019

 ----------------------------------------------------------------------
 #t hf aug-cc-pvdz iop(5/13=1,5/36=2,99/5=2) pseudo=read geom=check gue
 ss=(read,tcheck) scf=(maxcycle=1)
 ----------------------------------------------------------------------
 -----
 title
 -----
 Structure from the checkpoint file:  "Grambow2020_wb97xd3_009006_forward_mol1.chk"
 Charge =  0 Multiplicity = 1

                         Standard orientation:
 ---------------------------------------------------------------------
 Center     Atomic      Atomic             Coordinates (Angstroms)
 Number     Number       Type             X           Y           Z
 ---------------------------------------------------------------------
      1          7           0        2.485308   -0.000980   -0.491966
      2          6           0        1.452344    0.061451    0.036940
      3          6           0        0.045803    0.911146    0.526228
      4          6           0       -1.175806    1.016587   -0.139842
      5          7           0       -1.600664   -0.244987   -0.336251
      6          7           0       -0.763520   -1.176452    0.017368
      7          7           0        0.211018   -0.471691    0.611405
      8          1           0       -1.761715    1.866084   -0.446805
      9          1           0       -2.497321   -0.542410   -0.697033
 ---------------------------------------------------------------------

 SCF Done:  E(RHF) =  -333.827520861     A.U. after    2 cycles

 The electronic state is 1-A.
 Alpha  occ. eigenvalues --  -15.92974 -15.85456 -15.84651 -15.73470 -11.49200
 Alpha  occ. eigenvalues --  -11.48294 -11.43179  -1.78143  -1.45326  -1.27999
 Alpha  occ. eigenvalues --   -1.23342  -1.00766  -0.88721  -0.79565  -0.76466
 Alpha  occ. eigenvalues --   -0.67735  -0.58533  -0.56128  -0.55252  -0.50189
 Alpha  occ. eigenvalues --   -0.45564  -0.40482  -0.37622  -0.31625
 Alpha virt. eigenvalues --    0.01542   0.03920   0.07272   0.08068   0.08846
 Alpha virt. eigenvalues --    0.09645   0.10835   0.11681   0.12087   0.12343
 Alpha virt. eigenvalues --    0.14008   0.14198   0.14702   0.15441   0.15612

 Mulliken charges:
               1
     1  N   -2.856759
     2  C    3.849816
     3  C   -0.427159
     4  C    0.585926
     5  N   -1.833655
     6  N   -1.008303
     7  N   -0.702665
     8  H    1.428931
     9  H    0.963868
 Sum of Mulliken charges =   0.00000

 Dipole moment (field-independent basis, Debye):
    X=             -7.9444    Y=             -0.4263    Z=             -1.1043  Tot=              8.0321

 Test job not archived.
 1\1\GINC-SE226\SP\RHF\Aug-CC-pVDZ\C3H2N4\OHZDE\09-Apr-2025\0\\#t hf au
 g-cc-pvdz iop(5/13=1,5/36=2,99/5=2) pseudo=read geom=check guess=(read
 ,tcheck) scf=(maxcycle=1)\\title\\0,1\N,0,2.66866623,0.73588871,0.9057
 0853\C,0,1.71669085,0.6645088,0.24291051\C,0,0.66871259,-0.17385445,-0
 .82415459\C,0,-0.45609926,-0.93698845,-0.50868544\N,0,-1.27138893,-0.1
 2442663,0.18823261\N,0,-0.78216527,1.04818841,0.46951192\N,0,0.3734606
 7,1.04446261,-0.21152157\H,0,-0.73435119,-1.94909223,-0.74823205\H,0,-
 2.21858769,-0.31372476,0.48756307\\Version=ES64L-G16RevC.01\State=1-A\

 Normal termination of Gaussian 16 at Wed Apr  9 19:27:53 2025.
