 Gaussian 16, Revision C.01,

 ----------------------------------------------------------------------
 #t hf aug-cc-pvdz symm=none int=(grid=ultrafine) guess=(read,tcheck) s
 table=(opt,rrhf)
 ----------------------------------------------------------------------
 -----
 title
 -----
 Symbolic Z-matrix:
 Charge =  0 Multiplicity = 1

 SCF Done:  E(RHF) =  -322.743925168     A.U. after   14 cycles
 Normal termination of Gaussian 16 at Wed Apr  9 03:33:16 2025.
 Gaussian 16:  ES64L-G16RevC.01  3-Jul-2019

 ----------------------------------------------------------------------
 #t hf aug-cc-pvdz iop(5/13=1,5/36=2,99/5=2) pseudo=read geom=check gue
 ss=(read,tcheck) scf=(maxcycle=1)
 ----------------------------------------------------------------------
 -----
 title
 -----
 Structure from the checkpoint file:  "Grambow2020_wb97xd3_007025_reverse_mol2.chk"
 Charge =  0 Multiplicity = 1

                         Standard orientation:
 ---------------------------------------------------------------------
 Center     Atomic      Atomic             Coordinates (Angstroms)
 Number     Number       Type             X           Y           Z
 ---------------------------------------------------------------------
      1          6           0        0.142432    1.963244   -0.318319
      2          6           0        0.053455    0.676142    0.476371
      3          6           0       -1.006600   -0.345948    0.081840
      4          6           0       -2.324930   -0.385919    0.015763
      5          7           0       -0.007585   -1.283480   -0.225474
      6          6           0        1.043006   -0.437684    0.079608
      7          8           0        2.228440   -0.568638    0.020088
      8          1           0       -0.689605    2.626147   -0.077904
      9          1           0        0.119680    1.762068   -1.390721
     10          1           0        1.073141    2.483372   -0.088107
     11          1           0        0.075458    0.859989    1.552465
     12          1           0       -2.905701    0.476644    0.309820
     13          1           0       -2.853620   -1.265577   -0.327224
     14          1           0       -0.037972   -2.228179   -0.572295
 ---------------------------------------------------------------------

 SCF Done:  E(RHF) =  -324.227144371     A.U. after    2 cycles

 The electronic state is 1-A.
 Alpha  occ. eigenvalues --  -21.04813 -15.78368 -11.51955 -11.47618 -11.42841
 Alpha  occ. eigenvalues --  -11.39525 -11.38002  -1.72155  -1.49522  -1.17172
 Alpha  occ. eigenvalues --   -1.09509  -0.98000  -0.81620  -0.78722  -0.66703
 Alpha  occ. eigenvalues --   -0.65339  -0.61201  -0.58727  -0.56580  -0.54196
 Alpha  occ. eigenvalues --   -0.48733  -0.47647  -0.45478  -0.41897  -0.29432
 Alpha  occ. eigenvalues --   -0.29100
 Alpha virt. eigenvalues --    0.03069   0.05134   0.05324   0.05611   0.06107
 Alpha virt. eigenvalues --    0.06733   0.07437   0.09873   0.10701   0.11077
 Alpha virt. eigenvalues --    0.11487   0.12478   0.12948   0.13762   0.14330

 Mulliken charges:
               1
     1  C   -4.030634
     2  C   -4.114357
     3  C    5.047428
     4  C   -4.643819
     5  N   -3.368120
     6  C    5.869285
     7  O   -3.417940
     8  H    1.202629
     9  H    1.255368
    10  H    1.262034
    11  H    1.389180
    12  H    1.344829
    13  H    1.376751
    14  H    0.827364
 Sum of Mulliken charges =  -0.00000

 Dipole moment (field-independent basis, Debye):
    X=             -1.2524    Y=             -0.1723    Z=             -0.1562  Tot=              1.2738

 Test job not archived.
 1\1\GINC-SE332\SP\RHF\Aug-CC-pVDZ\C5H7N1O1\OHZDE\09-Apr-2025\0\\#t hf
 aug-cc-pvdz iop(5/13=1,5/36=2,99/5=2) pseudo=read geom=check guess=(re
 ad,tcheck) scf=(maxcycle=1)\\title\\0,1\C,0,-1.70109945,0.07029838,0.4
 0207212\C,0,-0.51836519,0.00897604,-0.54315836\C,0,0.8659107,0.3312215
 4,0.00818277\C,0,1.46089814,1.37190997,0.56218129\N,0,1.30126391,-0.97
 065385,-0.28682476\C,0,0.08305905,-1.38911693,-0.78986882\O,0,-0.29761
 475,-2.43813731,-1.21482611\H,0,-1.95643877,1.10412541,0.63771871\H,0,
 -1.48097985,-0.44843807,1.33668121\H,0,-2.57163442,-0.40270736,-0.0542

 Normal termination of Gaussian 16 at Wed Apr  9 03:33:20 2025.
