 Gaussian 16, Revision C.01,

 ----------------------------------------------------------------------
 #t hf aug-cc-pvdz symm=none int=(grid=ultrafine) guess=(read,tcheck) s
 table=(opt,rrhf)
 ----------------------------------------------------------------------
 -----
 title
 -----
 Symbolic Z-matrix:
 Charge =  0 Multiplicity = 1

 SCF Done:  E(RHF) =  -279.848677428     A.U. after   15 cycles
 Normal termination of Gaussian 16 at Wed Apr  9 17:08:06 2025.
 Gaussian 16:  ES64L-G16RevC.01  3-Jul-2019

 ----------------------------------------------------------------------
 #t hf aug-cc-pvdz iop(5/13=1,5/36=2,99/5=2) pseudo=read geom=check gue
 ss=(read,tcheck) scf=(maxcycle=1)
 ----------------------------------------------------------------------
 -----
 title
 -----
 Structure from the checkpoint file:  "Grambow2020_b97d3_007047_reverse_mol2.chk"
 Charge =  0 Multiplicity = 1

                         Standard orientation:
 ---------------------------------------------------------------------
 Center     Atomic      Atomic             Coordinates (Angstroms)
 Number     Number       Type             X           Y           Z
 ---------------------------------------------------------------------
      1          7           0       -2.123605   -0.586800   -0.012379
      2          6           0       -0.914846    0.124447    0.033385
      3          6           0        0.266734   -0.758075    0.136426
      4          6           0        1.503449   -0.283330    0.028284
      5          7           0        2.640857    0.105984   -0.220260
      6          7           0       -0.770387    1.408016    0.054332
      7          1           0       -2.084076   -1.492921   -0.473761
      8          1           0       -2.922110   -0.038716   -0.323094
      9          1           0        0.140858   -1.817894    0.357386
     10          1           0        3.184301    0.484983    0.564752
     11          1           0       -1.679054    1.875896   -0.065710
 ---------------------------------------------------------------------

 SCF Done:  E(RHF) =  -281.129417739     A.U. after    2 cycles

 The electronic state is 1-A.
 Alpha  occ. eigenvalues --  -15.78810 -15.77422 -15.70879 -11.50151 -11.48986
 Alpha  occ. eigenvalues --  -11.40299  -1.43807  -1.35943  -1.23114  -1.10603
 Alpha  occ. eigenvalues --   -0.85767  -0.74943  -0.69339  -0.68637  -0.60318
 Alpha  occ. eigenvalues --   -0.55983  -0.54629  -0.50928  -0.44303  -0.38855
 Alpha  occ. eigenvalues --   -0.35645  -0.30778
 Alpha virt. eigenvalues --    0.02991   0.04969   0.05512   0.05777   0.07604
 Alpha virt. eigenvalues --    0.11008   0.11188   0.11882   0.12802   0.13259
 Alpha virt. eigenvalues --    0.13561   0.14589   0.15144   0.15298   0.15941

 Mulliken charges:
               1
     1  N   -3.085320
     2  C    3.166130
     3  C   -0.680843
     4  C    2.390636
     5  N   -2.968531
     6  N   -3.192934
     7  H    0.626424
     8  H    0.667405
     9  H    1.555940
    10  H    0.795134
    11  H    0.725960
 Sum of Mulliken charges =  -0.00000

 Dipole moment (field-independent basis, Debye):
    X=             -1.1916    Y=             -1.8432    Z=              0.1951  Tot=              2.2035

 Test job not archived.
 1\1\GINC-SE041\SP\RHF\Aug-CC-pVDZ\C3H5N3\OHZDE\09-Apr-2025\0\\#t hf au
 g-cc-pvdz iop(5/13=1,5/36=2,99/5=2) pseudo=read geom=check guess=(read
 ,tcheck) scf=(maxcycle=1)\\title\\0,1\N,0,-1.92914314,-0.16437409,0.14
 749002\C,0,-0.61682219,0.32749569,0.0771704\C,0,0.40036881,-0.74487769
 ,0.10765205\C,0,1.68667807,-0.49257563,-0.11210919\N,0,2.84908532,-0.3
 0888112,-0.46154143\N,0,-0.25319485,1.56686808,0.05294938\H,0,-2.08438
 313,-1.06903603,-0.29180243\H,0,-2.64505434,0.50990513,-0.11206412\H,0
 ,0.1136291,-1.76425885,0.36558166\H,0,3.51334388,-0.02040981,0.2669919

 Normal termination of Gaussian 16 at Wed Apr  9 17:08:09 2025.
