 Gaussian 16, Revision C.01,

 ----------------------------------------------------------------------
 #t hf aug-cc-pvdz symm=none int=(grid=ultrafine) guess=(read,tcheck) s
 table=(opt,rrhf)
 ----------------------------------------------------------------------
 -----
 title
 -----
 Symbolic Z-matrix:
 Charge =  0 Multiplicity = 1

 SCF Done:  E(RHF) =  -307.751134438     A.U. after   14 cycles

 1\1\GINC-SE162\Stability\RHF\Aug-CC-pVDZ\C6H10O1\OHZDE\09-Apr-2025\0\\
 #t hf aug-cc-pvdz symm=none int=(grid=ultrafine) guess=(read,tcheck) s
 table=(opt,rrhf)\\title\\0,1\C,0,-2.44802474,0.29846257,0.30900469\C,0
 ,-1.1793589,0.58614823,1.0735815\C,0,0.21592699,-1.07688212,-0.3763267
 6\C,0,1.7006494,-1.22800706,-0.38506356\C,0,2.2853469,-0.09607156,-0.0
 3969009\C,0,1.26407392,0.95462105,0.24368262\O,0,0.01713637,0.33391087
 ,-0.13415725\H,0,-3.25277083,0.62295969,0.97796373\H,0,-2.61315635,-0.
 76981182,0.13513282\H,0,-2.5797423,0.83077557,-0.64386859\H,0,-1.06409

 Normal termination of Gaussian 16 at Wed Apr  9 19:29:21 2025.
 Gaussian 16:  ES64L-G16RevC.01  3-Jul-2019

 ----------------------------------------------------------------------
 #t hf aug-cc-pvdz iop(5/13=1,5/36=2,99/5=2) pseudo=read geom=check gue
 ss=(read,tcheck) scf=(maxcycle=1)
 ----------------------------------------------------------------------
 -----
 title
 -----
 Structure from the checkpoint file:  "Grambow2020_wb97xd3_009035_reverse_mol2.chk"
 Charge =  0 Multiplicity = 1

                         Standard orientation:
 ---------------------------------------------------------------------
 Center     Atomic      Atomic             Coordinates (Angstroms)
 Number     Number       Type             X           Y           Z
 ---------------------------------------------------------------------
      1          6           0       -2.628236    0.285675    0.103441
      2          6           0       -1.578301   -0.546875   -0.590353
      3          6           0        0.330369    1.121958    0.031499
      4          6           0        1.798034    0.901382   -0.125416
      5          6           0        2.083623   -0.386062   -0.067445
      6          6           0        0.841716   -1.188397    0.135479
      7          8           0       -0.181360   -0.192465    0.346026
      8          1           0       -3.576231   -0.043690   -0.336157
      9          1           0       -2.547567    1.354370   -0.120375
     10          1           0       -2.712529    0.163451    1.192766
     11          1           0       -1.685853   -1.570144   -0.191475
     12          1           0        0.063826    1.791479    0.851258
     13          1           0       -0.155248    1.449372   -0.892496
     14          1           0        2.495432    1.710759   -0.287901
     15          1           0        3.059928   -0.837108   -0.173640
     16          1           0        0.563904   -1.770315   -0.748476
     17          1           0        0.861993   -1.834540    1.015057
 ---------------------------------------------------------------------

 SCF Done:  E(RHF) =  -309.220868947     A.U. after    2 cycles

 The electronic state is 1-A.
 Alpha  occ. eigenvalues --  -21.09257 -11.49288 -11.44970 -11.43662 -11.38991
 Alpha  occ. eigenvalues --  -11.36921 -11.32665  -1.83589  -1.22242  -1.09557
 Alpha  occ. eigenvalues --   -1.07941  -0.89228  -0.81046  -0.79794  -0.71999
 Alpha  occ. eigenvalues --   -0.67486  -0.61064  -0.56281  -0.54819  -0.53867
 Alpha  occ. eigenvalues --   -0.53029  -0.50151  -0.44769  -0.41905  -0.40684
 Alpha  occ. eigenvalues --   -0.34386  -0.25402
 Alpha virt. eigenvalues --    0.03356   0.04362   0.04827   0.05257   0.06081
 Alpha virt. eigenvalues --    0.06679   0.06803   0.07474   0.08106   0.08712
 Alpha virt. eigenvalues --    0.10089   0.11588   0.12518   0.13616   0.13870

 Mulliken charges:
               1
     1  C   -3.731821
     2  C   -1.740359
     3  C   -2.028381
     4  C   -0.822371
     5  C   -0.579077
     6  C   -2.481796
     7  O   -2.485665
     8  H    1.171122
     9  H    1.408774
    10  H    1.285766
    11  H    1.327416
    12  H    1.421112
    13  H    1.635114
    14  H    1.359731
    15  H    1.399577
    16  H    1.618877
    17  H    1.241981
 Sum of Mulliken charges =  -0.00000

 Dipole moment (field-independent basis, Debye):
    X=              3.3113    Y=              0.5184    Z=              2.1465  Tot=              3.9801

 Test job not archived.
 1\1\GINC-SE162\SP\RHF\Aug-CC-pVDZ\C6H10O1\OHZDE\09-Apr-2025\0\\#t hf a
 ug-cc-pvdz iop(5/13=1,5/36=2,99/5=2) pseudo=read geom=check guess=(rea
 d,tcheck) scf=(maxcycle=1)\\title\\0,1\C,0,-2.44802474,0.29846257,0.30
 900469\C,0,-1.1793589,0.58614823,1.0735815\C,0,0.21592699,-1.07688212,
 -0.37632676\C,0,1.7006494,-1.22800706,-0.38506356\C,0,2.2853469,-0.096
 07156,-0.03969009\C,0,1.26407392,0.95462105,0.24368262\O,0,0.01713637,
 0.33391087,-0.13415725\H,0,-3.25277083,0.62295969,0.97796373\H,0,-2.61
 315635,-0.76981182,0.13513282\H,0,-2.5797423,0.83077557,-0.64386859\H,

 Normal termination of Gaussian 16 at Wed Apr  9 19:29:27 2025.
