 Gaussian 16, Revision C.01,

 ----------------------------------------------------------------------
 #t hf aug-cc-pvdz symm=none int=(grid=ultrafine) guess=(read,tcheck) s
 table=(opt,rrhf)
 ----------------------------------------------------------------------
 -----
 title
 -----
 Symbolic Z-matrix:
 Charge =  0 Multiplicity = 1

 SCF Done:  E(RHF) =  -317.506189617     A.U. after   22 cycles
 Normal termination of Gaussian 16 at Wed Apr  9 19:00:38 2025.
 Gaussian 16:  ES64L-G16RevC.01  3-Jul-2019

 ----------------------------------------------------------------------
 #t hf aug-cc-pvdz iop(5/13=1,5/36=2,99/5=2) pseudo=read geom=check gue
 ss=(read,tcheck) scf=(maxcycle=1)
 ----------------------------------------------------------------------
 -----
 title
 -----
 Structure from the checkpoint file:  "Grambow2020_wb97xd3_007987_reverse_mol1.chk"
 Charge =  0 Multiplicity = 1

                         Standard orientation:
 ---------------------------------------------------------------------
 Center     Atomic      Atomic             Coordinates (Angstroms)
 Number     Number       Type             X           Y           Z
 ---------------------------------------------------------------------
      1          7           0        2.433141   -0.067485    0.048525
      2          6           0        1.077224    0.101627    0.027675
      3          7           0        0.288005   -0.984415    0.056392
      4          6           0       -1.063843   -0.786403   -0.217107
      5          6           0       -2.034000    0.041985    0.568228
      6          6           0       -1.655249    0.553464   -0.564870
      7          7           0        0.460211    1.215435    0.187953
      8          1           0        3.014773    0.718070   -0.175566
      9          1           0        2.744036   -0.976284   -0.250567
     10          1           0       -1.480708   -1.712355   -0.621317
     11          1           0       -2.700780    0.033512    1.413276
     12          1           0       -1.791608    1.328263   -1.299471
 ---------------------------------------------------------------------

 SCF Done:  E(RHF) =  -318.945560856     A.U. after    2 cycles

 The electronic state is 1-A.
 Alpha  occ. eigenvalues --  -15.81446 -15.78519 -15.69808 -11.47629 -11.46940
 Alpha  occ. eigenvalues --  -11.43348 -11.39760  -1.51208  -1.34672  -1.23563
 Alpha  occ. eigenvalues --   -1.17135  -0.87539  -0.80900  -0.75888  -0.70384
 Alpha  occ. eigenvalues --   -0.69008  -0.60722  -0.57264  -0.55277  -0.50516
 Alpha  occ. eigenvalues --   -0.45251  -0.39535  -0.37641  -0.31570  -0.27123
 Alpha virt. eigenvalues --    0.02997   0.04106   0.05257   0.05566   0.06357
 Alpha virt. eigenvalues --    0.06502   0.09932   0.10135   0.11405   0.12369
 Alpha virt. eigenvalues --    0.12697   0.13111   0.14155   0.14925   0.15384

 Mulliken charges:
               1
     1  N   -2.746390
     2  C    4.853067
     3  N   -2.893942
     4  C    0.204187
     5  C   -0.690294
     6  C   -0.816797
     7  N   -2.025234
     8  H    0.660594
     9  H    0.643605
    10  H    1.323336
    11  H    0.763056
    12  H    0.724812
 Sum of Mulliken charges =  -0.00000

 Dipole moment (field-independent basis, Debye):
    X=              0.8237    Y=              0.8142    Z=             -1.1475  Tot=              1.6303

 Test job not archived.
 1\1\GINC-SE226\SP\RHF\Aug-CC-pVDZ\C4H5N3\OHZDE\09-Apr-2025\0\\#t hf au
 g-cc-pvdz iop(5/13=1,5/36=2,99/5=2) pseudo=read geom=check guess=(read
 ,tcheck) scf=(maxcycle=1)\\title\\0,1\N,0,2.47260059,-0.33664659,0.043
 15636\C,0,1.14945579,0.005155,0.04507178\N,0,0.23102814,-0.95940383,0.
 21622961\C,0,-1.09558542,-0.61603394,-0.03615538\C,0,-1.91730242,0.409
 53363,0.68299238\C,0,-1.52722758,0.74592458,-0.51017779\N,0,0.68623979
 ,1.20065985,0.10129502\H,0,3.13861149,0.33839014,-0.28297913\H,0,2.652
 31215,-1.30451693,-0.16410834\H,0,-1.64386937,-1.5166597,-0.32391793\H

 Normal termination of Gaussian 16 at Wed Apr  9 19:00:42 2025.
