 Gaussian 16, Revision C.01,

 ----------------------------------------------------------------------
 #t hf aug-cc-pvdz symm=none int=(grid=ultrafine) guess=(read,tcheck) s
 table=(opt,rrhf)
 ----------------------------------------------------------------------
 -----
 title
 -----
 Symbolic Z-matrix:
 Charge =  0 Multiplicity = 1

 SCF Done:  E(RHF) =  -271.824763224     A.U. after   17 cycles
 Normal termination of Gaussian 16 at Wed Apr  9 03:39:58 2025.
 Gaussian 16:  ES64L-G16RevC.01  3-Jul-2019

 ----------------------------------------------------------------------
 #t hf aug-cc-pvdz iop(5/13=1,5/36=2,99/5=2) pseudo=read geom=check gue
 ss=(read,tcheck) scf=(maxcycle=1)
 ----------------------------------------------------------------------
 -----
 title
 -----
 Structure from the checkpoint file:  "Grambow2020_wb97xd3_007425_forward_mol1.chk"
 Charge =  0 Multiplicity = 1

                         Standard orientation:
 ---------------------------------------------------------------------
 Center     Atomic      Atomic             Coordinates (Angstroms)
 Number     Number       Type             X           Y           Z
 ---------------------------------------------------------------------
      1          6           0       -2.366115    0.350400    0.116407
      2          6           0       -1.268829   -0.368370   -0.600161
      3          6           0       -0.150778   -0.896048    0.255252
      4          6           0        1.215794   -1.067820   -0.445255
      5          6           0        1.625750    0.277885    0.218275
      6          6           0        0.879774    1.363633   -0.526714
      7          6           0        0.476371    0.083223    1.146057
      8          1           0       -3.115866    0.724365   -0.582439
      9          1           0       -1.949075    1.197559    0.681788
     10          1           0       -2.891219   -0.274400    0.851238
     11          1           0       -1.607842   -1.053968   -1.381020
     12          1           0       -0.247178    0.888549   -0.778158
     13          1           0       -0.529467   -1.770849    0.806488
     14          1           0        1.216836   -1.090905   -1.536783
     15          1           0        1.778052   -1.909987   -0.044285
     16          1           0        2.655866    0.458021    0.526683
     17          1           0        0.894781    2.316965   -0.007844
     18          1           0        1.166770    1.484255   -1.574855
     19          1           0        0.156538    0.572971    2.056024
 ---------------------------------------------------------------------

 SCF Done:  E(RHF) =  -273.234362960     A.U. after    2 cycles

 The electronic state is 1-A.
 Alpha  occ. eigenvalues --  -11.49150 -11.44645 -11.43768 -11.39294 -11.37847
 Alpha  occ. eigenvalues --  -11.35958 -11.34127  -1.41056  -1.13239  -1.03926
 Alpha  occ. eigenvalues --   -0.95096  -0.92033  -0.80741  -0.74333  -0.71955
 Alpha  occ. eigenvalues --   -0.63052  -0.59682  -0.58382  -0.54636  -0.51253
 Alpha  occ. eigenvalues --   -0.50142  -0.48786  -0.44399  -0.43270  -0.42131
 Alpha  occ. eigenvalues --   -0.39131  -0.19604
 Alpha virt. eigenvalues --    0.03796   0.04427   0.05029   0.05237   0.05582
 Alpha virt. eigenvalues --    0.05626   0.06004   0.06389   0.06570   0.07377
 Alpha virt. eigenvalues --    0.08781   0.09185   0.10125   0.12168   0.12477

 Mulliken charges:
               1
     1  C   -4.152066
     2  C   -2.513552
     3  C   -1.243794
     4  C   -3.238710
     5  C   -2.368423
     6  C   -3.521258
     7  C   -0.290399
     8  H    1.163332
     9  H    1.230760
    10  H    1.296428
    11  H    1.405040
    12  H    2.824510
    13  H    1.612256
    14  H    1.567903
    15  H    1.312314
    16  H    1.494974
    17  H    1.067075
    18  H    1.001340
    19  H    1.352269
 Sum of Mulliken charges =   0.00000

 Dipole moment (field-independent basis, Debye):
    X=              0.9520    Y=             -0.1417    Z=              0.7014  Tot=              1.1909

 Test job not archived.
 1\1\GINC-SE412\SP\RHF\Aug-CC-pVDZ\C7H12\OHZDE\09-Apr-2025\0\\#t hf aug
 -cc-pvdz iop(5/13=1,5/36=2,99/5=2) pseudo=read geom=check guess=(read,
 tcheck) scf=(maxcycle=1)\\title\\0,1\C,0,2.06558442,-0.49094292,-0.824
 91935\C,0,1.05334911,0.58775319,-0.61060469\C,0,0.35818833,0.59126304,
 0.72241937\C,0,-1.04454702,1.23862737,0.75386308\C,0,-1.61613813,-0.20
 679781,0.69652685\C,0,-1.38711184,-0.69859872,-0.71627672\C,0,-0.26437
 143,-0.67647807,1.11110091\H,0,2.49570652,-0.4360301,-1.82608908\H,0,1
 .59369083,-1.47617604,-0.69116677\H,0,2.89980097,-0.4558327,-0.1115213

 Normal termination of Gaussian 16 at Wed Apr  9 03:40:05 2025.
