 Gaussian 16, Revision C.01,

 ----------------------------------------------------------------------
 #t hf aug-cc-pvdz symm=none int=(grid=ultrafine) guess=(read,tcheck) s
 table=(opt,rrhf)
 ----------------------------------------------------------------------
 -----
 title
 -----
 Symbolic Z-matrix:
 Charge =  0 Multiplicity = 1

 SCF Done:  E(RHF) =  -358.554118456     A.U. after   16 cycles
 Normal termination of Gaussian 16 at Wed Apr  9 18:13:59 2025.
 Gaussian 16:  ES64L-G16RevC.01  3-Jul-2019

 ----------------------------------------------------------------------
 #t hf aug-cc-pvdz iop(5/13=1,5/36=2,99/5=2) pseudo=read geom=check gue
 ss=(read,tcheck) scf=(maxcycle=1)
 ----------------------------------------------------------------------
 -----
 title
 -----
 Structure from the checkpoint file:  "Grambow2020_wb97xd3_006778_reverse_mol2.chk"
 Charge =  0 Multiplicity = 1

                         Standard orientation:
 ---------------------------------------------------------------------
 Center     Atomic      Atomic             Coordinates (Angstroms)
 Number     Number       Type             X           Y           Z
 ---------------------------------------------------------------------
      1          8           0        2.852154   -0.498546   -0.304961
      2          6           0        1.879274   -0.056030    0.134963
      3          6           0        0.760315    0.433275    0.612855
      4          6           0       -0.227989    1.202516   -0.255712
      5          7           0       -1.628536    0.874858   -0.082985
      6          6           0       -2.037098   -0.314017   -0.013239
      7          8           0       -1.340599   -1.463742   -0.037706
      8          1           0       -0.395434   -1.260529    0.029820
      9          1           0        0.637889    0.408266    1.688798
     10          1           0        0.042967    1.076944   -1.309923
     11          1           0       -0.122175    2.265630   -0.035307
     12          1           0       -3.102943   -0.510486    0.075639
 ---------------------------------------------------------------------

 SCF Done:  E(RHF) =  -360.122612262     A.U. after    2 cycles

 The electronic state is 1-A.
 Alpha  occ. eigenvalues --  -21.15350 -21.11529 -15.72297 -11.56223 -11.46698
 Alpha  occ. eigenvalues --  -11.45635 -11.40794  -1.79209  -1.77840  -1.37537
 Alpha  occ. eigenvalues --   -1.17928  -1.00026  -0.83108  -0.74551  -0.68364
 Alpha  occ. eigenvalues --   -0.64414  -0.61671  -0.59931  -0.59311  -0.55479
 Alpha  occ. eigenvalues --   -0.51946  -0.48816  -0.48121  -0.35276  -0.32612
 Alpha  occ. eigenvalues --   -0.29793
 Alpha virt. eigenvalues --    0.03209   0.05385   0.05516   0.06372   0.07310
 Alpha virt. eigenvalues --    0.08439   0.10209   0.10638   0.10779   0.11879
 Alpha virt. eigenvalues --    0.12072   0.13179   0.13572   0.14284   0.15426

 Mulliken charges:
               1
     1  O   -2.491550
     2  C    2.198177
     3  C   -1.138122
     4  C   -2.519143
     5  N   -2.768767
     6  C    2.387701
     7  O   -3.144424
     8  H    1.485370
     9  H    1.433859
    10  H    1.464010
    11  H    1.306441
    12  H    1.786448
 Sum of Mulliken charges =   0.00000

 Dipole moment (field-independent basis, Debye):
    X=              1.5705    Y=             -1.1815    Z=             -0.0615  Tot=              1.9663

 Test job not archived.
 1\1\GINC-SE014\SP\RHF\Aug-CC-pVDZ\C4H5N1O2\OHZDE\09-Apr-2025\0\\#t hf
 aug-cc-pvdz iop(5/13=1,5/36=2,99/5=2) pseudo=read geom=check guess=(re
 ad,tcheck) scf=(maxcycle=1)\\title\\0,1\O,0,2.76030591,0.59144327,-1.3
 7094031\C,0,1.94360278,0.52618256,-0.55571846\C,0,0.99883125,0.4404734
 3,0.34978219\C,0,-0.40389778,0.98902324,0.1166973\N,0,-1.50393284,0.14
 360947,0.5337419\C,0,-1.53699686,-1.08952906,0.28177381\O,0,-0.6301003
 7,-1.86308657,-0.34009699\H,0,0.18557473,-1.35450635,-0.46343341\H,0,1
 .29772116,0.10550872,1.33554555\H,0,-0.52361027,1.23725308,-0.94377326

 Normal termination of Gaussian 16 at Wed Apr  9 18:14:03 2025.
