 Gaussian 16, Revision C.01,

 ----------------------------------------------------------------------
 #t hf aug-cc-pvdz symm=none int=(grid=ultrafine) guess=(read,tcheck) s
 table=(opt,rrhf)
 ----------------------------------------------------------------------
 -----
 title
 -----
 Symbolic Z-matrix:
 Charge =  0 Multiplicity = 1

 SCF Done:  E(RHF) =  -375.620600730     A.U. after   15 cycles
 Normal termination of Gaussian 16 at Wed Apr  9 18:57:43 2025.
 Gaussian 16:  ES64L-G16RevC.01  3-Jul-2019

 ----------------------------------------------------------------------
 #t hf aug-cc-pvdz iop(5/13=1,5/36=2,99/5=2) pseudo=read geom=check gue
 ss=(read,tcheck) scf=(maxcycle=1)
 ----------------------------------------------------------------------
 -----
 title
 -----
 Structure from the checkpoint file:  "Grambow2020_wb97xd3_007868_reverse_mol1.chk"
 Charge =  0 Multiplicity = 1

                         Standard orientation:
 ---------------------------------------------------------------------
 Center     Atomic      Atomic             Coordinates (Angstroms)
 Number     Number       Type             X           Y           Z
 ---------------------------------------------------------------------
      1          7           0        0.960666   -0.713680    1.108483
      2          6           0        1.099127    0.080593   -0.194043
      3          8           0        2.046729   -0.057875   -0.906234
      4          6           0        0.218676    1.197138    0.070721
      5          8           0       -1.180453    0.995248    0.292093
      6          6           0       -1.824894   -0.081782   -0.121955
      7          7           0       -1.266405   -1.140464   -0.534820
      8          1           0        1.847181   -1.101339    1.407131
      9          1           0        0.233044   -1.419358    1.011822
     10          1           0        0.349623    2.074349   -0.552683
     11          1           0        0.678313    0.496318    1.356233
     12          1           0       -2.900542    0.075857   -0.024401
     13          1           0       -1.955114   -1.821494   -0.828957
 ---------------------------------------------------------------------

 SCF Done:  E(RHF) =  -377.300646792     A.U. after    2 cycles

 The electronic state is 1-A.
 Alpha  occ. eigenvalues --  -21.09915 -21.05367 -15.79746 -15.73908 -11.51706
 Alpha  occ. eigenvalues --  -11.47769 -11.39130  -1.82132  -1.71999  -1.38300
 Alpha  occ. eigenvalues --   -1.32568  -1.05840  -0.87018  -0.77310  -0.74278
 Alpha  occ. eigenvalues --   -0.70226  -0.67703  -0.61322  -0.55730  -0.54945
 Alpha  occ. eigenvalues --   -0.51154  -0.45327  -0.42996  -0.41278  -0.37159
 Alpha  occ. eigenvalues --   -0.29579  -0.26016
 Alpha virt. eigenvalues --    0.03237   0.04513   0.05290   0.06169   0.06742
 Alpha virt. eigenvalues --    0.07098   0.10202   0.10739   0.11166   0.12960
 Alpha virt. eigenvalues --    0.13447   0.14044   0.14433   0.15242   0.15437

 Mulliken charges:
               1
     1  N   -2.634711
     2  C    4.841132
     3  O   -3.455491
     4  C   -1.122672
     5  O   -3.281429
     6  C    1.958438
     7  N   -2.718410
     8  H    0.674596
     9  H    0.691972
    10  H    1.327135
    11  H    1.196133
    12  H    1.717461
    13  H    0.805847
 Sum of Mulliken charges =  -0.00000

 Dipole moment (field-independent basis, Debye):
    X=             -1.2225    Y=             -1.6871    Z=              1.6529  Tot=              2.6595

 Test job not archived.
 1\1\GINC-SE014\SP\RHF\Aug-CC-pVDZ\C3H6N2O2\OHZDE\09-Apr-2025\0\\#t hf
 aug-cc-pvdz iop(5/13=1,5/36=2,99/5=2) pseudo=read geom=check guess=(re
 ad,tcheck) scf=(maxcycle=1)\\title\\0,1\N,0,-1.46119687,0.62471667,-0.
 05822892\C,0,-0.98376591,-0.78430753,0.30690773\O,0,-1.67302955,-1.740
 16635,0.11826092\C,0,0.03871549,-0.4826683,1.28441142\O,0,1.19932986,0
 .27378579,0.92653438\C,0,1.62863291,0.38429914,-0.31854404\N,0,0.96103
 284,0.05307392,-1.34215224\H,0,-2.46598094,0.66053216,-0.17866928\H,0,
 -0.95305234,0.96597546,-0.87191804\H,0,0.33990756,-1.29555811,1.935390

 Normal termination of Gaussian 16 at Wed Apr  9 18:57:47 2025.
