 Gaussian 16, Revision C.01,

 ----------------------------------------------------------------------
 #t hf aug-cc-pvdz symm=none int=(grid=ultrafine) guess=(read,tcheck) s
 table=(opt,rrhf)
 ----------------------------------------------------------------------
 -----
 title
 -----
 Symbolic Z-matrix:
 Charge =  0 Multiplicity = 1

 SCF Done:  E(RHF) =  -248.938302778     A.U. after   12 cycles
 Normal termination of Gaussian 16 at Wed Apr  9 03:06:56 2025.
 Gaussian 16:  ES64L-G16RevC.01  3-Jul-2019

 ----------------------------------------------------------------------
 #t hf aug-cc-pvdz iop(5/13=1,5/36=2,99/5=2) pseudo=read geom=check gue
 ss=(read,tcheck) scf=(maxcycle=1)
 ----------------------------------------------------------------------
 -----
 title
 -----
 Structure from the checkpoint file:  "Grambow2020_b97d3_006548_forward_mol2.chk"
 Charge =  0 Multiplicity = 1

                         Standard orientation:
 ---------------------------------------------------------------------
 Center     Atomic      Atomic             Coordinates (Angstroms)
 Number     Number       Type             X           Y           Z
 ---------------------------------------------------------------------
      1          6           0        2.009392   -0.000238   -0.000102
      2          6           0        0.495857   -0.000108    0.000263
      3          6           0       -0.483593   -0.724473   -0.955068
      4          7           0       -1.462087    0.000325   -0.000159
      5          6           0       -0.483448   -0.464985    1.104958
      6          6           0       -0.482827    1.189284   -0.149745
      7          1           0        2.400467    0.613355    0.824741
      8          1           0        2.398972    0.408084   -0.944141
      9          1           0        2.401094   -1.021182    0.118053
     10          1           0       -0.549826   -0.373039   -1.994633
     11          1           0       -0.550042   -1.820273   -0.896538
     12          1           0       -0.549736   -1.540946    1.320360
     13          1           0       -0.549815    0.133543    2.024623
     14          1           0       -0.548885    1.913848    0.674353
     15          1           0       -0.549912    1.687449   -1.127544
 ---------------------------------------------------------------------

 SCF Done:  E(RHF) =  -250.184672714     A.U. after    2 cycles

 The electronic state is 1-A.
 Alpha  occ. eigenvalues --  -15.71486 -11.46012 -11.46003 -11.42370 -11.39278
 Alpha  occ. eigenvalues --  -11.36523  -1.54069  -1.10450  -0.98112  -0.98109
 Alpha  occ. eigenvalues --   -0.91113  -0.77933  -0.64351  -0.64345  -0.58307
 Alpha  occ. eigenvalues --   -0.57315  -0.57311  -0.49043  -0.44581  -0.44571
 Alpha  occ. eigenvalues --   -0.41415  -0.41398  -0.31021
 Alpha virt. eigenvalues --    0.03734   0.05471   0.05472   0.05606   0.06218
 Alpha virt. eigenvalues --    0.06219   0.06488   0.06489   0.08779   0.09767
 Alpha virt. eigenvalues --    0.12327   0.12992   0.12993   0.13754   0.14881

 Mulliken charges:
               1
     1  C   -5.351058
     2  C    1.593306
     3  C   -2.065521
     4  N   -1.146503
     5  C   -2.066094
     6  C   -2.065086
     7  H    1.219276
     8  H    1.218407
     9  H    1.220225
    10  H    1.240464
    11  H    1.240947
    12  H    1.239929
    13  H    1.240497
    14  H    1.240048
    15  H    1.241165
 Sum of Mulliken charges =  -0.00000

 Dipole moment (field-independent basis, Debye):
    X=              1.4662    Y=             -0.0010    Z=              0.0007  Tot=              1.4662

 Test job not archived.
 1\1\GINC-SE116\SP\RHF\Aug-CC-pVDZ\C5H9N1\OHZDE\09-Apr-2025\0\\#t hf au
 g-cc-pvdz iop(5/13=1,5/36=2,99/5=2) pseudo=read geom=check guess=(read
 ,tcheck) scf=(maxcycle=1)\\title\\0,1\C,0,1.76228662,-0.11021674,-0.19
 39657\C,0,0.26073472,-0.01602281,-0.02886557\C,0,-0.5838226,-0.0199367
 9,1.26859033\N,0,-1.68169962,0.10504965,0.18522573\C,0,-0.70417834,1.1
 1157618,-0.46814095\C,0,-0.84390585,-0.95769397,-0.56552504\H,0,2.0418
 9723,-0.06957731,-1.25696587\H,0,2.14181528,-1.05444721,0.22328132\H,0
 ,2.26612821,0.71911019,0.32379779\H,0,-0.64561096,-0.95415494,1.844790

 Normal termination of Gaussian 16 at Wed Apr  9 03:07:00 2025.
