 Gaussian 16, Revision C.01,

 ----------------------------------------------------------------------
 #t hf aug-cc-pvdz symm=none int=(grid=ultrafine) guess=(read,tcheck) s
 table=(opt,rrhf)
 ----------------------------------------------------------------------
 -----
 title
 -----
 Symbolic Z-matrix:
 Charge =  0 Multiplicity = 1

 SCF Done:  E(RHF) =  -284.720789436     A.U. after   15 cycles
 Normal termination of Gaussian 16 at Wed Apr  9 17:54:47 2025.
 Gaussian 16:  ES64L-G16RevC.01  3-Jul-2019

 ----------------------------------------------------------------------
 #t hf aug-cc-pvdz iop(5/13=1,5/36=2,99/5=2) pseudo=read geom=check gue
 ss=(read,tcheck) scf=(maxcycle=1)
 ----------------------------------------------------------------------
 -----
 title
 -----
 Structure from the checkpoint file:  "Grambow2020_wb97xd3_006245_reverse_mol2.chk"
 Charge =  0 Multiplicity = 1

                         Standard orientation:
 ---------------------------------------------------------------------
 Center     Atomic      Atomic             Coordinates (Angstroms)
 Number     Number       Type             X           Y           Z
 ---------------------------------------------------------------------
      1          8           0        2.382504    0.147933   -0.223166
      2          6           0        1.399349   -0.217148    0.332215
      3          7           0        0.093623   -0.079839   -0.277865
      4          6           0       -0.844873    1.042062    0.206937
      5          6           0       -1.986246    0.164827   -0.267604
      6          6           0       -1.080288   -1.008865    0.036392
      7          1           0        1.365661   -0.672280    1.331476
      8          1           0       -0.641448    1.116254    1.299824
      9          1           0       -0.601581    1.998040   -0.263172
     10          1           0       -2.927176    0.224412    0.275902
     11          1           0        0.157659    0.029726   -1.290050
     12          1           0       -1.080555   -1.918019   -0.571775
     13          1           0       -0.915603   -1.287989    1.100534
 ---------------------------------------------------------------------

 SCF Done:  E(RHF) =  -286.033480885     A.U. after    2 cycles

 The electronic state is 1-A.
 Alpha  occ. eigenvalues --  -21.12355 -15.84224 -11.54481 -11.44455 -11.42827
 Alpha  occ. eigenvalues --  -11.29464  -1.78621  -1.53977  -1.12254  -1.00201
 Alpha  occ. eigenvalues --   -0.92628  -0.80421  -0.73147  -0.71462  -0.60852
 Alpha  occ. eigenvalues --   -0.58384  -0.57343  -0.56377  -0.47852  -0.45444
 Alpha  occ. eigenvalues --   -0.43630  -0.35442  -0.23618
 Alpha virt. eigenvalues --    0.03546   0.05149   0.05318   0.05828   0.06003
 Alpha virt. eigenvalues --    0.06535   0.07056   0.09156   0.10037   0.11040
 Alpha virt. eigenvalues --    0.12651   0.13162   0.14033   0.14129   0.14701

 Mulliken charges:
               1
     1  O   -2.716988
     2  C    1.970439
     3  N   -1.799665
     4  C   -2.271973
     5  C   -1.773810
     6  C   -2.276086
     7  H    1.570614
     8  H    1.404981
     9  H    1.315115
    10  H    1.244798
    11  H    0.629928
    12  H    1.339060
    13  H    1.363585
 Sum of Mulliken charges =   0.00000

 Dipole moment (field-independent basis, Debye):
    X=              3.7297    Y=             -0.8654    Z=              1.5649  Tot=              4.1363

 Test job not archived.
 1\1\GINC-SE340\SP\RHF\Aug-CC-pVDZ\C4H7N1O1\OHZDE\09-Apr-2025\0\\#t hf
 aug-cc-pvdz iop(5/13=1,5/36=2,99/5=2) pseudo=read geom=check guess=(re
 ad,tcheck) scf=(maxcycle=1)\\title\\0,1\O,0,2.14579843,0.70112889,-1.7
 8828867\C,0,1.67583388,0.24585513,-0.7982457\N,0,0.25482243,-0.0070093
 1,-0.68529376\C,0,-0.61491173,0.96266054,0.13797556\C,0,-1.55841304,-0
 .20567416,0.3435547\C,0,-0.3346555,-1.08798231,0.22241017\H,0,2.236620
 98,-0.01609113,0.10933603\H,0,0.04515517,1.27594944,0.97907548\H,0,-0.
 88901919,1.8461923,-0.44368077\H,0,-2.11387444,-0.24631658,1.27849339\

 Normal termination of Gaussian 16 at Wed Apr  9 17:54:50 2025.
