 Gaussian 16, Revision C.01,

 ----------------------------------------------------------------------
 #t hf aug-cc-pvdz symm=none int=(grid=ultrafine) guess=(read,tcheck) s
 table=(opt,rrhf)
 ----------------------------------------------------------------------
 -----
 title
 -----
 Symbolic Z-matrix:
 Charge =  0 Multiplicity = 1

 SCF Done:  E(RHF) =  -232.726580773     A.U. after   17 cycles
 Normal termination of Gaussian 16 at Wed Apr  9 03:08:04 2025.
 Gaussian 16:  ES64L-G16RevC.01  3-Jul-2019

 ----------------------------------------------------------------------
 #t hf aug-cc-pvdz iop(5/13=1,5/36=2,99/5=2) pseudo=read geom=check gue
 ss=(read,tcheck) scf=(maxcycle=1)
 ----------------------------------------------------------------------
 -----
 title
 -----
 Structure from the checkpoint file:  "Grambow2020_b97d3_006597_reverse_mol1.chk"
 Charge =  0 Multiplicity = 1

                         Standard orientation:
 ---------------------------------------------------------------------
 Center     Atomic      Atomic             Coordinates (Angstroms)
 Number     Number       Type             X           Y           Z
 ---------------------------------------------------------------------
      1          6           0       -1.441063   -0.500657    0.749822
      2          6           0       -1.646823    0.041167   -0.619132
      3          6           0       -0.258859   -0.074638   -0.111902
      4          6           0        0.996873   -0.924794   -0.370898
      5          6           0        2.029607   -0.037352    0.242878
      6          6           0        0.107102    1.372489    0.018877
      7          1           0       -1.530193   -1.586139    0.879036
      8          1           0       -1.746239    0.073062    1.630100
      9          1           0       -1.159724    1.558904   -0.330942
     10          1           0       -2.245998   -0.345410   -1.446100
     11          1           0        1.170410   -1.066101   -1.447559
     12          1           0        0.920394   -1.915177    0.106967
     13          1           0        2.813623    0.425877   -0.350929
     14          1           0        2.142219   -0.019517    1.324916
     15          1           0        0.639723    1.805753   -0.830983
     16          1           0        0.274767    1.811455    1.007619
 ---------------------------------------------------------------------

 SCF Done:  E(RHF) =  -233.939549629     A.U. after    2 cycles

 The electronic state is 1-A.
 Alpha  occ. eigenvalues --  -11.47923 -11.43796 -11.41302 -11.39711 -11.39421
 Alpha  occ. eigenvalues --  -11.36363  -1.36248  -1.13937  -1.00215  -0.88044
 Alpha  occ. eigenvalues --   -0.83024  -0.76021  -0.65747  -0.63932  -0.61058
 Alpha  occ. eigenvalues --   -0.57929  -0.53052  -0.51564  -0.50928  -0.41668
 Alpha  occ. eigenvalues --   -0.38800  -0.35557  -0.21287
 Alpha virt. eigenvalues --    0.03295   0.04182   0.05153   0.05515   0.05615
 Alpha virt. eigenvalues --    0.06280   0.06493   0.06792   0.06965   0.07381
 Alpha virt. eigenvalues --    0.09106   0.11685   0.12921   0.13130   0.13880

 Mulliken charges:
               1
     1  C   -2.646941
     2  C   -1.377441
     3  C    2.593923
     4  C   -4.262460
     5  C   -2.830680
     6  C   -3.830330
     7  H    1.345853
     8  H    1.140200
     9  H    1.037094
    10  H    1.041297
    11  H    1.292470
    12  H    1.264565
    13  H    1.311041
    14  H    1.428548
    15  H    1.242983
    16  H    1.249878
 Sum of Mulliken charges =   0.00000

 Dipole moment (field-independent basis, Debye):
    X=              0.3456    Y=             -0.9670    Z=             -0.1463  Tot=              1.0373

 Test job not archived.
 1\1\GINC-SE455\SP\RHF\Aug-CC-pVDZ\C6H10\OHZDE\09-Apr-2025\0\\#t hf aug
 -cc-pvdz iop(5/13=1,5/36=2,99/5=2) pseudo=read geom=check guess=(read,
 tcheck) scf=(maxcycle=1)\\title\\0,1\C,0,-1.53317648,0.20496616,0.8264
 1053\C,0,-1.7188591,-0.06765698,-0.62312231\C,0,-0.34382674,-0.1128721
 2,-0.07141666\C,0,0.7413701,-1.15858467,0.23767911\C,0,1.93544617,-0.2
 6437486,0.31107439\C,0,0.25937294,1.08507434,-0.73945849\H,0,-1.791159
 34,-0.5994625,1.5258757\H,0,-1.69454242,1.20829684,1.23195106\H,0,-0.9
 7660699,1.25456625,-1.19288794\H,0,-2.41524136,-0.73948595,-1.12911209

 Normal termination of Gaussian 16 at Wed Apr  9 03:08:08 2025.
