 Gaussian 16, Revision C.01,

 ----------------------------------------------------------------------
 #t hf aug-cc-pvdz symm=none int=(grid=ultrafine) guess=(read,tcheck) s
 table=(opt,rrhf)
 ----------------------------------------------------------------------
 -----
 title
 -----
 Symbolic Z-matrix:
 Charge =  0 Multiplicity = 1

 SCF Done:  E(RHF) =  -264.868634601     A.U. after   18 cycles
 Normal termination of Gaussian 16 at Wed Apr  9 16:52:09 2025.
 Gaussian 16:  ES64L-G16RevC.01  3-Jul-2019

 ----------------------------------------------------------------------
 #t hf aug-cc-pvdz iop(5/13=1,5/36=2,99/5=2) pseudo=read geom=check gue
 ss=(read,tcheck) scf=(maxcycle=1)
 ----------------------------------------------------------------------
 -----
 title
 -----
 Structure from the checkpoint file:  "Grambow2020_b97d3_006848_forward_mol1.chk"
 Charge =  0 Multiplicity = 1

                         Standard orientation:
 ---------------------------------------------------------------------
 Center     Atomic      Atomic             Coordinates (Angstroms)
 Number     Number       Type             X           Y           Z
 ---------------------------------------------------------------------
      1          6           0       -2.202157   -0.646641    0.177982
      2          7           0       -0.945645   -0.332508   -0.485119
      3          6           0        0.925800   -0.314990    0.490688
      4          6           0        2.195688   -0.746575   -0.160403
      5          6           0        0.098684    0.769642    0.034684
      6          7           0        0.095022    1.993472   -0.006007
      7          1           0       -2.097156   -0.403450    1.244345
      8          1           0       -2.463984   -1.711113    0.079498
      9          1           0       -3.032508   -0.042897   -0.224594
     10          1           0       -0.909411   -0.561518   -1.483462
     11          1           0        0.718236   -0.725239    1.485371
     12          1           0        3.049677   -0.312232    0.391629
     13          1           0        2.320452   -1.838359   -0.113445
     14          1           0        2.260961   -0.400553   -1.199166
 ---------------------------------------------------------------------

 SCF Done:  E(RHF) =  -266.132091867     A.U. after    2 cycles

 The electronic state is 1-A.
 Alpha  occ. eigenvalues --  -15.75003 -15.66000 -11.53602 -11.43474 -11.41334
 Alpha  occ. eigenvalues --  -11.39732  -1.39580  -1.22708  -1.15855  -0.99519
 Alpha  occ. eigenvalues --   -0.92567  -0.75145  -0.67829  -0.61440  -0.60400
 Alpha  occ. eigenvalues --   -0.60072  -0.57489  -0.55160  -0.51586  -0.45099
 Alpha  occ. eigenvalues --   -0.36657  -0.34237  -0.24113
 Alpha virt. eigenvalues --    0.02401   0.04201   0.04788   0.05180   0.05612
 Alpha virt. eigenvalues --    0.06159   0.06543   0.06909   0.08154   0.10615
 Alpha virt. eigenvalues --    0.11673   0.12427   0.12814   0.13735   0.14039

 Mulliken charges:
               1
     1  C   -3.342618
     2  N   -1.757963
     3  C   -1.494355
     4  C   -3.828146
     5  C    3.244351
     6  N   -2.838266
     7  H    1.449622
     8  H    1.326238
     9  H    1.330709
    10  H    0.574633
    11  H    1.493695
    12  H    1.244081
    13  H    1.293738
    14  H    1.304281
 Sum of Mulliken charges =   0.00000

 Dipole moment (field-independent basis, Debye):
    X=              1.1874    Y=             -6.3051    Z=              0.2584  Tot=              6.4212

 Test job not archived.
 1\1\GINC-SE113\SP\RHF\Aug-CC-pVDZ\C4H8N2\OHZDE\09-Apr-2025\0\\#t hf au
 g-cc-pvdz iop(5/13=1,5/36=2,99/5=2) pseudo=read geom=check guess=(read
 ,tcheck) scf=(maxcycle=1)\\title\\0,1\C,0,2.15050644,0.16372674,0.4953
 8379\N,0,0.72044011,0.13946646,0.76282703\C,0,-0.75282427,-0.0412327,-
 0.73772389\C,0,-2.02802078,-0.79071897,-0.55078816\C,0,-0.3488686,1.09
 632566,0.04411219\N,0,-0.62606112,2.28003847,0.19046108\H,0,2.30192249
 ,0.53989338,-0.52582598\H,0,2.60091008,-0.83720965,0.5767193\H,0,2.678
 3778,0.84260574,1.18569662\H,0,0.45341458,-0.2386827,1.6772391\H,0,-0.

 Normal termination of Gaussian 16 at Wed Apr  9 16:52:13 2025.
