 Gaussian 16, Revision C.01,

 ----------------------------------------------------------------------
 #t hf aug-cc-pvdz symm=none int=(grid=ultrafine) guess=(read,tcheck) s
 table=(opt,rrhf)
 ----------------------------------------------------------------------
 -----
 title
 -----
 Symbolic Z-matrix:
 Charge =  0 Multiplicity = 1

 SCF Done:  E(RHF) =  -320.159444687     A.U. after   18 cycles
 Normal termination of Gaussian 16 at Wed Apr  9 19:31:54 2025.
 Gaussian 16:  ES64L-G16RevC.01  3-Jul-2019

 ----------------------------------------------------------------------
 #t hf aug-cc-pvdz iop(5/13=1,5/36=2,99/5=2) pseudo=read geom=check gue
 ss=(read,tcheck) scf=(maxcycle=1)
 ----------------------------------------------------------------------
 -----
 title
 -----
 Structure from the checkpoint file:  "Grambow2020_wb97xd3_009366_reverse_mol1.chk"
 Charge =  0 Multiplicity = 1

                         Standard orientation:
 ---------------------------------------------------------------------
 Center     Atomic      Atomic             Coordinates (Angstroms)
 Number     Number       Type             X           Y           Z
 ---------------------------------------------------------------------
      1          6           0        2.332621    0.187576   -0.531235
      2          6           0        1.324869   -0.073177    0.069660
      3          6           0       -0.067862    0.738960    0.984581
      4          6           0        0.071320   -0.664777    0.681491
      5          8           0       -0.872915   -1.081799   -0.278518
      6          7           0       -1.523843    0.029423   -0.688063
      7          6           0       -1.061250    1.050561   -0.044620
      8          1           0        3.229758    0.440413   -1.047479
      9          1           0        0.302069   -1.450009    1.392573
     10          1           0       -1.479795    2.023171   -0.259767
 ---------------------------------------------------------------------

 SCF Done:  E(RHF) =  -321.581992595     A.U. after    2 cycles

 The electronic state is 1-A.
 Alpha  occ. eigenvalues --  -21.12457 -15.82292 -11.52259 -11.45996 -11.45133
 Alpha  occ. eigenvalues --  -11.43970 -11.40993  -1.91710  -1.29987  -1.26692
 Alpha  occ. eigenvalues --   -1.08063  -0.87797  -0.83173  -0.77284  -0.70913
 Alpha  occ. eigenvalues --   -0.68250  -0.55527  -0.51392  -0.49320  -0.46309
 Alpha  occ. eigenvalues --   -0.42751  -0.39876  -0.35670  -0.31506
 Alpha virt. eigenvalues --    0.02989   0.04592   0.05693   0.06138   0.09335
 Alpha virt. eigenvalues --    0.09507   0.09943   0.10512   0.10734   0.11273
 Alpha virt. eigenvalues --    0.11972   0.13556   0.14371   0.15123   0.15402

 Mulliken charges:
               1
     1  C   -5.435918
     2  C    5.349586
     3  C   -0.888800
     4  C    0.010367
     5  O   -2.774761
     6  N   -0.631282
     7  C    0.802757
     8  H    0.591337
     9  H    1.410287
    10  H    1.566427
 Sum of Mulliken charges =  -0.00000

 Dipole moment (field-independent basis, Debye):
    X=              1.0926    Y=             -1.2416    Z=             -1.0337  Tot=              1.9503

 Test job not archived.
 1\1\GINC-SE098\SP\RHF\Aug-CC-pVDZ\C5H3N1O1\OHZDE\09-Apr-2025\0\\#t hf
 aug-cc-pvdz iop(5/13=1,5/36=2,99/5=2) pseudo=read geom=check guess=(re
 ad,tcheck) scf=(maxcycle=1)\\title\\0,1\C,0,2.00281128,0.46542686,0.72
 439432\C,0,0.96448854,0.54760121,0.12459059\C,0,-0.06748926,-0.3630533
 ,-1.11721392\C,0,-0.41848265,0.84830483,-0.41640989\O,0,-1.44473028,0.
 6223226,0.52319142\N,0,-1.67204491,-0.70976632,0.53392291\C,0,-0.88897
 038,-1.27825476,-0.32301929\H,0,2.93421188,0.37935363,1.23466238\H,0,-
 0.47475623,1.84083409,-0.84906598\H,0,-0.94653899,-2.35134983,-0.43522

 Normal termination of Gaussian 16 at Wed Apr  9 19:31:57 2025.
