 Gaussian 16, Revision C.01,

 ----------------------------------------------------------------------
 #t hf aug-cc-pvdz symm=none int=(grid=ultrafine) guess=(read,tcheck) s
 table=(opt,rrhf)
 ----------------------------------------------------------------------
 -----
 title
 -----
 Symbolic Z-matrix:
 Charge =  0 Multiplicity = 1

 SCF Done:  E(RHF) =  -306.833824441     A.U. after   16 cycles

 1\1\GINC-SE174\Stability\RHF\Aug-CC-pVDZ\C4H10O2\OHZDE\09-Apr-2025\0\\
 #t hf aug-cc-pvdz symm=none int=(grid=ultrafine) guess=(read,tcheck) s
 table=(opt,rrhf)\\title\\0,1\O,0,-1.84387658,1.06491385,-1.14836798\C,
 0,-1.79437831,0.10803102,-0.11378734\C,0,-0.67845293,-0.87895829,-0.25
 315098\C,0,1.12965176,-0.44601868,1.58317275\C,0,1.62193155,0.58780479
 ,0.76048431\O,0,0.75751983,0.5570788,-0.75512704\H,0,-0.89762465,1.312
 75478,-1.27074683\H,0,-1.76588111,0.56387339,0.89339139\H,0,-2.7388356
 ,-0.47022986,-0.16860916\H,0,-0.5196399,-1.26462616,-1.26057341\H,0,-0

 Normal termination of Gaussian 16 at Wed Apr  9 17:30:33 2025.
 Gaussian 16:  ES64L-G16RevC.01  3-Jul-2019

 ----------------------------------------------------------------------
 #t hf aug-cc-pvdz iop(5/13=1,5/36=2,99/5=2) pseudo=read geom=check gue
 ss=(read,tcheck) scf=(maxcycle=1)
 ----------------------------------------------------------------------
 -----
 title
 -----
 Structure from the checkpoint file:  "Grambow2020_b97d3_007165_reverse_mol1.chk"
 Charge =  0 Multiplicity = 1

                         Standard orientation:
 ---------------------------------------------------------------------
 Center     Atomic      Atomic             Coordinates (Angstroms)
 Number     Number       Type             X           Y           Z
 ---------------------------------------------------------------------
      1          8           0       -2.141935   -0.581680   -0.361232
      2          6           0       -1.503157    0.674061   -0.301993
      3          6           0       -0.478612    0.782964    0.783045
      4          6           0        1.916946    0.867748   -0.257567
      5          6           0        1.843140   -0.535318   -0.375496
      6          8           0        0.378233   -1.085906    0.396598
      7          1           0       -1.399423   -1.217721   -0.235047
      8          1           0       -1.057485    0.976483   -1.267876
      9          1           0       -2.289452    1.421472   -0.072846
     10          1           0       -0.768462    0.355256    1.743209
     11          1           0        0.045874    1.727488    0.872297
     12          1           0        2.483715    1.328448    0.550187
     13          1           0        1.606067    1.508413   -1.080355
     14          1           0        2.559884   -1.142735    0.186812
     15          1           0        1.627030   -0.952163   -1.360634
     16          1           0        0.631964   -1.400976    1.293380
 ---------------------------------------------------------------------

 SCF Done:  E(RHF) =  -308.266278655     A.U. after    2 cycles

 The electronic state is 1-A.
 Alpha  occ. eigenvalues --  -21.05944 -21.04678 -11.51982 -11.43839 -11.43274
 Alpha  occ. eigenvalues --  -11.32587  -1.71302  -1.62847  -1.12871  -1.08911
 Alpha  occ. eigenvalues --   -0.88853  -0.81704  -0.67844  -0.66344  -0.62531
 Alpha  occ. eigenvalues --   -0.58588  -0.55906  -0.53852  -0.52595  -0.47380
 Alpha  occ. eigenvalues --   -0.43506  -0.39031  -0.36076  -0.32163  -0.20473
 Alpha virt. eigenvalues --    0.03515   0.04453   0.04776   0.05395   0.05639
 Alpha virt. eigenvalues --    0.06352   0.06786   0.07105   0.07587   0.08432
 Alpha virt. eigenvalues --    0.10267   0.12199   0.13527   0.13955   0.14412

 Mulliken charges:
               1
     1  O   -2.665581
     2  C   -0.815050
     3  C   -2.502629
     4  C   -3.070887
     5  C   -2.252198
     6  O   -1.313780
     7  H    1.034406
     8  H    1.477898
     9  H    1.296206
    10  H    1.188836
    11  H    1.545262
    12  H    1.306221
    13  H    1.334898
    14  H    1.277965
    15  H    1.311015
    16  H    0.847417
 Sum of Mulliken charges =   0.00000

 Dipole moment (field-independent basis, Debye):
    X=             -1.5229    Y=             -0.2451    Z=              1.4854  Tot=              2.1414

 Test job not archived.
 1\1\GINC-SE174\SP\RHF\Aug-CC-pVDZ\C4H10O2\OHZDE\09-Apr-2025\0\\#t hf a
 ug-cc-pvdz iop(5/13=1,5/36=2,99/5=2) pseudo=read geom=check guess=(rea
 d,tcheck) scf=(maxcycle=1)\\title\\0,1\O,0,-1.84387658,1.06491385,-1.1
 4836798\C,0,-1.79437831,0.10803102,-0.11378734\C,0,-0.67845293,-0.8789
 5829,-0.25315098\C,0,1.12965176,-0.44601868,1.58317275\C,0,1.62193155,
 0.58780479,0.76048431\O,0,0.75751983,0.5570788,-0.75512704\H,0,-0.8976
 2465,1.31275478,-1.27074683\H,0,-1.76588111,0.56387339,0.89339139\H,0,
 -2.7388356,-0.47022986,-0.16860916\H,0,-0.5196399,-1.26462616,-1.26057

 Normal termination of Gaussian 16 at Wed Apr  9 17:30:38 2025.
