 Gaussian 16, Revision C.01,

 ----------------------------------------------------------------------
 #t hf aug-cc-pvdz symm=none int=(grid=ultrafine) guess=(read,tcheck) s
 table=(opt,rrhf)
 ----------------------------------------------------------------------
 -----
 title
 -----
 Symbolic Z-matrix:
 Charge =  0 Multiplicity = 1

 SCF Done:  E(RHF) =  -305.399116977     A.U. after   16 cycles
 Normal termination of Gaussian 16 at Wed Apr  9 19:02:48 2025.
 Gaussian 16:  ES64L-G16RevC.01  3-Jul-2019

 ----------------------------------------------------------------------
 #t hf aug-cc-pvdz iop(5/13=1,5/36=2,99/5=2) pseudo=read geom=check gue
 ss=(read,tcheck) scf=(maxcycle=1)
 ----------------------------------------------------------------------
 -----
 title
 -----
 Structure from the checkpoint file:  "Grambow2020_wb97xd3_008027_reverse_mol2.chk"
 Charge =  0 Multiplicity = 1

                         Standard orientation:
 ---------------------------------------------------------------------
 Center     Atomic      Atomic             Coordinates (Angstroms)
 Number     Number       Type             X           Y           Z
 ---------------------------------------------------------------------
      1          8           0        2.262090   -0.663480    0.021392
      2          6           0        0.929631   -0.980230   -0.297684
      3          6           0       -0.070093   -0.097426    0.477644
      4          6           0       -0.365120    2.355835   -0.394933
      5          6           0        0.185047    1.358226    0.204805
      6          6           0       -1.440512   -0.490415    0.151303
      7          6           0       -2.545985   -0.846502   -0.134133
      8          1           0        2.578377    0.010413   -0.582076
      9          1           0        0.731377   -0.885534   -1.369416
     10          1           0        0.760737   -2.019384   -0.011037
     11          1           0        0.100204   -0.271185    1.544095
     12          1           0        1.110556    1.827903    0.585876
     13          1           0       -3.535772   -1.151301   -0.380593
 ---------------------------------------------------------------------

 SCF Done:  E(RHF) =  -306.793930365     A.U. after    2 cycles

 The electronic state is 1-A.
 Alpha  occ. eigenvalues --  -21.09068 -11.49848 -11.45341 -11.43897 -11.43658
 Alpha  occ. eigenvalues --  -11.41821 -11.40179  -1.73735  -1.28436  -1.11016
 Alpha  occ. eigenvalues --   -1.04998  -0.91916  -0.77275  -0.70930  -0.69232
 Alpha  occ. eigenvalues --   -0.62437  -0.60969  -0.57944  -0.53513  -0.43782
 Alpha  occ. eigenvalues --   -0.43450  -0.39682  -0.38924  -0.37649  -0.33067
 Alpha virt. eigenvalues --    0.02946   0.04836   0.05451   0.05727   0.06230
 Alpha virt. eigenvalues --    0.06794   0.07517   0.08950   0.09933   0.10869
 Alpha virt. eigenvalues --    0.11216   0.12386   0.12600   0.12724   0.14069

 Mulliken charges:
               1
     1  O   -2.577895
     2  C   -0.250934
     3  C   -4.437883
     4  C   -3.123445
     5  C    2.658167
     6  C    5.702346
     7  C   -4.932862
     8  H    0.602400
     9  H    1.586129
    10  H    1.222164
    11  H    1.338799
    12  H    1.506049
    13  H    0.706967
 Sum of Mulliken charges =   0.00000

 Dipole moment (field-independent basis, Debye):
    X=              0.9141    Y=             -2.0354    Z=              0.5155  Tot=              2.2900

 Test job not archived.
 1\1\GINC-SE174\SP\RHF\Aug-CC-pVDZ\C6H6O1\OHZDE\09-Apr-2025\0\\#t hf au
 g-cc-pvdz iop(5/13=1,5/36=2,99/5=2) pseudo=read geom=check guess=(read
 ,tcheck) scf=(maxcycle=1)\\title\\0,1\O,0,1.95564856,-1.15085946,-0.03
 234522\C,0,1.25781684,0.04312304,0.22265482\C,0,-0.20217496,-0.0306448
 9,-0.27020025\C,0,-1.85883297,-1.40622639,1.2231779\C,0,-0.92048199,-1
 .18514104,0.36982428\C,0,-0.87603517,1.24447618,-0.02736784\C,0,-1.389
 55374,2.30456457,0.17964552\H,0,1.86098974,-1.73726704,0.7196589\H,0,1
 .26201551,0.30104531,1.2858289\H,0,1.76217141,0.84202252,-0.3231637\H,

 Normal termination of Gaussian 16 at Wed Apr  9 19:02:52 2025.
