 Gaussian 16, Revision C.01,

 ----------------------------------------------------------------------
 #t hf aug-cc-pvdz symm=none int=(grid=ultrafine) guess=(read,tcheck) s
 table=(opt,rrhf)
 ----------------------------------------------------------------------
 -----
 title
 -----
 Symbolic Z-matrix:
 Charge =  0 Multiplicity = 1

 SCF Done:  E(RHF) =  -323.674281053     A.U. after   16 cycles
 Normal termination of Gaussian 16 at Wed Apr  9 03:52:48 2025.
 Gaussian 16:  ES64L-G16RevC.01  3-Jul-2019

 ----------------------------------------------------------------------
 #t hf aug-cc-pvdz iop(5/13=1,5/36=2,99/5=2) pseudo=read geom=check gue
 ss=(read,tcheck) scf=(maxcycle=1)
 ----------------------------------------------------------------------
 -----
 title
 -----
 Structure from the checkpoint file:  "Grambow2020_wb97xd3_008336_reverse_mol1.chk"
 Charge =  0 Multiplicity = 1

                         Standard orientation:
 ---------------------------------------------------------------------
 Center     Atomic      Atomic             Coordinates (Angstroms)
 Number     Number       Type             X           Y           Z
 ---------------------------------------------------------------------
      1          7           0        2.366508   -0.460780    0.060515
      2          6           0        1.124865   -0.257449   -0.023086
      3          6           0        0.060904   -1.164293   -0.237415
      4          6           0       -1.270147   -1.070071    0.459831
      5          6           0       -1.871041    0.079930   -0.355978
      6          6           0       -0.517402    1.468558    0.222953
      7          8           0        0.703660    1.154026   -0.105933
      8          1           0        2.890310    0.405715   -0.028233
      9          1           0       -0.878521    0.137906   -1.062908
     10          1           0        0.397417   -2.124199   -0.606277
     11          1           0       -1.229308   -0.856111    1.533732
     12          1           0       -1.837610   -1.993349    0.348697
     13          1           0       -2.391727   -0.378027   -1.207099
     14          1           0       -2.599938    0.794459    0.044855
     15          1           0       -0.828809    1.289588    1.251431
     16          1           0       -0.879717    2.377219   -0.248173
 ---------------------------------------------------------------------

 SCF Done:  E(RHF) =  -325.230030264     A.U. after    2 cycles

 The electronic state is 1-A.
 Alpha  occ. eigenvalues --  -21.11189 -15.69190 -11.51758 -11.48375 -11.46572
 Alpha  occ. eigenvalues --  -11.40210 -11.34978  -1.83821  -1.30792  -1.25286
 Alpha  occ. eigenvalues --   -1.04384  -0.95029  -0.90381  -0.76607  -0.71389
 Alpha  occ. eigenvalues --   -0.68214  -0.64002  -0.63232  -0.55267  -0.55083
 Alpha  occ. eigenvalues --   -0.51472  -0.50714  -0.43875  -0.41283  -0.36720
 Alpha  occ. eigenvalues --   -0.33293  -0.24059
 Alpha virt. eigenvalues --    0.02851   0.03908   0.04647   0.04843   0.05416
 Alpha virt. eigenvalues --    0.05830   0.06858   0.07462   0.08823   0.09216
 Alpha virt. eigenvalues --    0.11591   0.11756   0.12050   0.13187   0.13644

 Mulliken charges:
               1
     1  N   -3.672356
     2  C    4.873126
     3  C   -1.848574
     4  C   -2.906538
     5  C   -3.338485
     6  C   -0.929305
     7  O   -3.473427
     8  H    0.738996
     9  H    2.188180
    10  H    1.187001
    11  H    1.278080
    12  H    1.328025
    13  H    0.623088
    14  H    1.188574
    15  H    1.324309
    16  H    1.439305
 Sum of Mulliken charges =  -0.00000

 Dipole moment (field-independent basis, Debye):
    X=             -3.8498    Y=              3.2997    Z=              0.4262  Tot=              5.0883

 Test job not archived.
 1\1\GINC-SE334\SP\RHF\Aug-CC-pVDZ\C5H9N1O1\OHZDE\09-Apr-2025\0\\#t hf
 aug-cc-pvdz iop(5/13=1,5/36=2,99/5=2) pseudo=read geom=check guess=(re
 ad,tcheck) scf=(maxcycle=1)\\title\\0,1\N,0,2.72692942,0.58038902,0.38
 308969\C,0,1.51347348,0.32911132,0.14986184\C,0,0.84988213,-0.90907467
 ,-0.01402136\C,0,-0.52424066,-1.19854259,0.52886154\C,0,-1.34502316,-0
 .43556074,-0.5167452\C,0,-0.62237346,1.39521238,-0.04575138\O,0,0.6682
 0177,1.48610593,-0.20145089\H,0,2.9436212,1.5572376,0.20456979\H,0,-0.
 33546811,-0.1230113,-1.12610502\H,0,1.53304368,-1.72990969,-0.18791931

 Normal termination of Gaussian 16 at Wed Apr  9 03:52:53 2025.
