 Gaussian 16, Revision C.01,

 ----------------------------------------------------------------------
 #t hf aug-cc-pvdz symm=none int=(grid=ultrafine) guess=(read,tcheck) s
 table=(opt,rrhf)
 ----------------------------------------------------------------------
 -----
 title
 -----
 Symbolic Z-matrix:
 Charge =  0 Multiplicity = 1

 SCF Done:  E(RHF) =  -359.775763506     A.U. after   13 cycles
 Normal termination of Gaussian 16 at Wed Apr  9 19:10:54 2025.
 Gaussian 16:  ES64L-G16RevC.01  3-Jul-2019

 ----------------------------------------------------------------------
 #t hf aug-cc-pvdz iop(5/13=1,5/36=2,99/5=2) pseudo=read geom=check gue
 ss=(read,tcheck) scf=(maxcycle=1)
 ----------------------------------------------------------------------
 -----
 title
 -----
 Structure from the checkpoint file:  "Grambow2020_wb97xd3_008265_reverse_mol2.chk"
 Charge =  0 Multiplicity = 1

                         Standard orientation:
 ---------------------------------------------------------------------
 Center     Atomic      Atomic             Coordinates (Angstroms)
 Number     Number       Type             X           Y           Z
 ---------------------------------------------------------------------
      1          6           0        2.194898   -0.638273   -0.415621
      2          6           0        1.093851   -0.083318    0.456143
      3          6           0        0.587180    1.324822    0.056256
      4          7           0       -0.842601    1.163139   -0.176759
      5          6           0       -1.074761   -0.069132   -0.009581
      6          8           0       -2.246045   -0.675361   -0.140291
      7          8           0       -0.090887   -0.906771    0.330035
      8          1           0        1.893040   -0.629251   -1.464660
      9          1           0        2.444177   -1.661152   -0.131967
     10          1           0        3.091633   -0.023954   -0.309582
     11          1           0        1.385176   -0.122999    1.508438
     12          1           0        1.082457    1.682058   -0.851926
     13          1           0        0.770542    2.062627    0.839713
     14          1           0       -2.880365    0.003155   -0.393838
 ---------------------------------------------------------------------

 SCF Done:  E(RHF) =  -361.375905275     A.U. after    2 cycles

 The electronic state is 1-A.
 Alpha  occ. eigenvalues --  -21.12787 -21.08662 -15.70320 -11.49940 -11.49292
 Alpha  occ. eigenvalues --  -11.41639 -11.37740  -1.88598  -1.73594  -1.35816
 Alpha  occ. eigenvalues --   -1.16747  -0.99875  -0.86441  -0.79323  -0.70522
 Alpha  occ. eigenvalues --   -0.66761  -0.61422  -0.59572  -0.57226  -0.54430
 Alpha  occ. eigenvalues --   -0.51836  -0.49663  -0.45993  -0.41799  -0.37072
 Alpha  occ. eigenvalues --   -0.36411  -0.29602
 Alpha virt. eigenvalues --    0.03696   0.05351   0.05560   0.05873   0.06082
 Alpha virt. eigenvalues --    0.06248   0.06575   0.10328   0.11348   0.12249
 Alpha virt. eigenvalues --    0.12814   0.13749   0.14303   0.15052   0.15259

 Mulliken charges:
               1
     1  C   -3.846312
     2  C   -0.274204
     3  C   -1.748434
     4  N   -2.691470
     5  C    6.086010
     6  O   -2.982166
     7  O   -3.169037
     8  H    1.225911
     9  H    1.263933
    10  H    1.181162
    11  H    1.526293
    12  H    1.483303
    13  H    1.385542
    14  H    0.559469
 Sum of Mulliken charges =  -0.00000

 Dipole moment (field-independent basis, Debye):
    X=              0.9716    Y=             -0.9731    Z=              0.3600  Tot=              1.4214

 Test job not archived.
 1\1\GINC-SE016\SP\RHF\Aug-CC-pVDZ\C4H7N1O2\OHZDE\09-Apr-2025\0\\#t hf
 aug-cc-pvdz iop(5/13=1,5/36=2,99/5=2) pseudo=read geom=check guess=(re
 ad,tcheck) scf=(maxcycle=1)\\title\\0,1\C,0,-1.59505466,-0.96323849,0.
 01152036\C,0,-0.43279364,-0.2314342,-0.61606547\C,0,-0.19332096,1.2019
 3496,-0.0797914\N,0,1.17784376,1.1993868,0.4147895\C,0,1.59295712,0.01
 538261,0.25306842\O,0,2.78808498,-0.45284023,0.5831314\O,0,0.8041616,-
 0.91308587,-0.29532466\H,0,-1.49517831,-0.97836443,1.09847907\H,0,-1.6
 5452527,-1.99062436,-0.34878818\H,0,-2.52821483,-0.45556232,-0.2419417

 Normal termination of Gaussian 16 at Wed Apr  9 19:10:58 2025.
