 Gaussian 16, Revision C.01,

 ----------------------------------------------------------------------
 #t hf aug-cc-pvdz symm=none int=(grid=ultrafine) guess=(read,tcheck) s
 table=(opt,rrhf)
 ----------------------------------------------------------------------
 -----
 title
 -----
 Symbolic Z-matrix:
 Charge =  0 Multiplicity = 1

 SCF Done:  E(RHF) =  -358.443001017     A.U. after   15 cycles
 Normal termination of Gaussian 16 at Wed Apr  9 18:13:56 2025.
 Gaussian 16:  ES64L-G16RevC.01  3-Jul-2019

 ----------------------------------------------------------------------
 #t hf aug-cc-pvdz iop(5/13=1,5/36=2,99/5=2) pseudo=read geom=check gue
 ss=(read,tcheck) scf=(maxcycle=1)
 ----------------------------------------------------------------------
 -----
 title
 -----
 Structure from the checkpoint file:  "Grambow2020_wb97xd3_006793_reverse_mol1.chk"
 Charge =  0 Multiplicity = 1

                         Standard orientation:
 ---------------------------------------------------------------------
 Center     Atomic      Atomic             Coordinates (Angstroms)
 Number     Number       Type             X           Y           Z
 ---------------------------------------------------------------------
      1          8           0        2.678402   -0.379190    0.038388
      2          6           0        1.520784   -0.623908   -0.215460
      3          6           0        0.373709    0.026755    0.390995
      4          6           0        0.156840    1.491830    0.258688
      5          7           0       -0.666767    0.529155   -0.489907
      6          6           0       -1.869425    0.056413   -0.302537
      7          8           0       -1.972488   -1.061100    0.310288
      8          1           0        1.260432   -1.460097   -0.903449
      9          1           0       -1.016712   -1.109306    0.741330
     10          1           0        0.813144    2.082263   -0.372089
     11          1           0       -0.360251    2.045677    1.037331
     12          1           0       -2.768006    0.553160   -0.653301
 ---------------------------------------------------------------------

 SCF Done:  E(RHF) =  -360.014495732     A.U. after    2 cycles

 The electronic state is 1-A.
 Alpha  occ. eigenvalues --  -21.15780 -21.02439 -15.79353 -11.55261 -11.47427
 Alpha  occ. eigenvalues --  -11.46023 -11.37602  -1.85506  -1.67694  -1.50918
 Alpha  occ. eigenvalues --   -1.11588  -0.96657  -0.89631  -0.77550  -0.72608
 Alpha  occ. eigenvalues --   -0.68118  -0.66897  -0.59061  -0.57192  -0.50138
 Alpha  occ. eigenvalues --   -0.48057  -0.45342  -0.43055  -0.37650  -0.29122
 Alpha  occ. eigenvalues --   -0.25781
 Alpha virt. eigenvalues --    0.02475   0.04133   0.05667   0.06193   0.07025
 Alpha virt. eigenvalues --    0.07311   0.09002   0.09745   0.10227   0.10855
 Alpha virt. eigenvalues --    0.13033   0.13683   0.13955   0.14359   0.15053

 Mulliken charges:
               1
     1  O   -2.698110
     2  C    1.527297
     3  C   -0.887616
     4  C   -2.381177
     5  N   -2.131913
     6  C    2.326735
     7  O   -2.980833
     8  H    1.438417
     9  H    1.185632
    10  H    1.401794
    11  H    1.459455
    12  H    1.740319
 Sum of Mulliken charges =  -0.00000

 Dipole moment (field-independent basis, Debye):
    X=             -5.1398    Y=              1.2803    Z=             -0.9098  Tot=              5.3744

 Test job not archived.
 1\1\GINC-SE362\SP\RHF\Aug-CC-pVDZ\C4H5N1O2\OHZDE\09-Apr-2025\0\\#t hf
 aug-cc-pvdz iop(5/13=1,5/36=2,99/5=2) pseudo=read geom=check guess=(re
 ad,tcheck) scf=(maxcycle=1)\\title\\0,1\O,0,2.28782702,0.76111291,-1.4
 2102477\C,0,1.47930506,-0.02765265,-0.98680548\C,0,0.51007183,0.253726
 18,0.05643312\C,0,-0.52102769,1.31182662,-0.11160867\N,0,-0.87442364,-
 0.11476637,-0.18516383\C,0,-1.41713613,-0.93940415,0.669479\O,0,-0.628
 78498,-1.6628237,1.36960462\H,0,1.49077261,-1.08863804,-1.32518822\H,0
 ,0.26483539,-1.13134264,1.22608374\H,0,-0.61599966,1.83057626,-1.05981

 Normal termination of Gaussian 16 at Wed Apr  9 18:14:00 2025.
