 Gaussian 16, Revision C.01,

 ----------------------------------------------------------------------
 #t hf aug-cc-pvdz symm=none int=(grid=ultrafine) guess=(read,tcheck) s
 table=(opt,rrhf)
 ----------------------------------------------------------------------
 -----
 title
 -----
 Symbolic Z-matrix:
 Charge =  0 Multiplicity = 1

 SCF Done:  E(RHF) =  -358.513329105     A.U. after   15 cycles
 Normal termination of Gaussian 16 at Wed Apr  9 18:14:27 2025.
 Gaussian 16:  ES64L-G16RevC.01  3-Jul-2019

 ----------------------------------------------------------------------
 #t hf aug-cc-pvdz iop(5/13=1,5/36=2,99/5=2) pseudo=read geom=check gue
 ss=(read,tcheck) scf=(maxcycle=1)
 ----------------------------------------------------------------------
 -----
 title
 -----
 Structure from the checkpoint file:  "Grambow2020_wb97xd3_006798_reverse_mol2.chk"
 Charge =  0 Multiplicity = 1

                         Standard orientation:
 ---------------------------------------------------------------------
 Center     Atomic      Atomic             Coordinates (Angstroms)
 Number     Number       Type             X           Y           Z
 ---------------------------------------------------------------------
      1          8           0       -2.878933   -0.168616    0.354090
      2          6           0       -1.684480   -0.602562   -0.129601
      3          6           0       -0.589748    0.118709   -0.221435
      4          6           0        0.219739    1.320360   -0.037877
      5          7           0        0.745591    0.087408   -0.629780
      6          6           0        1.757356   -0.655555   -0.036867
      7          8           0        2.726491   -0.180115    0.483385
      8          1           0       -1.716681   -1.636185   -0.446957
      9          1           0       -2.802145    0.750136    0.623564
     10          1           0        0.578016    1.562800    0.958220
     11          1           0        0.123675    2.156669   -0.720975
     12          1           0        1.600331   -1.741137   -0.150509
 ---------------------------------------------------------------------

 SCF Done:  E(RHF) =  -360.076107128     A.U. after    2 cycles

 The electronic state is 1-A.
 Alpha  occ. eigenvalues --  -21.11526 -21.06200 -15.77263 -11.49717 -11.48072
 Alpha  occ. eigenvalues --  -11.47915 -11.43286  -1.76525  -1.72883  -1.50571
 Alpha  occ. eigenvalues --   -1.08414  -1.02822  -0.84971  -0.79559  -0.72191
 Alpha  occ. eigenvalues --   -0.68720  -0.62711  -0.56812  -0.52423  -0.50773
 Alpha  occ. eigenvalues --   -0.49638  -0.48237  -0.44155  -0.37228  -0.32195
 Alpha  occ. eigenvalues --   -0.26632
 Alpha virt. eigenvalues --    0.03107   0.05139   0.05537   0.06102   0.06332
 Alpha virt. eigenvalues --    0.08376   0.09562   0.10485   0.12017   0.12352
 Alpha virt. eigenvalues --    0.13258   0.13483   0.14560   0.14639   0.15206

 Mulliken charges:
               1
     1  O   -3.412174
     2  C    0.484740
     3  C    3.043263
     4  C   -3.027429
     5  N   -2.621370
     6  C    1.778295
     7  O   -2.641842
     8  H    1.417170
     9  H    0.954254
    10  H    1.217096
    11  H    1.236575
    12  H    1.571421
 Sum of Mulliken charges =  -0.00000

 Dipole moment (field-independent basis, Debye):
    X=             -1.5717    Y=              0.6061    Z=              0.2600  Tot=              1.7045

 Test job not archived.
 1\1\GINC-SE108\SP\RHF\Aug-CC-pVDZ\C4H5N1O2\OHZDE\09-Apr-2025\0\\#t hf
 aug-cc-pvdz iop(5/13=1,5/36=2,99/5=2) pseudo=read geom=check guess=(re
 ad,tcheck) scf=(maxcycle=1)\\title\\0,1\O,0,2.73527659,0.31073613,-0.1
 9927577\C,0,1.62932494,-0.41125302,0.12412127\C,0,0.4127639,0.0695927,
 0.25009697\C,0,-0.60636202,1.11451131,0.20054093\N,0,-0.90634613,-0.27
 587061,0.55251897\C,0,-1.73047306,-1.08274193,-0.22012804\O,0,-2.75190
 554,-0.71406595,-0.72676584\H,0,1.84863896,-1.45947532,0.27663397\H,0,
 2.49262012,1.2314524,-0.32583801\H,0,-0.96491156,1.45021651,-0.7680112

 Normal termination of Gaussian 16 at Wed Apr  9 18:14:31 2025.
