 Gaussian 16, Revision C.01,

 ----------------------------------------------------------------------
 #t hf aug-cc-pvdz symm=none int=(grid=ultrafine) guess=(read,tcheck) s
 table=(opt,rrhf)
 ----------------------------------------------------------------------
 -----
 title
 -----
 Symbolic Z-matrix:
 Charge =  0 Multiplicity = 1

 SCF Done:  E(RHF) =  -301.630338282     A.U. after   14 cycles
 Normal termination of Gaussian 16 at Wed Apr  9 19:23:01 2025.
 Gaussian 16:  ES64L-G16RevC.01  3-Jul-2019

 ----------------------------------------------------------------------
 #t hf aug-cc-pvdz iop(5/13=1,5/36=2,99/5=2) pseudo=read geom=check gue
 ss=(read,tcheck) scf=(maxcycle=1)
 ----------------------------------------------------------------------
 -----
 title
 -----
 Structure from the checkpoint file:  "Grambow2020_wb97xd3_008859_reverse_mol2.chk"
 Charge =  0 Multiplicity = 1

                         Standard orientation:
 ---------------------------------------------------------------------
 Center     Atomic      Atomic             Coordinates (Angstroms)
 Number     Number       Type             X           Y           Z
 ---------------------------------------------------------------------
      1          7           0       -1.619830   -0.223844   -0.912778
      2          6           0       -1.930496    0.552244    0.009458
      3          6           0       -1.079983   -0.516850    0.478698
      4          6           0        0.388058   -0.309037    0.727495
      5          6           0        1.392719   -0.889020   -0.310949
      6          6           0        1.724824    0.565359   -0.431215
      7          7           0        0.886860    1.055125    0.399117
      8          1           0       -1.521632   -1.378504    0.973407
      9          1           0        0.624521   -0.568413    1.762409
     10          1           0        2.176348   -1.546422    0.067852
     11          1           0        0.926983   -1.331935   -1.192102
     12          1           0        2.445698    1.127804   -1.022002
     13          1           0       -2.491850    1.462325    0.165147
 ---------------------------------------------------------------------

 SCF Done:  E(RHF) =  -303.036233303     A.U. after    2 cycles

 The electronic state is 1-A.
 Alpha  occ. eigenvalues --  -15.75895 -15.72746 -11.49513 -11.45796 -11.43411
 Alpha  occ. eigenvalues --  -11.42658 -11.38144  -1.50580  -1.42994  -1.05666
 Alpha  occ. eigenvalues --   -1.00988  -0.86660  -0.82957  -0.73797  -0.68406
 Alpha  occ. eigenvalues --   -0.66319  -0.64655  -0.54695  -0.53935  -0.48868
 Alpha  occ. eigenvalues --   -0.46182  -0.40509  -0.38362  -0.35724  -0.34256
 Alpha virt. eigenvalues --    0.03837   0.05007   0.05471   0.05624   0.06258
 Alpha virt. eigenvalues --    0.06972   0.09773   0.09887   0.10181   0.11516
 Alpha virt. eigenvalues --    0.12164   0.12973   0.13323   0.13827   0.14712

 Mulliken charges:
               1
     1  N   -1.765907
     2  C    0.634718
     3  C   -0.590027
     4  C   -0.544373
     5  C   -3.432397
     6  C    0.660614
     7  N   -2.368582
     8  H    1.288315
     9  H    1.430442
    10  H    1.063358
    11  H    1.284871
    12  H    1.338253
    13  H    1.000714
 Sum of Mulliken charges =  -0.00000

 Dipole moment (field-independent basis, Debye):
    X=              0.3299    Y=             -0.5836    Z=              0.5794  Tot=              0.8861

 Test job not archived.
 1\1\GINC-SE174\SP\RHF\Aug-CC-pVDZ\C5H6N2\OHZDE\09-Apr-2025\0\\#t hf au
 g-cc-pvdz iop(5/13=1,5/36=2,99/5=2) pseudo=read geom=check guess=(read
 ,tcheck) scf=(maxcycle=1)\\title\\0,1\N,0,1.4306819,0.00489512,1.44898
 111\C,0,1.72626986,1.06824408,0.87342765\C,0,1.36614237,0.0357194,-0.0
 7035315\C,0,0.01234365,-0.00267057,-0.72302833\C,0,-1.01021302,-1.0629
 9969,-0.21887491\C,0,-1.76603691,0.18590545,0.11119164\N,0,-0.92388463
 ,1.06518862,-0.27500252\H,0,2.14672522,-0.52641557,-0.57723919\H,0,0.1
 2879034,0.01609794,-1.80945665\H,0,-1.44980136,-1.72529517,-0.96577981

 Normal termination of Gaussian 16 at Wed Apr  9 19:23:05 2025.
