 Gaussian 16, Revision C.01,

 ----------------------------------------------------------------------
 #t hf aug-cc-pvdz symm=none int=(grid=ultrafine) guess=(read,tcheck) s
 table=(opt,rrhf)
 ----------------------------------------------------------------------
 -----
 title
 -----
 Symbolic Z-matrix:
 Charge =  0 Multiplicity = 1

 SCF Done:  E(RHF) =  -308.897522051     A.U. after   15 cycles

 1\1\GINC-SE041\Stability\RHF\Aug-CC-pVDZ\C6H12O1\OHZDE\09-Apr-2025\0\\
 #t hf aug-cc-pvdz symm=none int=(grid=ultrafine) guess=(read,tcheck) s
 table=(opt,rrhf)\\title\\0,1\C,0,-2.00814144,-1.13671426,-0.7945456\C,
 0,-0.48082167,0.40167305,-0.13188114\C,0,-1.36225736,1.19950515,0.7731
 155\C,0,0.35661015,-0.55793523,0.60466123\O,0,1.21345687,-1.41228248,-
 0.1464509\C,0,1.82684069,-0.37437637,0.57709626\C,0,2.52648037,0.70044
 607,-0.20074531\H,0,-2.89009573,-0.78215667,-1.32614907\H,0,-1.5717036
 5,-2.01812823,-1.2588716\H,0,-2.22957367,-1.31243849,0.25218882\H,0,-1

 Normal termination of Gaussian 16 at Wed Apr  9 18:51:07 2025.
 Gaussian 16:  ES64L-G16RevC.01  3-Jul-2019

 ----------------------------------------------------------------------
 #t hf aug-cc-pvdz iop(5/13=1,5/36=2,99/5=2) pseudo=read geom=check gue
 ss=(read,tcheck) scf=(maxcycle=1)
 ----------------------------------------------------------------------
 -----
 title
 -----
 Structure from the checkpoint file:  "Grambow2020_wb97xd3_007707_reverse_mol1.chk"
 Charge =  0 Multiplicity = 1

                         Standard orientation:
 ---------------------------------------------------------------------
 Center     Atomic      Atomic             Coordinates (Angstroms)
 Number     Number       Type             X           Y           Z
 ---------------------------------------------------------------------
      1          6           0       -2.338524   -1.059527   -0.395291
      2          6           0       -0.692451    0.498756   -0.369503
      3          6           0       -1.467954    1.616294    0.248711
      4          6           0        0.142695   -0.213008    0.610578
      5          8           0        0.901271   -1.329849    0.157264
      6          6           0        1.615128   -0.155286    0.453609
      7          6           0        2.314559    0.540633   -0.676113
      8          1           0       -3.235217   -0.843199   -0.974343
      9          1           0       -1.980681   -2.074811   -0.550574
     10          1           0       -2.496894   -0.855046    0.657643
     11          1           0       -1.502472   -0.395498   -0.967783
     12          1           0       -1.841818    1.449051    1.269861
     13          1           0       -2.288835    1.951146   -0.385310
     14          1           0       -0.756209    2.448856    0.300761
     15          1           0       -0.219398   -0.340906    1.636821
     16          1           0        2.178199   -0.212817    1.385062
     17          1           0        1.674760    0.580331   -1.555045
     18          1           0        3.234152    0.006386   -0.923417
     19          1           0        2.583533    1.558132   -0.383744
 ---------------------------------------------------------------------

 SCF Done:  E(RHF) =  -310.412162729     A.U. after    2 cycles

 The electronic state is 1-A.
 Alpha  occ. eigenvalues --  -21.05540 -11.53205 -11.42824 -11.40972 -11.38997
 Alpha  occ. eigenvalues --  -11.38620 -11.36742  -1.78988  -1.20113  -1.10500
 Alpha  occ. eigenvalues --   -1.03480  -0.96359  -0.86466  -0.76412  -0.69225
 Alpha  occ. eigenvalues --   -0.62150  -0.59099  -0.57753  -0.56850  -0.56070
 Alpha  occ. eigenvalues --   -0.54341  -0.52500  -0.51656  -0.48597  -0.42035
 Alpha  occ. eigenvalues --   -0.36200  -0.30484  -0.29090
 Alpha virt. eigenvalues --    0.03945   0.04985   0.05107   0.05308   0.05420
 Alpha virt. eigenvalues --    0.05802   0.06395   0.06958   0.07257   0.08299
 Alpha virt. eigenvalues --    0.08618   0.09860   0.11509   0.12698   0.12892

 Mulliken charges:
               1
     1  C   -5.017401
     2  C   -2.118569
     3  C   -3.866078
     4  C    1.147182
     5  O   -3.034519
     6  C   -0.098817
     7  C   -4.086721
     8  H    0.934691
     9  H    1.077838
    10  H    1.621075
    11  H    2.571735
    12  H    1.340593
    13  H    1.336532
    14  H    1.223576
    15  H    1.749585
    16  H    1.480326
    17  H    1.334157
    18  H    1.137028
    19  H    1.267785
 Sum of Mulliken charges =  -0.00000

 Dipole moment (field-independent basis, Debye):
    X=             -0.9029    Y=             -0.3267    Z=              0.7079  Tot=              1.1929

 Test job not archived.
 1\1\GINC-SE041\SP\RHF\Aug-CC-pVDZ\C6H12O1\OHZDE\09-Apr-2025\0\\#t hf a
 ug-cc-pvdz iop(5/13=1,5/36=2,99/5=2) pseudo=read geom=check guess=(rea
 d,tcheck) scf=(maxcycle=1)\\title\\0,1\C,0,-2.00814144,-1.13671426,-0.
 7945456\C,0,-0.48082167,0.40167305,-0.13188114\C,0,-1.36225736,1.19950
 515,0.7731155\C,0,0.35661015,-0.55793523,0.60466123\O,0,1.21345687,-1.
 41228248,-0.1464509\C,0,1.82684069,-0.37437637,0.57709626\C,0,2.526480
 37,0.70044607,-0.20074531\H,0,-2.89009573,-0.78215667,-1.32614907\H,0,
 -1.57170365,-2.01812823,-1.2588716\H,0,-2.22957367,-1.31243849,0.25218

 Normal termination of Gaussian 16 at Wed Apr  9 18:51:14 2025.
