 Gaussian 16, Revision C.01,

 ----------------------------------------------------------------------
 #t hf aug-cc-pvdz symm=none int=(grid=ultrafine) guess=(read,tcheck) s
 table=(opt,rrhf)
 ----------------------------------------------------------------------
 -----
 title
 -----
 Symbolic Z-matrix:
 Charge =  0 Multiplicity = 1

 SCF Done:  E(RHF) =  -301.582087732     A.U. after   16 cycles
 Normal termination of Gaussian 16 at Wed Apr  9 03:46:29 2025.
 Gaussian 16:  ES64L-G16RevC.01  3-Jul-2019

 ----------------------------------------------------------------------
 #t hf aug-cc-pvdz iop(5/13=1,5/36=2,99/5=2) pseudo=read geom=check gue
 ss=(read,tcheck) scf=(maxcycle=1)
 ----------------------------------------------------------------------
 -----
 title
 -----
 Structure from the checkpoint file:  "Grambow2020_wb97xd3_007927_reverse_mol2.chk"
 Charge =  0 Multiplicity = 1

                         Standard orientation:
 ---------------------------------------------------------------------
 Center     Atomic      Atomic             Coordinates (Angstroms)
 Number     Number       Type             X           Y           Z
 ---------------------------------------------------------------------
      1          6           0       -1.519472    0.830407    0.225791
      2          6           0       -1.738875   -0.662508    0.091167
      3          6           0       -0.284359   -0.669764   -0.359717
      4          7           0        0.914525   -1.256794    0.012446
      5          6           0        1.757503   -0.297858    0.168550
      6          6           0        1.137573    1.087321   -0.004802
      7          7           0       -0.232507    0.673199   -0.212924
      8          1           0        1.218976    1.730805    0.868207
      9          1           0       -2.142741    1.672283   -0.051348
     10          1           0       -1.825141   -1.184648    1.045601
     11          1           0       -2.509537   -1.000903   -0.599765
     12          1           0        2.820532   -0.467042    0.288715
     13          1           0        1.549568    1.609087   -0.873998
 ---------------------------------------------------------------------

 SCF Done:  E(RHF) =  -302.999646056     A.U. after    2 cycles

 The electronic state is 1-A.
 Alpha  occ. eigenvalues --  -15.80213 -15.75272 -11.47445 -11.44664 -11.41667
 Alpha  occ. eigenvalues --  -11.40013 -11.36813  -1.61211  -1.35073  -1.17850
 Alpha  occ. eigenvalues --   -0.99689  -0.94418  -0.82456  -0.74024  -0.69652
 Alpha  occ. eigenvalues --   -0.68945  -0.61889  -0.60566  -0.52407  -0.49328
 Alpha  occ. eigenvalues --   -0.48651  -0.45778  -0.41717  -0.37600  -0.22036
 Alpha virt. eigenvalues --    0.03520   0.05298   0.05508   0.05689   0.06025
 Alpha virt. eigenvalues --    0.07148   0.08034   0.08931   0.10120   0.11254
 Alpha virt. eigenvalues --    0.11402   0.12804   0.13041   0.13089   0.14291

 Mulliken charges:
               1
     1  C   -0.353895
     2  C   -3.465173
     3  C    2.977929
     4  N   -3.285503
     5  C    0.522914
     6  C   -2.578264
     7  N   -2.077285
     8  H    1.490299
     9  H    1.401078
    10  H    1.185366
    11  H    1.341105
    12  H    1.423648
    13  H    1.417780
 Sum of Mulliken charges =   0.00000

 Dipole moment (field-independent basis, Debye):
    X=              1.1954    Y=              2.2753    Z=             -0.1414  Tot=              2.5741

 Test job not archived.
 1\1\GINC-SE456\SP\RHF\Aug-CC-pVDZ\C5H6N2\OHZDE\09-Apr-2025\0\\#t hf au
 g-cc-pvdz iop(5/13=1,5/36=2,99/5=2) pseudo=read geom=check guess=(read
 ,tcheck) scf=(maxcycle=1)\\title\\0,1\C,0,-1.56554819,-0.33095769,0.09
 968521\C,0,-1.40209811,1.1456942,0.39606005\C,0,0.07663949,0.79498497,
 0.49250689\N,0,1.27170966,1.16391348,-0.10426203\C,0,1.81886166,0.0791
 6246,-0.52672928\C,0,0.94809061,-1.15854957,-0.31957792\N,0,-0.2140530
 4,-0.50002058,0.23512339\H,0,0.6926495,-1.68899412,-1.23402998\H,0,-2.
 29256721,-1.05404234,0.44985425\H,0,-1.56594899,1.79107082,-0.4686124\

 Normal termination of Gaussian 16 at Wed Apr  9 03:46:32 2025.
