 Gaussian 16, Revision C.01,

 ----------------------------------------------------------------------
 #t hf aug-cc-pvdz symm=none int=(grid=ultrafine) guess=(read,tcheck) s
 table=(opt,rrhf)
 ----------------------------------------------------------------------
 -----
 title
 -----
 Symbolic Z-matrix:
 Charge =  0 Multiplicity = 1

 SCF Done:  E(RHF) =  -323.750752119     A.U. after   15 cycles
 Normal termination of Gaussian 16 at Wed Apr  9 18:18:22 2025.
 Gaussian 16:  ES64L-G16RevC.01  3-Jul-2019

 ----------------------------------------------------------------------
 #t hf aug-cc-pvdz iop(5/13=1,5/36=2,99/5=2) pseudo=read geom=check gue
 ss=(read,tcheck) scf=(maxcycle=1)
 ----------------------------------------------------------------------
 -----
 title
 -----
 Structure from the checkpoint file:  "Grambow2020_wb97xd3_006865_reverse_mol1.chk"
 Charge =  0 Multiplicity = 1

                         Standard orientation:
 ---------------------------------------------------------------------
 Center     Atomic      Atomic             Coordinates (Angstroms)
 Number     Number       Type             X           Y           Z
 ---------------------------------------------------------------------
      1          6           0        2.449728   -0.294848   -0.673505
      2          7           0        1.236550    0.389966   -0.270615
      3          6           0        0.984552    0.484884    1.137649
      4          6           0        0.192544   -0.451640    0.281563
      5          6           0       -1.202079   -0.136125   -0.049558
      6          8           0       -2.098645   -1.043629    0.083458
      7          6           0       -1.825109    1.074329   -0.433645
      8          1           0        3.271501    0.421904   -0.685856
      9          1           0        2.320511   -0.689676   -1.681498
     10          1           0        2.719276   -1.124016   -0.002918
     11          1           0        1.685794    0.019243    1.825257
     12          1           0        0.530908    1.405672    1.484362
     13          1           0        0.392261   -1.511745    0.416462
     14          1           0       -2.234249    0.991637   -1.440413
     15          1           0       -2.779420    0.007462   -0.025903
     16          1           0       -1.371096    2.039187   -0.237879
 ---------------------------------------------------------------------

 SCF Done:  E(RHF) =  -325.291646554     A.U. after    2 cycles

 The electronic state is 1-A.
 Alpha  occ. eigenvalues --  -21.06410 -15.74594 -11.53014 -11.47751 -11.41902
 Alpha  occ. eigenvalues --  -11.39962 -11.35026  -1.75955  -1.50969  -1.12589
 Alpha  occ. eigenvalues --   -1.06478  -0.96618  -0.88376  -0.77381  -0.68866
 Alpha  occ. eigenvalues --   -0.67443  -0.62410  -0.59892  -0.58209  -0.56150
 Alpha  occ. eigenvalues --   -0.52078  -0.48527  -0.44608  -0.43839  -0.37137
 Alpha  occ. eigenvalues --   -0.35167  -0.26886
 Alpha virt. eigenvalues --    0.03613   0.05066   0.05203   0.05591   0.06026
 Alpha virt. eigenvalues --    0.06180   0.07034   0.07457   0.08214   0.10819
 Alpha virt. eigenvalues --    0.11296   0.11523   0.12210   0.13679   0.13973

 Mulliken charges:
               1
     1  C   -3.416862
     2  N   -2.151852
     3  C   -2.033265
     4  C   -0.809226
     5  C    4.654087
     6  O   -3.338212
     7  C   -5.004556
     8  H    1.388373
     9  H    1.434240
    10  H    1.273562
    11  H    1.383699
    12  H    1.489478
    13  H    1.637810
    14  H    0.872906
    15  H    1.227428
    16  H    1.392392
 Sum of Mulliken charges =  -0.00000

 Dipole moment (field-independent basis, Debye):
    X=              2.7550    Y=             -1.3011    Z=              0.5873  Tot=              3.1029

 Test job not archived.
 1\1\GINC-SE454\SP\RHF\Aug-CC-pVDZ\C5H9N1O1\OHZDE\09-Apr-2025\0\\#t hf
 aug-cc-pvdz iop(5/13=1,5/36=2,99/5=2) pseudo=read geom=check guess=(re
 ad,tcheck) scf=(maxcycle=1)\\title\\0,1\C,0,1.23037034,-0.1111889,-2.0
 010524\N,0,0.76342659,0.29273866,-0.68884134\C,0,1.24462259,-0.4636380
 8,0.43011616\C,0,-0.16571418,-0.61531732,-0.04441644\C,0,-1.26594966,-
 0.04243245,0.74008995\O,0,-2.29815813,-0.76149197,0.99026143\C,0,-1.40
 067453,1.20205902,1.39885845\H,0,2.17613206,0.39053073,-2.20843591\H,0
 ,0.50289491,0.19905834,-2.75149415\H,0,1.38425338,-1.19682035,-2.08815

 Normal termination of Gaussian 16 at Wed Apr  9 18:18:27 2025.
