 Gaussian 16, Revision C.01,

 ----------------------------------------------------------------------
 #t hf aug-cc-pvdz symm=none int=(grid=ultrafine) guess=(read,tcheck) s
 table=(opt,rrhf)
 ----------------------------------------------------------------------
 -----
 title
 -----
 Symbolic Z-matrix:
 Charge =  0 Multiplicity = 1

 SCF Done:  E(RHF) =  -283.553361746     A.U. after   16 cycles
 Normal termination of Gaussian 16 at Wed Apr  9 17:52:39 2025.
 Gaussian 16:  ES64L-G16RevC.01  3-Jul-2019

 ----------------------------------------------------------------------
 #t hf aug-cc-pvdz iop(5/13=1,5/36=2,99/5=2) pseudo=read geom=check gue
 ss=(read,tcheck) scf=(maxcycle=1)
 ----------------------------------------------------------------------
 -----
 title
 -----
 Structure from the checkpoint file:  "Grambow2020_wb97xd3_006226_forward_mol1.chk"
 Charge =  0 Multiplicity = 1

                         Standard orientation:
 ---------------------------------------------------------------------
 Center     Atomic      Atomic             Coordinates (Angstroms)
 Number     Number       Type             X           Y           Z
 ---------------------------------------------------------------------
      1          8           0        2.011016   -0.781857   -0.193099
      2          6           0        1.109591   -0.075275    0.035437
      3          6           0       -1.312130   -1.274598    0.139590
      4          6           0       -1.618936    0.028414   -0.078827
      5          6           0       -0.695370    1.063610   -0.305988
      6          7           0        0.596530    1.058114    0.309162
      7          1           0       -2.027216   -1.943406    0.603365
      8          1           0       -0.407996   -1.728713   -0.239899
      9          1           0       -2.665875    0.333153   -0.044536
     10          1           0       -0.984787    2.024991   -0.706045
     11          1           0        0.923103    1.709126    1.026499
 ---------------------------------------------------------------------

 SCF Done:  E(RHF) =  -284.853761533     A.U. after    2 cycles

 The electronic state is 1-A.
 Alpha  occ. eigenvalues --  -21.14802 -15.85085 -11.58661 -11.43291 -11.39257
 Alpha  occ. eigenvalues --  -11.35666  -1.79085  -1.48987  -1.16430  -0.96821
 Alpha  occ. eigenvalues --   -0.86094  -0.80182  -0.68318  -0.65468  -0.60855
 Alpha  occ. eigenvalues --   -0.59823  -0.54131  -0.51585  -0.46903  -0.41733
 Alpha  occ. eigenvalues --   -0.35753  -0.22334
 Alpha virt. eigenvalues --    0.02943   0.05082   0.05683   0.06023   0.07569
 Alpha virt. eigenvalues --    0.09111   0.09380   0.10993   0.11618   0.12071
 Alpha virt. eigenvalues --    0.13469   0.13701   0.14739   0.15226   0.16198

 Mulliken charges:
               1
     1  O   -2.682475
     2  C    4.020585
     3  C   -3.029150
     4  C    0.299065
     5  C   -1.833266
     6  N   -2.730588
     7  H    1.250584
     8  H    1.458506
     9  H    1.300569
    10  H    1.284756
    11  H    0.661415
 Sum of Mulliken charges =  -0.00000

 Dipole moment (field-independent basis, Debye):
    X=              2.0400    Y=              1.6911    Z=              1.2002  Tot=              2.9089

 Test job not archived.
 1\1\GINC-SE113\SP\RHF\Aug-CC-pVDZ\C4H5N1O1\OHZDE\09-Apr-2025\0\\#t hf
 aug-cc-pvdz iop(5/13=1,5/36=2,99/5=2) pseudo=read geom=check guess=(re
 ad,tcheck) scf=(maxcycle=1)\\title\\0,1\O,0,-1.1769926,2.14534169,0.92
 491028\C,0,-0.33454257,1.45347301,0.50580469\C,0,-1.16859029,-0.906448
 39,-0.51844742\C,0,0.14310862,-1.12792402,-0.25373781\C,0,1.01647943,-
 0.22914722,0.38315185\N,0,0.87796921,1.18580566,0.22138177\H,0,-1.6909
 5353,-1.49168866,-1.265689\H,0,-1.7742872,-0.23572419,0.07396388\H,0,0
 .59406115,-2.06396677,-0.58628696\H,0,1.97415111,-0.53165956,0.7824166

 Normal termination of Gaussian 16 at Wed Apr  9 17:52:42 2025.
