 Gaussian 16, Revision C.01,

 ----------------------------------------------------------------------
 #t hf aug-cc-pvdz symm=none int=(grid=ultrafine) guess=(read,tcheck) s
 table=(opt,rrhf)
 ----------------------------------------------------------------------
 -----
 title
 -----
 Symbolic Z-matrix:
 Charge =  0 Multiplicity = 1

 SCF Done:  E(RHF) =  -193.809976641     A.U. after   16 cycles
 Normal termination of Gaussian 16 at Wed Apr  9 03:22:00 2025.
 Gaussian 16:  ES64L-G16RevC.01  3-Jul-2019

 ----------------------------------------------------------------------
 #t hf aug-cc-pvdz iop(5/13=1,5/36=2,99/5=2) pseudo=read geom=check gue
 ss=(read,tcheck) scf=(maxcycle=1)
 ----------------------------------------------------------------------
 -----
 title
 -----
 Structure from the checkpoint file:  "Grambow2020_wb97xd3_006101_reverse_mol1.chk"
 Charge =  0 Multiplicity = 1

                         Standard orientation:
 ---------------------------------------------------------------------
 Center     Atomic      Atomic             Coordinates (Angstroms)
 Number     Number       Type             X           Y           Z
 ---------------------------------------------------------------------
      1          6           0        1.824345   -0.693797   -0.264863
      2          6           0        1.071478    0.357117    0.554027
      3          6           0       -0.136532    0.896680   -0.150813
      4          6           0       -1.344740    0.233923   -0.169597
      5          6           0       -2.176962   -0.736985    0.074641
      6          1           0        1.170179   -1.537165   -0.492432
      7          1           0        2.179930   -0.274107   -1.207999
      8          1           0        2.687530   -1.068382    0.287184
      9          1           0        0.743828   -0.086790    1.498590
     10          1           0        1.739768    1.191151    0.785406
     11          1           0       -0.021126    1.781506   -0.768709
     12          1           0       -1.099975    0.352724   -1.311469
     13          1           0       -2.825660   -0.700569    0.949059
 ---------------------------------------------------------------------

 SCF Done:  E(RHF) =  -194.776086283     A.U. after    2 cycles

 The electronic state is 1-A.
 Alpha  occ. eigenvalues --  -11.47927 -11.42429 -11.40438 -11.38060 -11.37051
 Alpha  occ. eigenvalues --   -1.28229  -1.13120  -0.98190  -0.89135  -0.72631
 Alpha  occ. eigenvalues --   -0.66032  -0.61369  -0.58098  -0.55233  -0.51176
 Alpha  occ. eigenvalues --   -0.48944  -0.47217  -0.36810  -0.27727
 Alpha virt. eigenvalues --    0.02945   0.04633   0.05365   0.05718   0.05975
 Alpha virt. eigenvalues --    0.06547   0.07092   0.07768   0.08117   0.10229
 Alpha virt. eigenvalues --    0.11400   0.12524   0.13139   0.13820   0.14667

 Mulliken charges:
               1
     1  C   -3.709480
     2  C   -3.660610
     3  C   -1.111070
     4  C    2.158191
     5  C   -3.818559
     6  H    1.390444
     7  H    1.275357
     8  H    1.146022
     9  H    1.297927
    10  H    1.266316
    11  H    1.375243
    12  H    1.321335
    13  H    1.068883
 Sum of Mulliken charges =  -0.00000

 Dipole moment (field-independent basis, Debye):
    X=              2.8081    Y=              2.2256    Z=              0.7147  Tot=              3.6537

 Test job not archived.
 1\1\GINC-SE021\SP\RHF\Aug-CC-pVDZ\C5H8\OHZDE\09-Apr-2025\0\\#t hf aug-
 cc-pvdz iop(5/13=1,5/36=2,99/5=2) pseudo=read geom=check guess=(read,t
 check) scf=(maxcycle=1)\\title\\0,1\C,0,-1.55106557,-0.05595295,-0.749
 65694\C,0,-0.71402839,0.61398718,0.34229467\C,0,0.42431012,-0.23848982
 ,0.81630412\C,0,1.61967164,-0.32853096,0.1363259\C,0,2.46383643,-0.100
 43674,-0.82817717\H,0,-0.92879273,-0.28789605,-1.61566477\H,0,-1.99296
 148,-0.98671435,-0.38841217\H,0,-2.35969107,0.60051411,-1.07421182\H,0
 ,-0.29999108,1.55048442,-0.04261099\H,0,-1.35006434,0.85170118,1.19944

 Normal termination of Gaussian 16 at Wed Apr  9 03:22:03 2025.
