 Gaussian 16, Revision C.01,

 ----------------------------------------------------------------------
 #t hf aug-cc-pvdz symm=none int=(grid=ultrafine) guess=(read,tcheck) s
 table=(opt,rrhf)
 ----------------------------------------------------------------------
 -----
 title
 -----
 Symbolic Z-matrix:
 Charge =  0 Multiplicity = 1

 SCF Done:  E(RHF) =  -353.586226124     A.U. after   14 cycles
 Normal termination of Gaussian 16 at Wed Apr  9 18:53:25 2025.
 Gaussian 16:  ES64L-G16RevC.01  3-Jul-2019

 ----------------------------------------------------------------------
 #t hf aug-cc-pvdz iop(5/13=1,5/36=2,99/5=2) pseudo=read geom=check gue
 ss=(read,tcheck) scf=(maxcycle=1)
 ----------------------------------------------------------------------
 -----
 title
 -----
 Structure from the checkpoint file:  "Grambow2020_wb97xd3_007762_reverse_mol2.chk"
 Charge =  0 Multiplicity = 1

                         Standard orientation:
 ---------------------------------------------------------------------
 Center     Atomic      Atomic             Coordinates (Angstroms)
 Number     Number       Type             X           Y           Z
 ---------------------------------------------------------------------
      1          8           0       -2.958017   -0.000096    0.096957
      2          6           0       -2.086810   -0.000702   -0.611240
      3          7           0        0.694767   -0.688589    1.017073
      4          6           0        1.085689   -1.072791   -0.161374
      5          7           0        1.350180    0.003958   -0.944387
      6          6           0        1.082095    1.074885   -0.154711
      7          7           0        0.692466    0.681729    1.021215
      8          1           0        1.643335    0.007688   -1.904132
      9          1           0        1.189681   -2.094374   -0.489318
     10          1           0        1.183384    2.099420   -0.475552
 ---------------------------------------------------------------------

 SCF Done:  E(RHF) =  -355.125962735     A.U. after    2 cycles

 The electronic state is 1-A.
 Alpha  occ. eigenvalues --  -21.16790 -15.82123 -15.74641 -15.74094 -11.49930
 Alpha  occ. eigenvalues --  -11.44508 -11.42577  -1.79661  -1.64581  -1.33902
 Alpha  occ. eigenvalues --   -1.18336  -0.88021  -0.84439  -0.78828  -0.71331
 Alpha  occ. eigenvalues --   -0.64075  -0.59684  -0.59653  -0.51999  -0.51942
 Alpha  occ. eigenvalues --   -0.49974  -0.43577  -0.39916  -0.38259  -0.35116
 Alpha virt. eigenvalues --    0.02731   0.04505   0.05054   0.08105   0.09382
 Alpha virt. eigenvalues --    0.10593   0.10613   0.11635   0.12578   0.13465
 Alpha virt. eigenvalues --    0.13727   0.15129   0.15316   0.15855   0.16533

 Mulliken charges:
               1
     1  O   -1.092155
     2  C    0.992920
     3  N   -1.626924
     4  C    0.979981
     5  N   -2.411255
     6  C    0.980226
     7  N   -1.626493
     8  H    0.831293
     9  H    1.486629
    10  H    1.485777
 Sum of Mulliken charges =  -0.00000

 Dipole moment (field-independent basis, Debye):
    X=              0.5059    Y=              0.0187    Z=             -3.8362  Tot=              3.8695

 Test job not archived.
 1\1\GINC-SE113\SP\RHF\Aug-CC-pVDZ\C3H3N3O1\OHZDE\09-Apr-2025\0\\#t hf
 aug-cc-pvdz iop(5/13=1,5/36=2,99/5=2) pseudo=read geom=check guess=(re
 ad,tcheck) scf=(maxcycle=1)\\title\\0,1\O,0,3.10241122,-1.05049038,0.6
 9167812\C,0,2.3257494,-0.87971436,-0.10089699\N,0,-0.12945656,0.962636
 74,1.09888158\C,0,-0.29757337,1.24900845,-0.15765968\N,0,-0.87571229,0
 .2056869,-0.80549276\C,0,-1.03945926,-0.74258402,0.15174997\N,0,-0.602
 80147,-0.30811399,1.29619241\H,0,-1.09883555,0.13689254,-1.78147846\H,
 0,-0.02263073,2.17526562,-0.63562197\H,0,-1.47203839,-1.71337349,-0.03

 Normal termination of Gaussian 16 at Wed Apr  9 18:53:28 2025.
