 Gaussian 16, Revision C.01,

 ----------------------------------------------------------------------
 #t hf aug-cc-pvdz symm=none int=(grid=ultrafine) guess=(read,tcheck) s
 table=(opt,rrhf)
 ----------------------------------------------------------------------
 -----
 title
 -----
 Symbolic Z-matrix:
 Charge =  0 Multiplicity = 1

 SCF Done:  E(RHF) =  -323.821346655     A.U. after   14 cycles
 Normal termination of Gaussian 16 at Wed Apr  9 18:16:18 2025.
 Gaussian 16:  ES64L-G16RevC.01  3-Jul-2019

 ----------------------------------------------------------------------
 #t hf aug-cc-pvdz iop(5/13=1,5/36=2,99/5=2) pseudo=read geom=check gue
 ss=(read,tcheck) scf=(maxcycle=1)
 ----------------------------------------------------------------------
 -----
 title
 -----
 Structure from the checkpoint file:  "Grambow2020_wb97xd3_006827_reverse_mol2.chk"
 Charge =  0 Multiplicity = 1

                         Standard orientation:
 ---------------------------------------------------------------------
 Center     Atomic      Atomic             Coordinates (Angstroms)
 Number     Number       Type             X           Y           Z
 ---------------------------------------------------------------------
      1          6           0        1.864555   -1.478195    0.077288
      2          6           0        1.055418   -0.232367    0.024713
      3          6           0        1.455963    1.226654    0.083571
      4          6           0       -0.061051    1.551244   -0.083177
      5          6           0       -0.239910    0.061396   -0.130739
      6          7           0       -1.383148   -0.685226   -0.410155
      7          8           0       -2.472638   -0.267887    0.395849
      8          1           0        2.522463   -1.478672    0.950287
      9          1           0        2.501647   -1.579182   -0.806297
     10          1           0        1.234145   -2.368346    0.132634
     11          1           0       -1.240426   -1.666892   -0.204554
     12          1           0        1.903728    1.558235    1.024059
     13          1           0        2.075147    1.580738   -0.745074
     14          1           0       -0.320488    2.084541   -1.000539
     15          1           0       -0.522711    2.051234    0.768995
     16          1           0       -3.140214   -0.014363   -0.245150
 ---------------------------------------------------------------------

 SCF Done:  E(RHF) =  -325.346399242     A.U. after    2 cycles

 The electronic state is 1-A.
 Alpha  occ. eigenvalues --  -21.09373 -15.77610 -11.48087 -11.42427 -11.39747
 Alpha  occ. eigenvalues --  -11.37866 -11.34554  -1.77802  -1.36401  -1.19272
 Alpha  occ. eigenvalues --   -1.07949  -0.90556  -0.89760  -0.73003  -0.64875
 Alpha  occ. eigenvalues --   -0.62934  -0.62614  -0.60267  -0.55893  -0.55552
 Alpha  occ. eigenvalues --   -0.49484  -0.45497  -0.43955  -0.41017  -0.40188
 Alpha  occ. eigenvalues --   -0.34034  -0.27022
 Alpha virt. eigenvalues --    0.03770   0.05321   0.05692   0.05943   0.06081
 Alpha virt. eigenvalues --    0.06272   0.06691   0.07896   0.08621   0.10133
 Alpha virt. eigenvalues --    0.12708   0.12895   0.13428   0.14076   0.14782

 Mulliken charges:
               1
     1  C   -5.080298
     2  C    3.180275
     3  C   -3.520665
     4  C   -3.763477
     5  C    3.204464
     6  N   -1.629009
     7  O   -2.242887
     8  H    1.182562
     9  H    1.156460
    10  H    1.193749
    11  H    0.686913
    12  H    1.124398
    13  H    1.166961
    14  H    1.238383
    15  H    1.291117
    16  H    0.811051
 Sum of Mulliken charges =  -0.00000

 Dipole moment (field-independent basis, Debye):
    X=             -0.2378    Y=             -0.4383    Z=             -0.0545  Tot=              0.5016

 Test job not archived.
 1\1\GINC-SE454\SP\RHF\Aug-CC-pVDZ\C5H9N1O1\OHZDE\09-Apr-2025\0\\#t hf
 aug-cc-pvdz iop(5/13=1,5/36=2,99/5=2) pseudo=read geom=check guess=(re
 ad,tcheck) scf=(maxcycle=1)\\title\\0,1\C,0,-1.81841027,-1.13445022,-0
 .15353786\C,0,-0.76376177,-0.09253431,-0.04545218\C,0,-0.84308217,1.41
 94902,-0.05700441\C,0,0.70449667,1.40704513,0.14133181\C,0,0.56093246,
 -0.08736977,0.13756036\N,0,1.51293136,-1.06956218,0.40496701\O,0,2.682
 65832,-0.86865529,-0.37103428\H,0,-2.44321859,-0.96615181,-1.0345939\H
 ,0,-2.48043772,-1.12559883,0.71735143\H,0,-1.39104235,-2.13642674,-0.2

 Normal termination of Gaussian 16 at Wed Apr  9 18:16:23 2025.
