 Gaussian 16, Revision C.01,

 ----------------------------------------------------------------------
 #t hf aug-cc-pvdz symm=none int=(grid=ultrafine) guess=(read,tcheck) s
 table=(opt,rrhf)
 ----------------------------------------------------------------------
 -----
 title
 -----
 Symbolic Z-matrix:
 Charge =  0 Multiplicity = 1

 SCF Done:  E(RHF) =  -320.586519458     A.U. after   15 cycles
 Normal termination of Gaussian 16 at Wed Apr  9 17:29:10 2025.
 Gaussian 16:  ES64L-G16RevC.01  3-Jul-2019

 ----------------------------------------------------------------------
 #t hf aug-cc-pvdz iop(5/13=1,5/36=2,99/5=2) pseudo=read geom=check gue
 ss=(read,tcheck) scf=(maxcycle=1)
 ----------------------------------------------------------------------
 -----
 title
 -----
 Structure from the checkpoint file:  "Grambow2020_b97d3_007152_reverse_mol1.chk"
 Charge =  0 Multiplicity = 1

                         Standard orientation:
 ---------------------------------------------------------------------
 Center     Atomic      Atomic             Coordinates (Angstroms)
 Number     Number       Type             X           Y           Z
 ---------------------------------------------------------------------
      1          8           0        2.033485   -0.266289    0.037585
      2          6           0        0.841750   -0.085396    0.014504
      3          7           0       -0.153228   -1.045255    0.142597
      4          6           0       -1.545590   -0.816919   -0.123917
      5          6           0       -1.031627    1.388787    0.151829
      6          8           0        0.246821    1.164497   -0.263014
      7          1           0        0.202986   -1.991902    0.054109
      8          1           0       -1.899490   -1.299077   -1.047791
      9          1           0       -2.201391   -1.020665    0.728536
     10          1           0       -1.098143    1.111515    1.233410
     11          1           0       -1.761012    0.412416   -0.417510
 ---------------------------------------------------------------------

 SCF Done:  E(RHF) =  -321.993091701     A.U. after    2 cycles

 The electronic state is 1-A.
 Alpha  occ. eigenvalues --  -21.11776 -21.06158 -15.79800 -11.54682 -11.46307
 Alpha  occ. eigenvalues --  -11.44595  -1.86023  -1.69191  -1.41862  -1.07838
 Alpha  occ. eigenvalues --   -0.92157  -0.85265  -0.69919  -0.68551  -0.64542
 Alpha  occ. eigenvalues --   -0.62010  -0.55566  -0.54127  -0.46241  -0.40370
 Alpha  occ. eigenvalues --   -0.36899  -0.34531  -0.29567
 Alpha virt. eigenvalues --    0.02713   0.04703   0.04901   0.05240   0.06993
 Alpha virt. eigenvalues --    0.09108   0.10260   0.11026   0.11316   0.11811
 Alpha virt. eigenvalues --    0.13210   0.14456   0.14833   0.15841   0.16576

 Mulliken charges:
               1
     1  O   -2.955531
     2  C    5.595989
     3  N   -2.309886
     4  C   -2.910882
     5  C   -1.477702
     6  O   -2.629894
     7  H    0.614550
     8  H    1.235018
     9  H    1.268299
    10  H    1.314757
    11  H    2.255281
 Sum of Mulliken charges =  -0.00000

 Dipole moment (field-independent basis, Debye):
    X=             -1.8670    Y=             -3.0650    Z=              0.1677  Tot=              3.5928

 Test job not archived.
 1\1\GINC-SE135\SP\RHF\Aug-CC-pVDZ\C3H5N1O2\OHZDE\09-Apr-2025\0\\#t hf
 aug-cc-pvdz iop(5/13=1,5/36=2,99/5=2) pseudo=read geom=check guess=(re
 ad,tcheck) scf=(maxcycle=1)\\title\\0,1\O,0,2.60820674,0.11316947,-0.0
 126265\C,0,1.40823233,0.19687542,-0.09351072\N,0,0.47125376,-0.6992604
 3,0.40321015\C,0,-0.92791132,-0.67811711,0.08113941\C,0,-0.5529158,1.4
 9082432,-0.51919806\O,0,0.74327061,1.20381429,-0.82637396\H,0,0.885497
 55,-1.58283306,0.68349814\H,0,-1.23707238,-1.4999669,-0.58237253\H,0,-
 1.58379816,-0.57795683,0.95179712\H,0,-0.61990867,1.64813701,0.5861915

 Normal termination of Gaussian 16 at Wed Apr  9 17:29:14 2025.
