 Gaussian 16, Revision C.01,

 ----------------------------------------------------------------------
 #t hf aug-cc-pvdz symm=none int=(grid=ultrafine) guess=(read,tcheck) s
 table=(opt,rrhf)
 ----------------------------------------------------------------------
 -----
 title
 -----
 Symbolic Z-matrix:
 Charge =  0 Multiplicity = 1

 SCF Done:  E(RHF) =  -360.793435476     A.U. after   15 cycles
 Normal termination of Gaussian 16 at Wed Apr  9 18:08:19 2025.
 Gaussian 16:  ES64L-G16RevC.01  3-Jul-2019

 ----------------------------------------------------------------------
 #t hf aug-cc-pvdz iop(5/13=1,5/36=2,99/5=2) pseudo=read geom=check gue
 ss=(read,tcheck) scf=(maxcycle=1)
 ----------------------------------------------------------------------
 -----
 title
 -----
 Structure from the checkpoint file:  "Grambow2020_wb97xd3_006608_reverse_mol1.chk"
 Charge =  0 Multiplicity = 1

                         Standard orientation:
 ---------------------------------------------------------------------
 Center     Atomic      Atomic             Coordinates (Angstroms)
 Number     Number       Type             X           Y           Z
 ---------------------------------------------------------------------
      1          6           0       -2.820971   -0.167066    0.010769
      2          6           0       -1.353362   -0.082190    0.367038
      3          8           0       -0.516932   -0.695740   -0.569975
      4          6           0       -0.647593    1.159503    0.085571
      5          7           0        1.630945    1.028247   -0.152406
      6          6           0        2.265206   -0.067774    0.073029
      7          8           0        1.699735   -1.215492    0.176202
      8          1           0       -3.441308    0.384093    0.721330
      9          1           0       -3.121757   -1.216236    0.024880
     10          1           0       -2.991148    0.222794   -0.993843
     11          1           0       -1.180684   -0.438501    1.391033
     12          1           0        0.618643   -1.059035   -0.125860
     13          1           0       -0.833544    1.625783   -0.871015
     14          1           0       -0.180718    1.759660    0.847836
     15          1           0        2.236758    1.838026   -0.187808
     16          1           0        3.355047   -0.079309    0.192027
 ---------------------------------------------------------------------

 SCF Done:  E(RHF) =  -362.449387456     A.U. after    2 cycles

 The electronic state is 1-A.
 Alpha  occ. eigenvalues --  -21.02834 -20.98806 -15.71212 -11.52751 -11.45187
 Alpha  occ. eigenvalues --  -11.44204 -11.38343  -1.74012  -1.66032  -1.28937
 Alpha  occ. eigenvalues --   -1.14836  -1.02646  -0.86124  -0.81305  -0.70547
 Alpha  occ. eigenvalues --   -0.69491  -0.62192  -0.60853  -0.56337  -0.54803
 Alpha  occ. eigenvalues --   -0.51607  -0.50784  -0.45506  -0.43076  -0.39107
 Alpha  occ. eigenvalues --   -0.29585  -0.27244  -0.23868
 Alpha virt. eigenvalues --    0.02998   0.04604   0.04904   0.05295   0.05799
 Alpha virt. eigenvalues --    0.06031   0.06435   0.07539   0.09206   0.10603
 Alpha virt. eigenvalues --    0.11515   0.11993   0.12432   0.13633   0.13910

 Mulliken charges:
               1
     1  C   -3.950111
     2  C    0.001679
     3  O   -3.015600
     4  C   -2.221276
     5  N   -2.485553
     6  C    2.149817
     7  O   -3.137869
     8  H    1.196926
     9  H    1.138407
    10  H    1.169982
    11  H    1.674732
    12  H    2.111268
    13  H    1.424788
    14  H    1.469664
    15  H    0.747041
    16  H    1.726105
 Sum of Mulliken charges =  -0.00000

 Dipole moment (field-independent basis, Debye):
    X=             -1.0000    Y=              2.1120    Z=              0.7938  Tot=              2.4680

 Test job not archived.
 1\1\GINC-SE131\SP\RHF\Aug-CC-pVDZ\C4H9N1O2\OHZDE\09-Apr-2025\0\\#t hf
 aug-cc-pvdz iop(5/13=1,5/36=2,99/5=2) pseudo=read geom=check guess=(re
 ad,tcheck) scf=(maxcycle=1)\\title\\0,1\C,0,-2.3957423,-0.62666672,-0.
 45665418\C,0,-0.89211179,-0.4620461,-0.45532849\O,0,-0.47851074,0.8730
 137,-0.47984342\C,0,-0.18716911,-0.58808589,0.81207235\N,0,1.86082144,
 0.43518243,0.9678095\C,0,2.41174809,0.98858402,-0.05424588\O,0,1.79053
 284,1.26179721,-1.14378866\H,0,-2.68701899,-1.67534522,-0.36219844\H,0
 ,-2.78681249,-0.23900371,-1.39910366\H,0,-2.84124088,-0.05438329,0.358

 Normal termination of Gaussian 16 at Wed Apr  9 18:08:24 2025.
