 Gaussian 16, Revision C.01,

 ----------------------------------------------------------------------
 #t hf aug-cc-pvdz symm=none int=(grid=ultrafine) guess=(read,tcheck) s
 table=(opt,rrhf)
 ----------------------------------------------------------------------
 -----
 title
 -----
 Symbolic Z-matrix:
 Charge =  0 Multiplicity = 1

 SCF Done:  E(RHF) =  -359.607680894     A.U. after   15 cycles
 Normal termination of Gaussian 16 at Wed Apr  9 18:34:27 2025.
 Gaussian 16:  ES64L-G16RevC.01  3-Jul-2019

 ----------------------------------------------------------------------
 #t hf aug-cc-pvdz iop(5/13=1,5/36=2,99/5=2) pseudo=read geom=check gue
 ss=(read,tcheck) scf=(maxcycle=1)
 ----------------------------------------------------------------------
 -----
 title
 -----
 Structure from the checkpoint file:  "Grambow2020_wb97xd3_007279_reverse_mol1.chk"
 Charge =  0 Multiplicity = 1

                         Standard orientation:
 ---------------------------------------------------------------------
 Center     Atomic      Atomic             Coordinates (Angstroms)
 Number     Number       Type             X           Y           Z
 ---------------------------------------------------------------------
      1          8           0        1.575102   -1.258691    0.180148
      2          6           0        0.458813   -0.669322   -0.392645
      3          6           0       -0.898000   -1.157187    0.066388
      4          7           0       -1.724587   -0.102290   -0.174220
      5          6           0       -1.066210    1.058768    0.109904
      6          6           0        0.347587    0.831221   -0.100386
      7          8           0        1.304948    1.573781   -0.034003
      8          1           0        2.198984   -0.540620    0.350057
      9          1           0        0.467449   -0.770504   -1.492840
     10          1           0       -1.259773   -2.162004   -0.112827
     11          1           0       -0.606610   -0.725994    1.459798
     12          1           0       -2.719534   -0.179586   -0.048761
     13          1           0       -0.526852    0.185411    1.621324
     14          1           0       -1.575099    2.007730    0.174059
 ---------------------------------------------------------------------

 SCF Done:  E(RHF) =  -361.252266010     A.U. after    2 cycles

 The electronic state is 1-A.
 Alpha  occ. eigenvalues --  -21.08097 -21.03109 -15.82497 -11.52847 -11.48122
 Alpha  occ. eigenvalues --  -11.43822 -11.41679  -1.75680  -1.67928  -1.51988
 Alpha  occ. eigenvalues --   -1.11564  -1.06709  -0.87320  -0.79658  -0.74024
 Alpha  occ. eigenvalues --   -0.73198  -0.63236  -0.60928  -0.58185  -0.55373
 Alpha  occ. eigenvalues --   -0.49347  -0.47292  -0.43622  -0.41973  -0.33787
 Alpha  occ. eigenvalues --   -0.28451  -0.26792
 Alpha virt. eigenvalues --    0.03066   0.04352   0.05224   0.05738   0.06824
 Alpha virt. eigenvalues --    0.07583   0.08141   0.09141   0.10097   0.11746
 Alpha virt. eigenvalues --    0.12260   0.12852   0.14093   0.14706   0.14906

 Mulliken charges:
               1
     1  O   -2.981604
     2  C    0.708814
     3  C   -1.415967
     4  N   -2.524170
     5  C   -0.823451
     6  C    4.605845
     7  O   -3.624677
     8  H    0.551937
     9  H    1.511878
    10  H    1.362823
    11  H    0.227687
    12  H    0.759515
    13  H    0.381895
    14  H    1.259476
 Sum of Mulliken charges =  -0.00000

 Dipole moment (field-independent basis, Debye):
    X=             -3.6704    Y=             -1.1400    Z=             -1.0296  Tot=              3.9789

 Test job not archived.
 1\1\GINC-SE104\SP\RHF\Aug-CC-pVDZ\C4H7N1O2\OHZDE\09-Apr-2025\0\\#t hf
 aug-cc-pvdz iop(5/13=1,5/36=2,99/5=2) pseudo=read geom=check guess=(re
 ad,tcheck) scf=(maxcycle=1)\\title\\0,1\O,0,2.1680714,-0.06051419,-0.0
 6258203\C,0,0.85624288,0.06370395,0.36779731\C,0,0.03477761,1.18986971
 ,-0.22094046\N,0,-1.25012296,0.7550162,-0.1031369\C,0,-1.29508121,-0.5
 8658181,-0.34877646\C,0,-0.01379371,-1.14945982,0.02040149\O,0,0.39315
 168,-2.29247825,0.03609153\H,0,2.32070311,-1.00676413,-0.18521157\H,0,
 0.79972938,0.18104007,1.46496623\H,0,0.25465098,2.23666559,-0.05203701

 Normal termination of Gaussian 16 at Wed Apr  9 18:34:32 2025.
