 Gaussian 16, Revision C.01,

 ----------------------------------------------------------------------
 #t hf aug-cc-pvdz symm=none int=(grid=ultrafine) guess=(read,tcheck) s
 table=(opt,rrhf)
 ----------------------------------------------------------------------
 -----
 title
 -----
 Symbolic Z-matrix:
 Charge =  0 Multiplicity = 1

 SCF Done:  E(RHF) =  -338.585474246     A.U. after   16 cycles
 Normal termination of Gaussian 16 at Wed Apr  9 03:40:22 2025.
 Gaussian 16:  ES64L-G16RevC.01  3-Jul-2019

 ----------------------------------------------------------------------
 #t hf aug-cc-pvdz iop(5/13=1,5/36=2,99/5=2) pseudo=read geom=check gue
 ss=(read,tcheck) scf=(maxcycle=1)
 ----------------------------------------------------------------------
 -----
 title
 -----
 Structure from the checkpoint file:  "Grambow2020_wb97xd3_007488_reverse_mol1.chk"
 Charge =  0 Multiplicity = 1

                         Standard orientation:
 ---------------------------------------------------------------------
 Center     Atomic      Atomic             Coordinates (Angstroms)
 Number     Number       Type             X           Y           Z
 ---------------------------------------------------------------------
      1          6           0       -2.562396   -0.082944    0.500705
      2          8           0       -1.586516   -0.297963   -0.521235
      3          6           0       -0.300543    0.197647   -0.227056
      4          6           0        0.118650   -1.120983    0.061315
      5          7           0        2.573273   -0.743198    0.055323
      6          6           0        2.742895    0.372256    0.246525
      7          7           0        0.081888    1.391876   -0.165376
      8          1           0       -2.178657   -0.428537    1.461639
      9          1           0       -3.438713   -0.661532    0.217687
     10          1           0       -2.823488    0.975981    0.555895
     11          1           0        0.351522   -1.696008   -0.837233
     12          1           0        2.875596    1.416966    0.423720
     13          1           0       -0.671896    2.040235   -0.370390
 ---------------------------------------------------------------------

 SCF Done:  E(RHF) =  -340.102204321     A.U. after    2 cycles

 The electronic state is 1-A.
 Alpha  occ. eigenvalues --  -21.09302 -15.77532 -15.73453 -11.49624 -11.44940
 Alpha  occ. eigenvalues --  -11.42640 -11.42342  -1.81772  -1.32784  -1.31330
 Alpha  occ. eigenvalues --   -1.08222  -0.96532  -0.82466  -0.75474  -0.67142
 Alpha  occ. eigenvalues --   -0.64364  -0.61725  -0.58631  -0.54664  -0.51744
 Alpha  occ. eigenvalues --   -0.47504  -0.46847  -0.43379  -0.37622  -0.35011
 Alpha  occ. eigenvalues --   -0.32955
 Alpha virt. eigenvalues --    0.03436   0.04745   0.05448   0.06470   0.06627
 Alpha virt. eigenvalues --    0.07009   0.09803   0.10156   0.10735   0.11731
 Alpha virt. eigenvalues --    0.12360   0.12964   0.13011   0.14023   0.14532

 Mulliken charges:
               1
     1  C   -3.129257
     2  O   -3.074500
     3  C    5.693110
     4  C   -2.394894
     5  N   -2.324943
     6  C    0.710121
     7  N   -3.183637
     8  H    1.474322
     9  H    1.228661
    10  H    1.338236
    11  H    1.346001
    12  H    1.590042
    13  H    0.726739
 Sum of Mulliken charges =   0.00000

 Dipole moment (field-independent basis, Debye):
    X=             -1.9417    Y=              2.2751    Z=             -0.5905  Tot=              3.0488

 Test job not archived.
 1\1\GINC-SE396\SP\RHF\Aug-CC-pVDZ\C4H6N2O1\OHZDE\09-Apr-2025\0\\#t hf
 aug-cc-pvdz iop(5/13=1,5/36=2,99/5=2) pseudo=read geom=check guess=(re
 ad,tcheck) scf=(maxcycle=1)\\title\\0,1\C,0,-2.19258873,-0.37732575,-0
 .20701912\O,0,-1.24426215,0.27339691,0.64161058\C,0,0.10547113,0.00569
 109,0.33755536\C,0,0.19833317,1.27730719,-0.27239066\N,0,2.67182016,1.
 4389525,-0.42622724\C,0,3.08240483,0.37160032,-0.38442845\N,0,0.747126
 62,-1.06093978,0.50131829\H,0,-1.94390704,-0.19459448,-1.25336963\H,0,
 -3.16343982,0.0530241,0.02759462\H,0,-2.20730117,-1.45003849,-0.003035

 Normal termination of Gaussian 16 at Wed Apr  9 03:40:26 2025.
