 Gaussian 16, Revision C.01,

 ----------------------------------------------------------------------
 #t hf aug-cc-pvdz symm=none int=(grid=ultrafine) guess=(read,tcheck) s
 table=(opt,rrhf)
 ----------------------------------------------------------------------
 -----
 title
 -----
 Symbolic Z-matrix:
 Charge =  0 Multiplicity = 1

 SCF Done:  E(RHF) =  -342.416803299     A.U. after   16 cycles
 Normal termination of Gaussian 16 at Wed Apr  9 19:24:58 2025.
 Gaussian 16:  ES64L-G16RevC.01  3-Jul-2019

 ----------------------------------------------------------------------
 #t hf aug-cc-pvdz iop(5/13=1,5/36=2,99/5=2) pseudo=read geom=check gue
 ss=(read,tcheck) scf=(maxcycle=1)
 ----------------------------------------------------------------------
 -----
 title
 -----
 Structure from the checkpoint file:  "Grambow2020_wb97xd3_008947_reverse_mol2.chk"
 Charge =  0 Multiplicity = 1

                         Standard orientation:
 ---------------------------------------------------------------------
 Center     Atomic      Atomic             Coordinates (Angstroms)
 Number     Number       Type             X           Y           Z
 ---------------------------------------------------------------------
      1          8           0        2.374531   -0.478136   -0.552907
      2          6           0        1.753696    0.344617    0.061952
      3          6           0       -0.957283    1.481556   -0.451315
      4          6           0       -0.718848    0.299506    0.262045
      5          6           0       -1.250837   -0.700308   -0.762468
      6          8           0       -1.781586   -0.647468    0.517896
      7          6           0        0.585879   -0.020493    0.954030
      8          1           0       -2.040604    1.587800   -0.606885
      9          1           0        1.995674    1.419308   -0.013092
     10          1           0       -1.912810   -0.420751   -1.576395
     11          1           0       -0.528731   -1.483669   -0.983166
     12          1           0        0.632685    0.555361    1.881761
     13          1           0        0.634579   -1.082478    1.192402
 ---------------------------------------------------------------------

 SCF Done:  E(RHF) =  -343.922648273     A.U. after    2 cycles

 The electronic state is 1-A.
 Alpha  occ. eigenvalues --  -21.10112 -21.07144 -11.53147 -11.49226 -11.47534
 Alpha  occ. eigenvalues --  -11.43186 -11.41033  -1.83570  -1.71887  -1.21184
 Alpha  occ. eigenvalues --   -1.07067  -0.96088  -0.86081  -0.78642  -0.67773
 Alpha  occ. eigenvalues --   -0.67220  -0.63535  -0.58391  -0.54009  -0.52633
 Alpha  occ. eigenvalues --   -0.50452  -0.44209  -0.42114  -0.36279  -0.32412
 Alpha  occ. eigenvalues --   -0.29249
 Alpha virt. eigenvalues --    0.03553   0.04764   0.05262   0.05944   0.06446
 Alpha virt. eigenvalues --    0.06536   0.08479   0.09633   0.09937   0.10332
 Alpha virt. eigenvalues --    0.12615   0.13080   0.13590   0.14113   0.14568

 Mulliken charges:
               1
     1  O   -2.807421
     2  C    1.675625
     3  C   -2.712903
     4  C    4.534574
     5  C   -1.863154
     6  O   -3.221959
     7  C   -3.821541
     8  H    1.120776
     9  H    1.603881
    10  H    1.412217
    11  H    1.476261
    12  H    1.298588
    13  H    1.305055
 Sum of Mulliken charges =   0.00000

 Dipole moment (field-independent basis, Debye):
    X=             -1.8854    Y=             -1.7684    Z=              1.0425  Tot=              2.7872

 Test job not archived.
 1\1\GINC-SE340\SP\RHF\Aug-CC-pVDZ\C5H6O2\OHZDE\09-Apr-2025\0\\#t hf au
 g-cc-pvdz iop(5/13=1,5/36=2,99/5=2) pseudo=read geom=check guess=(read
 ,tcheck) scf=(maxcycle=1)\\title\\0,1\O,0,-1.91795391,-1.52925622,0.89
 945952\C,0,-1.74785399,-0.73122828,0.01933054\C,0,0.00869073,1.6795209
 7,-0.07187246\C,0,0.43080416,0.38238216,-0.39160262\C,0,1.32216935,0.1
 2363175,0.82115612\O,0,1.83631514,0.04952281,-0.4649161\C,0,-0.4990370
 5,-0.72241605,-0.8369896\H,0,0.88575588,2.34252841,-0.05600628\H,0,-2.
 49353328,0.05474077,-0.19364975\H,0,1.7070664,0.91670953,1.45496835\H,

 Normal termination of Gaussian 16 at Wed Apr  9 19:25:02 2025.
