 Gaussian 16, Revision C.01,

 ----------------------------------------------------------------------
 #t hf aug-cc-pvdz symm=none int=(grid=ultrafine) guess=(read,tcheck) s
 table=(opt,rrhf)
 ----------------------------------------------------------------------
 -----
 title
 -----
 Symbolic Z-matrix:
 Charge =  0 Multiplicity = 1

 SCF Done:  E(RHF) =  -232.855870890     A.U. after   16 cycles
 Normal termination of Gaussian 16 at Wed Apr  9 03:15:10 2025.
 Gaussian 16:  ES64L-G16RevC.01  3-Jul-2019

 ----------------------------------------------------------------------
 #t hf aug-cc-pvdz iop(5/13=1,5/36=2,99/5=2) pseudo=read geom=check gue
 ss=(read,tcheck) scf=(maxcycle=1)
 ----------------------------------------------------------------------
 -----
 title
 -----
 Structure from the checkpoint file:  "Grambow2020_b97d3_006955_forward_mol1.chk"
 Charge =  0 Multiplicity = 1

                         Standard orientation:
 ---------------------------------------------------------------------
 Center     Atomic      Atomic             Coordinates (Angstroms)
 Number     Number       Type             X           Y           Z
 ---------------------------------------------------------------------
      1          6           0        1.777529   -0.043042   -0.618523
      2          6           0        0.794988    0.018670    0.582357
      3          6           0       -0.096370   -1.190263    0.459958
      4          6           0       -1.283252   -0.756796   -0.271936
      5          6           0       -1.250788    0.682752   -0.533015
      6          6           0       -0.189786    1.218903    0.405569
      7          1           0        2.368264    0.885547   -0.672351
      8          1           0        1.220067   -0.141407   -1.561887
      9          1           0        2.464445   -0.893739   -0.518691
     10          1           0        1.366964    0.085684    1.518136
     11          1           0        0.225163   -2.224794    0.549561
     12          1           0       -1.830789   -0.673834    0.726739
     13          1           0       -1.858394   -1.461282   -0.881948
     14          1           0       -2.168994    1.235444   -0.732830
     15          1           0        0.333027    2.114859    0.037325
     16          1           0       -0.633678    1.492173    1.389491
 ---------------------------------------------------------------------

 SCF Done:  E(RHF) =  -234.040302138     A.U. after    2 cycles

 The electronic state is 1-A.
 Alpha  occ. eigenvalues --  -11.47277 -11.42868 -11.40619 -11.39427 -11.37022
 Alpha  occ. eigenvalues --  -11.34604  -1.35367  -1.10557  -1.02567  -0.93927
 Alpha  occ. eigenvalues --   -0.78625  -0.77078  -0.69673  -0.63547  -0.57756
 Alpha  occ. eigenvalues --   -0.54397  -0.53333  -0.49828  -0.47804  -0.45553
 Alpha  occ. eigenvalues --   -0.44590  -0.42097  -0.19542
 Alpha virt. eigenvalues --    0.03044   0.04881   0.05072   0.05645   0.05890
 Alpha virt. eigenvalues --    0.06015   0.06374   0.06685   0.07021   0.07843
 Alpha virt. eigenvalues --    0.08995   0.11830   0.12387   0.13633   0.14716

 Mulliken charges:
               1
     1  C   -3.626080
     2  C   -2.308616
     3  C   -0.664912
     4  C   -3.011409
     5  C   -1.142846
     6  C   -3.615169
     7  H    1.285792
     8  H    1.496765
     9  H    1.232208
    10  H    1.775585
    11  H    1.457546
    12  H    1.631214
    13  H    1.345800
    14  H    1.420212
    15  H    1.526614
    16  H    1.197298
 Sum of Mulliken charges =   0.00000

 Dipole moment (field-independent basis, Debye):
    X=              0.2665    Y=             -1.1457    Z=              0.7020  Tot=              1.3699

 Test job not archived.
 1\1\GINC-SE457\SP\RHF\Aug-CC-pVDZ\C6H10\OHZDE\09-Apr-2025\0\\#t hf aug
 -cc-pvdz iop(5/13=1,5/36=2,99/5=2) pseudo=read geom=check guess=(read,
 tcheck) scf=(maxcycle=1)\\title\\0,1\C,0,1.72160939,0.09407108,-0.5148
 0703\C,0,0.66525446,-0.38278741,0.51864771\C,0,-0.30590369,-1.24938877
 ,-0.2408746\C,0,-1.40179656,-0.37775613,-0.65503157\C,0,-1.24030292,0.
 97275756,-0.11508046\C,0,-0.20930658,0.82533766,0.98466369\H,0,2.38447
 789,0.84683761,-0.05863655\H,0,1.22550062,0.56255389,-1.37781073\H,0,2
 .3322485,-0.74773229,-0.86693205\H,0,1.17391108,-0.87528263,1.35891235

 Normal termination of Gaussian 16 at Wed Apr  9 03:15:15 2025.
