 Gaussian 16, Revision C.01,

 ----------------------------------------------------------------------
 #t hf aug-cc-pvdz symm=none int=(grid=ultrafine) guess=(read,tcheck) s
 table=(opt,rrhf)
 ----------------------------------------------------------------------
 -----
 title
 -----
 Symbolic Z-matrix:
 Charge =  0 Multiplicity = 1

 SCF Done:  E(RHF) =  -323.900406821     A.U. after   15 cycles
 Normal termination of Gaussian 16 at Wed Apr  9 19:25:15 2025.
 Gaussian 16:  ES64L-G16RevC.01  3-Jul-2019

 ----------------------------------------------------------------------
 #t hf aug-cc-pvdz iop(5/13=1,5/36=2,99/5=2) pseudo=read geom=check gue
 ss=(read,tcheck) scf=(maxcycle=1)
 ----------------------------------------------------------------------
 -----
 title
 -----
 Structure from the checkpoint file:  "Grambow2020_wb97xd3_008932_reverse_mol2.chk"
 Charge =  0 Multiplicity = 1

                         Standard orientation:
 ---------------------------------------------------------------------
 Center     Atomic      Atomic             Coordinates (Angstroms)
 Number     Number       Type             X           Y           Z
 ---------------------------------------------------------------------
      1          6           0       -1.565365    1.555686   -0.117489
      2          6           0       -0.577502    0.399496   -0.286410
      3          6           0        0.770541    0.727501    0.347948
      4          7           0        1.649693   -0.418405    0.271355
      5          6           0        2.765401   -0.280499   -0.289535
      6          6           0       -1.172831   -0.837407    0.348242
      7          8           0       -1.786841   -1.675220   -0.249968
      8          1           0       -1.782249    1.738174    0.938571
      9          1           0       -2.505678    1.337485   -0.623941
     10          1           0       -1.156639    2.475985   -0.538778
     11          1           0       -0.443937    0.182582   -1.349177
     12          1           0        1.199064    1.623948   -0.124044
     13          1           0        0.618523    0.953749    1.409499
     14          1           0       -1.047090   -0.906483    1.451132
     15          1           0        3.436516   -1.134168   -0.361015
     16          1           0        3.106909    0.670655   -0.718527
 ---------------------------------------------------------------------

 SCF Done:  E(RHF) =  -325.411596389     A.U. after    2 cycles

 The electronic state is 1-A.
 Alpha  occ. eigenvalues --  -21.05435 -15.74634 -11.47675 -11.45050 -11.42638
 Alpha  occ. eigenvalues --  -11.41284 -11.37527  -1.70499  -1.41217  -1.21888
 Alpha  occ. eigenvalues --   -1.02515  -0.93159  -0.84264  -0.80179  -0.67832
 Alpha  occ. eigenvalues --   -0.64874  -0.62591  -0.60395  -0.56702  -0.55485
 Alpha  occ. eigenvalues --   -0.50209  -0.49565  -0.47362  -0.42185  -0.40009
 Alpha  occ. eigenvalues --   -0.37738  -0.27996
 Alpha virt. eigenvalues --    0.03660   0.04748   0.05206   0.05421   0.06060
 Alpha virt. eigenvalues --    0.06291   0.06697   0.07056   0.08211   0.10147
 Alpha virt. eigenvalues --    0.11182   0.11758   0.12991   0.13988   0.14437

 Mulliken charges:
               1
     1  C   -3.590009
     2  C   -2.451069
     3  C   -2.225199
     4  N   -2.351087
     5  C   -1.690991
     6  C    2.348272
     7  O   -2.957176
     8  H    1.347866
     9  H    1.182737
    10  H    1.257816
    11  H    1.617773
    12  H    1.669507
    13  H    1.488202
    14  H    1.467834
    15  H    1.420765
    16  H    1.464758
 Sum of Mulliken charges =  -0.00000

 Dipole moment (field-independent basis, Debye):
    X=              1.5718    Y=              2.1535    Z=             -0.3152  Tot=              2.6847

 Test job not archived.
 1\1\GINC-SE097\SP\RHF\Aug-CC-pVDZ\C5H9N1O1\OHZDE\09-Apr-2025\0\\#t hf
 aug-cc-pvdz iop(5/13=1,5/36=2,99/5=2) pseudo=read geom=check guess=(re
 ad,tcheck) scf=(maxcycle=1)\\title\\0,1\C,0,2.03957251,-0.10112699,-0.
 00060248\C,0,0.6087818,0.41808195,0.15573985\C,0,-0.40888691,-0.616991
 46,-0.31350355\N,0,-1.752476,-0.14786842,-0.05549656\C,0,-2.55608205,-
 0.07425297,-1.0184191\C,0,0.37922915,0.76271804,1.61027064\O,0,0.50476
 46,1.86153302,2.07248256\H,0,2.21186851,-0.97846462,0.62883749\H,0,2.7
 6162178,0.66538519,0.28117104\H,0,2.23385933,-0.38873188,-1.03550719\H

 Normal termination of Gaussian 16 at Wed Apr  9 19:25:20 2025.
