 Gaussian 16, Revision C.01,

 ----------------------------------------------------------------------
 #t hf aug-cc-pvdz symm=none int=(grid=ultrafine) guess=(read,tcheck) s
 table=(opt,rrhf)
 ----------------------------------------------------------------------
 -----
 title
 -----
 Symbolic Z-matrix:
 Charge =  0 Multiplicity = 1

 SCF Done:  E(RHF) =  -322.454629466     A.U. after   16 cycles
 Normal termination of Gaussian 16 at Wed Apr  9 18:03:01 2025.
 Gaussian 16:  ES64L-G16RevC.01  3-Jul-2019

 ----------------------------------------------------------------------
 #t hf aug-cc-pvdz iop(5/13=1,5/36=2,99/5=2) pseudo=read geom=check gue
 ss=(read,tcheck) scf=(maxcycle=1)
 ----------------------------------------------------------------------
 -----
 title
 -----
 Structure from the checkpoint file:  "Grambow2020_wb97xd3_006562_reverse_mol1.chk"
 Charge =  0 Multiplicity = 1

                         Standard orientation:
 ---------------------------------------------------------------------
 Center     Atomic      Atomic             Coordinates (Angstroms)
 Number     Number       Type             X           Y           Z
 ---------------------------------------------------------------------
      1          8           0        2.460076    0.395976   -0.136187
      2          6           0        0.909301   -0.814995    0.074152
      3          6           0       -0.118637   -0.167976    0.945942
      4          6           0       -0.481553    0.921321   -0.100141
      5          6           0       -1.927014    0.476620   -0.040227
      6          7           0       -1.219736   -0.856330    0.097716
      7          6           0       -0.130977   -0.362510   -0.896450
      8          1           0        2.634849    0.706638    0.758632
      9          1           0        2.206260   -0.722699    0.002817
     10          1           0       -0.200043   -0.121596    2.029842
     11          1           0       -0.020682    1.900644   -0.213775
     12          1           0       -2.517046    0.742299    0.839585
     13          1           0       -2.529925    0.551457   -0.947499
     14          1           0       -0.222590   -0.545007   -1.963778
 ---------------------------------------------------------------------

 SCF Done:  E(RHF) =  -323.964719520     A.U. after    2 cycles

 The electronic state is 1-A.
 Alpha  occ. eigenvalues --  -21.05902 -15.74126 -11.51293 -11.49008 -11.46580
 Alpha  occ. eigenvalues --  -11.45597 -11.39911  -1.66580  -1.59863  -1.13342
 Alpha  occ. eigenvalues --   -1.01159  -0.96024  -0.87374  -0.74542  -0.71212
 Alpha  occ. eigenvalues --   -0.66784  -0.64146  -0.55207  -0.52784  -0.46713
 Alpha  occ. eigenvalues --   -0.45719  -0.43957  -0.43242  -0.36166  -0.32500
 Alpha  occ. eigenvalues --   -0.27681
 Alpha virt. eigenvalues --    0.03767   0.04946   0.05469   0.05532   0.06013
 Alpha virt. eigenvalues --    0.06624   0.07249   0.09698   0.10188   0.11277
 Alpha virt. eigenvalues --    0.12304   0.12978   0.13389   0.13871   0.14528

 Mulliken charges:
               1
     1  O   -1.794256
     2  C   -1.497610
     3  C   -0.414426
     4  C   -1.281386
     5  C   -2.132803
     6  N   -1.237146
     7  C   -0.523238
     8  H    0.864546
     9  H    1.603939
    10  H    1.254524
    11  H    1.267953
    12  H    1.324059
    13  H    1.321959
    14  H    1.243885
 Sum of Mulliken charges =  -0.00000

 Dipole moment (field-independent basis, Debye):
    X=             -0.5827    Y=              2.5456    Z=              0.2360  Tot=              2.6220

 Test job not archived.
 1\1\GINC-SE340\SP\RHF\Aug-CC-pVDZ\C5H7N1O1\OHZDE\09-Apr-2025\0\\#t hf
 aug-cc-pvdz iop(5/13=1,5/36=2,99/5=2) pseudo=read geom=check guess=(re
 ad,tcheck) scf=(maxcycle=1)\\title\\0,1\O,0,2.53421675,0.14415358,0.35
 969065\C,0,0.97377973,0.6163676,-0.7617583\C,0,0.01930676,-0.53362685,
 -0.80420135\C,0,-0.38642289,-0.39623232,0.68880547\C,0,-1.83448994,-0.
 26610578,0.26824018\N,0,-1.14962228,0.48454651,-0.85581668\C,0,-0.1169
 9968,1.03880064,0.16600134\H,0,2.77361595,-0.7405182,0.06337686\H,0,2.
 26510197,0.70068872,-0.61653805\H,0,0.00952411,-1.42292599,-1.43083559

 Normal termination of Gaussian 16 at Wed Apr  9 18:03:05 2025.
