 Gaussian 16, Revision C.01,

 ----------------------------------------------------------------------
 #t hf aug-cc-pvdz symm=none int=(grid=ultrafine) guess=(read,tcheck) s
 table=(opt,rrhf)
 ----------------------------------------------------------------------
 -----
 title
 -----
 Symbolic Z-matrix:
 Charge =  0 Multiplicity = 1

 SCF Done:  E(RHF) =  -302.752347959     A.U. after   15 cycles
 Normal termination of Gaussian 16 at Wed Apr  9 19:29:15 2025.
 Gaussian 16:  ES64L-G16RevC.01  3-Jul-2019

 ----------------------------------------------------------------------
 #t hf aug-cc-pvdz iop(5/13=1,5/36=2,99/5=2) pseudo=read geom=check gue
 ss=(read,tcheck) scf=(maxcycle=1)
 ----------------------------------------------------------------------
 -----
 title
 -----
 Structure from the checkpoint file:  "Grambow2020_wb97xd3_009058_reverse_mol1.chk"
 Charge =  0 Multiplicity = 1

                         Standard orientation:
 ---------------------------------------------------------------------
 Center     Atomic      Atomic             Coordinates (Angstroms)
 Number     Number       Type             X           Y           Z
 ---------------------------------------------------------------------
      1          7           0        1.166490    1.599099    0.236649
      2          6           0        0.511239    0.437017   -0.504474
      3          6           0        1.216750   -0.806449   -0.166184
      4          7           0        1.679889   -1.819315    0.116714
      5          6           0       -0.915749    0.637873   -0.073984
      6          6           0       -1.550293   -0.366935    0.852971
      7          6           0       -1.973470   -0.288258   -0.585128
      8          1           0        1.903951    2.098413   -0.254641
      9          1           0        1.486367    1.315697    1.160221
     10          1           0        0.634279    0.632271   -1.570976
     11          1           0        0.192918    2.079585    0.327105
     12          1           0       -1.015375   -1.268107    1.145880
     13          1           0       -2.217803    0.011209    1.619020
     14          1           0       -2.940680    0.133060   -0.835818
     15          1           0       -1.699167   -1.140109   -1.203544
 ---------------------------------------------------------------------

 SCF Done:  E(RHF) =  -304.214666320     A.U. after    2 cycles

 The electronic state is 1-A.
 Alpha  occ. eigenvalues --  -15.88128 -15.76950 -11.52503 -11.44532 -11.38855
 Alpha  occ. eigenvalues --  -11.35408 -11.31156  -1.49677  -1.31317  -1.24884
 Alpha  occ. eigenvalues --   -1.06661  -0.84645  -0.82867  -0.78731  -0.72833
 Alpha  occ. eigenvalues --   -0.65653  -0.63892  -0.62056  -0.55760  -0.52471
 Alpha  occ. eigenvalues --   -0.47625  -0.45630  -0.44548  -0.37411  -0.35123
 Alpha  occ. eigenvalues --   -0.25612
 Alpha virt. eigenvalues --    0.01907   0.03997   0.04829   0.05382   0.06671
 Alpha virt. eigenvalues --    0.06909   0.07488   0.08149   0.08969   0.10961
 Alpha virt. eigenvalues --    0.11542   0.12499   0.13219   0.13483   0.14502

 Mulliken charges:
               1
     1  N   -2.585282
     2  C   -0.807632
     3  C    1.977461
     4  N   -2.327398
     5  C   -0.652137
     6  C   -2.380537
     7  C   -2.096704
     8  H    0.659836
     9  H    0.737446
    10  H    1.564132
    11  H    0.822269
    12  H    1.387769
    13  H    1.195576
    14  H    1.216958
    15  H    1.288243
 Sum of Mulliken charges =   0.00000

 Dipole moment (field-independent basis, Debye):
    X=              4.0488    Y=              4.5114    Z=             -0.0547  Tot=              6.0621

 Test job not archived.
 1\1\GINC-SE113\SP\RHF\Aug-CC-pVDZ\C5H8N2\OHZDE\09-Apr-2025\0\\#t hf au
 g-cc-pvdz iop(5/13=1,5/36=2,99/5=2) pseudo=read geom=check guess=(read
 ,tcheck) scf=(maxcycle=1)\\title\\0,1\N,0,1.73226243,-0.17155411,-0.95
 805356\C,0,0.86389157,-0.21432922,0.29620127\C,0,1.01310417,1.05179667
 ,1.02630632\N,0,1.03089264,2.04620879,1.60185324\C,0,-0.4565591,-0.577
 67769,-0.32536792\C,0,-1.56452689,0.44390551,-0.34287836\C,0,-1.655075
 04,-0.75839514,0.55136458\H,0,2.67606038,-0.54148514,-0.87482967\H,0,1
 .75315037,0.76225942,-1.36200791\H,0,1.24558146,-1.02589509,0.91778152

 Normal termination of Gaussian 16 at Wed Apr  9 19:29:20 2025.
