 Gaussian 16, Revision C.01,

 ----------------------------------------------------------------------
 #t hf aug-cc-pvdz symm=none int=(grid=ultrafine) guess=(read,tcheck) s
 table=(opt,rrhf)
 ----------------------------------------------------------------------
 -----
 title
 -----
 Symbolic Z-matrix:
 Charge =  0 Multiplicity = 1

 SCF Done:  E(RHF) =  -343.687656606     A.U. after   13 cycles
 Normal termination of Gaussian 16 at Wed Apr  9 03:28:19 2025.
 Gaussian 16:  ES64L-G16RevC.01  3-Jul-2019

 ----------------------------------------------------------------------
 #t hf aug-cc-pvdz iop(5/13=1,5/36=2,99/5=2) pseudo=read geom=check gue
 ss=(read,tcheck) scf=(maxcycle=1)
 ----------------------------------------------------------------------
 -----
 title
 -----
 Structure from the checkpoint file:  "Grambow2020_wb97xd3_006710_reverse_mol2.chk"
 Charge =  0 Multiplicity = 1

                         Standard orientation:
 ---------------------------------------------------------------------
 Center     Atomic      Atomic             Coordinates (Angstroms)
 Number     Number       Type             X           Y           Z
 ---------------------------------------------------------------------
      1          8           0        1.532207   -1.238840   -0.363454
      2          6           0        1.927717   -0.090780    0.335263
      3          6           0        1.101030    1.149833    0.131450
      4          8           0       -1.140955   -0.992587    0.122572
      5          6           0       -1.181566    0.255689   -0.554776
      6          6           0       -2.194951   -0.099540    0.441923
      7          6           0       -0.162018    1.292282   -0.250684
      8          1           0        0.665268   -1.506095   -0.041418
      9          1           0        1.998245   -0.282407    1.417242
     10          1           0        2.943953    0.132409    0.000497
     11          1           0        1.645375    2.067332    0.343113
     12          1           0       -1.467100    0.168125   -1.601413
     13          1           0       -3.180959   -0.423812    0.124217
     14          1           0       -2.133689    0.346537    1.430070
     15          1           0       -0.542371    2.304421   -0.364304
 ---------------------------------------------------------------------

 SCF Done:  E(RHF) =  -345.238473024     A.U. after    2 cycles

 The electronic state is 1-A.
 Alpha  occ. eigenvalues --  -21.07414 -21.04771 -11.49828 -11.45330 -11.43443
 Alpha  occ. eigenvalues --  -11.42641 -11.38244  -1.80798  -1.69853  -1.19922
 Alpha  occ. eigenvalues --   -1.03305  -0.97184  -0.89603  -0.76293  -0.70270
 Alpha  occ. eigenvalues --   -0.66170  -0.63926  -0.62174  -0.54834  -0.53316
 Alpha  occ. eigenvalues --   -0.48309  -0.46978  -0.40695  -0.40004  -0.33662
 Alpha  occ. eigenvalues --   -0.32342  -0.30111
 Alpha virt. eigenvalues --    0.03521   0.04869   0.04948   0.05265   0.05648
 Alpha virt. eigenvalues --    0.06438   0.07152   0.08525   0.10124   0.11860
 Alpha virt. eigenvalues --    0.12331   0.12746   0.13244   0.14121   0.14457

 Mulliken charges:
               1
     1  O   -2.785761
     2  C   -1.547179
     3  C   -0.800636
     4  O   -2.771235
     5  C    0.235354
     6  C   -2.127037
     7  C   -0.486754
     8  H    1.056538
     9  H    1.122126
    10  H    1.057285
    11  H    1.429899
    12  H    1.274734
    13  H    1.374573
    14  H    1.546969
    15  H    1.421124
 Sum of Mulliken charges =   0.00000

 Dipole moment (field-independent basis, Debye):
    X=             -0.8860    Y=              0.7077    Z=              0.4782  Tot=              1.2306

 Test job not archived.
 1\1\GINC-SE364\SP\RHF\Aug-CC-pVDZ\C5H8O2\OHZDE\09-Apr-2025\0\\#t hf au
 g-cc-pvdz iop(5/13=1,5/36=2,99/5=2) pseudo=read geom=check guess=(read
 ,tcheck) scf=(maxcycle=1)\\title\\0,1\O,0,1.73043546,0.94929433,0.9253
 8868\C,0,1.97835284,-0.18347187,0.1392257\C,0,0.86028958,-1.18226842,0
 .0111214\O,0,-0.77147673,1.45429514,-0.03797369\C,0,-1.23925132,0.1959
 4107,0.42718711\C,0,-1.91876256,0.90213336,-0.66189562\C,0,-0.45131033
 ,-1.03191026,0.1478882\H,0,1.03354576,1.46343978,0.50501462\H,0,2.3084
 9541,0.09408451,-0.87385994\H,0,2.82498724,-0.69521942,0.60392183\H,0,

 Normal termination of Gaussian 16 at Wed Apr  9 03:28:24 2025.
