 Gaussian 16, Revision C.01,

 ----------------------------------------------------------------------
 #t hf aug-cc-pvdz symm=none int=(grid=ultrafine) guess=(read,tcheck) s
 table=(opt,rrhf)
 ----------------------------------------------------------------------
 -----
 title
 -----
 Symbolic Z-matrix:
 Charge =  0 Multiplicity = 1

 SCF Done:  E(RHF) =  -262.612654005     A.U. after   13 cycles
 Normal termination of Gaussian 16 at Wed Apr  9 16:59:57 2025.
 Gaussian 16:  ES64L-G16RevC.01  3-Jul-2019

 ----------------------------------------------------------------------
 #t hf aug-cc-pvdz iop(5/13=1,5/36=2,99/5=2) pseudo=read geom=check gue
 ss=(read,tcheck) scf=(maxcycle=1)
 ----------------------------------------------------------------------
 -----
 title
 -----
 Structure from the checkpoint file:  "Grambow2020_b97d3_006897_reverse_mol2.chk"
 Charge =  0 Multiplicity = 1

                         Standard orientation:
 ---------------------------------------------------------------------
 Center     Atomic      Atomic             Coordinates (Angstroms)
 Number     Number       Type             X           Y           Z
 ---------------------------------------------------------------------
      1          6           0       -2.376764   -1.192460    0.423508
      2          6           0       -2.201291   -0.435295   -0.509673
      3          7           0        0.083339    1.986361   -0.416084
      4          7           0        0.478246    2.107966    0.616548
      5          6           0        2.614104   -1.266398   -0.085014
      6          6           0        1.402605   -1.200621   -0.029210
      7          1           0       -2.534292   -1.856662    1.248910
      8          1           0       -2.043037    0.231371   -1.332671
      9          1           0        3.682327   -1.318380   -0.135190
     10          1           0        0.331975   -1.147980    0.018044
 ---------------------------------------------------------------------

 SCF Done:  E(RHF) =  -263.795402257     A.U. after    2 cycles

 The electronic state is 1-A.
 Alpha  occ. eigenvalues --  -15.87323 -15.87073 -11.43105 -11.42460 -11.41533
 Alpha  occ. eigenvalues --  -11.40623  -1.55586  -1.10615  -1.08594  -0.79953
 Alpha  occ. eigenvalues --   -0.78940  -0.78107  -0.66632  -0.65081  -0.57677
 Alpha  occ. eigenvalues --   -0.57004  -0.56934  -0.40031  -0.39694  -0.38082
 Alpha  occ. eigenvalues --   -0.38008
 Alpha virt. eigenvalues --    0.03446   0.04638   0.05204   0.07457   0.09820
 Alpha virt. eigenvalues --    0.10378   0.10748   0.11711   0.12014   0.12309
 Alpha virt. eigenvalues --    0.13628   0.14217   0.14369   0.14467   0.14913

 Mulliken charges:
               1
     1  C   -0.814195
     2  C   -0.754510
     3  N    0.121703
     4  N   -0.062431
     5  C   -1.417720
     6  C    0.194289
     7  H    0.632468
     8  H    0.720572
     9  H    0.617891
    10  H    0.761930
 Sum of Mulliken charges =   0.00000

 Dipole moment (field-independent basis, Debye):
    X=             -0.2957    Y=              0.0657    Z=              0.0608  Tot=              0.3089

 Test job not archived.
 1\1\GINC-SE220\SP\RHF\Aug-CC-pVDZ\C4H4N2\OHZDE\09-Apr-2025\0\\#t hf au
 g-cc-pvdz iop(5/13=1,5/36=2,99/5=2) pseudo=read geom=check guess=(read
 ,tcheck) scf=(maxcycle=1)\\title\\0,1\C,0,2.05355825,1.42996341,0.1305
 61\C,0,2.02278143,0.54243333,-0.69784683\N,0,0.47393927,-2.35128126,-0
 .13196987\N,0,0.19587396,-2.43951149,0.94132548\C,0,-2.80066711,0.1615
 8234,0.10738098\C,0,-1.61420448,0.41515465,0.05099441\H,0,2.08447447,2
 .21029529,0.86363337\H,0,1.99198246,-0.24014512,-1.42821352\H,0,-3.845
 28344,-0.06789008,0.15675763\H,0,-0.5672948,0.64424494,-0.00144166\\Ve

 Normal termination of Gaussian 16 at Wed Apr  9 17:00:00 2025.
