 Gaussian 16, Revision C.01,

 ----------------------------------------------------------------------
 #t hf aug-cc-pvdz symm=none int=(grid=ultrafine) guess=(read,tcheck) s
 table=(opt,rrhf)
 ----------------------------------------------------------------------
 -----
 title
 -----
 Symbolic Z-matrix:
 Charge =  0 Multiplicity = 1

 SCF Done:  E(RHF) =  -322.644709856     A.U. after   15 cycles
 Normal termination of Gaussian 16 at Wed Apr  9 18:26:20 2025.
 Gaussian 16:  ES64L-G16RevC.01  3-Jul-2019

 ----------------------------------------------------------------------
 #t hf aug-cc-pvdz iop(5/13=1,5/36=2,99/5=2) pseudo=read geom=check gue
 ss=(read,tcheck) scf=(maxcycle=1)
 ----------------------------------------------------------------------
 -----
 title
 -----
 Structure from the checkpoint file:  "Grambow2020_wb97xd3_007129_reverse_mol2.chk"
 Charge =  0 Multiplicity = 1

                         Standard orientation:
 ---------------------------------------------------------------------
 Center     Atomic      Atomic             Coordinates (Angstroms)
 Number     Number       Type             X           Y           Z
 ---------------------------------------------------------------------
      1          7           0       -2.280202    0.123139   -0.166473
      2          6           0       -1.041667    0.024572    0.037293
      3          8           0       -0.395021   -1.163994   -0.062187
      4          6           0        1.024519   -1.228711    0.146738
      5          6           0        1.905078   -0.110647   -0.119592
      6          6           0        1.171692    1.146178   -0.285457
      7          6           0       -0.198666    1.213128    0.391028
      8          1           0       -2.680720   -0.788109   -0.380961
      9          1           0        1.345917   -2.156295   -0.327505
     10          1           0        1.256931   -1.360832    1.226284
     11          1           0       -0.054996    1.228712    1.476377
     12          1           0        1.056522    1.123864   -1.389773
     13          1           0        1.786827    2.025447   -0.088946
     14          1           0       -0.754636    2.110074    0.127279
 ---------------------------------------------------------------------

 SCF Done:  E(RHF) =  -324.111878273     A.U. after    2 cycles

 The electronic state is 1-A.
 Alpha  occ. eigenvalues --  -21.08784 -15.71894 -11.49908 -11.46164 -11.44032
 Alpha  occ. eigenvalues --  -11.41647 -11.39064  -1.81531  -1.32171  -1.25690
 Alpha  occ. eigenvalues --   -1.09497  -0.97530  -0.83650  -0.72876  -0.67930
 Alpha  occ. eigenvalues --   -0.65459  -0.63435  -0.60471  -0.56975  -0.53329
 Alpha  occ. eigenvalues --   -0.50951  -0.47043  -0.43330  -0.37350  -0.33058
 Alpha  occ. eigenvalues --   -0.30187
 Alpha virt. eigenvalues --    0.03036   0.05104   0.05463   0.05801   0.06164
 Alpha virt. eigenvalues --    0.06349   0.06669   0.07397   0.08972   0.11031
 Alpha virt. eigenvalues --    0.12123   0.13193   0.13485   0.14004   0.14303

 Mulliken charges:
               1
     1  N   -3.586844
     2  C    5.299980
     3  O   -3.585501
     4  C   -1.091885
     5  C   -0.765653
     6  C   -2.219906
     7  C   -3.047781
     8  H    0.697694
     9  H    1.504800
    10  H    1.322665
    11  H    1.387312
    12  H    1.460631
    13  H    1.342921
    14  H    1.281569
 Sum of Mulliken charges =   0.00000

 Dipole moment (field-independent basis, Debye):
    X=              0.7861    Y=             -0.5422    Z=              0.3496  Tot=              1.0169

 Test job not archived.
 1\1\GINC-SE028\SP\RHF\Aug-CC-pVDZ\C5H7N1O1\OHZDE\09-Apr-2025\0\\#t hf
 aug-cc-pvdz iop(5/13=1,5/36=2,99/5=2) pseudo=read geom=check guess=(re
 ad,tcheck) scf=(maxcycle=1)\\title\\0,1\N,0,1.71770875,-1.61013468,0.1
 6375615\C,0,0.92893231,-0.67986037,-0.14869364\O,0,1.34527071,0.400849
 13,-0.85542236\C,0,0.40698588,1.42552575,-1.21955392\C,0,-1.00201707,1
 .15911081,-1.4198448\C,0,-1.40063061,-0.146993,-0.8905264\C,0,-0.52210
 581,-0.70971591,0.22819231\H,0,2.65906291,-1.40663573,-0.16674856\H,0,
 0.86918716,1.96111232,-2.04909119\H,0,0.31268733,2.17852274,-0.4065383

 Normal termination of Gaussian 16 at Wed Apr  9 18:26:24 2025.
