 Gaussian 16, Revision C.01,

 ----------------------------------------------------------------------
 #t hf aug-cc-pvdz symm=none int=(grid=ultrafine) guess=(read,tcheck) s
 table=(opt,rrhf)
 ----------------------------------------------------------------------
 -----
 title
 -----
 Symbolic Z-matrix:
 Charge =  0 Multiplicity = 1

 SCF Done:  E(RHF) =  -289.059405985     A.U. after   16 cycles

 1\1\GINC-SE036\Stability\RHF\Aug-CC-pVDZ\C6H13N1\OHZDE\09-Apr-2025\0\\
 #t hf aug-cc-pvdz symm=none int=(grid=ultrafine) guess=(read,tcheck) s
 table=(opt,rrhf)\\title\\0,1\C,0,-1.37879356,1.28936927,0.32660708\C,0
 ,-0.54795566,0.04136273,0.43146216\N,0,-0.21169855,-0.8714665,-0.96833
 084\C,0,-1.59224239,-1.42846683,0.17519036\C,0,0.75086884,-0.09822697,
 -0.31075617\C,0,1.88012864,-0.81861822,0.42000146\C,0,1.22997059,1.130
 48599,-1.06998074\H,0,-2.28978215,1.19458573,0.92199018\H,0,-0.8263334
 4,2.15443837,0.69915208\H,0,-1.66782897,1.47826807,-0.70590711\H,0,-0.

 Normal termination of Gaussian 16 at Wed Apr  9 04:04:54 2025.
 Gaussian 16:  ES64L-G16RevC.01  3-Jul-2019

 ----------------------------------------------------------------------
 #t hf aug-cc-pvdz iop(5/13=1,5/36=2,99/5=2) pseudo=read geom=check gue
 ss=(read,tcheck) scf=(maxcycle=1)
 ----------------------------------------------------------------------
 -----
 title
 -----
 Structure from the checkpoint file:  "Grambow2020_wb97xd3_009138_forward_mol1.chk"
 Charge =  0 Multiplicity = 1

                         Standard orientation:
 ---------------------------------------------------------------------
 Center     Atomic      Atomic             Coordinates (Angstroms)
 Number     Number       Type             X           Y           Z
 ---------------------------------------------------------------------
      1          6           0        1.240343    1.496528   -0.458980
      2          6           0        0.623784    0.125894   -0.453948
      3          7           0        0.158816   -0.587430    1.022778
      4          6           0        1.793198   -1.083294    0.243865
      5          6           0       -0.759778   -0.107389    0.083317
      6          6           0       -1.621269   -1.118981   -0.666824
      7          6           0       -1.537596    1.130499    0.505609
      8          1           0        2.251348    1.460592   -0.871220
      9          1           0        0.654266    2.182195   -1.074383
     10          1           0        1.301054    1.899116    0.550746
     11          1           0        0.704522   -0.408864   -1.400512
     12          1           0        2.149199   -1.097315    1.265454
     13          1           0        1.568588   -2.083090   -0.112618
     14          1           0        2.594961   -0.651790   -0.368929
     15          1           0       -2.110952   -0.678562   -1.539742
     16          1           0       -1.018224   -1.968393   -0.992705
     17          1           0       -2.398028   -1.501446   -0.000937
     18          1           0       -0.912050    1.818872    1.069876
     19          1           0       -2.364268    0.828513    1.152496
     20          1           0       -1.964207    1.652647   -0.355201
 ---------------------------------------------------------------------

 SCF Done:  E(RHF) =  -290.539869358     A.U. after    2 cycles

 The electronic state is 1-A.
 Alpha  occ. eigenvalues --  -15.69379 -11.49970 -11.43843 -11.41079 -11.39393
 Alpha  occ. eigenvalues --  -11.38087 -11.35687  -1.44147  -1.13212  -1.08522
 Alpha  occ. eigenvalues --   -1.01204  -0.99191  -0.87012  -0.73199  -0.65608
 Alpha  occ. eigenvalues --   -0.63208  -0.60004  -0.57888  -0.56648  -0.55158
 Alpha  occ. eigenvalues --   -0.53502  -0.51950  -0.50518  -0.48014  -0.44523
 Alpha  occ. eigenvalues --   -0.43344  -0.33067  -0.27684
 Alpha virt. eigenvalues --    0.03966   0.05211   0.05358   0.05426   0.05777
 Alpha virt. eigenvalues --    0.05884   0.06184   0.06549   0.07025   0.08325
 Alpha virt. eigenvalues --    0.08659   0.08949   0.09687   0.11465   0.12845

 Mulliken charges:
               1
     1  C   -3.670732
     2  C   -2.004218
     3  N   -1.980412
     4  C   -3.329591
     5  C    3.210440
     6  C   -4.436855
     7  C   -4.363003
     8  H    1.110826
     9  H    1.256647
    10  H    1.381188
    11  H    1.954052
    12  H    1.153329
    13  H    1.285566
    14  H    1.039638
    15  H    1.239258
    16  H    1.187037
    17  H    1.228091
    18  H    1.379525
    19  H    1.098313
    20  H    1.260898
 Sum of Mulliken charges =  -0.00000

 Dipole moment (field-independent basis, Debye):
    X=              0.6703    Y=              0.4682    Z=             -1.4866  Tot=              1.6966

 Test job not archived.
 1\1\GINC-SE036\SP\RHF\Aug-CC-pVDZ\C6H13N1\OHZDE\09-Apr-2025\0\\#t hf a
 ug-cc-pvdz iop(5/13=1,5/36=2,99/5=2) pseudo=read geom=check guess=(rea
 d,tcheck) scf=(maxcycle=1)\\title\\0,1\C,0,-1.37879356,1.28936927,0.32
 660708\C,0,-0.54795566,0.04136273,0.43146216\N,0,-0.21169855,-0.871466
 5,-0.96833084\C,0,-1.59224239,-1.42846683,0.17519036\C,0,0.75086884,-0
 .09822697,-0.31075617\C,0,1.88012864,-0.81861822,0.42000146\C,0,1.2299
 7059,1.13048599,-1.06998074\H,0,-2.28978215,1.19458573,0.92199018\H,0,
 -0.82633344,2.15443837,0.69915208\H,0,-1.66782897,1.47826807,-0.705907

 Normal termination of Gaussian 16 at Wed Apr  9 04:05:03 2025.
