 Gaussian 16, Revision C.01,

 ----------------------------------------------------------------------
 #t hf aug-cc-pvdz symm=none int=(grid=ultrafine) guess=(read,tcheck) s
 table=(opt,rrhf)
 ----------------------------------------------------------------------
 -----
 title
 -----
 Symbolic Z-matrix:
 Charge =  0 Multiplicity = 1

 SCF Done:  E(RHF) =  -358.437673410     A.U. after   16 cycles
 Normal termination of Gaussian 16 at Wed Apr  9 18:12:26 2025.
 Gaussian 16:  ES64L-G16RevC.01  3-Jul-2019

 ----------------------------------------------------------------------
 #t hf aug-cc-pvdz iop(5/13=1,5/36=2,99/5=2) pseudo=read geom=check gue
 ss=(read,tcheck) scf=(maxcycle=1)
 ----------------------------------------------------------------------
 -----
 title
 -----
 Structure from the checkpoint file:  "Grambow2020_wb97xd3_006756_reverse_mol2.chk"
 Charge =  0 Multiplicity = 1

                         Standard orientation:
 ---------------------------------------------------------------------
 Center     Atomic      Atomic             Coordinates (Angstroms)
 Number     Number       Type             X           Y           Z
 ---------------------------------------------------------------------
      1          8           0        1.469499   -1.588756   -0.048402
      2          6           0        1.565239   -0.377129    0.033265
      3          6           0        0.481513    0.558734   -0.007087
      4          8           0        0.671519    1.912901    0.114653
      5          7           0       -0.769271    0.135912   -0.052374
      6          6           0       -2.040655    0.293660   -0.059661
      7          6           0       -1.564903   -1.091200    0.053081
      8          1           0        2.550908    0.116641    0.148498
      9          1           0        0.863328    2.297056   -0.744522
     10          1           0       -2.755663    1.074106    0.115278
     11          1           0       -1.506354   -1.595130    1.015387
     12          1           0       -1.542628   -1.741611   -0.815624
 ---------------------------------------------------------------------

 SCF Done:  E(RHF) =  -360.015565273     A.U. after    2 cycles

 The electronic state is 1-A.
 Alpha  occ. eigenvalues --  -21.10292 -21.01936 -15.86524 -11.49756 -11.47961
 Alpha  occ. eigenvalues --  -11.45640 -11.41904  -1.76474  -1.67211  -1.55285
 Alpha  occ. eigenvalues --   -1.12722  -0.96051  -0.89863  -0.78847  -0.70143
 Alpha  occ. eigenvalues --   -0.67805  -0.66729  -0.57476  -0.53843  -0.51533
 Alpha  occ. eigenvalues --   -0.48315  -0.44186  -0.42812  -0.36985  -0.27134
 Alpha  occ. eigenvalues --   -0.23595
 Alpha virt. eigenvalues --    0.03177   0.04778   0.05363   0.06232   0.06685
 Alpha virt. eigenvalues --    0.08233   0.09421   0.11071   0.11576   0.11847
 Alpha virt. eigenvalues --    0.12515   0.13328   0.14027   0.14540   0.15536

 Mulliken charges:
               1
     1  O   -2.897068
     2  C    0.790827
     3  C    4.389453
     4  O   -3.416153
     5  N   -2.660700
     6  C    0.260055
     7  C   -2.419815
     8  H    1.541175
     9  H    0.564127
    10  H    1.094403
    11  H    1.360051
    12  H    1.393645
 Sum of Mulliken charges =  -0.00000

 Dipole moment (field-independent basis, Debye):
    X=             -2.2887    Y=              0.8268    Z=             -0.2541  Tot=              2.4467

 Test job not archived.
 1\1\GINC-SE041\SP\RHF\Aug-CC-pVDZ\C4H5N1O2\OHZDE\09-Apr-2025\0\\#t hf
 aug-cc-pvdz iop(5/13=1,5/36=2,99/5=2) pseudo=read geom=check guess=(re
 ad,tcheck) scf=(maxcycle=1)\\title\\0,1\O,0,1.592913,1.37714102,0.9806
 7299\C,0,1.71967293,0.22284872,0.61268333\C,0,0.68849351,-0.60391926,0
 .06036631\O,0,0.91855797,-1.89276901,-0.35270309\N,0,-0.5133772,-0.109
 47512,-0.1769546\C,0,-1.71779222,-0.16318069,-0.61037806\C,0,-1.242319
 25,1.16264575,-0.1944488\H,0,2.69376074,-0.30122231,0.68432671\H,0,0.8
 2598205,-2.49738316,0.38785089\H,0,-2.33177679,-0.81427643,-1.20201337

 Normal termination of Gaussian 16 at Wed Apr  9 18:12:30 2025.
