 Gaussian 16, Revision C.01,

 ----------------------------------------------------------------------
 #t hf aug-cc-pvdz symm=none int=(grid=ultrafine) guess=(read,tcheck) s
 table=(opt,rrhf)
 ----------------------------------------------------------------------
 -----
 title
 -----
 Symbolic Z-matrix:
 Charge =  0 Multiplicity = 1

 SCF Done:  E(RHF) =  -306.905494923     A.U. after   14 cycles

 1\1\GINC-SE163\Stability\RHF\Aug-CC-pVDZ\C4H10O2\OHZDE\09-Apr-2025\0\\
 #t hf aug-cc-pvdz symm=none int=(grid=ultrafine) guess=(read,tcheck) s
 table=(opt,rrhf)\\title\\0,1\C,0,1.8682479,0.86187692,-0.91849047\O,0,
 0.53596097,0.36353453,-0.82619052\C,0,0.43330279,-0.8644681,-0.0509751
 4\C,0,-1.05695241,-1.12527008,0.21000846\C,0,-1.84808925,-0.17253088,1
 .10617594\O,0,-1.52996621,1.39678617,0.33530755\H,0,2.5203723,0.125907
 62,-1.41615621\H,0,1.829266,1.77737438,-1.52029667\H,0,2.28252972,1.09
 1352,0.07767365\H,0,0.97267742,-0.73355124,0.9035515\H,0,0.92703918,-1

 Normal termination of Gaussian 16 at Wed Apr  9 16:18:02 2025.
 Gaussian 16:  ES64L-G16RevC.01  3-Jul-2019

 ----------------------------------------------------------------------
 #t hf aug-cc-pvdz iop(5/13=1,5/36=2,99/5=2) pseudo=read geom=check gue
 ss=(read,tcheck) scf=(maxcycle=1)
 ----------------------------------------------------------------------
 -----
 title
 -----
 Structure from the checkpoint file:  "Grambow2020_b97d3_006772_reverse_mol2.chk"
 Charge =  0 Multiplicity = 1

                         Standard orientation:
 ---------------------------------------------------------------------
 Center     Atomic      Atomic             Coordinates (Angstroms)
 Number     Number       Type             X           Y           Z
 ---------------------------------------------------------------------
      1          6           0        2.317479    0.396876    0.167002
      2          8           0        1.016304    0.150654   -0.360418
      3          6           0        0.422847   -1.086568    0.125975
      4          6           0       -1.057748   -1.082010   -0.279991
      5          6           0       -2.011454   -0.061746    0.341486
      6          8           0       -1.179038    1.469511   -0.005689
      7          1           0        3.008335   -0.412159   -0.120694
      8          1           0        2.666692    1.342418   -0.264073
      9          1           0        2.297941    0.476640    1.266951
     10          1           0        0.519004   -1.123894    1.225313
     11          1           0        0.996156   -1.927927   -0.307656
     12          1           0       -1.110350   -1.075055   -1.384307
     13          1           0       -1.483953   -2.055179    0.025690
     14          1           0       -1.617927    1.666063   -0.853621
     15          1           0       -1.769393   -0.031526    1.426068
     16          1           0       -0.231381    1.179987   -0.211642
 ---------------------------------------------------------------------

 SCF Done:  E(RHF) =  -308.332733132     A.U. after    2 cycles

 The electronic state is 1-A.
 Alpha  occ. eigenvalues --  -21.11529 -21.06986 -11.44390 -11.42340 -11.38642
 Alpha  occ. eigenvalues --  -11.34617  -1.77984  -1.71238  -1.15711  -1.00718
 Alpha  occ. eigenvalues --   -0.91403  -0.79707  -0.69760  -0.64831  -0.62722
 Alpha  occ. eigenvalues --   -0.61871  -0.58733  -0.54061  -0.52104  -0.47749
 Alpha  occ. eigenvalues --   -0.44994  -0.42228  -0.37783  -0.32707  -0.26786
 Alpha virt. eigenvalues --    0.03428   0.04926   0.04952   0.05188   0.05887
 Alpha virt. eigenvalues --    0.06281   0.06947   0.07364   0.07837   0.10008
 Alpha virt. eigenvalues --    0.12378   0.12690   0.13686   0.14554   0.15242

 Mulliken charges:
               1
     1  C   -2.954893
     2  O   -3.112462
     3  C   -1.547977
     4  C   -2.229534
     5  C   -1.733344
     6  O   -2.218842
     7  H    1.349047
     8  H    1.337834
     9  H    1.410454
    10  H    1.621333
    11  H    1.462526
    12  H    1.461189
    13  H    1.339503
    14  H    0.736492
    15  H    1.275504
    16  H    1.803171
 Sum of Mulliken charges =   0.00000

 Dipole moment (field-independent basis, Debye):
    X=              3.9653    Y=              0.9826    Z=             -0.5922  Tot=              4.1279

 Test job not archived.
 1\1\GINC-SE163\SP\RHF\Aug-CC-pVDZ\C4H10O2\OHZDE\09-Apr-2025\0\\#t hf a
 ug-cc-pvdz iop(5/13=1,5/36=2,99/5=2) pseudo=read geom=check guess=(rea
 d,tcheck) scf=(maxcycle=1)\\title\\0,1\C,0,1.8682479,0.86187692,-0.918
 49047\O,0,0.53596097,0.36353453,-0.82619052\C,0,0.43330279,-0.8644681,
 -0.05097514\C,0,-1.05695241,-1.12527008,0.21000846\C,0,-1.84808925,-0.
 17253088,1.10617594\O,0,-1.52996621,1.39678617,0.33530755\H,0,2.520372
 3,0.12590762,-1.41615621\H,0,1.829266,1.77737438,-1.52029667\H,0,2.282
 52972,1.091352,0.07767365\H,0,0.97267742,-0.73355124,0.9035515\H,0,0.9

 Normal termination of Gaussian 16 at Wed Apr  9 16:18:06 2025.
