 Gaussian 16, Revision C.01,

 ----------------------------------------------------------------------
 #t hf aug-cc-pvdz symm=none int=(grid=ultrafine) guess=(read,tcheck) s
 table=(opt,rrhf)
 ----------------------------------------------------------------------
 -----
 title
 -----
 Symbolic Z-matrix:
 Charge =  0 Multiplicity = 1

 SCF Done:  E(RHF) =  -301.882364442     A.U. after   16 cycles
 Normal termination of Gaussian 16 at Wed Apr  9 03:15:04 2025.
 Gaussian 16:  ES64L-G16RevC.01  3-Jul-2019

 ----------------------------------------------------------------------
 #t hf aug-cc-pvdz iop(5/13=1,5/36=2,99/5=2) pseudo=read geom=check gue
 ss=(read,tcheck) scf=(maxcycle=1)
 ----------------------------------------------------------------------
 -----
 title
 -----
 Structure from the checkpoint file:  "Grambow2020_b97d3_006937_forward_mol1.chk"
 Charge =  0 Multiplicity = 1

                         Standard orientation:
 ---------------------------------------------------------------------
 Center     Atomic      Atomic             Coordinates (Angstroms)
 Number     Number       Type             X           Y           Z
 ---------------------------------------------------------------------
      1          6           0       -2.224934   -0.345480    0.281177
      2          7           0       -0.939048   -0.642964   -0.360738
      3          6           0        0.068970    0.359086   -0.022433
      4          8           0       -0.142332    1.571719   -0.114576
      5          7           0        1.407640   -0.250062   -0.631390
      6          6           0        2.065835   -0.370083    0.538743
      7          1           0       -2.175853   -0.321314    1.385360
      8          1           0       -2.944872   -1.114122   -0.029822
      9          1           0       -2.566607    0.632389   -0.072335
     10          1           0       -0.624149   -1.571454   -0.066493
     11          1           0        1.294211   -1.087686   -1.198654
     12          1           0        0.432639   -0.018163    1.222055
     13          1           0        2.666647   -1.255407    0.776184
     14          1           0        2.317272    0.552051    1.060291
 ---------------------------------------------------------------------

 SCF Done:  E(RHF) =  -303.310032550     A.U. after    2 cycles

 The electronic state is 1-A.
 Alpha  occ. eigenvalues --  -20.97759 -15.77966 -15.73426 -11.52974 -11.49824
 Alpha  occ. eigenvalues --  -11.37801  -1.66677  -1.43563  -1.33340  -1.00479
 Alpha  occ. eigenvalues --   -0.94948  -0.83260  -0.73008  -0.66654  -0.65264
 Alpha  occ. eigenvalues --   -0.61357  -0.56648  -0.54088  -0.50814  -0.47342
 Alpha  occ. eigenvalues --   -0.41108  -0.34275  -0.26397  -0.25711
 Alpha virt. eigenvalues --    0.02180   0.04472   0.04771   0.04843   0.06046
 Alpha virt. eigenvalues --    0.06394   0.06965   0.08483   0.08938   0.10705
 Alpha virt. eigenvalues --    0.12973   0.13213   0.14041   0.14761   0.15527

 Mulliken charges:
               1
     1  C   -3.464463
     2  N   -2.408680
     3  C    4.274432
     4  O   -3.220473
     5  N   -2.077405
     6  C   -1.941805
     7  H    1.292056
     8  H    1.306863
     9  H    1.280242
    10  H    0.670579
    11  H    0.659743
    12  H    0.887179
    13  H    1.366871
    14  H    1.374861
 Sum of Mulliken charges =   0.00000

 Dipole moment (field-independent basis, Debye):
    X=              2.3823    Y=             -3.4442    Z=              0.5762  Tot=              4.2273

 Test job not archived.
 1\1\GINC-SE195\SP\RHF\Aug-CC-pVDZ\C3H8N2O1\OHZDE\09-Apr-2025\0\\#t hf
 aug-cc-pvdz iop(5/13=1,5/36=2,99/5=2) pseudo=read geom=check guess=(re
 ad,tcheck) scf=(maxcycle=1)\\title\\0,1\C,0,-2.03310192,0.54473204,0.3
 9035359\N,0,-0.92662804,-0.41892125,0.35656778\C,0,0.05028321,-0.07152
 828,-0.67281007\O,0,-0.27354625,0.19229747,-1.83433844\N,0,1.24081178,
 -1.09390832,-0.40577567\C,0,2.17563428,-0.16651046,-0.11789073\H,0,-1.
 71427705,1.58067011,0.60805867\H,0,-2.74376229,0.2179516,1.16107938\H,
 0,-2.52874392,0.5321556,-0.58541271\H,0,-0.4754607,-0.44391257,1.27507

 Normal termination of Gaussian 16 at Wed Apr  9 03:15:08 2025.
