 Gaussian 16, Revision C.01,

 ----------------------------------------------------------------------
 #t hf aug-cc-pvdz symm=none int=(grid=ultrafine) guess=(read,tcheck) s
 table=(opt,rrhf)
 ----------------------------------------------------------------------
 -----
 title
 -----
 Symbolic Z-matrix:
 Charge =  0 Multiplicity = 1

 SCF Done:  E(RHF) =  -268.661225815     A.U. after   15 cycles
 Normal termination of Gaussian 16 at Wed Apr  9 03:05:25 2025.
 Gaussian 16:  ES64L-G16RevC.01  3-Jul-2019

 ----------------------------------------------------------------------
 #t hf aug-cc-pvdz iop(5/13=1,5/36=2,99/5=2) pseudo=read geom=check gue
 ss=(read,tcheck) scf=(maxcycle=1)
 ----------------------------------------------------------------------
 -----
 title
 -----
 Structure from the checkpoint file:  "Grambow2020_b97d3_006489_reverse_mol1.chk"
 Charge =  0 Multiplicity = 1

                         Standard orientation:
 ---------------------------------------------------------------------
 Center     Atomic      Atomic             Coordinates (Angstroms)
 Number     Number       Type             X           Y           Z
 ---------------------------------------------------------------------
      1          8           0       -2.200306   -0.126477   -0.004391
      2          6           0       -0.953058   -0.117813   -0.040177
      3          6           0       -0.251884    1.231820    0.157705
      4          6           0        1.472016    0.670984   -0.206198
      5          6           0        1.407672   -0.789964    0.259616
      6          6           0        0.008910   -1.156972   -0.158690
      7          1           0       -0.495924    2.027008   -0.551306
      8          1           0       -0.247436    1.609848    1.192053
      9          1           0        2.264456    0.843509   -0.975128
     10          1           0        1.800224    1.449737    0.519850
     11          1           0        1.598509   -0.874218    1.346721
     12          1           0        2.184426   -1.381012   -0.249153
     13          1           0        0.718189    0.502493   -1.126643
     14          1           0       -0.321930   -2.193876   -0.194799
 ---------------------------------------------------------------------

 SCF Done:  E(RHF) =  -269.948612515     A.U. after    2 cycles

 The electronic state is 1-A.
 Alpha  occ. eigenvalues --  -20.98143 -11.50901 -11.47654 -11.44972 -11.41152
 Alpha  occ. eigenvalues --  -11.35140  -1.63839  -1.32648  -1.05992  -1.02442
 Alpha  occ. eigenvalues --   -0.87830  -0.74980  -0.71972  -0.65380  -0.62361
 Alpha  occ. eigenvalues --   -0.53972  -0.53346  -0.50880  -0.48411  -0.43598
 Alpha  occ. eigenvalues --   -0.41771  -0.25268  -0.21318
 Alpha virt. eigenvalues --    0.02132   0.03543   0.04435   0.04820   0.05325
 Alpha virt. eigenvalues --    0.05560   0.07121   0.07313   0.08383   0.10341
 Alpha virt. eigenvalues --    0.11947   0.12659   0.13244   0.13972   0.14278

 Mulliken charges:
               1
     1  O   -3.472537
     2  C    4.722279
     3  C   -3.204249
     4  C   -3.848295
     5  C   -2.910780
     6  C   -1.872711
     7  H    1.107231
     8  H    1.339724
     9  H    0.740531
    10  H    1.302155
    11  H    1.280474
    12  H    1.263181
    13  H    2.162179
    14  H    1.390819
 Sum of Mulliken charges =   0.00000

 Dipole moment (field-independent basis, Debye):
    X=              4.0618    Y=              2.9403    Z=              0.4307  Tot=              5.0329

 Test job not archived.
 1\1\GINC-SE340\SP\RHF\Aug-CC-pVDZ\C5H8O1\OHZDE\09-Apr-2025\0\\#t hf au
 g-cc-pvdz iop(5/13=1,5/36=2,99/5=2) pseudo=read geom=check guess=(read
 ,tcheck) scf=(maxcycle=1)\\title\\0,1\O,0,-0.47000019,2.65395153,-0.20
 154528\C,0,-0.14978736,1.45467768,-0.07430791\C,0,-1.28350814,0.422191
 6,-0.0432771\C,0,-0.25757678,-1.05981216,0.36894235\C,0,1.07760539,-0.
 68148114,-0.2865327\C,0,1.11046876,0.80019963,-0.02242625\H,0,-2.03407
 262,0.53216899,0.74357402\H,0,-1.75594756,0.21629785,-1.0165237\H,0,-0
 .1344182,-1.78609301,1.20937555\H,0,-0.99720735,-1.64547669,-0.2237351

 Normal termination of Gaussian 16 at Wed Apr  9 03:05:29 2025.
