 Gaussian 16, Revision C.01,

 ----------------------------------------------------------------------
 #t hf aug-cc-pvdz symm=none int=(grid=ultrafine) guess=(read,tcheck) s
 table=(opt,rrhf)
 ----------------------------------------------------------------------
 -----
 title
 -----
 Symbolic Z-matrix:
 Charge =  0 Multiplicity = 1

 SCF Done:  E(RHF) =  -307.684107770     A.U. after   15 cycles

 1\1\GINC-SE116\Stability\RHF\Aug-CC-pVDZ\C6H10O1\OHZDE\09-Apr-2025\0\\
 #t hf aug-cc-pvdz symm=none int=(grid=ultrafine) guess=(read,tcheck) s
 table=(opt,rrhf)\\title\\0,1\C,0,-2.11791153,-0.4861185,0.21992125\C,0
 ,-0.74846733,-0.04858577,-0.14177209\O,0,-0.54159729,1.23337141,-0.124
 87749\C,0,0.88666734,1.49804306,-0.29533035\C,0,1.54979767,0.15055212,
 -0.19237514\C,0,1.33946252,-0.57614913,1.09499025\C,0,0.45889999,-0.89
 870427,-0.10110379\H,0,-2.87699734,0.15032605,-0.22928947\H,0,-2.19385
 835,-0.40603387,1.30978934\H,0,-2.2627198,-1.52464888,-0.06291204\H,0,

 Normal termination of Gaussian 16 at Wed Apr  9 18:20:34 2025.
 Gaussian 16:  ES64L-G16RevC.01  3-Jul-2019

 ----------------------------------------------------------------------
 #t hf aug-cc-pvdz iop(5/13=1,5/36=2,99/5=2) pseudo=read geom=check gue
 ss=(read,tcheck) scf=(maxcycle=1)
 ----------------------------------------------------------------------
 -----
 title
 -----
 Structure from the checkpoint file:  "Grambow2020_wb97xd3_006904_forward_mol1.chk"
 Charge =  0 Multiplicity = 1

                         Standard orientation:
 ---------------------------------------------------------------------
 Center     Atomic      Atomic             Coordinates (Angstroms)
 Number     Number       Type             X           Y           Z
 ---------------------------------------------------------------------
      1          6           0        2.237481   -0.303670   -0.197335
      2          6           0        0.831141    0.020743    0.141191
      3          8           0        0.399862    1.171787   -0.277844
      4          6           0       -1.042850    1.261282   -0.055093
      5          6           0       -1.460932   -0.122451    0.365102
      6          6           0       -1.187194   -1.207894   -0.623092
      7          6           0       -0.207058   -0.962368    0.512304
      8          1           0        2.892471    0.554898   -0.067291
      9          1           0        2.245658   -0.593624   -1.253675
     10          1           0        2.577386   -1.146819    0.396865
     11          1           0        1.135069    0.030823    1.948523
     12          1           0       -1.191926    2.010101    0.723381
     13          1           0       -1.461548    1.618299   -0.996605
     14          1           0       -2.269233   -0.199082    1.081534
     15          1           0       -0.955389   -0.915081   -1.645057
     16          1           0       -1.763592   -2.121195   -0.549703
     17          1           0        0.568684   -0.726465    1.726322
 ---------------------------------------------------------------------

 SCF Done:  E(RHF) =  -309.187265755     A.U. after    2 cycles

 The electronic state is 1-A.
 Alpha  occ. eigenvalues --  -21.12477 -11.55185 -11.48255 -11.42091 -11.41124
 Alpha  occ. eigenvalues --  -11.39265 -11.34170  -1.86238  -1.31032  -1.17527
 Alpha  occ. eigenvalues --   -1.02348  -0.93830  -0.82591  -0.75220  -0.71831
 Alpha  occ. eigenvalues --   -0.66223  -0.63991  -0.61208  -0.57230  -0.55040
 Alpha  occ. eigenvalues --   -0.52043  -0.51509  -0.44675  -0.39882  -0.39345
 Alpha  occ. eigenvalues --   -0.35593  -0.26705
 Alpha virt. eigenvalues --    0.03817   0.04700   0.05183   0.05333   0.05592
 Alpha virt. eigenvalues --    0.06025   0.06662   0.07046   0.07943   0.09774
 Alpha virt. eigenvalues --    0.10813   0.11668   0.12450   0.12950   0.13508

 Mulliken charges:
               1
     1  C   -4.209600
     2  C    4.139549
     3  O   -3.826814
     4  C   -2.102651
     5  C   -1.586743
     6  C   -2.961925
     7  C   -0.832396
     8  H    1.324534
     9  H    1.173875
    10  H    1.250038
    11  H   -0.057800
    12  H    1.550643
    13  H    1.519191
    14  H    1.383340
    15  H    1.213541
    16  H    1.337054
    17  H    0.686164
 Sum of Mulliken charges =  -0.00000

 Dipole moment (field-independent basis, Debye):
    X=             -0.0809    Y=              2.2436    Z=             -2.6432  Tot=              3.4680

 Test job not archived.
 1\1\GINC-SE116\SP\RHF\Aug-CC-pVDZ\C6H10O1\OHZDE\09-Apr-2025\0\\#t hf a
 ug-cc-pvdz iop(5/13=1,5/36=2,99/5=2) pseudo=read geom=check guess=(rea
 d,tcheck) scf=(maxcycle=1)\\title\\0,1\C,0,-2.11791153,-0.4861185,0.21
 992125\C,0,-0.74846733,-0.04858577,-0.14177209\O,0,-0.54159729,1.23337
 141,-0.12487749\C,0,0.88666734,1.49804306,-0.29533035\C,0,1.54979767,0
 .15055212,-0.19237514\C,0,1.33946252,-0.57614913,1.09499025\C,0,0.4588
 9999,-0.89870427,-0.10110379\H,0,-2.87699734,0.15032605,-0.22928947\H,
 0,-2.19385835,-0.40603387,1.30978934\H,0,-2.2627198,-1.52464888,-0.062

 Normal termination of Gaussian 16 at Wed Apr  9 18:20:40 2025.
