 Gaussian 16, Revision C.01,

 ----------------------------------------------------------------------
 #t hf aug-cc-pvdz symm=none int=(grid=ultrafine) guess=(read,tcheck) s
 table=(opt,rrhf)
 ----------------------------------------------------------------------
 -----
 title
 -----
 Symbolic Z-matrix:
 Charge =  0 Multiplicity = 1

 SCF Done:  E(RHF) =  -338.640148272     A.U. after   16 cycles
 Normal termination of Gaussian 16 at Wed Apr  9 03:59:39 2025.
 Gaussian 16:  ES64L-G16RevC.01  3-Jul-2019

 ----------------------------------------------------------------------
 #t hf aug-cc-pvdz iop(5/13=1,5/36=2,99/5=2) pseudo=read geom=check gue
 ss=(read,tcheck) scf=(maxcycle=1)
 ----------------------------------------------------------------------
 -----
 title
 -----
 Structure from the checkpoint file:  "Grambow2020_wb97xd3_008805_reverse_mol2.chk"
 Charge =  0 Multiplicity = 1

                         Standard orientation:
 ---------------------------------------------------------------------
 Center     Atomic      Atomic             Coordinates (Angstroms)
 Number     Number       Type             X           Y           Z
 ---------------------------------------------------------------------
      1          7           0        1.322366    1.523376   -0.079069
      2          6           0        2.008197    0.510463    0.361235
      3          6           0       -1.300179    0.291727   -0.349208
      4          8           0       -2.536130    0.485441    0.133686
      5          7           0       -0.837808   -0.835588    0.174695
      6          6           0        0.418666   -1.418399   -0.094034
      7          6           0        1.609096   -0.805184   -0.120464
      8          1           0        0.496723    1.430193   -0.680500
      9          1           0        1.526040    2.443201    0.280495
     10          1           0       -2.880368    1.283443   -0.269557
     11          1           0       -1.469152   -1.381931    0.754121
     12          1           0        0.363390   -2.489763   -0.250310
     13          1           0        2.445818   -1.454832   -0.358290
 ---------------------------------------------------------------------

 SCF Done:  E(RHF) =  -340.166201205     A.U. after    2 cycles

 The electronic state is 1-A.
 Alpha  occ. eigenvalues --  -21.12503 -15.78785 -15.78429 -11.44998 -11.42291
 Alpha  occ. eigenvalues --  -11.39521 -11.36783  -1.78863  -1.43039  -1.36819
 Alpha  occ. eigenvalues --   -1.12456  -0.93541  -0.84129  -0.75923  -0.72108
 Alpha  occ. eigenvalues --   -0.68008  -0.62729  -0.58707  -0.56241  -0.53350
 Alpha  occ. eigenvalues --   -0.50750  -0.45192  -0.41300  -0.34740  -0.33307
 Alpha  occ. eigenvalues --   -0.28107
 Alpha virt. eigenvalues --    0.03646   0.04683   0.05607   0.06174   0.06490
 Alpha virt. eigenvalues --    0.07619   0.10161   0.10706   0.10896   0.11984
 Alpha virt. eigenvalues --    0.12784   0.13221   0.13713   0.14895   0.15626

 Mulliken charges:
               1
     1  N   -2.154872
     2  C   -1.054999
     3  C    1.275655
     4  O   -2.619875
     5  N   -2.457262
     6  C   -0.435372
     7  C    1.080084
     8  H    0.975308
     9  H    0.767373
    10  H    1.079725
    11  H    0.564465
    12  H    1.521164
    13  H    1.458606
 Sum of Mulliken charges =  -0.00000

 Dipole moment (field-independent basis, Debye):
    X=             -3.6024    Y=             -0.0323    Z=             -0.3268  Tot=              3.6173

 Test job not archived.
 1\1\GINC-SE082\SP\RHF\Aug-CC-pVDZ\C4H6N2O1\OHZDE\09-Apr-2025\0\\#t hf
 aug-cc-pvdz iop(5/13=1,5/36=2,99/5=2) pseudo=read geom=check guess=(re
 ad,tcheck) scf=(maxcycle=1)\\title\\0,1\N,0,-1.67358759,1.05701325,0.1
 6209366\C,0,-0.71595076,1.79191251,0.64487649\C,0,-0.19510071,-1.36979
 525,-0.46428687\O,0,-0.23814077,-2.66680887,-0.12636594\N,0,0.90304669
 ,-0.85297173,0.07056527\C,0,1.34091931,0.48124647,-0.06633977\C,0,0.60
 882446,1.59423406,0.07204462\H,0,-1.52568713,0.32105769,-0.53689356\H,
 0,-2.59100364,1.11817378,0.57616406\H,0,-1.01532631,-3.04564407,-0.539

 Normal termination of Gaussian 16 at Wed Apr  9 03:59:42 2025.
