 Gaussian 16, Revision C.01,

 ----------------------------------------------------------------------
 #t hf aug-cc-pvdz symm=none int=(grid=ultrafine) guess=(read,tcheck) s
 table=(opt,rrhf)
 ----------------------------------------------------------------------
 -----
 title
 -----
 Symbolic Z-matrix:
 Charge =  0 Multiplicity = 1

 SCF Done:  E(RHF) =  -306.705438309     A.U. after   13 cycles
 Normal termination of Gaussian 16 at Wed Apr  9 03:51:38 2025.
 Gaussian 16:  ES64L-G16RevC.01  3-Jul-2019

 ----------------------------------------------------------------------
 #t hf aug-cc-pvdz iop(5/13=1,5/36=2,99/5=2) pseudo=read geom=check gue
 ss=(read,tcheck) scf=(maxcycle=1)
 ----------------------------------------------------------------------
 -----
 title
 -----
 Structure from the checkpoint file:  "Grambow2020_wb97xd3_008206_forward_mol2.chk"
 Charge =  0 Multiplicity = 1

                         Standard orientation:
 ---------------------------------------------------------------------
 Center     Atomic      Atomic             Coordinates (Angstroms)
 Number     Number       Type             X           Y           Z
 ---------------------------------------------------------------------
      1          6           0        1.376863   -0.713385   -0.473274
      2          8           0        1.534609    0.700438   -0.276779
      3          6           0        0.390134    0.734953    0.600273
      4          6           0       -0.863906    1.231929   -0.056264
      5          6           0       -1.686277    0.235377   -0.358606
      6          6           0       -1.160288   -1.115626    0.055480
      7          6           0        0.247931   -0.799250    0.564619
      8          1           0        1.073711   -0.952338   -1.498622
      9          1           0        2.295844   -1.253977   -0.233429
     10          1           0        0.634875    1.238520    1.539033
     11          1           0       -1.043023    2.279157   -0.264182
     12          1           0       -2.644502    0.355940   -0.850785
     13          1           0       -1.788220   -1.558468    0.834149
     14          1           0       -1.152430   -1.824558   -0.778350
     15          1           0        0.520138   -1.331778    1.473046
 ---------------------------------------------------------------------

 SCF Done:  E(RHF) =  -308.147397129     A.U. after    2 cycles

 The electronic state is 1-A.
 Alpha  occ. eigenvalues --  -21.02604 -11.48436 -11.45844 -11.43932 -11.40383
 Alpha  occ. eigenvalues --  -11.38262 -11.35694  -1.76548  -1.29660  -1.08212
 Alpha  occ. eigenvalues --   -1.00705  -0.94960  -0.79332  -0.75187  -0.72489
 Alpha  occ. eigenvalues --   -0.65384  -0.59668  -0.57674  -0.52816  -0.50202
 Alpha  occ. eigenvalues --   -0.48894  -0.45522  -0.41278  -0.36701  -0.32080
 Alpha  occ. eigenvalues --   -0.27924
 Alpha virt. eigenvalues --    0.03716   0.04875   0.05220   0.05678   0.05849
 Alpha virt. eigenvalues --    0.06276   0.06468   0.07214   0.10573   0.11096
 Alpha virt. eigenvalues --    0.12517   0.13357   0.13928   0.14429   0.14802

 Mulliken charges:
               1
     1  C   -1.270585
     2  O   -2.749496
     3  C   -0.168112
     4  C   -0.431399
     5  C    0.265108
     6  C   -4.472702
     7  C   -2.058261
     8  H    1.514622
     9  H    1.432097
    10  H    1.488249
    11  H    1.384881
    12  H    1.436377
    13  H    1.270612
    14  H    1.199183
    15  H    1.159424
 Sum of Mulliken charges =   0.00000

 Dipole moment (field-independent basis, Debye):
    X=             -0.6784    Y=             -0.6775    Z=              0.3665  Tot=              1.0264

 Test job not archived.
 1\1\GINC-SE184\SP\RHF\Aug-CC-pVDZ\C6H8O1\OHZDE\09-Apr-2025\0\\#t hf au
 g-cc-pvdz iop(5/13=1,5/36=2,99/5=2) pseudo=read geom=check guess=(read
 ,tcheck) scf=(maxcycle=1)\\title\\0,1\C,0,-1.4558263,-0.47877006,-0.71
 183596\O,0,-0.84561491,-1.70729142,-0.28667027\C,0,-0.04051414,-1.0050
 9013,0.68232978\C,0,1.37186592,-0.76318583,0.23813759\C,0,1.55260006,0
 .49023948,-0.15819672\C,0,0.31131427,1.33725246,-0.03523362\C,0,-0.757
 05102,0.3282626,0.39247049\H,0,-1.16130401,-0.20749455,-1.73164193\H,0
 ,-2.54570499,-0.53422227,-0.65368494\H,0,-0.1275116,-1.46804992,1.6686

 Normal termination of Gaussian 16 at Wed Apr  9 03:51:44 2025.
