 Gaussian 16, Revision C.01,

 ----------------------------------------------------------------------
 #t hf aug-cc-pvdz symm=none int=(grid=ultrafine) guess=(read,tcheck) s
 table=(opt,rrhf)
 ----------------------------------------------------------------------
 -----
 title
 -----
 Symbolic Z-matrix:
 Charge =  0 Multiplicity = 1

 SCF Done:  E(RHF) =  -344.725496489     A.U. after   15 cycles

 1\1\GINC-SE131\Stability\RHF\Aug-CC-pVDZ\C5H10O2\OHZDE\09-Apr-2025\0\\
 #t hf aug-cc-pvdz symm=none int=(grid=ultrafine) guess=(read,tcheck) s
 table=(opt,rrhf)\\title\\0,1\C,0,-1.14419513,-1.34832839,0.39287971\C,
 0,-0.54128969,-0.12973494,-0.25583135\C,0,0.83934701,-0.29080527,-0.81
 114944\C,0,2.02559924,0.21486529,0.97909503\O,0,2.05223548,1.54354651,
 0.85211301\C,0,-1.43341366,0.90159044,-0.79623001\O,0,-0.77857701,1.09
 854649,0.45004554\H,0,-1.30253489,-2.1329011,-0.34966089\H,0,-0.481776
 71,-1.74323887,1.16561946\H,0,-2.10135621,-1.10300485,0.85199299\H,0,1

 Normal termination of Gaussian 16 at Wed Apr  9 18:44:50 2025.
 Gaussian 16:  ES64L-G16RevC.01  3-Jul-2019

 ----------------------------------------------------------------------
 #t hf aug-cc-pvdz iop(5/13=1,5/36=2,99/5=2) pseudo=read geom=check gue
 ss=(read,tcheck) scf=(maxcycle=1)
 ----------------------------------------------------------------------
 -----
 title
 -----
 Structure from the checkpoint file:  "Grambow2020_wb97xd3_007586_forward_mol1.chk"
 Charge =  0 Multiplicity = 1

                         Standard orientation:
 ---------------------------------------------------------------------
 Center     Atomic      Atomic             Coordinates (Angstroms)
 Number     Number       Type             X           Y           Z
 ---------------------------------------------------------------------
      1          6           0       -1.615530    1.184399   -0.571792
      2          6           0       -0.844765    0.126955    0.174548
      3          6           0        0.208589    0.618205    1.117732
      4          6           0        1.925187    0.733735   -0.263505
      5          8           0        2.347234   -0.530631   -0.189464
      6          6           0       -1.463090   -1.186367    0.385284
      7          8           0       -0.473643   -1.010572   -0.620150
      8          1           0       -2.211369    1.779444    0.123110
      9          1           0       -0.937257    1.858624   -1.098333
     10          1           0       -2.282687    0.727412   -1.301992
     11          1           0        0.581256   -0.159061    1.783036
     12          1           0       -0.145590    1.479793    1.687790
     13          1           0        1.381593    1.178300    0.755494
     14          1           0        1.236486    0.896365   -1.102281
     15          1           0        1.750564   -1.122937   -0.667299
     16          1           0       -2.466037   -1.375606    0.011454
     17          1           0       -1.158034   -1.794271    1.232334
 ---------------------------------------------------------------------

 SCF Done:  E(RHF) =  -346.328013770     A.U. after    2 cycles

 The electronic state is 1-A.
 Alpha  occ. eigenvalues --  -21.09378 -21.06651 -11.50167 -11.43633 -11.41325
 Alpha  occ. eigenvalues --  -11.40856 -11.38371  -1.80069  -1.74184  -1.18208
 Alpha  occ. eigenvalues --   -1.04770  -0.97297  -0.89775  -0.81282  -0.69397
 Alpha  occ. eigenvalues --   -0.66543  -0.63216  -0.61091  -0.58689  -0.56321
 Alpha  occ. eigenvalues --   -0.55027  -0.48992  -0.45436  -0.44015  -0.39525
 Alpha  occ. eigenvalues --   -0.37221  -0.32231  -0.26340
 Alpha virt. eigenvalues --    0.03618   0.04845   0.04866   0.05263   0.05536
 Alpha virt. eigenvalues --    0.06424   0.06913   0.07243   0.07916   0.09294
 Alpha virt. eigenvalues --    0.11203   0.12025   0.12367   0.13892   0.14166

 Mulliken charges:
               1
     1  C   -4.541819
     2  C    4.463760
     3  C   -4.446081
     4  C   -1.306622
     5  O   -2.520296
     6  C   -3.012376
     7  O   -2.897895
     8  H    1.243584
     9  H    1.312245
    10  H    1.318948
    11  H    1.487350
    12  H    1.157687
    13  H    2.298826
    14  H    1.359173
    15  H    1.032456
    16  H    1.544515
    17  H    1.506545
 Sum of Mulliken charges =  -0.00000

 Dipole moment (field-independent basis, Debye):
    X=             -2.3253    Y=             -1.0899    Z=              0.0772  Tot=              2.5692

 Test job not archived.
 1\1\GINC-SE131\SP\RHF\Aug-CC-pVDZ\C5H10O2\OHZDE\09-Apr-2025\0\\#t hf a
 ug-cc-pvdz iop(5/13=1,5/36=2,99/5=2) pseudo=read geom=check guess=(rea
 d,tcheck) scf=(maxcycle=1)\\title\\0,1\C,0,-1.14419513,-1.34832839,0.3
 9287971\C,0,-0.54128969,-0.12973494,-0.25583135\C,0,0.83934701,-0.2908
 0527,-0.81114944\C,0,2.02559924,0.21486529,0.97909503\O,0,2.05223548,1
 .54354651,0.85211301\C,0,-1.43341366,0.90159044,-0.79623001\O,0,-0.778
 57701,1.09854649,0.45004554\H,0,-1.30253489,-2.1329011,-0.34966089\H,0
 ,-0.48177671,-1.74323887,1.16561946\H,0,-2.10135621,-1.10300485,0.8519

 Normal termination of Gaussian 16 at Wed Apr  9 18:44:56 2025.
