 Gaussian 16, Revision C.01,

 ----------------------------------------------------------------------
 #t hf aug-cc-pvdz symm=none int=(grid=ultrafine) guess=(read,tcheck) s
 table=(opt,rrhf)
 ----------------------------------------------------------------------
 -----
 title
 -----
 Symbolic Z-matrix:
 Charge =  0 Multiplicity = 1

 SCF Done:  E(RHF) =  -305.733216074     A.U. after   15 cycles
 Normal termination of Gaussian 16 at Wed Apr  9 17:19:24 2025.
 Gaussian 16:  ES64L-G16RevC.01  3-Jul-2019

 ----------------------------------------------------------------------
 #t hf aug-cc-pvdz iop(5/13=1,5/36=2,99/5=2) pseudo=read geom=check gue
 ss=(read,tcheck) scf=(maxcycle=1)
 ----------------------------------------------------------------------
 -----
 title
 -----
 Structure from the checkpoint file:  "Grambow2020_b97d3_007100_forward_mol1.chk"
 Charge =  0 Multiplicity = 1

                         Standard orientation:
 ---------------------------------------------------------------------
 Center     Atomic      Atomic             Coordinates (Angstroms)
 Number     Number       Type             X           Y           Z
 ---------------------------------------------------------------------
      1          6           0       -0.808689    1.899335    0.244213
      2          6           0       -0.629696   -0.361776   -0.527079
      3          6           0       -1.983778   -0.851887   -0.088366
      4          8           0        0.306013   -0.914979    0.347907
      5          6           0        1.621346   -0.523136    0.225792
      6          8           0        2.022910    0.420198   -0.409265
      7          1           0       -1.812997    2.214958   -0.047034
      8          1           0       -0.731616    1.562416    1.278625
      9          1           0       -0.005697    2.571903   -0.064994
     10          1           0       -0.515706    0.866387   -0.653396
     11          1           0       -2.042087   -1.916405   -0.368262
     12          1           0       -2.774940   -0.319992   -0.629583
     13          1           0       -2.172713   -0.796711    0.997154
     14          1           0        2.229270   -1.199525    0.850992
 ---------------------------------------------------------------------

 SCF Done:  E(RHF) =  -307.127242382     A.U. after    2 cycles

 The electronic state is 1-A.
 Alpha  occ. eigenvalues --  -21.11828 -21.07608 -11.51929 -11.44928 -11.39355
 Alpha  occ. eigenvalues --  -11.38306  -1.84889  -1.68116  -1.13831  -1.01986
 Alpha  occ. eigenvalues --   -0.91484  -0.77583  -0.69884  -0.60618  -0.59341
 Alpha  occ. eigenvalues --   -0.57240  -0.56448  -0.54366  -0.53502  -0.51327
 Alpha  occ. eigenvalues --   -0.45520  -0.38166  -0.31888  -0.26572
 Alpha virt. eigenvalues --    0.03690   0.04928   0.05095   0.05740   0.05903
 Alpha virt. eigenvalues --    0.06622   0.07516   0.07940   0.10012   0.10170
 Alpha virt. eigenvalues --    0.11375   0.13722   0.14001   0.14861   0.15208

 Mulliken charges:
               1
     1  C   -4.654201
     2  C   -0.761832
     3  C   -3.825812
     4  O   -2.899797
     5  C    2.477327
     6  O   -2.428062
     7  H    1.075505
     8  H    1.372180
     9  H    1.023450
    10  H    3.025952
    11  H    1.286154
    12  H    1.308826
    13  H    1.307758
    14  H    1.692553
 Sum of Mulliken charges =  -0.00000

 Dipole moment (field-independent basis, Debye):
    X=             -0.9743    Y=             -0.0739    Z=              1.2925  Tot=              1.6203

 Test job not archived.
 1\1\GINC-SE112\SP\RHF\Aug-CC-pVDZ\C4H8O2\OHZDE\09-Apr-2025\0\\#t hf au
 g-cc-pvdz iop(5/13=1,5/36=2,99/5=2) pseudo=read geom=check guess=(read
 ,tcheck) scf=(maxcycle=1)\\title\\0,1\C,0,-0.12028389,1.70804445,-0.34
 911605\C,0,-0.21193025,-0.68504888,-0.4143643\C,0,-1.55574588,-0.87177
 564,0.23794654\O,0,0.75093696,-1.05818481,0.52416756\C,0,2.07779275,-0
 .8678068,0.20516117\O,0,2.49768587,-0.20237436,-0.70879611\H,0,-1.1164
 9123,2.03403693,-0.65632595\H,0,0.0249176,1.68230868,0.73149316\H,0,0.
 70509708,2.16714532,-0.89750142\H,0,-0.00433707,0.43174178,-0.91137138

 Normal termination of Gaussian 16 at Wed Apr  9 17:19:28 2025.
