 Gaussian 16, Revision C.01,

 ----------------------------------------------------------------------
 #t hf aug-cc-pvdz symm=none int=(grid=ultrafine) guess=(read,tcheck) s
 table=(opt,rrhf)
 ----------------------------------------------------------------------
 -----
 title
 -----
 Symbolic Z-matrix:
 Charge =  0 Multiplicity = 1

 SCF Done:  E(RHF) =  -355.808315699     A.U. after   16 cycles
 Normal termination of Gaussian 16 at Wed Apr  9 03:58:41 2025.
 Gaussian 16:  ES64L-G16RevC.01  3-Jul-2019

 ----------------------------------------------------------------------
 #t hf aug-cc-pvdz iop(5/13=1,5/36=2,99/5=2) pseudo=read geom=check gue
 ss=(read,tcheck) scf=(maxcycle=1)
 ----------------------------------------------------------------------
 -----
 title
 -----
 Structure from the checkpoint file:  "Grambow2020_wb97xd3_008720_forward_mol1.chk"
 Charge =  0 Multiplicity = 1

                         Standard orientation:
 ---------------------------------------------------------------------
 Center     Atomic      Atomic             Coordinates (Angstroms)
 Number     Number       Type             X           Y           Z
 ---------------------------------------------------------------------
      1          6           0       -2.532794   -0.454637    0.062931
      2          7           0       -1.149652   -0.663300   -0.097014
      3          6           0       -0.241484    0.265277   -0.031790
      4          7           0       -0.551528    1.599881    0.047410
      5          6           0        1.198971   -0.076531    0.003633
      6          8           0        2.040796    0.803881    0.044039
      7          7           0        1.504629   -1.399057    0.003797
      8          1           0       -2.959204    0.541493    0.080458
      9          1           0       -1.532702   -1.220979    0.804688
     10          1           0       -3.136282   -1.285005   -0.271658
     11          1           0        0.250284    2.192608   -0.111263
     12          1           0       -1.394863    1.893796   -0.420958
     13          1           0        0.801055   -2.075150   -0.228994
     14          1           0        2.473044   -1.645124   -0.092593
 ---------------------------------------------------------------------

 SCF Done:  E(RHF) =  -357.427701982     A.U. after    2 cycles

 The electronic state is 1-A.
 Alpha  occ. eigenvalues --  -21.02936 -15.79448 -15.77960 -15.77142 -11.52726
 Alpha  occ. eigenvalues --  -11.44277 -11.39598  -1.71833  -1.49807  -1.34681
 Alpha  occ. eigenvalues --   -1.31903  -1.04853  -0.88176  -0.79605  -0.76078
 Alpha  occ. eigenvalues --   -0.71447  -0.65417  -0.61826  -0.60904  -0.58602
 Alpha  occ. eigenvalues --   -0.53610  -0.49119  -0.44971  -0.42376  -0.33288
 Alpha  occ. eigenvalues --   -0.30036  -0.23021
 Alpha virt. eigenvalues --    0.03302   0.04825   0.05305   0.06328   0.06978
 Alpha virt. eigenvalues --    0.07204   0.08262   0.09054   0.10712   0.11917
 Alpha virt. eigenvalues --    0.12923   0.13161   0.13501   0.14640   0.14984

 Mulliken charges:
               1
     1  C   -2.462648
     2  N   -3.248108
     3  C    2.749500
     4  N   -3.136725
     5  C    6.426663
     6  O   -3.465582
     7  N   -3.187999
     8  H    1.473194
     9  H    0.834396
    10  H    1.320707
    11  H    0.670144
    12  H    0.508876
    13  H    0.716263
    14  H    0.801319
 Sum of Mulliken charges =   0.00000

 Dipole moment (field-independent basis, Debye):
    X=             -0.4207    Y=             -0.9648    Z=             -1.1363  Tot=              1.5489

 Test job not archived.
 1\1\GINC-SE424\SP\RHF\Aug-CC-pVDZ\C3H7N3O1\OHZDE\09-Apr-2025\0\\#t hf
 aug-cc-pvdz iop(5/13=1,5/36=2,99/5=2) pseudo=read geom=check guess=(re
 ad,tcheck) scf=(maxcycle=1)\\title\\0,1\C,0,2.01641053,0.66405449,-0.5
 0034665\N,0,0.61262048,0.58705288,-0.42519772\C,0,-0.05321307,-0.36467
 104,0.15975182\N,0,0.5478016,-1.50012201,0.64255675\C,0,-1.51375435,-0
 .25268977,0.3771884\O,0,-2.12949724,-1.16060534,0.90820179\N,0,-2.0967
 0334,0.90351425,-0.03007416\H,0,2.64745624,-0.17097059,-0.21941186\H,0
 ,0.98847593,1.50312279,0.11364106\H,0,2.3713433,1.37618831,-1.23010528

 Normal termination of Gaussian 16 at Wed Apr  9 03:58:46 2025.
