 Gaussian 16, Revision C.01,

 ----------------------------------------------------------------------
 #t hf aug-cc-pvdz symm=none int=(grid=ultrafine) guess=(read,tcheck) s
 table=(opt,rrhf)
 ----------------------------------------------------------------------
 -----
 title
 -----
 Symbolic Z-matrix:
 Charge =  0 Multiplicity = 1

 SCF Done:  E(RHF) =  -302.830333587     A.U. after   15 cycles
 Normal termination of Gaussian 16 at Wed Apr  9 19:22:07 2025.
 Gaussian 16:  ES64L-G16RevC.01  3-Jul-2019

 ----------------------------------------------------------------------
 #t hf aug-cc-pvdz iop(5/13=1,5/36=2,99/5=2) pseudo=read geom=check gue
 ss=(read,tcheck) scf=(maxcycle=1)
 ----------------------------------------------------------------------
 -----
 title
 -----
 Structure from the checkpoint file:  "Grambow2020_wb97xd3_008839_reverse_mol2.chk"
 Charge =  0 Multiplicity = 1

                         Standard orientation:
 ---------------------------------------------------------------------
 Center     Atomic      Atomic             Coordinates (Angstroms)
 Number     Number       Type             X           Y           Z
 ---------------------------------------------------------------------
      1          6           0       -1.496368   -1.581182   -0.328261
      2          6           0       -0.748341   -0.386952    0.159763
      3          6           0        0.547997   -0.504436    0.882006
      4          6           0        1.721856   -0.261426    0.024996
      5          7           0        2.616477   -0.071449   -0.668117
      6          6           0       -0.609434    2.032566    0.029436
      7          7           0       -1.155936    0.834233   -0.156366
      8          1           0       -0.978653   -2.103427   -1.141914
      9          1           0       -1.656650   -2.309899    0.471978
     10          1           0       -2.482219   -1.298317   -0.706629
     11          1           0        0.650341   -1.502989    1.309695
     12          1           0        0.592497    0.216510    1.710915
     13          1           0        0.398090    2.117821    0.398185
     14          1           0       -1.183138    2.893745   -0.263653
     15          1           0       -2.058307    0.855658   -0.614829
 ---------------------------------------------------------------------

 SCF Done:  E(RHF) =  -304.280357014     A.U. after    2 cycles

 The electronic state is 1-A.
 Alpha  occ. eigenvalues --  -15.86486 -15.74967 -11.48276 -11.43396 -11.41949
 Alpha  occ. eigenvalues --  -11.38725 -11.38273  -1.49677  -1.30948  -1.18290
 Alpha  occ. eigenvalues --   -1.08153  -0.96556  -0.84517  -0.71601  -0.69273
 Alpha  occ. eigenvalues --   -0.66643  -0.60411  -0.59253  -0.56622  -0.54099
 Alpha  occ. eigenvalues --   -0.52962  -0.51556  -0.49782  -0.42802  -0.42039
 Alpha  occ. eigenvalues --   -0.22788
 Alpha virt. eigenvalues --    0.02624   0.04538   0.04956   0.05687   0.05830
 Alpha virt. eigenvalues --    0.06771   0.07403   0.08450   0.09724   0.10386
 Alpha virt. eigenvalues --    0.11118   0.12305   0.12768   0.13711   0.14403

 Mulliken charges:
               1
     1  C   -4.657045
     2  C    3.070586
     3  C   -2.832778
     4  C    2.473704
     5  N   -2.512515
     6  C   -2.313888
     7  N   -3.710972
     8  H    1.251313
     9  H    1.151976
    10  H    1.379720
    11  H    1.575264
    12  H    1.329215
    13  H    1.724414
    14  H    1.451047
    15  H    0.619958
 Sum of Mulliken charges =   0.00000

 Dipole moment (field-independent basis, Debye):
    X=             -4.1603    Y=             -0.9724    Z=              1.0053  Tot=              4.3891

 Test job not archived.
 1\1\GINC-SE112\SP\RHF\Aug-CC-pVDZ\C5H8N2\OHZDE\09-Apr-2025\0\\#t hf au
 g-cc-pvdz iop(5/13=1,5/36=2,99/5=2) pseudo=read geom=check guess=(read
 ,tcheck) scf=(maxcycle=1)\\title\\0,1\C,0,-1.08701433,1.338172,-0.8313
 514\C,0,-0.27621983,0.1809071,-0.35464659\C,0,1.20579539,0.14256405,-0
 .48914959\C,0,1.91743906,0.50335937,0.74974261\N,0,2.44338263,0.792691
 26,1.72775754\C,0,-0.34225654,-1.85078797,0.97132482\N,0,-0.84678859,-
 0.7999238,0.33076238\H,0,-0.91258324,2.24897298,-0.2458467\H,0,-0.8680
 075,1.57950464,-1.87581137\H,0,-2.15628816,1.11909707,-0.7702178\H,0,1

 Normal termination of Gaussian 16 at Wed Apr  9 19:22:12 2025.
