 Gaussian 16, Revision C.01,

 ----------------------------------------------------------------------
 #t hf aug-cc-pvdz symm=none int=(grid=ultrafine) guess=(read,tcheck) s
 table=(opt,rrhf)
 ----------------------------------------------------------------------
 -----
 title
 -----
 Symbolic Z-matrix:
 Charge =  0 Multiplicity = 1

 SCF Done:  E(RHF) =  -325.103527692     A.U. after   14 cycles
 Normal termination of Gaussian 16 at Wed Apr  9 19:08:09 2025.
 Gaussian 16:  ES64L-G16RevC.01  3-Jul-2019

 ----------------------------------------------------------------------
 #t hf aug-cc-pvdz iop(5/13=1,5/36=2,99/5=2) pseudo=read geom=check gue
 ss=(read,tcheck) scf=(maxcycle=1)
 ----------------------------------------------------------------------
 -----
 title
 -----
 Structure from the checkpoint file:  "Grambow2020_wb97xd3_008125_reverse_mol2.chk"
 Charge =  0 Multiplicity = 1

                         Standard orientation:
 ---------------------------------------------------------------------
 Center     Atomic      Atomic             Coordinates (Angstroms)
 Number     Number       Type             X           Y           Z
 ---------------------------------------------------------------------
      1          6           0       -3.351489   -0.846082   -0.263517
      2          7           0        0.413486   -0.453622   -0.409110
      3          6           0        1.277920   -1.197217   -0.048027
      4          8           0        2.070723   -2.006702    0.235351
      5          6           0        0.010531    0.923954   -0.196589
      6          6           0       -0.345455    1.158785    1.265061
      7          6           0        1.086845    1.879864   -0.692981
      8          1           0       -3.867730   -0.907330   -1.220305
      9          1           0       -3.399671    0.177740    0.106755
     10          1           0       -3.832472   -1.511152    0.452074
     11          1           0       -2.311016   -1.143072   -0.391533
     12          1           0       -0.888226    1.063956   -0.801109
     13          1           0        0.537032    1.043541    1.898905
     14          1           0       -1.104915    0.450992    1.598048
     15          1           0       -0.733202    2.170221    1.399480
     16          1           0        0.741478    2.911871   -0.609312
     17          1           0        1.997662    1.774549   -0.098785
     18          1           0        1.330762    1.681839   -1.736948
 ---------------------------------------------------------------------

 SCF Done:  E(RHF) =  -326.651165377     A.U. after    2 cycles

 The electronic state is 1-A.
 Alpha  occ. eigenvalues --  -21.10584 -15.75266 -11.57544 -11.46293 -11.40603
 Alpha  occ. eigenvalues --  -11.37504 -11.35989  -1.75719  -1.42019  -1.18064
 Alpha  occ. eigenvalues --   -1.03076  -1.02536  -0.90281  -0.70252  -0.66235
 Alpha  occ. eigenvalues --   -0.62236  -0.60824  -0.57011  -0.56082  -0.54562
 Alpha  occ. eigenvalues --   -0.53941  -0.53764  -0.53655  -0.53391  -0.48796
 Alpha  occ. eigenvalues --   -0.47964  -0.34065  -0.31880
 Alpha virt. eigenvalues --    0.03082   0.04495   0.05250   0.05489   0.05740
 Alpha virt. eigenvalues --    0.06101   0.06639   0.07283   0.07648   0.08602
 Alpha virt. eigenvalues --    0.09437   0.10754   0.11364   0.11835   0.13183

 Mulliken charges:
               1
     1  C   -5.434568
     2  N   -2.507640
     3  C    3.887142
     4  O   -2.799723
     5  C   -0.879561
     6  C   -3.599581
     7  C   -4.032477
     8  H    1.175690
     9  H    1.453237
    10  H    1.187628
    11  H    1.586859
    12  H    2.095153
    13  H    1.330096
    14  H    1.512724
    15  H    1.209115
    16  H    1.188610
    17  H    1.331454
    18  H    1.295843
 Sum of Mulliken charges =  -0.00000

 Dipole moment (field-independent basis, Debye):
    X=             -0.2665    Y=              1.5949    Z=              0.3575  Tot=              1.6560

 Test job not archived.
 1\1\GINC-SE131\SP\RHF\Aug-CC-pVDZ\C5H11N1O1\OHZDE\09-Apr-2025\0\\#t hf
  aug-cc-pvdz iop(5/13=1,5/36=2,99/5=2) pseudo=read geom=check guess=(r
 ead,tcheck) scf=(maxcycle=1)\\title\\0,1\C,0,2.84475497,0.12028327,-1.
 13209412\N,0,-0.04738529,0.49875269,1.28504083\C,0,-0.12945604,0.19358
 368,2.43859975\O,0,-0.11119787,-0.03834772,3.58314307\C,0,-0.76510144,
 0.25882134,0.04707043\C,0,-0.74739304,-1.22259596,-0.30418765\C,0,-2.1
 7852167,0.81920296,0.12974018\H,0,3.28749613,1.04326613,-1.50328635\H,
 0,2.12782579,-0.25433347,-1.86237384\H,0,3.6265045,-0.62246733,-0.9806

 Normal termination of Gaussian 16 at Wed Apr  9 19:08:15 2025.
