 Gaussian 16, Revision C.01,

 ----------------------------------------------------------------------
 #t hf aug-cc-pvdz symm=none int=(grid=ultrafine) guess=(read,tcheck) s
 table=(opt,rrhf)
 ----------------------------------------------------------------------
 -----
 title
 -----
 Symbolic Z-matrix:
 Charge =  0 Multiplicity = 1

 SCF Done:  E(RHF) =  -264.902757432     A.U. after   16 cycles
 Normal termination of Gaussian 16 at Wed Apr  9 03:08:58 2025.
 Gaussian 16:  ES64L-G16RevC.01  3-Jul-2019

 ----------------------------------------------------------------------
 #t hf aug-cc-pvdz iop(5/13=1,5/36=2,99/5=2) pseudo=read geom=check gue
 ss=(read,tcheck) scf=(maxcycle=1)
 ----------------------------------------------------------------------
 -----
 title
 -----
 Structure from the checkpoint file:  "Grambow2020_b97d3_006629_forward_mol1.chk"
 Charge =  0 Multiplicity = 1

                         Standard orientation:
 ---------------------------------------------------------------------
 Center     Atomic      Atomic             Coordinates (Angstroms)
 Number     Number       Type             X           Y           Z
 ---------------------------------------------------------------------
      1          6           0       -1.985752   -0.489451   -0.215942
      2          6           0       -0.928427   -1.294662    0.200830
      3          6           0        1.114468    0.014771    0.480435
      4          7           0        2.023035   -0.613743   -0.403224
      5          6           0        0.390424    1.145910    0.192921
      6          7           0       -0.608153    1.768643   -0.124355
      7          1           0       -2.799637   -0.282742    0.483459
      8          1           0       -2.279039   -0.527261   -1.269427
      9          1           0       -1.424578    0.886371   -0.263274
     10          1           0       -0.841308   -1.609687    1.240090
     11          1           0       -0.312915   -1.843143   -0.510129
     12          1           0        1.291618   -0.198557    1.535152
     13          1           0        1.921510   -0.271586   -1.358169
     14          1           0        2.995894   -0.497106   -0.114119
 ---------------------------------------------------------------------

 SCF Done:  E(RHF) =  -266.204202357     A.U. after    2 cycles

 The electronic state is 1-A.
 Alpha  occ. eigenvalues --  -15.76555 -15.74715 -11.45940 -11.43774 -11.41874
 Alpha  occ. eigenvalues --  -11.36737  -1.38565  -1.30321  -1.13551  -1.00315
 Alpha  occ. eigenvalues --   -0.84808  -0.74312  -0.68159  -0.64336  -0.62561
 Alpha  occ. eigenvalues --   -0.58307  -0.55211  -0.53180  -0.50159  -0.43156
 Alpha  occ. eigenvalues --   -0.41544  -0.33605  -0.29437
 Alpha virt. eigenvalues --    0.03464   0.04945   0.05460   0.05837   0.06296
 Alpha virt. eigenvalues --    0.06689   0.07357   0.08450   0.09566   0.11719
 Alpha virt. eigenvalues --    0.12239   0.13353   0.13922   0.14463   0.14846

 Mulliken charges:
               1
     1  C   -3.304408
     2  C   -3.035796
     3  C    0.084532
     4  N   -2.743244
     5  C    2.050827
     6  N   -2.836859
     7  H    1.174673
     8  H    1.180259
     9  H    1.975689
    10  H    1.305555
    11  H    1.411057
    12  H    1.572757
    13  H    0.633284
    14  H    0.531676
 Sum of Mulliken charges =  -0.00000

 Dipole moment (field-independent basis, Debye):
    X=              1.3868    Y=             -1.8303    Z=              0.0717  Tot=              2.2974

 Test job not archived.
 1\1\GINC-SE126\SP\RHF\Aug-CC-pVDZ\C4H8N2\OHZDE\09-Apr-2025\0\\#t hf au
 g-cc-pvdz iop(5/13=1,5/36=2,99/5=2) pseudo=read geom=check guess=(read
 ,tcheck) scf=(maxcycle=1)\\title\\0,1\C,0,-1.83816973,0.15575958,0.000
 69694\C,0,-0.89910632,-0.75142571,0.4856447\C,0,1.36062918,0.16501829,
 0.34442714\N,0,2.03946219,-0.77586343,-0.4650817\C,0,0.81936949,1.3450
 1564,-0.1039291\N,0,-0.08319783,2.08262776,-0.46018447\H,0,-2.51931081
 ,0.63842764,0.70594742\H,0,-2.24980396,-0.01252304,-0.99906051\H,0,-1.
 05250913,1.36529267,-0.35959736\H,0,-0.75279486,-0.88597144,1.55680373

 Normal termination of Gaussian 16 at Wed Apr  9 03:09:03 2025.
