 Gaussian 16, Revision C.01,

 ----------------------------------------------------------------------
 #t hf aug-cc-pvdz symm=none int=(grid=ultrafine) guess=(read,tcheck) s
 table=(opt,rrhf)
 ----------------------------------------------------------------------
 -----
 title
 -----
 Symbolic Z-matrix:
 Charge =  0 Multiplicity = 1

 SCF Done:  E(RHF) =  -306.519052760     A.U. after   15 cycles
 Normal termination of Gaussian 16 at Wed Apr  9 18:38:35 2025.
 Gaussian 16:  ES64L-G16RevC.01  3-Jul-2019

 ----------------------------------------------------------------------
 #t hf aug-cc-pvdz iop(5/13=1,5/36=2,99/5=2) pseudo=read geom=check gue
 ss=(read,tcheck) scf=(maxcycle=1)
 ----------------------------------------------------------------------
 -----
 title
 -----
 Structure from the checkpoint file:  "Grambow2020_wb97xd3_007361_forward_mol1.chk"
 Charge =  0 Multiplicity = 1

                         Standard orientation:
 ---------------------------------------------------------------------
 Center     Atomic      Atomic             Coordinates (Angstroms)
 Number     Number       Type             X           Y           Z
 ---------------------------------------------------------------------
      1          6           0       -2.045901   -0.473218    0.715908
      2          6           0       -2.302033    0.143250   -0.445464
      3          6           0       -0.121061    0.423906   -0.658246
      4          6           0        0.642519    1.244750    0.379681
      5          6           0        1.730864    0.308656   -0.080520
      6          8           0        1.526652   -0.925459    0.536748
      7          6           0        0.746634   -0.712813   -0.654398
      8          1           0       -1.987603    0.074913    1.647990
      9          1           0       -1.873314   -1.541077    0.767692
     10          1           0       -2.433004   -0.409191   -1.366268
     11          1           0       -2.542231    1.197385   -0.488227
     12          1           0        0.710235    2.298519    0.119505
     13          1           0        0.444523    1.103624    1.440042
     14          1           0        2.689354    0.532028   -0.530357
     15          1           0        0.872698   -1.459708   -1.426128
 ---------------------------------------------------------------------

 SCF Done:  E(RHF) =  -307.970995537     A.U. after    2 cycles

 The electronic state is 1-A.
 Alpha  occ. eigenvalues --  -21.07611 -11.53280 -11.46507 -11.42814 -11.41660
 Alpha  occ. eigenvalues --  -11.37898 -11.37720  -1.82178  -1.25031  -1.14314
 Alpha  occ. eigenvalues --   -0.97705  -0.87635  -0.83279  -0.76861  -0.67083
 Alpha  occ. eigenvalues --   -0.64945  -0.60649  -0.56237  -0.55169  -0.50001
 Alpha  occ. eigenvalues --   -0.49496  -0.49101  -0.43151  -0.35488  -0.30569
 Alpha  occ. eigenvalues --   -0.27335
 Alpha virt. eigenvalues --    0.03990   0.04963   0.05315   0.05893   0.06086
 Alpha virt. eigenvalues --    0.06398   0.06482   0.07895   0.09481   0.11260
 Alpha virt. eigenvalues --    0.11590   0.12389   0.12529   0.14265   0.14398

 Mulliken charges:
               1
     1  C   -2.652026
     2  C   -3.345940
     3  C   -0.054721
     4  C   -2.958068
     5  C    0.429787
     6  O   -3.026653
     7  C    0.312358
     8  H    1.426878
     9  H    1.436143
    10  H    1.329214
    11  H    1.378344
    12  H    1.381564
    13  H    1.455650
    14  H    1.348029
    15  H    1.539440
 Sum of Mulliken charges =   0.00000

 Dipole moment (field-independent basis, Debye):
    X=              0.8594    Y=             -0.3391    Z=              0.8925  Tot=              1.2846

 Test job not archived.
 1\1\GINC-SE114\SP\RHF\Aug-CC-pVDZ\C6H8O1\OHZDE\09-Apr-2025\0\\#t hf au
 g-cc-pvdz iop(5/13=1,5/36=2,99/5=2) pseudo=read geom=check guess=(read
 ,tcheck) scf=(maxcycle=1)\\title\\0,1\C,0,-1.82155092,0.28094562,-0.82
 800749\C,0,-2.04162907,0.02487724,0.46830083\C,0,0.15122201,-0.0896631
 8,0.71113401\C,0,0.94441996,-1.1479904,-0.05366187\C,0,1.99209573,-0.0
 7342082,0.08856228\O,0,1.72784462,0.91377135,-0.86085068\C,0,0.9662618
 9,1.03020155,0.35525422\H,0,-1.74458963,-0.51508706,-1.55809781\H,0,-1
 .69806992,1.29208228,-1.1956294\H,0,-2.19145737,0.81867749,1.18778432\

 Normal termination of Gaussian 16 at Wed Apr  9 18:38:40 2025.
