 Gaussian 16, Revision C.01,

 ----------------------------------------------------------------------
 #t hf aug-cc-pvdz symm=none int=(grid=ultrafine) guess=(read,tcheck) s
 table=(opt,rrhf)
 ----------------------------------------------------------------------
 -----
 title
 -----
 Symbolic Z-matrix:
 Charge =  0 Multiplicity = 1

 SCF Done:  E(RHF) =  -345.893643844     A.U. after   14 cycles

 1\1\GINC-SE048\Stability\RHF\Aug-CC-pVDZ\C5H12O2\OHZDE\09-Apr-2025\0\\
 #t hf aug-cc-pvdz symm=none int=(grid=ultrafine) guess=(read,tcheck) s
 table=(opt,rrhf)\\title\\0,1\C,0,1.66559365,1.09066271,1.13516646\C,0,
 1.71644124,-0.27513251,1.03177808\C,0,-0.26749177,-1.16095317,0.144791
 84\O,0,-0.81439462,-1.67822347,1.27648009\C,0,-0.91459956,-0.14472568,
 -0.53572958\C,0,-0.74547227,0.00778589,-2.02266914\O,0,-2.20042197,0.1
 1293977,-0.03214351\H,0,2.30614834,1.71125684,0.5179689\H,0,0.40959073
 ,1.5268631,0.3539738\H,0,1.32650664,1.55138199,2.05680057\H,0,2.351140

 Normal termination of Gaussian 16 at Wed Apr  9 19:06:18 2025.
 Gaussian 16:  ES64L-G16RevC.01  3-Jul-2019

 ----------------------------------------------------------------------
 #t hf aug-cc-pvdz iop(5/13=1,5/36=2,99/5=2) pseudo=read geom=check gue
 ss=(read,tcheck) scf=(maxcycle=1)
 ----------------------------------------------------------------------
 -----
 title
 -----
 Structure from the checkpoint file:  "Grambow2020_wb97xd3_008070_forward_mol1.chk"
 Charge =  0 Multiplicity = 1

                         Standard orientation:
 ---------------------------------------------------------------------
 Center     Atomic      Atomic             Coordinates (Angstroms)
 Number     Number       Type             X           Y           Z
 ---------------------------------------------------------------------
      1          6           0       -2.292355   -0.829478    0.641213
      2          6           0       -2.107215    0.005264   -0.430048
      3          6           0        0.136331    0.655350   -0.656557
      4          8           0        0.052722    1.932798   -0.199911
      5          6           0        0.912856   -0.271583    0.016035
      6          6           0        1.548143   -1.416985   -0.723775
      7          8           0        1.684842    0.306020    1.037672
      8          1           0       -2.575352   -1.865043    0.486627
      9          1           0       -0.880200   -1.235360    1.109353
     10          1           0       -2.560490   -0.417618    1.608233
     11          1           0       -2.179113   -0.388278   -1.436527
     12          1           0       -2.216680    1.075037   -0.323552
     13          1           0       -0.071395    0.550597   -1.709827
     14          1           0        0.593764    1.976311    0.598693
     15          1           0       -0.057884   -1.031178    0.850224
     16          1           0        2.482016   -1.102259   -1.196365
     17          1           0        1.768869   -2.251073   -0.053813
     18          1           0        0.872542   -1.781759   -1.499191
     19          1           0        1.736857   -0.295337    1.782838
 ---------------------------------------------------------------------

 SCF Done:  E(RHF) =  -347.568924355     A.U. after    2 cycles

 The electronic state is 1-A.
 Alpha  occ. eigenvalues --  -21.09113 -21.08438 -11.49742 -11.42385 -11.41397
 Alpha  occ. eigenvalues --  -11.38148 -11.35993  -1.77578  -1.70372  -1.16816
 Alpha  occ. eigenvalues --   -1.12465  -0.97822  -0.85162  -0.79419  -0.70594
 Alpha  occ. eigenvalues --   -0.64516  -0.63686  -0.61418  -0.56337  -0.55504
 Alpha  occ. eigenvalues --   -0.54644  -0.53648  -0.49071  -0.45954  -0.44411
 Alpha  occ. eigenvalues --   -0.41662  -0.37053  -0.29870  -0.24748
 Alpha virt. eigenvalues --    0.03904   0.04765   0.05087   0.05327   0.05396
 Alpha virt. eigenvalues --    0.06475   0.06577   0.07038   0.07087   0.08694
 Alpha virt. eigenvalues --    0.09293   0.10370   0.12350   0.13196   0.14045

 Mulliken charges:
               1
     1  C   -3.343338
     2  C   -2.982031
     3  C    1.499035
     4  O   -3.684821
     5  C    1.849535
     6  C   -4.105515
     7  O   -3.297182
     8  H    1.294807
     9  H    0.613787
    10  H    1.335280
    11  H    1.272205
    12  H    1.481924
    13  H    1.747360
    14  H    0.941450
    15  H    1.109490
    16  H    1.143101
    17  H    1.144833
    18  H    1.316789
    19  H    0.663289
 Sum of Mulliken charges =   0.00000

 Dipole moment (field-independent basis, Debye):
    X=              0.7359    Y=             -0.2246    Z=              0.0678  Tot=              0.7723

 Test job not archived.
 1\1\GINC-SE048\SP\RHF\Aug-CC-pVDZ\C5H12O2\OHZDE\09-Apr-2025\0\\#t hf a
 ug-cc-pvdz iop(5/13=1,5/36=2,99/5=2) pseudo=read geom=check guess=(rea
 d,tcheck) scf=(maxcycle=1)\\title\\0,1\C,0,1.66559365,1.09066271,1.135
 16646\C,0,1.71644124,-0.27513251,1.03177808\C,0,-0.26749177,-1.1609531
 7,0.14479184\O,0,-0.81439462,-1.67822347,1.27648009\C,0,-0.91459956,-0
 .14472568,-0.53572958\C,0,-0.74547227,0.00778589,-2.02266914\O,0,-2.20
 042197,0.11293977,-0.03214351\H,0,2.30614834,1.71125684,0.5179689\H,0,
 0.40959073,1.5268631,0.3539738\H,0,1.32650664,1.55138199,2.05680057\H,

 Normal termination of Gaussian 16 at Wed Apr  9 19:06:25 2025.
