 Gaussian 16, Revision C.01,

 ----------------------------------------------------------------------
 #t hf aug-cc-pvdz symm=none int=(grid=ultrafine) guess=(read,tcheck) s
 table=(opt,rrhf)
 ----------------------------------------------------------------------
 -----
 title
 -----
 Symbolic Z-matrix:
 Charge =  0 Multiplicity = 1

 SCF Done:  E(RHF) =  -283.479876570     A.U. after   16 cycles
 Normal termination of Gaussian 16 at Wed Apr  9 17:42:31 2025.
 Gaussian 16:  ES64L-G16RevC.01  3-Jul-2019

 ----------------------------------------------------------------------
 #t hf aug-cc-pvdz iop(5/13=1,5/36=2,99/5=2) pseudo=read geom=check gue
 ss=(read,tcheck) scf=(maxcycle=1)
 ----------------------------------------------------------------------
 -----
 title
 -----
 Structure from the checkpoint file:  "Grambow2020_wb97xd3_006131_forward_mol1.chk"
 Charge =  0 Multiplicity = 1

                         Standard orientation:
 ---------------------------------------------------------------------
 Center     Atomic      Atomic             Coordinates (Angstroms)
 Number     Number       Type             X           Y           Z
 ---------------------------------------------------------------------
      1          7           0        2.630098    0.012211    0.171598
      2          6           0        1.518173   -0.016842   -0.103705
      3          6           0        0.123483   -0.054878   -0.488552
      4          6           0       -0.923758   -0.997370    0.105211
      5          8           0       -1.810718    0.047170    0.077418
      6          6           0       -0.880706    0.967411   -0.082733
      7          1           0        0.021091   -0.174009   -1.573859
      8          1           0       -0.336765   -0.267993    1.809650
      9          1           0       -1.274488   -1.949547   -0.274087
     10          1           0       -0.271341    0.520045    1.823048
     11          1           0       -1.086581    2.018751   -0.186603
 ---------------------------------------------------------------------

 SCF Done:  E(RHF) =  -284.782205566     A.U. after    2 cycles

 The electronic state is 1-A.
 Alpha  occ. eigenvalues --  -21.18526 -15.77339 -11.52941 -11.49709 -11.45179
 Alpha  occ. eigenvalues --  -11.42891  -1.92162  -1.33131  -1.18566  -1.00509
 Alpha  occ. eigenvalues --   -0.85015  -0.77573  -0.76602  -0.62153  -0.61611
 Alpha  occ. eigenvalues --   -0.54757  -0.54128  -0.50772  -0.45746  -0.43832
 Alpha  occ. eigenvalues --   -0.42344  -0.30339
 Alpha virt. eigenvalues --    0.03200   0.04486   0.04931   0.07559   0.07951
 Alpha virt. eigenvalues --    0.08344   0.09454   0.09853   0.10556   0.11534
 Alpha virt. eigenvalues --    0.12368   0.13484   0.14135   0.14668   0.14930

 Mulliken charges:
               1
     1  N   -2.493227
     2  C    1.835525
     3  C   -2.252699
     4  C    0.248246
     5  O   -2.859783
     6  C    1.546211
     7  H    1.239524
     8  H   -0.023302
     9  H    1.500869
    10  H   -0.116473
    11  H    1.375108
 Sum of Mulliken charges =   0.00000

 Dipole moment (field-independent basis, Debye):
    X=             -3.6965    Y=              0.6327    Z=             -2.0722  Tot=              4.2847

 Test job not archived.
 1\1\GINC-SE114\SP\RHF\Aug-CC-pVDZ\C4H5N1O1\OHZDE\09-Apr-2025\0\\#t hf
 aug-cc-pvdz iop(5/13=1,5/36=2,99/5=2) pseudo=read geom=check guess=(re
 ad,tcheck) scf=(maxcycle=1)\\title\\0,1\N,0,2.48432777,-0.90263185,1.0
 4511011\C,0,1.53216738,-0.70765982,0.43815948\C,0,0.34210253,-0.485991
 11,-0.3551395\C,0,-1.08936135,-0.53810399,0.17942086\O,0,-1.37447403,0
 .54281422,-0.61358606\C,0,-0.11059483,0.85419429,-0.82110949\H,0,0.333
 47948,-1.13819891,-1.23668217\H,0,-0.44956988,0.76170309,1.47666128\H,
 0,-1.79320611,-1.36133146,0.15898489\H,0,-0.02602937,1.35282352,1.1657

 Normal termination of Gaussian 16 at Wed Apr  9 17:42:34 2025.
