 Gaussian 16, Revision C.01,

 ----------------------------------------------------------------------
 #t hf aug-cc-pvdz symm=none int=(grid=ultrafine) guess=(read,tcheck) s
 table=(opt,rrhf)
 ----------------------------------------------------------------------
 -----
 title
 -----
 Symbolic Z-matrix:
 Charge =  0 Multiplicity = 1

 SCF Done:  E(RHF) =  -263.678233575     A.U. after   18 cycles
 Normal termination of Gaussian 16 at Wed Apr  9 16:52:56 2025.
 Gaussian 16:  ES64L-G16RevC.01  3-Jul-2019

 ----------------------------------------------------------------------
 #t hf aug-cc-pvdz iop(5/13=1,5/36=2,99/5=2) pseudo=read geom=check gue
 ss=(read,tcheck) scf=(maxcycle=1)
 ----------------------------------------------------------------------
 -----
 title
 -----
 Structure from the checkpoint file:  "Grambow2020_b97d3_006855_forward_mol1.chk"
 Charge =  0 Multiplicity = 1

                         Standard orientation:
 ---------------------------------------------------------------------
 Center     Atomic      Atomic             Coordinates (Angstroms)
 Number     Number       Type             X           Y           Z
 ---------------------------------------------------------------------
      1          6           0        2.217765   -0.162116   -0.059743
      2          6           0        0.736061    0.006391   -0.157643
      3          6           0       -0.350667   -0.838481    0.345803
      4          7           0       -1.572426   -0.778120   -0.278916
      5          7           0       -1.464946    0.759688    0.185051
      6          6           0       -0.106432    1.090093   -0.022882
      7          1           0        2.516205   -0.647873    0.886171
      8          1           0        2.632346   -0.774060   -0.877389
      9          1           0        2.716750    0.815921   -0.099709
     10          1           0       -0.332610   -1.287073    1.349436
     11          1           0       -1.403058   -0.701232   -1.298320
     12          1           0        0.151610    2.148028    0.063656
 ---------------------------------------------------------------------

 SCF Done:  E(RHF) =  -264.910630912     A.U. after    2 cycles

 The electronic state is 1-A.
 Alpha  occ. eigenvalues --  -15.77016 -15.72505 -11.54016 -11.46990 -11.41680
 Alpha  occ. eigenvalues --  -11.38391  -1.54227  -1.20684  -1.12954  -1.00582
 Alpha  occ. eigenvalues --   -0.87408  -0.78079  -0.65414  -0.65053  -0.59228
 Alpha  occ. eigenvalues --   -0.57091  -0.53962  -0.48089  -0.46720  -0.41219
 Alpha  occ. eigenvalues --   -0.36100  -0.25768
 Alpha virt. eigenvalues --    0.03023   0.05177   0.05445   0.05916   0.06039
 Alpha virt. eigenvalues --    0.06645   0.06987   0.09643   0.10599   0.12106
 Alpha virt. eigenvalues --    0.13343   0.14417   0.14902   0.15535   0.15875

 Mulliken charges:
               1
     1  C   -4.299873
     2  C    2.230687
     3  C   -0.490745
     4  N   -2.028221
     5  N   -1.795209
     6  C   -0.335419
     7  H    1.138797
     8  H    1.206018
     9  H    1.110220
    10  H    1.369195
    11  H    0.544637
    12  H    1.349913
 Sum of Mulliken charges =   0.00000

 Dipole moment (field-independent basis, Debye):
    X=              2.5300    Y=             -0.7581    Z=              0.1215  Tot=              2.6439

 Test job not archived.
 1\1\GINC-SE087\SP\RHF\Aug-CC-pVDZ\C4H6N2\OHZDE\09-Apr-2025\0\\#t hf au
 g-cc-pvdz iop(5/13=1,5/36=2,99/5=2) pseudo=read geom=check guess=(read
 ,tcheck) scf=(maxcycle=1)\\title\\0,1\C,0,-1.67343143,-0.34769716,0.34
 240147\C,0,-0.22196248,-0.01800609,0.20836182\C,0,0.81677149,-0.627871
 38,-0.62670679\N,0,2.12643253,-0.52357295,-0.22605604\N,0,1.79443609,1
 .04521544,-0.36872229\C,0,0.47845147,1.16774956,0.13241216\H,0,-2.1058
 2118,-0.70179617,-0.61019153\H,0,-1.86491496,-1.13338437,1.09135315\H,
 0,-2.24004827,0.54155698,0.65112881\H,0,0.64373906,-0.90171061,-1.6773

 Normal termination of Gaussian 16 at Wed Apr  9 16:53:00 2025.
