 Gaussian 16, Revision C.01,

 ----------------------------------------------------------------------
 #t hf aug-cc-pvdz symm=none int=(grid=ultrafine) guess=(read,tcheck) s
 table=(opt,rrhf)
 ----------------------------------------------------------------------
 -----
 title
 -----
 Symbolic Z-matrix:
 Charge =  0 Multiplicity = 1

 SCF Done:  E(RHF) =  -343.633077712     A.U. after   14 cycles
 Normal termination of Gaussian 16 at Wed Apr  9 19:07:58 2025.
 Gaussian 16:  ES64L-G16RevC.01  3-Jul-2019

 ----------------------------------------------------------------------
 #t hf aug-cc-pvdz iop(5/13=1,5/36=2,99/5=2) pseudo=read geom=check gue
 ss=(read,tcheck) scf=(maxcycle=1)
 ----------------------------------------------------------------------
 -----
 title
 -----
 Structure from the checkpoint file:  "Grambow2020_wb97xd3_008141_reverse_mol2.chk"
 Charge =  0 Multiplicity = 1

                         Standard orientation:
 ---------------------------------------------------------------------
 Center     Atomic      Atomic             Coordinates (Angstroms)
 Number     Number       Type             X           Y           Z
 ---------------------------------------------------------------------
      1          6           0       -0.955974   -1.218441    0.141599
      2          8           0        0.191779   -1.161088   -0.689164
      3          6           0        0.960540   -0.001602   -0.487497
      4          6           0        1.663047    0.000077    0.864075
      5          6           0       -1.623007    0.003315    0.564849
      6          6           0       -0.950380    1.221976    0.141949
      7          8           0        0.192030    1.156314   -0.695912
      8          1           0       -0.754099   -1.772100    1.076063
      9          1           0       -1.703626   -1.834465   -0.372650
     10          1           0        1.700616   -0.003032   -1.287856
     11          1           0        2.276088    0.897002    0.954580
     12          1           0        2.306499   -0.876704    0.938459
     13          1           0        0.965886   -0.021002    1.704062
     14          1           0       -1.692849    1.851710   -0.362070
     15          1           0       -0.734348    1.764837    1.080165
 ---------------------------------------------------------------------

 SCF Done:  E(RHF) =  -345.168394166     A.U. after    2 cycles

 The electronic state is 1-A.
 Alpha  occ. eigenvalues --  -21.05175 -21.05127 -11.47788 -11.45362 -11.43780
 Alpha  occ. eigenvalues --  -11.39847 -11.37894  -1.84048  -1.69585  -1.19193
 Alpha  occ. eigenvalues --   -1.09862  -0.99719  -0.88416  -0.76080  -0.68942
 Alpha  occ. eigenvalues --   -0.64360  -0.60542  -0.58587  -0.58464  -0.54227
 Alpha  occ. eigenvalues --   -0.52540  -0.51492  -0.50624  -0.37899  -0.31663
 Alpha  occ. eigenvalues --   -0.30162  -0.28590
 Alpha virt. eigenvalues --    0.03275   0.04972   0.05243   0.05872   0.05920
 Alpha virt. eigenvalues --    0.06058   0.06866   0.06989   0.07337   0.09577
 Alpha virt. eigenvalues --    0.12105   0.12192   0.12918   0.13657   0.14332

 Mulliken charges:
               1
     1  C   -1.171527
     2  O   -3.465763
     3  C    3.209310
     4  C   -4.127969
     5  C   -0.908008
     6  C   -1.184169
     7  O   -3.480206
     8  H    1.465737
     9  H    1.333159
    10  H    1.650335
    11  H    1.214530
    12  H    1.209404
    13  H    1.449674
    14  H    1.333425
    15  H    1.472069
 Sum of Mulliken charges =  -0.00000

 Dipole moment (field-independent basis, Debye):
    X=              1.4795    Y=              0.0009    Z=             -0.4752  Tot=              1.5540

 Test job not archived.
 1\1\GINC-SE220\SP\RHF\Aug-CC-pVDZ\C5H8O2\OHZDE\09-Apr-2025\0\\#t hf au
 g-cc-pvdz iop(5/13=1,5/36=2,99/5=2) pseudo=read geom=check guess=(read
 ,tcheck) scf=(maxcycle=1)\\title\\0,1\C,0,-1.2403329,0.8422243,0.61235
 929\O,0,-0.83758875,0.99019676,-0.73919293\C,0,0.28871077,0.21534266,-
 1.06648844\C,0,-0.02027501,-1.27607977,-1.08772062\C,0,-0.25977814,0.5
 5359476,1.64771789\C,0,1.08924686,0.34632298,1.14415557\O,0,1.3760532,
 0.52776539,-0.23288653\H,0,-2.01170938,0.05915138,0.72321645\H,0,-1.75
 786516,1.76418074,0.9040403\H,0,0.58624801,0.54458662,-2.06215868\H,0,

 Normal termination of Gaussian 16 at Wed Apr  9 19:08:03 2025.
