 Gaussian 16, Revision C.01,

 ----------------------------------------------------------------------
 #t hf aug-cc-pvdz symm=none int=(grid=ultrafine) guess=(read,tcheck) s
 table=(opt,rrhf)
 ----------------------------------------------------------------------
 -----
 title
 -----
 Symbolic Z-matrix:
 Charge =  0 Multiplicity = 1

 SCF Done:  E(RHF) =  -353.467590332     A.U. after   16 cycles
 Normal termination of Gaussian 16 at Wed Apr  9 18:54:26 2025.
 Gaussian 16:  ES64L-G16RevC.01  3-Jul-2019

 ----------------------------------------------------------------------
 #t hf aug-cc-pvdz iop(5/13=1,5/36=2,99/5=2) pseudo=read geom=check gue
 ss=(read,tcheck) scf=(maxcycle=1)
 ----------------------------------------------------------------------
 -----
 title
 -----
 Structure from the checkpoint file:  "Grambow2020_wb97xd3_007769_reverse_mol2.chk"
 Charge =  0 Multiplicity = 1

                         Standard orientation:
 ---------------------------------------------------------------------
 Center     Atomic      Atomic             Coordinates (Angstroms)
 Number     Number       Type             X           Y           Z
 ---------------------------------------------------------------------
      1          8           0        2.741563   -0.931235   -0.000236
      2          6           0        1.996902    0.007130    0.005419
      3          7           0        0.615757   -0.128551   -0.008562
      4          6           0       -2.145825   -1.325201    0.000562
      5          7           0       -2.941989   -0.503205    0.003695
      6          6           0       -0.711150    1.881027    0.001260
      7          7           0       -0.013626    0.970564   -0.003487
      8          1           0        2.360274    1.055823    0.023766
      9          1           0       -1.372962   -2.064844   -0.002243
     10          1           0       -1.380378    2.709504   -0.004597
 ---------------------------------------------------------------------

 SCF Done:  E(RHF) =  -355.024965790     A.U. after    2 cycles

 The electronic state is 1-A.
 Alpha  occ. eigenvalues --  -21.03860 -15.92970 -15.77856 -15.76212 -11.56267
 Alpha  occ. eigenvalues --  -11.48099 -11.44465  -1.71153  -1.58831  -1.31629
 Alpha  occ. eigenvalues --   -1.25543  -0.91681  -0.83880  -0.81970  -0.74790
 Alpha  occ. eigenvalues --   -0.65049  -0.63271  -0.54803  -0.50444  -0.48334
 Alpha  occ. eigenvalues --   -0.47092  -0.46836  -0.42558  -0.31196  -0.29537
 Alpha virt. eigenvalues --    0.02222   0.04938   0.05562   0.07816   0.08049
 Alpha virt. eigenvalues --    0.09359   0.10770   0.10791   0.11768   0.12007
 Alpha virt. eigenvalues --    0.13268   0.13681   0.14394   0.16268   0.16619

 Mulliken charges:
               1
     1  O   -2.626215
     2  C    2.075964
     3  N   -1.151951
     4  C    0.585842
     5  N   -2.301931
     6  C    0.764755
     7  N   -1.659631
     8  H    1.387103
     9  H    1.627514
    10  H    1.298549
 Sum of Mulliken charges =  -0.00000

 Dipole moment (field-independent basis, Debye):
    X=             -0.9609    Y=              2.4736    Z=             -0.0016  Tot=              2.6537

 Test job not archived.
 1\1\GINC-SE135\SP\RHF\Aug-CC-pVDZ\C3H3N3O1\OHZDE\09-Apr-2025\0\\#t hf
 aug-cc-pvdz iop(5/13=1,5/36=2,99/5=2) pseudo=read geom=check guess=(re
 ad,tcheck) scf=(maxcycle=1)\\title\\0,1\O,0,3.00338228,-0.30325154,0.2
 9042863\C,0,1.90420195,-0.77277746,0.37060752\N,0,0.75520665,-0.052487
 67,0.07537971\C,0,-1.10044717,2.15713889,-0.78047675\N,0,-2.18972136,1
 .80904679,-0.73712538\C,0,-1.36374886,-1.17392141,0.30252825\N,0,-0.31
 9153,-0.70770547,0.21906151\H,0,1.72619666,-1.8218686,0.68660355\H,0,-
 0.07072942,2.44576617,-0.80826754\H,0,-2.34518872,-1.57994069,0.381260

 Normal termination of Gaussian 16 at Wed Apr  9 18:54:30 2025.
