 Gaussian 16, Revision C.01,

 ----------------------------------------------------------------------
 #t hf aug-cc-pvdz symm=none int=(grid=ultrafine) guess=(read,tcheck) s
 table=(opt,rrhf)
 ----------------------------------------------------------------------
 -----
 title
 -----
 Symbolic Z-matrix:
 Charge =  0 Multiplicity = 1

 SCF Done:  E(RHF) =  -344.685777469     A.U. after   15 cycles

 1\1\GINC-SE335\Stability\RHF\Aug-CC-pVDZ\C5H10O2\OHZDE\09-Apr-2025\0\\
 #t hf aug-cc-pvdz symm=none int=(grid=ultrafine) guess=(read,tcheck) s
 table=(opt,rrhf)\\title\\0,1\C,0,2.25830107,1.01195985,-0.64441386\O,0
 ,0.99231214,1.05795355,-0.01768738\C,0,0.26976198,-0.11677961,-0.18762
 255\C,0,0.46257358,-1.21907388,0.88092454\O,0,-0.88469223,-0.87073032,
 1.39663814\C,0,-1.09219896,-0.0302972,0.44721058\C,0,-2.30682438,0.614
 16944,0.12362533\H,0,2.89759117,0.23996697,-0.20082183\H,0,2.1552634,0
 .81649613,-1.71690443\H,0,2.722083,1.98462837,-0.49570067\H,0,0.209278

 Normal termination of Gaussian 16 at Wed Apr  9 03:27:31 2025.
 Gaussian 16:  ES64L-G16RevC.01  3-Jul-2019

 ----------------------------------------------------------------------
 #t hf aug-cc-pvdz iop(5/13=1,5/36=2,99/5=2) pseudo=read geom=check gue
 ss=(read,tcheck) scf=(maxcycle=1)
 ----------------------------------------------------------------------
 -----
 title
 -----
 Structure from the checkpoint file:  "Grambow2020_wb97xd3_006665_reverse_mol1.chk"
 Charge =  0 Multiplicity = 1

                         Standard orientation:
 ---------------------------------------------------------------------
 Center     Atomic      Atomic             Coordinates (Angstroms)
 Number     Number       Type             X           Y           Z
 ---------------------------------------------------------------------
      1          6           0        2.595463   -0.379179    0.038074
      2          8           0        1.271802   -0.563176   -0.422031
      3          6           0        0.331186    0.041357    0.403036
      4          6           0       -0.044062    1.507572    0.081438
      5          8           0       -1.336419    0.998900   -0.441530
      6          6           0       -1.073311   -0.205214   -0.078648
      7          6           0       -1.955951   -1.307981   -0.064135
      8          1           0        2.878376    0.679768    0.032653
      9          1           0        2.713931   -0.774610    1.052302
     10          1           0        3.246914   -0.923516   -0.642075
     11          1           0        0.430691   -0.173264    1.469989
     12          1           0        0.509120    1.992265   -0.718974
     13          1           0       -0.245650    2.139677    0.941324
     14          1           0       -1.683070    0.085966    2.161128
     15          1           0       -1.468780   -2.273127   -0.155632
     16          1           0       -2.098000   -1.004922    1.092888
     17          1           0       -2.886553   -1.173362   -0.603708
 ---------------------------------------------------------------------

 SCF Done:  E(RHF) =  -346.281077161     A.U. after    2 cycles

 The electronic state is 1-A.
 Alpha  occ. eigenvalues --  -21.15717 -21.09244 -11.58111 -11.53414 -11.46072
 Alpha  occ. eigenvalues --  -11.43531 -11.40494  -1.91481  -1.79316  -1.19066
 Alpha  occ. eigenvalues --   -1.14825  -1.01711  -0.95170  -0.78565  -0.72854
 Alpha  occ. eigenvalues --   -0.70272  -0.67862  -0.63507  -0.61414  -0.60940
 Alpha  occ. eigenvalues --   -0.59085  -0.54499  -0.51699  -0.44310  -0.43455
 Alpha  occ. eigenvalues --   -0.41872  -0.33971  -0.25306
 Alpha virt. eigenvalues --    0.02900   0.04394   0.04655   0.05089   0.05454
 Alpha virt. eigenvalues --    0.05916   0.06597   0.08052   0.09096   0.09864
 Alpha virt. eigenvalues --    0.10766   0.11199   0.11659   0.12498   0.12970

 Mulliken charges:
               1
     1  C   -3.080575
     2  O   -3.631113
     3  C   -0.140200
     4  C   -2.275014
     5  O   -3.384435
     6  C    5.103126
     7  C   -4.219098
     8  H    1.333583
     9  H    1.352286
    10  H    1.267036
    11  H    1.633670
    12  H    1.539648
    13  H    1.595734
    14  H   -0.835663
    15  H    1.321430
    16  H    1.062798
    17  H    1.356787
 Sum of Mulliken charges =  -0.00000

 Dipole moment (field-independent basis, Debye):
    X=              3.6057    Y=              0.4669    Z=             -5.6742  Tot=              6.7391

 Test job not archived.
 1\1\GINC-SE335\SP\RHF\Aug-CC-pVDZ\C5H10O2\OHZDE\09-Apr-2025\0\\#t hf a
 ug-cc-pvdz iop(5/13=1,5/36=2,99/5=2) pseudo=read geom=check guess=(rea
 d,tcheck) scf=(maxcycle=1)\\title\\0,1\C,0,2.25830107,1.01195985,-0.64
 441386\O,0,0.99231214,1.05795355,-0.01768738\C,0,0.26976198,-0.1167796
 1,-0.18762255\C,0,0.46257358,-1.21907388,0.88092454\O,0,-0.88469223,-0
 .87073032,1.39663814\C,0,-1.09219896,-0.0302972,0.44721058\C,0,-2.3068
 2438,0.61416944,0.12362533\H,0,2.89759117,0.23996697,-0.20082183\H,0,2
 .1552634,0.81649613,-1.71690443\H,0,2.722083,1.98462837,-0.49570067\H,

 Normal termination of Gaussian 16 at Wed Apr  9 03:27:37 2025.
