 Gaussian 16, Revision C.01,

 ----------------------------------------------------------------------
 #t hf aug-cc-pvdz symm=none int=(grid=ultrafine) guess=(read,tcheck) s
 table=(opt,rrhf)
 ----------------------------------------------------------------------
 -----
 title
 -----
 Symbolic Z-matrix:
 Charge =  0 Multiplicity = 1

 SCF Done:  E(RHF) =  -307.763747527     A.U. after   15 cycles

 1\1\GINC-SE108\Stability\RHF\Aug-CC-pVDZ\C6H10O1\OHZDE\09-Apr-2025\0\\
 #t hf aug-cc-pvdz symm=none int=(grid=ultrafine) guess=(read,tcheck) s
 table=(opt,rrhf)\\title\\0,1\C,0,-1.21380266,-0.29466961,-1.08481374\C
 ,0,-1.15518194,0.1640824,0.35981219\C,0,-0.40861679,-0.82067018,1.2925
 1324\C,0,1.0538011,-0.67879896,0.93234283\C,0,1.43919584,0.58505511,0.
 95615106\C,0,0.60097401,1.62555417,0.99012244\O,0,-0.60189793,1.507992
 57,0.38727691\H,0,-1.74507228,-1.24562772,-1.15739921\H,0,-0.21162016,
 -0.41955323,-1.49707133\H,0,-1.74210704,0.442374,-1.68937123\H,0,-2.16

 Normal termination of Gaussian 16 at Wed Apr  9 19:29:23 2025.
 Gaussian 16:  ES64L-G16RevC.01  3-Jul-2019

 ----------------------------------------------------------------------
 #t hf aug-cc-pvdz iop(5/13=1,5/36=2,99/5=2) pseudo=read geom=check gue
 ss=(read,tcheck) scf=(maxcycle=1)
 ----------------------------------------------------------------------
 -----
 title
 -----
 Structure from the checkpoint file:  "Grambow2020_wb97xd3_009029_reverse_mol2.chk"
 Charge =  0 Multiplicity = 1

                         Standard orientation:
 ---------------------------------------------------------------------
 Center     Atomic      Atomic             Coordinates (Angstroms)
 Number     Number       Type             X           Y           Z
 ---------------------------------------------------------------------
      1          6           0        1.791848   -0.227024    0.780345
      2          6           0        0.990879    0.331269   -0.380513
      3          6           0        0.249105   -0.753197   -1.199496
      4          6           0       -0.889947   -1.210176   -0.315049
      5          6           0       -1.605547   -0.188527    0.121500
      6          6           0       -1.213117    1.087302    0.053181
      7          8           0        0.106400    1.364082    0.133263
      8          1           0        2.559778   -0.911266    0.414375
      9          1           0        1.147708   -0.762748    1.478919
     10          1           0        2.281217    0.583455    1.320225
     11          1           0        1.650212    0.878907   -1.057509
     12          1           0        0.956422   -1.548833   -1.440852
     13          1           0       -0.112721   -0.329655   -2.137340
     14          1           0       -0.917143   -2.212671    0.098798
     15          1           0       -1.349654   -1.189505    2.684184
     16          1           0       -1.176013   -1.629725    3.262160
     17          1           0       -1.830337    1.971498   -0.048878
 ---------------------------------------------------------------------

 SCF Done:  E(RHF) =  -309.254903584     A.U. after    2 cycles

 The electronic state is 1-A.
 Alpha  occ. eigenvalues --  -21.08001 -11.47296 -11.46231 -11.43683 -11.40803
 Alpha  occ. eigenvalues --  -11.37503 -11.35893  -1.79992  -1.25043  -1.16077
 Alpha  occ. eigenvalues --   -1.01585  -0.91215  -0.85816  -0.73958  -0.67056
 Alpha  occ. eigenvalues --   -0.62563  -0.61835  -0.60527  -0.56153  -0.55743
 Alpha  occ. eigenvalues --   -0.53123  -0.50702  -0.47623  -0.45247  -0.38225
 Alpha  occ. eigenvalues --   -0.32361  -0.27290
 Alpha virt. eigenvalues --    0.03406   0.04988   0.05174   0.05411   0.05532
 Alpha virt. eigenvalues --    0.05963   0.06226   0.07253   0.08321   0.08873
 Alpha virt. eigenvalues --    0.10679   0.10938   0.12545   0.12987   0.13363

 Mulliken charges:
               1
     1  C   -3.874441
     2  C    1.265572
     3  C   -3.940569
     4  C   -0.718740
     5  C    0.100759
     6  C   -0.178889
     7  O   -3.705557
     8  H    1.166478
     9  H    1.572527
    10  H    1.253301
    11  H    1.485957
    12  H    1.401740
    13  H    1.194250
    14  H    1.546120
    15  H   -0.395416
    16  H    0.327289
    17  H    1.499618
 Sum of Mulliken charges =  -0.00000

 Dipole moment (field-independent basis, Debye):
    X=              2.4942    Y=              0.5848    Z=             -1.1467  Tot=              2.8067

 Test job not archived.
 1\1\GINC-SE108\SP\RHF\Aug-CC-pVDZ\C6H10O1\OHZDE\09-Apr-2025\0\\#t hf a
 ug-cc-pvdz iop(5/13=1,5/36=2,99/5=2) pseudo=read geom=check guess=(rea
 d,tcheck) scf=(maxcycle=1)\\title\\0,1\C,0,-1.21380266,-0.29466961,-1.
 08481374\C,0,-1.15518194,0.1640824,0.35981219\C,0,-0.40861679,-0.82067
 018,1.29251324\C,0,1.0538011,-0.67879896,0.93234283\C,0,1.43919584,0.5
 8505511,0.95615106\C,0,0.60097401,1.62555417,0.99012244\O,0,-0.6018979
 3,1.50799257,0.38727691\H,0,-1.74507228,-1.24562772,-1.15739921\H,0,-0
 .21162016,-0.41955323,-1.49707133\H,0,-1.74210704,0.442374,-1.68937123

 Normal termination of Gaussian 16 at Wed Apr  9 19:29:29 2025.
