 Gaussian 16, Revision C.01,

 ----------------------------------------------------------------------
 #t hf aug-cc-pvdz symm=none int=(grid=ultrafine) guess=(read,tcheck) s
 table=(opt,rrhf)
 ----------------------------------------------------------------------
 -----
 title
 -----
 Symbolic Z-matrix:
 Charge =  0 Multiplicity = 1

 SCF Done:  E(RHF) =  -302.767588379     A.U. after   16 cycles
 Normal termination of Gaussian 16 at Wed Apr  9 19:24:13 2025.
 Gaussian 16:  ES64L-G16RevC.01  3-Jul-2019

 ----------------------------------------------------------------------
 #t hf aug-cc-pvdz iop(5/13=1,5/36=2,99/5=2) pseudo=read geom=check gue
 ss=(read,tcheck) scf=(maxcycle=1)
 ----------------------------------------------------------------------
 -----
 title
 -----
 Structure from the checkpoint file:  "Grambow2020_wb97xd3_008911_forward_mol1.chk"
 Charge =  0 Multiplicity = 1

                         Standard orientation:
 ---------------------------------------------------------------------
 Center     Atomic      Atomic             Coordinates (Angstroms)
 Number     Number       Type             X           Y           Z
 ---------------------------------------------------------------------
      1          6           0        0.835463    1.588731    0.571906
      2          7           0        0.286579    0.604011   -0.383100
      3          6           0       -1.141939    0.782991   -0.553795
      4          6           0       -1.747737   -0.267833    0.029982
      5          6           0       -0.788359   -1.246799    0.499792
      6          6           0        0.430147   -0.784477    0.093941
      7          7           0        1.653672   -1.055339   -0.337081
      8          1           0        1.874966    1.331225    0.772874
      9          1           0        0.785277    2.579255    0.120641
     10          1           0        0.254056    1.576251    1.494997
     11          1           0       -1.533165    1.716668   -0.921673
     12          1           0       -2.821163   -0.380062    0.102804
     13          1           0       -1.013432   -2.241912    0.843925
     14          1           0        2.058655   -1.968940   -0.221910
     15          1           0        1.287600    0.111129   -1.001353
 ---------------------------------------------------------------------

 SCF Done:  E(RHF) =  -304.241559217     A.U. after    2 cycles

 The electronic state is 1-A.
 Alpha  occ. eigenvalues --  -15.76965 -15.70344 -11.48139 -11.44525 -11.41149
 Alpha  occ. eigenvalues --  -11.39260 -11.35996  -1.56259  -1.28017  -1.18929
 Alpha  occ. eigenvalues --   -1.00650  -0.98804  -0.83453  -0.76245  -0.71959
 Alpha  occ. eigenvalues --   -0.65457  -0.61098  -0.59567  -0.54729  -0.53694
 Alpha  occ. eigenvalues --   -0.49771  -0.47886  -0.42179  -0.40209  -0.36301
 Alpha  occ. eigenvalues --   -0.23025
 Alpha virt. eigenvalues --    0.03654   0.05141   0.05490   0.05902   0.06105
 Alpha virt. eigenvalues --    0.06531   0.07169   0.07408   0.10732   0.11722
 Alpha virt. eigenvalues --    0.12582   0.13254   0.13354   0.14142   0.14542

 Mulliken charges:
               1
     1  C   -3.874352
     2  N   -2.685896
     3  C   -0.993610
     4  C   -0.212459
     5  C   -1.833059
     6  C    3.613195
     7  N   -3.527821
     8  H    1.257651
     9  H    1.298555
    10  H    1.496855
    11  H    1.397678
    12  H    1.409106
    13  H    1.295197
    14  H    0.809528
    15  H    0.549432
 Sum of Mulliken charges =   0.00000

 Dipole moment (field-independent basis, Debye):
    X=             -0.2939    Y=              1.3025    Z=              0.0395  Tot=              1.3358

 Test job not archived.
 1\1\GINC-SE113\SP\RHF\Aug-CC-pVDZ\C5H8N2\OHZDE\09-Apr-2025\0\\#t hf au
 g-cc-pvdz iop(5/13=1,5/36=2,99/5=2) pseudo=read geom=check guess=(read
 ,tcheck) scf=(maxcycle=1)\\title\\0,1\C,0,-1.1629402,-1.10948661,0.608
 24972\N,0,-0.32734077,-0.45179136,-0.41751586\C,0,1.02117516,-0.984056
 2,-0.41177202\C,0,1.82749343,-0.02128696,0.07293711\C,0,1.11001007,1.2
 1800131,0.29403529\C,0,-0.15558608,0.99128373,-0.16431066\N,0,-1.24391
 799,1.46419093,-0.75427024\H,0,-2.11791937,-0.58748758,0.66114259\H,0,
 -1.32872509,-2.14518041,0.31303686\H,0,-0.65797509,-1.07988541,1.57490

 Normal termination of Gaussian 16 at Wed Apr  9 19:24:18 2025.
