 Gaussian 16, Revision C.01,

 ----------------------------------------------------------------------
 #t hf aug-cc-pvdz symm=none int=(grid=ultrafine) guess=(read,tcheck) s
 table=(opt,rrhf)
 ----------------------------------------------------------------------
 -----
 title
 -----
 Symbolic Z-matrix:
 Charge =  0 Multiplicity = 1

 SCF Done:  E(RHF) =  -265.059524795     A.U. after   14 cycles
 Normal termination of Gaussian 16 at Wed Apr  9 03:21:06 2025.
 Gaussian 16:  ES64L-G16RevC.01  3-Jul-2019

 ----------------------------------------------------------------------
 #t hf aug-cc-pvdz iop(5/13=1,5/36=2,99/5=2) pseudo=read geom=check gue
 ss=(read,tcheck) scf=(maxcycle=1)
 ----------------------------------------------------------------------
 -----
 title
 -----
 Structure from the checkpoint file:  "Grambow2020_wb97xd3_006059_forward_mol2.chk"
 Charge =  0 Multiplicity = 1

                         Standard orientation:
 ---------------------------------------------------------------------
 Center     Atomic      Atomic             Coordinates (Angstroms)
 Number     Number       Type             X           Y           Z
 ---------------------------------------------------------------------
      1          6           0       -0.820132    1.260037   -0.664426
      2          6           0       -0.298541    0.000006    0.026214
      3          6           0       -0.820241   -1.259534   -0.665102
      4          7           0       -0.755048   -0.000518    1.409983
      5          6           0        1.187977   -0.000044   -0.052491
      6          7           0        2.335760    0.000002   -0.079710
      7          1           0       -0.445621    2.157683   -0.169465
      8          1           0       -1.909134    1.261736   -0.614290
      9          1           0       -0.505832    1.290727   -1.707788
     10          1           0       -1.909331   -1.260052   -0.616105
     11          1           0       -0.447372   -2.157168   -0.169023
     12          1           0       -0.505228   -1.291776   -1.708201
     13          1           0       -0.417653   -0.816780    1.903847
     14          1           0       -0.419192    0.816452    1.903943
 ---------------------------------------------------------------------

 SCF Done:  E(RHF) =  -266.337899087     A.U. after    2 cycles

 The electronic state is 1-A.
 Alpha  occ. eigenvalues --  -15.75488 -15.75430 -11.49531 -11.43065 -11.41538
 Alpha  occ. eigenvalues --  -11.38354  -1.42227  -1.28569  -1.15044  -1.03874
 Alpha  occ. eigenvalues --   -0.90275  -0.72747  -0.68505  -0.63927  -0.57734
 Alpha  occ. eigenvalues --   -0.56898  -0.55237  -0.51774  -0.50440  -0.49825
 Alpha  occ. eigenvalues --   -0.43530  -0.42098  -0.37710
 Alpha virt. eigenvalues --    0.03271   0.05348   0.05619   0.05706   0.05853
 Alpha virt. eigenvalues --    0.06248   0.06861   0.09050   0.09938   0.10981
 Alpha virt. eigenvalues --    0.11608   0.13173   0.14131   0.14782   0.14826

 Mulliken charges:
               1
     1  C   -3.594086
     2  C    1.562949
     3  C   -3.593828
     4  N   -3.117105
     5  C    3.180063
     6  N   -2.783683
     7  H    1.232038
     8  H    1.141880
     9  H    1.222983
    10  H    1.141544
    11  H    1.232086
    12  H    1.223462
    13  H    0.575946
    14  H    0.575749
 Sum of Mulliken charges =  -0.00000

 Dipole moment (field-independent basis, Debye):
    X=             -2.6907    Y=              0.0012    Z=              0.3099  Tot=              2.7085

 Test job not archived.
 1\1\GINC-SE094\SP\RHF\Aug-CC-pVDZ\C4H8N2\OHZDE\09-Apr-2025\0\\#t hf au
 g-cc-pvdz iop(5/13=1,5/36=2,99/5=2) pseudo=read geom=check guess=(read
 ,tcheck) scf=(maxcycle=1)\\title\\0,1\C,0,-0.79425689,1.04535249,-0.60
 618309\C,0,-0.07194849,-0.10962609,0.08736869\C,0,1.44437871,0.0677669
 1,0.01112937\N,0,-0.43291853,-1.35567588,-0.57616422\C,0,-0.4736658,-0
 .12448352,1.52066245\N,0,-0.79588146,-0.16678025,2.62181376\H,0,-1.876
 50405,0.91667715,-0.5496366\H,0,-0.4987593,1.06380072,-1.65536489\H,0,
 -0.54035129,1.99839186,-0.14187754\H,0,1.74227754,0.08640723,-1.037406

 Normal termination of Gaussian 16 at Wed Apr  9 03:21:10 2025.
