 Gaussian 16, Revision C.01,

 ----------------------------------------------------------------------
 #t hf aug-cc-pvdz symm=none int=(grid=ultrafine) guess=(read,tcheck) s
 table=(opt,rrhf)
 ----------------------------------------------------------------------
 -----
 title
 -----
 Symbolic Z-matrix:
 Charge =  0 Multiplicity = 1

 SCF Done:  E(RHF) =  -231.661841770     A.U. after   15 cycles
 Normal termination of Gaussian 16 at Wed Apr  9 03:21:08 2025.
 Gaussian 16:  ES64L-G16RevC.01  3-Jul-2019

 ----------------------------------------------------------------------
 #t hf aug-cc-pvdz iop(5/13=1,5/36=2,99/5=2) pseudo=read geom=check gue
 ss=(read,tcheck) scf=(maxcycle=1)
 ----------------------------------------------------------------------
 -----
 title
 -----
 Structure from the checkpoint file:  "Grambow2020_wb97xd3_006054_forward_mol1.chk"
 Charge =  0 Multiplicity = 1

                         Standard orientation:
 ---------------------------------------------------------------------
 Center     Atomic      Atomic             Coordinates (Angstroms)
 Number     Number       Type             X           Y           Z
 ---------------------------------------------------------------------
      1          6           0       -1.395982   -0.167813    0.696950
      2          6           0       -0.761199   -0.602928   -0.602557
      3          6           0       -0.709631    0.835508   -0.159236
      4          6           0        0.816007    0.891596   -0.068942
      5          6           0        1.339471   -0.346889    0.615339
      6          6           0        0.766162   -0.824562   -0.685092
      7          1           0       -1.017845   -0.466173    1.665355
      8          1           0       -2.476600   -0.119686    0.655190
      9          1           0       -1.384243   -0.979788   -1.400646
     10          1           0       -1.254445    1.639598   -0.634024
     11          1           0        1.412039    1.799211   -0.076546
     12          1           0        2.423035   -0.383744    0.673561
     13          1           0        0.866583   -0.633135    1.544352
     14          1           0        1.102510    0.434251   -1.206009
 ---------------------------------------------------------------------

 SCF Done:  E(RHF) =  -232.820553133     A.U. after    2 cycles

 The electronic state is 1-A.
 Alpha  occ. eigenvalues --  -11.48949 -11.44929 -11.41952 -11.40039 -11.39192
 Alpha  occ. eigenvalues --  -11.36011  -1.45409  -1.17048  -0.94601  -0.92023
 Alpha  occ. eigenvalues --   -0.81080  -0.75639  -0.71383  -0.65118  -0.57076
 Alpha  occ. eigenvalues --   -0.54714  -0.51513  -0.48428  -0.44523  -0.42763
 Alpha  occ. eigenvalues --   -0.35326  -0.27222
 Alpha virt. eigenvalues --    0.03979   0.04914   0.05199   0.05614   0.05889
 Alpha virt. eigenvalues --    0.06323   0.07468   0.08597   0.09681   0.09901
 Alpha virt. eigenvalues --    0.12595   0.13738   0.13826   0.14788   0.15106

 Mulliken charges:
               1
     1  C   -2.708426
     2  C   -0.398717
     3  C   -1.287655
     4  C   -1.316013
     5  C   -3.584529
     6  C   -0.924718
     7  H    1.211414
     8  H    1.276479
     9  H    1.389810
    10  H    1.306600
    11  H    1.183872
    12  H    1.331285
    13  H    1.290918
    14  H    1.229680
 Sum of Mulliken charges =   0.00000

 Dipole moment (field-independent basis, Debye):
    X=             -0.8843    Y=              1.9251    Z=              1.4026  Tot=              2.5407

 Test job not archived.
 1\1\GINC-SE092\SP\RHF\Aug-CC-pVDZ\C6H8\OHZDE\09-Apr-2025\0\\#t hf aug-
 cc-pvdz iop(5/13=1,5/36=2,99/5=2) pseudo=read geom=check guess=(read,t
 check) scf=(maxcycle=1)\\title\\0,1\C,0,1.22884563,-0.81057711,-0.4259
 7442\C,0,0.93680827,0.0729266,0.76361689\C,0,0.65566165,0.54477332,-0.
 63874118\C,0,-0.8512493,0.69774597,-0.42734093\C,0,-1.39373087,-0.4993
 8052,0.3134038\C,0,-0.50810261,0.20691319,1.29563867\H,0,0.67774421,-1
 .71752578,-0.634654\H,0,2.28315317,-0.88655847,-0.65933582\H,0,1.75156
 765,0.42394795,1.38014178\H,0,1.21362189,1.32066529,-1.14419044\H,0,-1

 Normal termination of Gaussian 16 at Wed Apr  9 03:21:13 2025.
