 Gaussian 16, Revision C.01,

 ----------------------------------------------------------------------
 #t hf aug-cc-pvdz symm=none int=(grid=ultrafine) guess=(read,tcheck) s
 table=(opt,rrhf)
 ----------------------------------------------------------------------
 -----
 title
 -----
 Symbolic Z-matrix:
 Charge =  0 Multiplicity = 1

 SCF Done:  E(RHF) =  -268.694694933     A.U. after   16 cycles
 Normal termination of Gaussian 16 at Wed Apr  9 03:20:37 2025.
 Gaussian 16:  ES64L-G16RevC.01  3-Jul-2019

 ----------------------------------------------------------------------
 #t hf aug-cc-pvdz iop(5/13=1,5/36=2,99/5=2) pseudo=read geom=check gue
 ss=(read,tcheck) scf=(maxcycle=1)
 ----------------------------------------------------------------------
 -----
 title
 -----
 Structure from the checkpoint file:  "Grambow2020_wb97xd3_006047_forward_mol1.chk"
 Charge =  0 Multiplicity = 1

                         Standard orientation:
 ---------------------------------------------------------------------
 Center     Atomic      Atomic             Coordinates (Angstroms)
 Number     Number       Type             X           Y           Z
 ---------------------------------------------------------------------
      1          6           0       -0.978087    1.398763   -0.000224
      2          8           0       -1.798681    0.414941    0.000282
      3          6           0       -1.095179   -1.326114    0.000388
      4          6           0        0.249970   -1.124914   -0.001032
      5          6           0        1.074486   -0.175967   -0.000422
      6          6           0        2.490692    0.246895    0.000397
      7          1           0       -0.876938    1.978188   -0.928002
      8          1           0       -0.876991    1.978738    0.927202
      9          1           0        0.266611    0.865778   -0.000018
     10          1           0       -1.574339   -1.656068    0.914435
     11          1           0       -1.576928   -1.656166   -0.912295
     12          1           0        2.719985    0.847076    0.882429
     13          1           0        3.134391   -0.632221    0.002965
     14          1           0        2.722358    0.843171   -0.883609
 ---------------------------------------------------------------------

 SCF Done:  E(RHF) =  -270.010815957     A.U. after    2 cycles

 The electronic state is 1-A.
 Alpha  occ. eigenvalues --  -21.03893 -11.46995 -11.44084 -11.43641 -11.41780
 Alpha  occ. eigenvalues --  -11.37777  -1.69340  -1.22420  -1.09514  -0.97295
 Alpha  occ. eigenvalues --   -0.88745  -0.70501  -0.64712  -0.64050  -0.61428
 Alpha  occ. eigenvalues --   -0.58287  -0.56595  -0.54593  -0.50913  -0.35928
 Alpha  occ. eigenvalues --   -0.35374  -0.32888  -0.28937
 Alpha virt. eigenvalues --    0.03050   0.05133   0.05143   0.06071   0.06354
 Alpha virt. eigenvalues --    0.06862   0.06974   0.08599   0.10141   0.10581
 Alpha virt. eigenvalues --    0.11871   0.12762   0.13413   0.13623   0.14163

 Mulliken charges:
               1
     1  C   -1.969634
     2  O   -2.339633
     3  C   -3.559033
     4  C    1.457216
     5  C    1.152554
     6  C   -4.592058
     7  H    0.611175
     8  H    0.610668
     9  H    3.879227
    10  H    0.967466
    11  H    0.967713
    12  H    0.956937
    13  H    0.900265
    14  H    0.957135
 Sum of Mulliken charges =   0.00000

 Dipole moment (field-independent basis, Debye):
    X=              0.4526    Y=              0.6483    Z=              0.0024  Tot=              0.7906

 Test job not archived.
 1\1\GINC-SE174\SP\RHF\Aug-CC-pVDZ\C5H8O1\OHZDE\09-Apr-2025\0\\#t hf au
 g-cc-pvdz iop(5/13=1,5/36=2,99/5=2) pseudo=read geom=check guess=(read
 ,tcheck) scf=(maxcycle=1)\\title\\0,1\C,0,-1.67754192,0.38784246,0.100
 07741\O,0,-1.96973987,-0.65065557,-0.59088155\C,0,-0.56543466,-1.60801
 079,-1.38937096\C,0,0.54362477,-0.91426455,-1.01706511\C,0,0.85497616,
 0.1002724,-0.34319285\C,0,1.92859559,0.98019526,0.16427967\H,0,-1.9192
 0978,1.37011981,-0.32824937\H,0,-1.7732059,0.31704911,1.19211569\H,0,-
 0.33013792,0.51487256,0.05868409\H,0,-0.77315499,-2.55848685,-0.912513

 Normal termination of Gaussian 16 at Wed Apr  9 03:20:41 2025.
