 Gaussian 16, Revision C.01,

 ----------------------------------------------------------------------
 #t hf aug-cc-pvdz symm=none int=(grid=ultrafine) guess=(read,tcheck) s
 table=(opt,rrhf)
 ----------------------------------------------------------------------
 -----
 title
 -----
 Symbolic Z-matrix:
 Charge =  0 Multiplicity = 1

 SCF Done:  E(RHF) =  -305.318231824     A.U. after   16 cycles
 Normal termination of Gaussian 16 at Wed Apr  9 03:52:37 2025.
 Gaussian 16:  ES64L-G16RevC.01  3-Jul-2019

 ----------------------------------------------------------------------
 #t hf aug-cc-pvdz iop(5/13=1,5/36=2,99/5=2) pseudo=read geom=check gue
 ss=(read,tcheck) scf=(maxcycle=1)
 ----------------------------------------------------------------------
 -----
 title
 -----
 Structure from the checkpoint file:  "Grambow2020_wb97xd3_008346_reverse_mol1.chk"
 Charge =  0 Multiplicity = 1

                         Standard orientation:
 ---------------------------------------------------------------------
 Center     Atomic      Atomic             Coordinates (Angstroms)
 Number     Number       Type             X           Y           Z
 ---------------------------------------------------------------------
      1          8           0       -0.387031   -0.410196    1.267640
      2          6           0        0.475220   -0.817556    0.257074
      3          6           0       -0.497047   -0.890937   -0.952030
      4          6           0       -1.405977    0.125658   -0.405011
      5          6           0       -2.008614    1.144901   -0.023876
      6          6           0        1.595979    0.108160    0.001090
      7          6           0        2.494464    0.872323   -0.209463
      8          1           0       -1.277843    0.781586    0.930380
      9          1           0        0.891837   -1.813409    0.450360
     10          1           0       -0.986974   -1.863842   -0.982045
     11          1           0       -0.120096   -0.617657   -1.939291
     12          1           0       -2.632691    1.989761   -0.229404
     13          1           0        3.297855    1.549836   -0.377817
 ---------------------------------------------------------------------

 SCF Done:  E(RHF) =  -306.752810592     A.U. after    2 cycles

 The electronic state is 1-A.
 Alpha  occ. eigenvalues --  -20.95492 -11.53273 -11.48662 -11.46130 -11.44173
 Alpha  occ. eigenvalues --  -11.39857 -11.39057  -1.65634  -1.23132  -1.15283
 Alpha  occ. eigenvalues --   -1.07225  -0.91754  -0.77614  -0.72587  -0.68206
 Alpha  occ. eigenvalues --   -0.66314  -0.65035  -0.56590  -0.52218  -0.45970
 Alpha  occ. eigenvalues --   -0.41910  -0.36386  -0.34641  -0.25905  -0.25187
 Alpha virt. eigenvalues --    0.02856   0.04122   0.05126   0.05742   0.06216
 Alpha virt. eigenvalues --    0.07680   0.07977   0.09369   0.09816   0.10702
 Alpha virt. eigenvalues --    0.11740   0.12680   0.13170   0.13273   0.13918

 Mulliken charges:
               1
     1  O   -2.733596
     2  C    0.265481
     3  C   -3.677028
     4  C    3.489498
     5  C   -4.195324
     6  C    4.560645
     7  C   -4.543505
     8  H    1.511028
     9  H    1.244015
    10  H    1.128424
    11  H    1.266288
    12  H    0.916640
    13  H    0.767432
 Sum of Mulliken charges =   0.00000

 Dipole moment (field-independent basis, Debye):
    X=             -1.7896    Y=              0.8684    Z=             -2.4044  Tot=              3.1205

 Test job not archived.
 1\1\GINC-SE070\SP\RHF\Aug-CC-pVDZ\C6H6O1\OHZDE\09-Apr-2025\0\\#t hf au
 g-cc-pvdz iop(5/13=1,5/36=2,99/5=2) pseudo=read geom=check guess=(read
 ,tcheck) scf=(maxcycle=1)\\title\\0,1\O,0,-0.54462727,-0.04591618,1.43
 674798\C,0,0.33966199,-0.77456487,0.65076725\C,0,-0.50961202,-0.988991
 25,-0.63195547\C,0,-1.30132942,0.23167215,-0.42698372\C,0,-1.77523662,
 1.3787762,-0.34418517\C,0,1.60843191,-0.08042319,0.3558621\C,0,2.62946
 751,0.49617091,0.10973483\H,0,-1.20537339,1.14554553,0.75011321\H,0,0.
 57812448,-1.74772809,1.09657021\H,0,-1.13732003,-1.87316972,-0.5238540

 Normal termination of Gaussian 16 at Wed Apr  9 03:52:41 2025.
