 Gaussian 16, Revision C.01,

 ----------------------------------------------------------------------
 #t hf aug-cc-pvdz symm=none int=(grid=ultrafine) guess=(read,tcheck) s
 table=(opt,rrhf)
 ----------------------------------------------------------------------
 -----
 title
 -----
 Symbolic Z-matrix:
 Charge =  0 Multiplicity = 1

 SCF Done:  E(RHF) =  -301.523792228     A.U. after   16 cycles
 Normal termination of Gaussian 16 at Wed Apr  9 03:46:32 2025.
 Gaussian 16:  ES64L-G16RevC.01  3-Jul-2019

 ----------------------------------------------------------------------
 #t hf aug-cc-pvdz iop(5/13=1,5/36=2,99/5=2) pseudo=read geom=check gue
 ss=(read,tcheck) scf=(maxcycle=1)
 ----------------------------------------------------------------------
 -----
 title
 -----
 Structure from the checkpoint file:  "Grambow2020_wb97xd3_007927_forward_mol1.chk"
 Charge =  0 Multiplicity = 1

                         Standard orientation:
 ---------------------------------------------------------------------
 Center     Atomic      Atomic             Coordinates (Angstroms)
 Number     Number       Type             X           Y           Z
 ---------------------------------------------------------------------
      1          6           0       -1.033537    0.720061    0.552186
      2          6           0       -1.832971   -0.450501   -0.001029
      3          6           0       -0.389167   -0.531286   -0.309133
      4          7           0        0.657147   -1.299476    0.031596
      5          6           0        1.639399   -0.428969    0.147555
      6          6           0        1.173686    0.911130   -0.014674
      7          7           0       -0.097494    0.807167   -0.683474
      8          1           0        0.447787    0.858075    1.123170
      9          1           0       -1.412636    1.650456    0.952348
     10          1           0       -2.200981   -1.173596    0.718697
     11          1           0       -2.510897   -0.262130   -0.834653
     12          1           0        2.611268   -0.726702    0.521174
     13          1           0        1.803426    1.777455   -0.167019
 ---------------------------------------------------------------------

 SCF Done:  E(RHF) =  -302.970796618     A.U. after    2 cycles

 The electronic state is 1-A.
 Alpha  occ. eigenvalues --  -15.74479 -15.74199 -11.52031 -11.48465 -11.47131
 Alpha  occ. eigenvalues --  -11.42202 -11.39950  -1.63526  -1.34034  -1.19281
 Alpha  occ. eigenvalues --   -1.01270  -0.89173  -0.84215  -0.78411  -0.70970
 Alpha  occ. eigenvalues --   -0.66283  -0.61540  -0.60534  -0.49798  -0.47579
 Alpha  occ. eigenvalues --   -0.46986  -0.42740  -0.40902  -0.36041  -0.29060
 Alpha virt. eigenvalues --    0.03949   0.05202   0.05409   0.05754   0.06572
 Alpha virt. eigenvalues --    0.07299   0.09569   0.09973   0.10103   0.10287
 Alpha virt. eigenvalues --    0.12067   0.12950   0.13278   0.13864   0.14758

 Mulliken charges:
               1
     1  C   -0.515369
     2  C   -3.620678
     3  C    4.149924
     4  N   -3.634654
     5  C    0.410506
     6  C   -1.835000
     7  N   -1.874620
     8  H    0.936951
     9  H    0.934322
    10  H    1.145252
    11  H    1.342777
    12  H    1.347713
    13  H    1.212875
 Sum of Mulliken charges =   0.00000

 Dipole moment (field-independent basis, Debye):
    X=              0.3022    Y=              1.1055    Z=              0.3372  Tot=              1.1947

 Test job not archived.
 1\1\GINC-SE073\SP\RHF\Aug-CC-pVDZ\C5H6N2\OHZDE\09-Apr-2025\0\\#t hf au
 g-cc-pvdz iop(5/13=1,5/36=2,99/5=2) pseudo=read geom=check guess=(read
 ,tcheck) scf=(maxcycle=1)\\title\\0,1\C,0,-1.13320766,-0.29720519,-0.0
 7728828\C,0,-1.40762478,1.14363138,0.32773366\C,0,0.02999032,0.7983222
 6,0.33470835\N,0,1.13088265,1.11698929,-0.36348461\C,0,1.76786665,-0.0
 3278504,-0.45469771\C,0,1.00001262,-1.10240609,0.09791862\N,0,0.017393
 97,-0.48214056,0.94864296\H,0,0.05896377,-1.00175419,-0.8657876\H,0,-1
 .84559446,-1.10519934,-0.17283852\H,0,-1.72463504,1.81967551,-0.458886

 Normal termination of Gaussian 16 at Wed Apr  9 03:46:36 2025.
