 Gaussian 16, Revision C.01,

 ----------------------------------------------------------------------
 #t hf aug-cc-pvdz symm=none int=(grid=ultrafine) guess=(read,tcheck) s
 table=(opt,rrhf)
 ----------------------------------------------------------------------
 -----
 title
 -----
 Symbolic Z-matrix:
 Charge =  0 Multiplicity = 1

 SCF Done:  E(RHF) =  -283.578955686     A.U. after   15 cycles
 Normal termination of Gaussian 16 at Wed Apr  9 17:43:17 2025.
 Gaussian 16:  ES64L-G16RevC.01  3-Jul-2019

 ----------------------------------------------------------------------
 #t hf aug-cc-pvdz iop(5/13=1,5/36=2,99/5=2) pseudo=read geom=check gue
 ss=(read,tcheck) scf=(maxcycle=1)
 ----------------------------------------------------------------------
 -----
 title
 -----
 Structure from the checkpoint file:  "Grambow2020_wb97xd3_006132_forward_mol1.chk"
 Charge =  0 Multiplicity = 1

                         Standard orientation:
 ---------------------------------------------------------------------
 Center     Atomic      Atomic             Coordinates (Angstroms)
 Number     Number       Type             X           Y           Z
 ---------------------------------------------------------------------
      1          7           0        1.848510    0.532905   -0.241308
      2          6           0        1.830216   -0.629129   -0.021832
      3          6           0        0.257463   -0.085048    0.478397
      4          6           0       -0.687049    1.026320    0.003108
      5          8           0       -1.744582    0.064022   -0.116676
      6          6           0       -0.793274   -1.008480   -0.129370
      7          1           0        0.345851   -0.142799    1.556639
      8          1           0       -0.415699    1.451501   -0.965162
      9          1           0       -0.910032    1.815846    0.720752
     10          1           0       -0.549349   -1.325425   -1.146893
     11          1           0       -1.097823   -1.863615    0.475416
 ---------------------------------------------------------------------

 SCF Done:  E(RHF) =  -284.863138475     A.U. after    2 cycles

 The electronic state is 1-A.
 Alpha  occ. eigenvalues --  -21.06193 -15.79574 -11.50309 -11.48390 -11.42777
 Alpha  occ. eigenvalues --  -11.41513  -1.80216  -1.40778  -1.11361  -1.02384
 Alpha  occ. eigenvalues --   -0.84176  -0.73146  -0.69508  -0.65076  -0.59579
 Alpha  occ. eigenvalues --   -0.55166  -0.53958  -0.48478  -0.46216  -0.42966
 Alpha  occ. eigenvalues --   -0.37864  -0.31700
 Alpha virt. eigenvalues --    0.03725   0.05081   0.05726   0.06328   0.06528
 Alpha virt. eigenvalues --    0.08719   0.09641   0.10441   0.10927   0.12770
 Alpha virt. eigenvalues --    0.13251   0.13970   0.14465   0.14942   0.15706

 Mulliken charges:
               1
     1  N   -1.038359
     2  C    0.083451
     3  C   -1.590940
     4  C   -1.004930
     5  O   -2.595983
     6  C   -0.827588
     7  H    1.312480
     8  H    1.370115
     9  H    1.447537
    10  H    1.415441
    11  H    1.428776
 Sum of Mulliken charges =  -0.00000

 Dipole moment (field-independent basis, Debye):
    X=             -1.8571    Y=              0.5978    Z=              0.6753  Tot=              2.0645

 Test job not archived.
 1\1\GINC-SE041\SP\RHF\Aug-CC-pVDZ\C4H5N1O1\OHZDE\09-Apr-2025\0\\#t hf
 aug-cc-pvdz iop(5/13=1,5/36=2,99/5=2) pseudo=read geom=check guess=(re
 ad,tcheck) scf=(maxcycle=1)\\title\\0,1\N,0,1.67508251,-1.03823273,0.7
 7841029\C,0,2.07789626,-0.30899729,-0.06110397\C,0,0.36263811,-0.35499
 712,-0.33601767\C,0,-0.85920058,-0.51957836,0.57676011\O,0,-1.43007076
 ,0.66949973,0.01200831\C,0,-0.14600893,1.07568037,-0.47953109\H,0,0.30
 83056,-0.95061767,-1.23936581\H,0,-0.63634338,-0.39624161,1.63840047\H
 ,0,-1.47343348,-1.40505456,0.41324835\H,0,0.34739407,1.77683316,0.1988

 Normal termination of Gaussian 16 at Wed Apr  9 17:43:20 2025.
