 Gaussian 16, Revision C.01,

 ----------------------------------------------------------------------
 #t hf aug-cc-pvdz symm=none int=(grid=ultrafine) guess=(read,tcheck) s
 table=(opt,rrhf)
 ----------------------------------------------------------------------
 -----
 title
 -----
 Symbolic Z-matrix:
 Charge =  0 Multiplicity = 1

 SCF Done:  E(RHF) =  -307.756621385     A.U. after   16 cycles

 1\1\GINC-SE029\Stability\RHF\Aug-CC-pVDZ\C6H10O1\OHZDE\09-Apr-2025\0\\
 #t hf aug-cc-pvdz symm=none int=(grid=ultrafine) guess=(read,tcheck) s
 table=(opt,rrhf)\\title\\0,1\O,0,2.10009998,-1.17347074,0.64764409\C,0
 ,1.05077327,-0.50081643,0.28451259\C,0,-0.17579553,-1.31650753,0.07317
 645\C,0,-1.4824645,-0.557964,0.25592836\C,0,-1.41545916,0.80158717,-0.
 43119418\C,0,-0.19508649,1.54543073,0.00388405\C,0,0.96468665,0.931069
 ,0.29776736\H,0,2.80216267,-0.620432,0.13583672\H,0,2.60015319,0.15542
 349,-1.10208434\H,0,-0.09932698,-2.21068392,0.69473613\H,0,-0.07118518

 Normal termination of Gaussian 16 at Wed Apr  9 19:13:15 2025.
 Gaussian 16:  ES64L-G16RevC.01  3-Jul-2019

 ----------------------------------------------------------------------
 #t hf aug-cc-pvdz iop(5/13=1,5/36=2,99/5=2) pseudo=read geom=check gue
 ss=(read,tcheck) scf=(maxcycle=1)
 ----------------------------------------------------------------------
 -----
 title
 -----
 Structure from the checkpoint file:  "Grambow2020_wb97xd3_008422_reverse_mol1.chk"
 Charge =  0 Multiplicity = 1

                         Standard orientation:
 ---------------------------------------------------------------------
 Center     Atomic      Atomic             Coordinates (Angstroms)
 Number     Number       Type             X           Y           Z
 ---------------------------------------------------------------------
      1          8           0       -2.276957   -0.246215   -0.151582
      2          6           0       -1.004715   -0.039211    0.003221
      3          6           0       -0.182381   -1.269986    0.156341
      4          6           0        1.271392   -1.119555   -0.268025
      5          6           0        1.854095    0.185655    0.262910
      6          6           0        0.974056    1.335977   -0.103419
      7          6           0       -0.364400    1.230874   -0.183232
      8          1           0       -2.614712    0.571929    0.374966
      9          1           0       -1.932315    1.266031    1.483012
     10          1           0       -0.701320   -2.088832   -0.345585
     11          1           0       -0.253158   -1.489483    1.230641
     12          1           0        1.331074   -1.116493   -1.359936
     13          1           0        1.848783   -1.975945    0.083352
     14          1           0        1.949725    0.137324    1.356544
     15          1           0        2.861419    0.342521   -0.126081
     16          1           0        1.430745    2.305370   -0.266512
     17          1           0       -0.992866    2.074775   -0.424517
 ---------------------------------------------------------------------

 SCF Done:  E(RHF) =  -309.240140086     A.U. after    2 cycles

 The electronic state is 1-A.
 Alpha  occ. eigenvalues --  -21.11399 -11.57490 -11.48141 -11.46035 -11.44281
 Alpha  occ. eigenvalues --  -11.42275 -11.39185  -1.80126  -1.34413  -1.14787
 Alpha  occ. eigenvalues --   -1.10893  -0.93010  -0.88858  -0.75605  -0.71744
 Alpha  occ. eigenvalues --   -0.65780  -0.65455  -0.61120  -0.59137  -0.56513
 Alpha  occ. eigenvalues --   -0.55737  -0.50147  -0.47329  -0.46246  -0.41272
 Alpha  occ. eigenvalues --   -0.36576  -0.25700
 Alpha virt. eigenvalues --    0.03106   0.04395   0.04554   0.04907   0.04977
 Alpha virt. eigenvalues --    0.05672   0.05705   0.06492   0.06893   0.08986
 Alpha virt. eigenvalues --    0.10204   0.11622   0.12328   0.12622   0.13123

 Mulliken charges:
               1
     1  O   -3.636019
     2  C    3.752306
     3  C   -3.694251
     4  C   -2.886277
     5  C   -3.730682
     6  C    0.381550
     7  C   -1.085697
     8  H    0.744523
     9  H   -0.778818
    10  H    1.307487
    11  H    1.399069
    12  H    1.395328
    13  H    1.253874
    14  H    1.350962
    15  H    1.190522
    16  H    1.358302
    17  H    1.677820
 Sum of Mulliken charges =  -0.00000

 Dipole moment (field-independent basis, Debye):
    X=              4.0761    Y=             -2.9539    Z=             -3.4895  Tot=              6.1251

 Test job not archived.
 1\1\GINC-SE029\SP\RHF\Aug-CC-pVDZ\C6H10O1\OHZDE\09-Apr-2025\0\\#t hf a
 ug-cc-pvdz iop(5/13=1,5/36=2,99/5=2) pseudo=read geom=check guess=(rea
 d,tcheck) scf=(maxcycle=1)\\title\\0,1\O,0,2.10009998,-1.17347074,0.64
 764409\C,0,1.05077327,-0.50081643,0.28451259\C,0,-0.17579553,-1.316507
 53,0.07317645\C,0,-1.4824645,-0.557964,0.25592836\C,0,-1.41545916,0.80
 158717,-0.43119418\C,0,-0.19508649,1.54543073,0.00388405\C,0,0.9646866
 5,0.931069,0.29776736\H,0,2.80216267,-0.620432,0.13583672\H,0,2.600153
 19,0.15542349,-1.10208434\H,0,-0.09932698,-2.21068392,0.69473613\H,0,-

 Normal termination of Gaussian 16 at Wed Apr  9 19:13:21 2025.
