 Gaussian 16, Revision C.01,

 ----------------------------------------------------------------------
 #t hf aug-cc-pvdz symm=none int=(grid=ultrafine) guess=(read,tcheck) s
 table=(opt,rrhf)
 ----------------------------------------------------------------------
 -----
 title
 -----
 Symbolic Z-matrix:
 Charge =  0 Multiplicity = 1

 SCF Done:  E(RHF) =  -268.806904681     A.U. after   13 cycles
 Normal termination of Gaussian 16 at Wed Apr  9 03:21:03 2025.
 Gaussian 16:  ES64L-G16RevC.01  3-Jul-2019

 ----------------------------------------------------------------------
 #t hf aug-cc-pvdz iop(5/13=1,5/36=2,99/5=2) pseudo=read geom=check gue
 ss=(read,tcheck) scf=(maxcycle=1)
 ----------------------------------------------------------------------
 -----
 title
 -----
 Structure from the checkpoint file:  "Grambow2020_wb97xd3_006052_reverse_mol2.chk"
 Charge =  0 Multiplicity = 1

                         Standard orientation:
 ---------------------------------------------------------------------
 Center     Atomic      Atomic             Coordinates (Angstroms)
 Number     Number       Type             X           Y           Z
 ---------------------------------------------------------------------
      1          6           0       -2.435734   -0.519048   -0.126038
      2          8           0       -1.531716    0.476592   -0.527336
      3          6           0       -0.497903    0.720442    0.397695
      4          6           0        0.528819   -0.383623    0.465976
      5          6           0        1.758154   -0.225735    0.072345
      6          6           0        2.983855   -0.043937   -0.319971
      7          1           0       -2.864134   -0.295113    0.860361
      8          1           0       -3.238495   -0.541205   -0.861822
      9          1           0       -1.972668   -1.512572   -0.089385
     10          1           0       -0.016112    1.644825    0.080456
     11          1           0       -0.927203    0.882442    1.397589
     12          1           0        3.744381    0.311590    0.365284
     13          1           0        3.275307   -0.245169   -1.344123
     14          1           0        0.229513   -1.346134    0.870297
 ---------------------------------------------------------------------

 SCF Done:  E(RHF) =  -270.073268165     A.U. after    2 cycles

 The electronic state is 1-A.
 Alpha  occ. eigenvalues --  -21.04362 -11.45249 -11.42702 -11.41325 -11.39906
 Alpha  occ. eigenvalues --  -11.38551  -1.75537  -1.21115  -1.06858  -0.98773
 Alpha  occ. eigenvalues --   -0.88440  -0.73004  -0.66079  -0.62765  -0.60693
 Alpha  occ. eigenvalues --   -0.59282  -0.57761  -0.55380  -0.49670  -0.40236
 Alpha  occ. eigenvalues --   -0.36260  -0.34178  -0.29040
 Alpha virt. eigenvalues --    0.03376   0.05206   0.05451   0.05647   0.06349
 Alpha virt. eigenvalues --    0.06706   0.06968   0.07584   0.10386   0.10661
 Alpha virt. eigenvalues --    0.11916   0.12192   0.12824   0.13655   0.14686

 Mulliken charges:
               1
     1  C   -2.853323
     2  O   -2.739908
     3  C   -2.080032
     4  C   -1.073290
     5  C    2.588357
     6  C   -4.395699
     7  H    1.375184
     8  H    1.234273
     9  H    1.405099
    10  H    1.300553
    11  H    1.356393
    12  H    1.261614
    13  H    1.299299
    14  H    1.321480
 Sum of Mulliken charges =   0.00000

 Dipole moment (field-independent basis, Debye):
    X=             -0.1560    Y=             -0.1602    Z=              0.3398  Tot=              0.4068

 Test job not archived.
 1\1\GINC-SE051\SP\RHF\Aug-CC-pVDZ\C5H8O1\OHZDE\09-Apr-2025\0\\#t hf au
 g-cc-pvdz iop(5/13=1,5/36=2,99/5=2) pseudo=read geom=check guess=(read
 ,tcheck) scf=(maxcycle=1)\\title\\0,1\C,0,-2.37092124,-0.17674247,0.13
 431813\O,0,-1.35153962,-0.994741,-0.37688301\C,0,-0.39870069,-0.307356
 31,-1.15374503\C,0,0.52050688,0.57590254,-0.34585202\C,0,1.79189718,0.
 3353289,-0.21612431\C,0,3.06154504,0.0801828,-0.10566362\H,0,-2.875656
 34,0.37983816,-0.66700454\H,0,-3.09513071,-0.82948834,0.61984479\H,0,-
 1.99820679,0.53916478,0.87689816\H,0,0.1877046,-1.07104818,-1.66379376

 Normal termination of Gaussian 16 at Wed Apr  9 03:21:07 2025.
