 Gaussian 16, Revision C.01,

 ----------------------------------------------------------------------
 #t hf aug-cc-pvdz symm=none int=(grid=ultrafine) guess=(read,tcheck) s
 table=(opt,rrhf)
 ----------------------------------------------------------------------
 -----
 title
 -----
 Symbolic Z-matrix:
 Charge =  0 Multiplicity = 1

 SCF Done:  E(RHF) =  -360.826441505     A.U. after   15 cycles
 Normal termination of Gaussian 16 at Wed Apr  9 18:08:51 2025.
 Gaussian 16:  ES64L-G16RevC.01  3-Jul-2019

 ----------------------------------------------------------------------
 #t hf aug-cc-pvdz iop(5/13=1,5/36=2,99/5=2) pseudo=read geom=check gue
 ss=(read,tcheck) scf=(maxcycle=1)
 ----------------------------------------------------------------------
 -----
 title
 -----
 Structure from the checkpoint file:  "Grambow2020_wb97xd3_006614_reverse_mol2.chk"
 Charge =  0 Multiplicity = 1

                         Standard orientation:
 ---------------------------------------------------------------------
 Center     Atomic      Atomic             Coordinates (Angstroms)
 Number     Number       Type             X           Y           Z
 ---------------------------------------------------------------------
      1          6           0       -2.533432   -0.240617    0.002258
      2          6           0       -1.118672   -0.134165   -0.507805
      3          8           0       -0.713930    1.416474    0.057439
      4          6           0       -0.227030   -0.976800    0.360325
      5          7           0        1.156427   -1.133683   -0.110896
      6          6           0        2.030110   -0.139035   -0.152733
      7          8           0        1.802265    1.019625    0.200203
      8          1           0       -2.920048   -1.213873   -0.314230
      9          1           0       -3.182582    0.507885   -0.455983
     10          1           0       -2.650988   -0.166811    1.097178
     11          1           0       -0.865313    1.939025   -0.735304
     12          1           0        0.292162    1.374008    0.178352
     13          1           0       -0.175460   -0.644472    1.411150
     14          1           0       -0.660821   -1.977843    0.371178
     15          1           0        1.431067   -2.007120   -0.523903
     16          1           0        3.024463   -0.420113   -0.525574
 ---------------------------------------------------------------------

 SCF Done:  E(RHF) =  -362.476699019     A.U. after    2 cycles

 The electronic state is 1-A.
 Alpha  occ. eigenvalues --  -21.11766 -21.04758 -15.78242 -11.50222 -11.43114
 Alpha  occ. eigenvalues --  -11.37814 -11.33780  -1.76210  -1.71715  -1.41371
 Alpha  occ. eigenvalues --   -1.14070  -1.00663  -0.85547  -0.76253  -0.75713
 Alpha  occ. eigenvalues --   -0.69454  -0.62788  -0.60669  -0.56008  -0.54226
 Alpha  occ. eigenvalues --   -0.53080  -0.51202  -0.47389  -0.44992  -0.42648
 Alpha  occ. eigenvalues --   -0.32821  -0.30511  -0.25532
 Alpha virt. eigenvalues --    0.03479   0.04901   0.05389   0.06178   0.06447
 Alpha virt. eigenvalues --    0.06829   0.07240   0.07700   0.09238   0.10232
 Alpha virt. eigenvalues --    0.11378   0.12408   0.13526   0.14012   0.15118

 Mulliken charges:
               1
     1  C   -3.571267
     2  C   -0.052340
     3  O   -2.365740
     4  C   -2.265414
     5  N   -2.316857
     6  C    2.128335
     7  O   -3.111391
     8  H    1.285701
     9  H    1.270766
    10  H    1.260357
    11  H    0.765010
    12  H    1.669848
    13  H    1.457589
    14  H    1.489290
    15  H    0.610714
    16  H    1.745398
 Sum of Mulliken charges =   0.00000

 Dipole moment (field-independent basis, Debye):
    X=              1.3304    Y=             -0.3807    Z=              0.6264  Tot=              1.5189

 Test job not archived.
 1\1\GINC-SE030\SP\RHF\Aug-CC-pVDZ\C4H9N1O2\OHZDE\09-Apr-2025\0\\#t hf
 aug-cc-pvdz iop(5/13=1,5/36=2,99/5=2) pseudo=read geom=check guess=(re
 ad,tcheck) scf=(maxcycle=1)\\title\\0,1\C,0,-1.99382766,-0.90374086,-0
 .22535167\C,0,-0.53456134,-0.61449042,-0.47013558\O,0,-0.65281924,0.91
 237532,-1.20667787\C,0,0.10823612,-0.23367237,0.8338958\N,0,1.57182871
 ,-0.10027965,0.80711002\C,0,2.20534458,0.85457416,0.1427997\O,0,1.6592
 722,1.74121009,-0.51648016\H,0,-2.05462448,-1.88903485,0.24620329\H,0,
 -2.55031735,-0.9799328,-1.16137972\H,0,-2.51926408,-0.18217182,0.42377

 Normal termination of Gaussian 16 at Wed Apr  9 18:08:57 2025.
