 Gaussian 16, Revision C.01,

 ----------------------------------------------------------------------
 #t hf aug-cc-pvdz symm=none int=(grid=ultrafine) guess=(read,tcheck) s
 table=(opt,rrhf)
 ----------------------------------------------------------------------
 -----
 title
 -----
 Symbolic Z-matrix:
 Charge =  0 Multiplicity = 1

 SCF Done:  E(RHF) =  -353.434982253     A.U. after   18 cycles
 Normal termination of Gaussian 16 at Wed Apr  9 18:57:27 2025.
 Gaussian 16:  ES64L-G16RevC.01  3-Jul-2019

 ----------------------------------------------------------------------
 #t hf aug-cc-pvdz iop(5/13=1,5/36=2,99/5=2) pseudo=read geom=check gue
 ss=(read,tcheck) scf=(maxcycle=1)
 ----------------------------------------------------------------------
 -----
 title
 -----
 Structure from the checkpoint file:  "Grambow2020_wb97xd3_007948_reverse_mol2.chk"
 Charge =  0 Multiplicity = 1

                         Standard orientation:
 ---------------------------------------------------------------------
 Center     Atomic      Atomic             Coordinates (Angstroms)
 Number     Number       Type             X           Y           Z
 ---------------------------------------------------------------------
      1          8           0       -1.650209   -1.364796   -0.015093
      2          6           0       -0.675466   -0.420509    0.015891
      3          6           0        0.653587   -0.988760    0.021400
      4          7           0        1.688252   -0.206012   -0.005901
      5          7           0        2.571478    0.486470   -0.019097
      6          6           0       -1.165038    2.019183   -0.190330
      7          7           0       -0.932362    0.811644    0.075589
      8          1           0       -2.500718   -0.927554   -0.114001
      9          1           0        0.831930   -2.050222    0.051938
     10          1           0       -1.299619    2.591941    0.746903
 ---------------------------------------------------------------------

 SCF Done:  E(RHF) =  -354.974869988     A.U. after    2 cycles

 The electronic state is 1-A.
 Alpha  occ. eigenvalues --  -21.13188 -15.95095 -15.87931 -15.78740 -11.54192
 Alpha  occ. eigenvalues --  -11.44536 -11.40452  -1.80030  -1.63792  -1.41403
 Alpha  occ. eigenvalues --   -1.21782  -1.01987  -0.86370  -0.73544  -0.69461
 Alpha  occ. eigenvalues --   -0.67476  -0.65129  -0.63174  -0.58536  -0.56939
 Alpha  occ. eigenvalues --   -0.51217  -0.44082  -0.42254  -0.34905  -0.25245
 Alpha virt. eigenvalues --    0.03312   0.05108   0.06024   0.08958   0.09272
 Alpha virt. eigenvalues --    0.09717   0.10638   0.10657   0.11991   0.12329
 Alpha virt. eigenvalues --    0.12777   0.13396   0.15166   0.15252   0.15839

 Mulliken charges:
               1
     1  O   -3.290136
     2  C    5.095739
     3  C   -0.414434
     4  N    0.428881
     5  N   -1.681059
     6  C   -1.526237
     7  N   -2.610559
     8  H    0.963266
     9  H    1.471459
    10  H    1.563081
 Sum of Mulliken charges =  -0.00000

 Dipole moment (field-independent basis, Debye):
    X=              0.2926    Y=             -3.4254    Z=              1.4797  Tot=              3.7428

 Test job not archived.
 1\1\GINC-SE173\SP\RHF\Aug-CC-pVDZ\C3H3N3O1\OHZDE\09-Apr-2025\0\\#t hf
 aug-cc-pvdz iop(5/13=1,5/36=2,99/5=2) pseudo=read geom=check guess=(re
 ad,tcheck) scf=(maxcycle=1)\\title\\0,1\O,0,1.90689313,-0.3364135,-0.0
 1450071\C,0,0.57175877,-0.09166873,0.00222585\C,0,0.26264183,1.3154982
 ,0.11905844\N,0,-0.97427377,1.7070288,0.0923154\N,0,-2.05019085,2.0263
 8204,0.07784452\C,0,-1.12424945,-1.87915818,-0.40118751\N,0,-0.2835023
 5,-1.01611613,-0.03882742\H,0,2.04731113,-1.27129411,-0.18945412\H,0,1
 .02221202,2.07004097,0.23376264\H,0,-1.53686246,-2.39809737,0.48482791

 Normal termination of Gaussian 16 at Wed Apr  9 18:57:31 2025.
