 Gaussian 16, Revision C.01,

 ----------------------------------------------------------------------
 #t hf aug-cc-pvdz symm=none int=(grid=ultrafine) guess=(read,tcheck) s
 table=(opt,rrhf)
 ----------------------------------------------------------------------
 -----
 title
 -----
 Symbolic Z-matrix:
 Charge =  0 Multiplicity = 1

 SCF Done:  E(RHF) =  -338.779820998     A.U. after   14 cycles
 Normal termination of Gaussian 16 at Wed Apr  9 19:17:54 2025.
 Gaussian 16:  ES64L-G16RevC.01  3-Jul-2019

 ----------------------------------------------------------------------
 #t hf aug-cc-pvdz iop(5/13=1,5/36=2,99/5=2) pseudo=read geom=check gue
 ss=(read,tcheck) scf=(maxcycle=1)
 ----------------------------------------------------------------------
 -----
 title
 -----
 Structure from the checkpoint file:  "Grambow2020_wb97xd3_008559_reverse_mol2.chk"
 Charge =  0 Multiplicity = 1

                         Standard orientation:
 ---------------------------------------------------------------------
 Center     Atomic      Atomic             Coordinates (Angstroms)
 Number     Number       Type             X           Y           Z
 ---------------------------------------------------------------------
      1          7           0       -1.337413    0.913638    0.031616
      2          6           0       -2.242223   -0.091527    0.095954
      3          8           0       -2.007362   -1.236981   -0.210050
      4          6           0        0.008763    0.694114   -0.445639
      5          6           0        0.869682   -0.039881    0.591895
      6          6           0        2.244348   -0.193488    0.127794
      7          7           0        3.320024   -0.290587   -0.258091
      8          1           0       -1.619762    1.833349    0.317632
      9          1           0       -3.229086    0.241629    0.461041
     10          1           0        0.451168    1.659845   -0.688467
     11          1           0       -0.029949    0.101768   -1.361034
     12          1           0        0.880235    0.509487    1.535546
     13          1           0        0.444597   -1.026895    0.780984
 ---------------------------------------------------------------------

 SCF Done:  E(RHF) =  -340.301922270     A.U. after    2 cycles

 The electronic state is 1-A.
 Alpha  occ. eigenvalues --  -21.04782 -15.79038 -15.75918 -11.49971 -11.48359
 Alpha  occ. eigenvalues --  -11.44672 -11.41607  -1.72462  -1.43314  -1.31689
 Alpha  occ. eigenvalues --   -1.17080  -0.98733  -0.83809  -0.77063  -0.71667
 Alpha  occ. eigenvalues --   -0.66142  -0.61490  -0.59789  -0.55325  -0.52644
 Alpha  occ. eigenvalues --   -0.50950  -0.50456  -0.43618  -0.43336  -0.33332
 Alpha  occ. eigenvalues --   -0.31451
 Alpha virt. eigenvalues --    0.02588   0.04419   0.04635   0.05587   0.06842
 Alpha virt. eigenvalues --    0.07525   0.09431   0.10092   0.10278   0.12008
 Alpha virt. eigenvalues --    0.12044   0.12881   0.13891   0.14580   0.15127

 Mulliken charges:
               1
     1  N   -2.275257
     2  C    1.940547
     3  O   -2.673998
     4  C   -2.226452
     5  C   -2.834037
     6  C    2.184982
     7  N   -2.435009
     8  H    0.631555
     9  H    1.587809
    10  H    1.435127
    11  H    1.555783
    12  H    1.577219
    13  H    1.531731
 Sum of Mulliken charges =   0.00000

 Dipole moment (field-independent basis, Debye):
    X=             -3.1799    Y=              2.7664    Z=              1.2564  Tot=              4.3981

 Test job not archived.
 1\1\GINC-SE162\SP\RHF\Aug-CC-pVDZ\C4H6N2O1\OHZDE\09-Apr-2025\0\\#t hf
 aug-cc-pvdz iop(5/13=1,5/36=2,99/5=2) pseudo=read geom=check guess=(re
 ad,tcheck) scf=(maxcycle=1)\\title\\0,1\N,0,-1.32563744,0.18752686,0.0
 2795022\C,0,-1.64429648,-0.35557669,1.22656398\O,0,-0.95999814,-1.1637
 7669,1.80915355\C,0,-0.12241405,-0.18665438,-0.67943569\C,0,1.1296664,
 0.43384404,-0.04407489\C,0,2.32953581,0.10688752,-0.80703374\N,0,3.254
 26209,-0.15700819,-1.43205545\H,0,-1.95075572,0.86098638,-0.37587407\H
 ,0,-2.60318869,0.01757756,1.62588935\H,0,-0.21769754,0.13316157,-1.716

 Normal termination of Gaussian 16 at Wed Apr  9 19:17:58 2025.
