 Gaussian 16, Revision C.01,

 ----------------------------------------------------------------------
 #t hf aug-cc-pvdz symm=none int=(grid=ultrafine) guess=(read,tcheck) s
 table=(opt,rrhf)
 ----------------------------------------------------------------------
 -----
 title
 -----
 Symbolic Z-matrix:
 Charge =  0 Multiplicity = 1

 SCF Done:  E(RHF) =  -343.488170193     A.U. after   14 cycles
 Normal termination of Gaussian 16 at Wed Apr  9 19:31:14 2025.
 Gaussian 16:  ES64L-G16RevC.01  3-Jul-2019

 ----------------------------------------------------------------------
 #t hf aug-cc-pvdz iop(5/13=1,5/36=2,99/5=2) pseudo=read geom=check gue
 ss=(read,tcheck) scf=(maxcycle=1)
 ----------------------------------------------------------------------
 -----
 title
 -----
 Structure from the checkpoint file:  "Grambow2020_wb97xd3_009109_forward_mol1.chk"
 Charge =  0 Multiplicity = 1

                         Standard orientation:
 ---------------------------------------------------------------------
 Center     Atomic      Atomic             Coordinates (Angstroms)
 Number     Number       Type             X           Y           Z
 ---------------------------------------------------------------------
      1          6           0       -1.873409   -0.084456   -0.398234
      2          6           0       -0.853872   -0.703212    0.506594
      3          8           0        0.222795   -1.365559   -0.116776
      4          6           0        1.384898   -0.680926   -0.151478
      5          6           0        1.358372    0.726744    0.095832
      6          8           0        0.162911    1.315100   -0.402270
      7          6           0       -0.901228    0.787344    0.331225
      8          1           0       -1.706498   -0.200288   -1.460733
      9          1           0       -2.905593   -0.091700   -0.075723
     10          1           0       -1.156684   -1.168941    1.435729
     11          1           0        2.058797   -1.165773   -0.838839
     12          1           0        2.874242   -0.311445    0.510520
     13          1           0        1.545394    1.105597    1.096358
     14          1           0        2.763184    0.557318    0.026618
     15          1           0       -1.247068    1.405937    1.154807
 ---------------------------------------------------------------------

 SCF Done:  E(RHF) =  -345.071131836     A.U. after    2 cycles

 The electronic state is 1-A.
 Alpha  occ. eigenvalues --  -21.10025 -21.05638 -11.50326 -11.47547 -11.45918
 Alpha  occ. eigenvalues --  -11.42898 -11.38885  -1.85172  -1.74426  -1.27690
 Alpha  occ. eigenvalues --   -1.11162  -0.92260  -0.87599  -0.76984  -0.74905
 Alpha  occ. eigenvalues --   -0.71436  -0.64461  -0.60225  -0.57258  -0.52652
 Alpha  occ. eigenvalues --   -0.48131  -0.46258  -0.44390  -0.43245  -0.33058
 Alpha  occ. eigenvalues --   -0.30887  -0.27823
 Alpha virt. eigenvalues --    0.03816   0.04774   0.04982   0.05274   0.06094
 Alpha virt. eigenvalues --    0.06503   0.07473   0.08714   0.09332   0.10319
 Alpha virt. eigenvalues --    0.11112   0.12543   0.13000   0.13750   0.14667

 Mulliken charges:
               1
     1  C   -3.168715
     2  C    1.014223
     3  O   -3.830706
     4  C    0.501145
     5  C   -0.936669
     6  O   -3.652301
     7  C    1.098604
     8  H    1.273807
     9  H    1.342366
    10  H    1.428004
    11  H    1.438949
    12  H    0.138974
    13  H    1.613420
    14  H    0.384740
    15  H    1.354159
 Sum of Mulliken charges =  -0.00000

 Dipole moment (field-independent basis, Debye):
    X=             -2.6435    Y=             -0.8283    Z=              0.1285  Tot=              2.7732

 Test job not archived.
 1\1\GINC-SE207\SP\RHF\Aug-CC-pVDZ\C5H8O2\OHZDE\09-Apr-2025\0\\#t hf au
 g-cc-pvdz iop(5/13=1,5/36=2,99/5=2) pseudo=read geom=check guess=(read
 ,tcheck) scf=(maxcycle=1)\\title\\0,1\C,0,-1.84181787,-0.13757607,0.89
 6598\C,0,-1.18401949,0.10709146,-0.42569871\O,0,-0.36047799,1.24711564
 ,-0.51859798\C,0,0.96660158,1.01245795,-0.45374808\C,0,1.41558672,-0.2
 4928386,0.04607271\O,0,0.54904598,-0.73898321,1.06228963\C,0,-0.690006
 84,-0.99156111,0.47077711\H,0,-1.63800895,0.58459967,1.67576658\H,0,-2
 .83389406,-0.56798589,0.89520376\H,0,-1.70766807,-0.1131759,-1.3472010

 Normal termination of Gaussian 16 at Wed Apr  9 19:31:19 2025.
