 Gaussian 16, Revision C.01,

 ----------------------------------------------------------------------
 #t hf aug-cc-pvdz symm=none int=(grid=ultrafine) guess=(read,tcheck) s
 table=(opt,rrhf)
 ----------------------------------------------------------------------
 -----
 title
 -----
 Symbolic Z-matrix:
 Charge =  0 Multiplicity = 1

 SCF Done:  E(RHF) =  -343.576189370     A.U. after   16 cycles
 Normal termination of Gaussian 16 at Wed Apr  9 18:31:31 2025.
 Gaussian 16:  ES64L-G16RevC.01  3-Jul-2019

 ----------------------------------------------------------------------
 #t hf aug-cc-pvdz iop(5/13=1,5/36=2,99/5=2) pseudo=read geom=check gue
 ss=(read,tcheck) scf=(maxcycle=1)
 ----------------------------------------------------------------------
 -----
 title
 -----
 Structure from the checkpoint file:  "Grambow2020_wb97xd3_007212_forward_mol1.chk"
 Charge =  0 Multiplicity = 1

                         Standard orientation:
 ---------------------------------------------------------------------
 Center     Atomic      Atomic             Coordinates (Angstroms)
 Number     Number       Type             X           Y           Z
 ---------------------------------------------------------------------
      1          8           0       -2.864174   -0.077864   -0.223192
      2          6           0       -1.640885   -0.586870    0.293050
      3          6           0       -0.489420    0.127130   -0.317158
      4          6           0        0.301600    1.111611    0.421794
      5          6           0        1.519058    1.581486   -0.100061
      6          6           0        1.710523   -0.757735   -0.414604
      7          8           0        2.291337   -1.531094    0.184540
      8          1           0       -3.578016   -0.663126    0.037931
      9          1           0       -1.538703   -1.653168    0.052739
     10          1           0       -1.604691   -0.489535    1.385306
     11          1           0       -0.508719    0.236305   -1.395754
     12          1           0       -0.642513    1.693688    0.056396
     13          1           0        0.225843    1.030373    1.504474
     14          1           0        2.200980    2.130284    0.536172
     15          1           0        1.623259    1.733115   -1.166173
 ---------------------------------------------------------------------

 SCF Done:  E(RHF) =  -345.152567416     A.U. after    2 cycles

 The electronic state is 1-A.
 Alpha  occ. eigenvalues --  -21.12365 -21.08658 -11.48927 -11.47295 -11.45275
 Alpha  occ. eigenvalues --  -11.41514 -11.36540  -1.76151  -1.72794  -1.26966
 Alpha  occ. eigenvalues --   -1.05921  -0.91333  -0.81474  -0.71274  -0.66207
 Alpha  occ. eigenvalues --   -0.65404  -0.62982  -0.59274  -0.56210  -0.50881
 Alpha  occ. eigenvalues --   -0.49847  -0.49515  -0.47929  -0.43794  -0.41585
 Alpha  occ. eigenvalues --   -0.34045  -0.22688
 Alpha virt. eigenvalues --    0.03722   0.04857   0.05329   0.05951   0.06102
 Alpha virt. eigenvalues --    0.06405   0.06657   0.08349   0.08760   0.10183
 Alpha virt. eigenvalues --    0.10994   0.12446   0.12963   0.14123   0.14525

 Mulliken charges:
               1
     1  O   -2.599921
     2  C   -1.215273
     3  C   -1.105095
     4  C   -1.972500
     5  C   -3.512932
     6  C    2.019497
     7  O   -2.087077
     8  H    0.773217
     9  H    1.337802
    10  H    1.365721
    11  H    1.500924
    12  H    1.587695
    13  H    1.358988
    14  H    1.211562
    15  H    1.337391
 Sum of Mulliken charges =  -0.00000

 Dipole moment (field-independent basis, Debye):
    X=             -1.8023    Y=             -1.4225    Z=              1.1092  Tot=              2.5500

 Test job not archived.
 1\1\GINC-SE131\SP\RHF\Aug-CC-pVDZ\C5H8O2\OHZDE\09-Apr-2025\0\\#t hf au
 g-cc-pvdz iop(5/13=1,5/36=2,99/5=2) pseudo=read geom=check guess=(read
 ,tcheck) scf=(maxcycle=1)\\title\\0,1\O,0,2.52445914,0.58860003,0.6461
 8918\C,0,1.6639791,-0.29120996,-0.06622704\C,0,0.24804028,-0.03837585,
 0.30688457\C,0,-0.6884152,0.63976545,-0.5898543\C,0,-2.06541121,0.6439
 4437,-0.30845985\C,0,-1.49267514,-1.62817373,0.03360328\O,0,-1.6551346
 1,-2.53236507,-0.63755127\H,0,3.43048581,0.29387821,0.53419335\H,0,1.8
 940457,-1.33546282,0.18234354\H,0,1.7916722,-0.17375566,-1.14960445\H,

 Normal termination of Gaussian 16 at Wed Apr  9 18:31:35 2025.
