 Gaussian 16, Revision C.01,

 ----------------------------------------------------------------------
 #t hf aug-cc-pvdz symm=none int=(grid=ultrafine) guess=(read,tcheck) s
 table=(opt,rrhf)
 ----------------------------------------------------------------------
 -----
 title
 -----
 Symbolic Z-matrix:
 Charge =  0 Multiplicity = 1

 SCF Done:  E(RHF) =  -343.608208462     A.U. after   15 cycles
 Normal termination of Gaussian 16 at Wed Apr  9 03:45:35 2025.
 Gaussian 16:  ES64L-G16RevC.01  3-Jul-2019

 ----------------------------------------------------------------------
 #t hf aug-cc-pvdz iop(5/13=1,5/36=2,99/5=2) pseudo=read geom=check gue
 ss=(read,tcheck) scf=(maxcycle=1)
 ----------------------------------------------------------------------
 -----
 title
 -----
 Structure from the checkpoint file:  "Grambow2020_wb97xd3_007810_forward_mol1.chk"
 Charge =  0 Multiplicity = 1

                         Standard orientation:
 ---------------------------------------------------------------------
 Center     Atomic      Atomic             Coordinates (Angstroms)
 Number     Number       Type             X           Y           Z
 ---------------------------------------------------------------------
      1          6           0       -1.944650   -0.875219   -0.383351
      2          6           0       -0.621950    0.126225   -0.087309
      3          6           0       -1.143085    1.498230    0.316289
      4          6           0       -0.327275   -0.777530    0.985635
      5          6           0        1.775352   -0.053093    0.298608
      6          8           0        2.842441   -0.034019   -0.084743
      7          8           0        0.244392    0.091453   -1.061260
      8          1           0       -1.613748   -1.779998   -0.883664
      9          1           0       -2.624159   -1.093350    0.439459
     10          1           0       -2.467363   -0.237554   -1.093535
     11          1           0       -0.309079    2.071394    0.726582
     12          1           0       -1.502857    2.016573   -0.572277
     13          1           0       -1.944432    1.457669    1.058157
     14          1           0       -0.749528   -0.661665    1.981170
     15          1           0        0.086142   -1.744215    0.732897
 ---------------------------------------------------------------------

 SCF Done:  E(RHF) =  -345.197467590     A.U. after    2 cycles

 The electronic state is 1-A.
 Alpha  occ. eigenvalues --  -21.12367 -20.96412 -11.51726 -11.48328 -11.45797
 Alpha  occ. eigenvalues --  -11.41699 -11.38214  -1.76320  -1.65295  -1.22401
 Alpha  occ. eigenvalues --   -1.04532  -1.00403  -0.79857  -0.72129  -0.68600
 Alpha  occ. eigenvalues --   -0.63548  -0.60521  -0.58776  -0.57322  -0.52551
 Alpha  occ. eigenvalues --   -0.50963  -0.50182  -0.48920  -0.42492  -0.39767
 Alpha  occ. eigenvalues --   -0.25747  -0.23928
 Alpha virt. eigenvalues --    0.02725   0.04146   0.04606   0.05024   0.05649
 Alpha virt. eigenvalues --    0.05690   0.07165   0.07582   0.08603   0.10362
 Alpha virt. eigenvalues --    0.11372   0.13144   0.13734   0.13923   0.14089

 Mulliken charges:
               1
     1  C   -4.290448
     2  C    5.488143
     3  C   -4.033360
     4  C   -3.207218
     5  C    1.544654
     6  O   -2.004354
     7  O   -3.435499
     8  H    1.117724
     9  H    1.210931
    10  H    1.055342
    11  H    1.224067
    12  H    1.211765
    13  H    1.201130
    14  H    1.444669
    15  H    1.472452
 Sum of Mulliken charges =   0.00000

 Dipole moment (field-independent basis, Debye):
    X=             -1.6728    Y=             -1.2754    Z=              1.7455  Tot=              2.7334

 Test job not archived.
 1\1\GINC-SE029\SP\RHF\Aug-CC-pVDZ\C5H8O2\OHZDE\09-Apr-2025\0\\#t hf au
 g-cc-pvdz iop(5/13=1,5/36=2,99/5=2) pseudo=read geom=check guess=(read
 ,tcheck) scf=(maxcycle=1)\\title\\0,1\C,0,-0.94788012,1.18797663,-0.58
 490873\C,0,0.03015025,0.10690949,0.26055951\C,0,-0.86723568,-0.9194626
 ,0.93741075\C,0,0.54223828,-0.25507046,-1.02845282\C,0,2.37026392,-0.5
 5453789,0.38097822\O,0,3.39738367,-0.47313063,0.85468574\O,0,0.8943026
 8,0.72126345,1.01960368\H,0,-0.36266067,2.05051378,-0.88819302\H,0,-1.
 55771733,0.8052325,-1.40218274\H,0,-1.61218939,1.467858,0.23030076\H,0

 Normal termination of Gaussian 16 at Wed Apr  9 03:45:40 2025.
