 Gaussian 16, Revision C.01,

 ----------------------------------------------------------------------
 #t hf aug-cc-pvdz symm=none int=(grid=ultrafine) guess=(read,tcheck) s
 table=(opt,rrhf)
 ----------------------------------------------------------------------
 -----
 title
 -----
 Symbolic Z-matrix:
 Charge =  0 Multiplicity = 1

 SCF Done:  E(RHF) =  -354.808409334     A.U. after   14 cycles
 Normal termination of Gaussian 16 at Wed Apr  9 03:40:15 2025.
 Gaussian 16:  ES64L-G16RevC.01  3-Jul-2019

 ----------------------------------------------------------------------
 #t hf aug-cc-pvdz iop(5/13=1,5/36=2,99/5=2) pseudo=read geom=check gue
 ss=(read,tcheck) scf=(maxcycle=1)
 ----------------------------------------------------------------------
 -----
 title
 -----
 Structure from the checkpoint file:  "Grambow2020_wb97xd3_007474_reverse_mol2.chk"
 Charge =  0 Multiplicity = 1

                         Standard orientation:
 ---------------------------------------------------------------------
 Center     Atomic      Atomic             Coordinates (Angstroms)
 Number     Number       Type             X           Y           Z
 ---------------------------------------------------------------------
      1          7           0        2.372370   -0.489873   -0.005841
      2          6           0        1.152125   -0.169664    0.002647
      3          6           0        0.662948    1.267257    0.019270
      4          7           0       -0.771168    1.108762   -0.045317
      5          6           0       -1.167458   -0.194381   -0.006166
      6          8           0       -2.286394   -0.637674    0.011683
      7          7           0        0.011069   -0.945677    0.004146
      8          1           0        2.510450   -1.496566   -0.012519
      9          1           0        0.996391    1.757326    0.937043
     10          1           0        1.069262    1.811136   -0.835084
     11          1           0       -1.440681    1.847056    0.056758
     12          1           0       -0.015855   -1.949320   -0.005086
 ---------------------------------------------------------------------

 SCF Done:  E(RHF) =  -356.375032153     A.U. after    2 cycles

 The electronic state is 1-A.
 Alpha  occ. eigenvalues --  -21.03671 -15.79231 -15.77535 -15.73431 -11.51911
 Alpha  occ. eigenvalues --  -11.51726 -11.43394  -1.73775  -1.54658  -1.35899
 Alpha  occ. eigenvalues --   -1.28425  -1.06133  -0.88728  -0.85012  -0.71662
 Alpha  occ. eigenvalues --   -0.69384  -0.64850  -0.62573  -0.56782  -0.54493
 Alpha  occ. eigenvalues --   -0.51240  -0.49543  -0.40544  -0.34186  -0.32622
 Alpha  occ. eigenvalues --   -0.30744
 Alpha virt. eigenvalues --    0.03018   0.05149   0.05781   0.05989   0.06593
 Alpha virt. eigenvalues --    0.08791   0.10835   0.11155   0.12277   0.12623
 Alpha virt. eigenvalues --    0.13050   0.13502   0.14295   0.15448   0.16708

 Mulliken charges:
               1
     1  N   -3.393369
     2  C    3.815205
     3  C   -2.041549
     4  N   -2.486185
     5  C    5.287340
     6  O   -3.237982
     7  N   -2.683193
     8  H    0.690304
     9  H    1.321835
    10  H    1.318397
    11  H    0.711948
    12  H    0.697249
 Sum of Mulliken charges =  -0.00000

 Dipole moment (field-independent basis, Debye):
    X=             -0.0429    Y=              0.6506    Z=              0.1587  Tot=              0.6710

 Test job not archived.
 1\1\GINC-SE108\SP\RHF\Aug-CC-pVDZ\C3H5N3O1\OHZDE\09-Apr-2025\0\\#t hf
 aug-cc-pvdz iop(5/13=1,5/36=2,99/5=2) pseudo=read geom=check guess=(re
 ad,tcheck) scf=(maxcycle=1)\\title\\0,1\N,0,2.17091691,-0.2386524,-0.3
 2395472\C,0,0.92532601,-0.15260682,-0.14311432\C,0,0.19492309,1.164739
 88,0.04509323\N,0,-1.18374401,0.74534872,0.14189745\C,0,-1.33305727,-0
 .60898626,0.12628216\O,0,-2.34278046,-1.25348874,0.24427345\N,0,-0.048
 93989,-1.12670558,-0.06472709\H,0,2.48377286,-1.20001163,-0.42618808\H
 ,0,0.55495406,1.6571783,0.95148198\H,0,0.38063257,1.82099698,-0.806760

 Normal termination of Gaussian 16 at Wed Apr  9 03:40:19 2025.
