 Gaussian 16, Revision C.01,

 ----------------------------------------------------------------------
 #t hf aug-cc-pvdz symm=none int=(grid=ultrafine) guess=(read,tcheck) s
 table=(opt,rrhf)
 ----------------------------------------------------------------------
 -----
 title
 -----
 Symbolic Z-matrix:
 Charge =  0 Multiplicity = 1

 SCF Done:  E(RHF) =  -323.728461067     A.U. after   16 cycles
 Normal termination of Gaussian 16 at Wed Apr  9 18:19:26 2025.
 Gaussian 16:  ES64L-G16RevC.01  3-Jul-2019

 ----------------------------------------------------------------------
 #t hf aug-cc-pvdz iop(5/13=1,5/36=2,99/5=2) pseudo=read geom=check gue
 ss=(read,tcheck) scf=(maxcycle=1)
 ----------------------------------------------------------------------
 -----
 title
 -----
 Structure from the checkpoint file:  "Grambow2020_wb97xd3_006870_forward_mol1.chk"
 Charge =  0 Multiplicity = 1

                         Standard orientation:
 ---------------------------------------------------------------------
 Center     Atomic      Atomic             Coordinates (Angstroms)
 Number     Number       Type             X           Y           Z
 ---------------------------------------------------------------------
      1          6           0        2.646335    0.169543    0.008470
      2          7           0        0.976060    0.230456   -0.834944
      3          6           0        1.044401   -0.293196    0.745991
      4          6           0        0.041990   -0.658675   -0.299309
      5          6           0       -1.354200   -0.143856   -0.021985
      6          8           0       -2.266674   -0.930320    0.033582
      7          6           0       -1.562389    1.341515    0.106611
      8          1           0        3.051660    0.343117    1.010581
      9          1           0        2.855500    1.048789   -0.584876
     10          1           0        3.091232   -0.721593   -0.420793
     11          1           0        1.508492   -1.193946    1.138494
     12          1           0        0.752558    0.441321    1.484683
     13          1           0        0.014655   -1.709752   -0.610485
     14          1           0       -2.443025    1.529961    0.717432
     15          1           0       -0.687794    1.858728    0.497250
     16          1           0       -1.739122    1.740752   -0.895003
 ---------------------------------------------------------------------

 SCF Done:  E(RHF) =  -325.254357826     A.U. after    2 cycles

 The electronic state is 1-A.
 Alpha  occ. eigenvalues --  -21.04260 -15.72593 -11.50354 -11.47807 -11.45317
 Alpha  occ. eigenvalues --  -11.41319 -11.37842  -1.70625  -1.44596  -1.11507
 Alpha  occ. eigenvalues --   -1.06134  -0.96027  -0.89575  -0.75997  -0.67106
 Alpha  occ. eigenvalues --   -0.62247  -0.61388  -0.60001  -0.57561  -0.55619
 Alpha  occ. eigenvalues --   -0.53199  -0.50785  -0.46640  -0.43389  -0.36052
 Alpha  occ. eigenvalues --   -0.31676  -0.26834
 Alpha virt. eigenvalues --    0.03218   0.04622   0.04951   0.05296   0.05855
 Alpha virt. eigenvalues --    0.06662   0.06928   0.07270   0.07499   0.10992
 Alpha virt. eigenvalues --    0.11833   0.12075   0.12598   0.13363   0.13768

 Mulliken charges:
               1
     1  C   -3.091815
     2  N   -1.629145
     3  C   -2.375868
     4  C   -0.948331
     5  C    4.514883
     6  O   -3.606405
     7  C   -4.395722
     8  H    0.907358
     9  H    1.149364
    10  H    1.272363
    11  H    1.287103
    12  H    1.464303
    13  H    1.456806
    14  H    1.229668
    15  H    1.537277
    16  H    1.228161
 Sum of Mulliken charges =  -0.00000

 Dipole moment (field-independent basis, Debye):
    X=              2.4993    Y=              0.4137    Z=              1.3653  Tot=              2.8778

 Test job not archived.
 1\1\GINC-SE229\SP\RHF\Aug-CC-pVDZ\C5H9N1O1\OHZDE\09-Apr-2025\0\\#t hf
 aug-cc-pvdz iop(5/13=1,5/36=2,99/5=2) pseudo=read geom=check guess=(re
 ad,tcheck) scf=(maxcycle=1)\\title\\0,1\C,0,1.75447296,-0.0975958,-1.5
 0113\N,0,-0.06041743,0.21459673,-1.16410818\C,0,0.81888829,-0.63522348
 ,-0.03147247\C,0,-0.6451159,-0.72588392,-0.3134804\C,0,-1.52259386,-0.
 22059171,0.81168844\O,0,-2.34941974,-0.95988934,1.28499512\C,0,-1.3761
 0531,1.21132948,1.25254047\H,0,2.68374656,-0.15876686,-0.92549882\H,0,
 1.72291755,0.87746579,-1.96711513\H,0,1.72082931,-0.89603255,-2.234403

 Normal termination of Gaussian 16 at Wed Apr  9 18:19:31 2025.
