 Gaussian 16, Revision C.01,

 ----------------------------------------------------------------------
 #t hf aug-cc-pvdz symm=none int=(grid=ultrafine) guess=(read,tcheck) s
 table=(opt,rrhf)
 ----------------------------------------------------------------------
 -----
 title
 -----
 Symbolic Z-matrix:
 Charge =  0 Multiplicity = 1

 SCF Done:  E(RHF) =  -323.852640051     A.U. after   13 cycles
 Normal termination of Gaussian 16 at Wed Apr  9 19:05:51 2025.
 Gaussian 16:  ES64L-G16RevC.01  3-Jul-2019

 ----------------------------------------------------------------------
 #t hf aug-cc-pvdz iop(5/13=1,5/36=2,99/5=2) pseudo=read geom=check gue
 ss=(read,tcheck) scf=(maxcycle=1)
 ----------------------------------------------------------------------
 -----
 title
 -----
 Structure from the checkpoint file:  "Grambow2020_wb97xd3_008095_reverse_mol2.chk"
 Charge =  0 Multiplicity = 1

                         Standard orientation:
 ---------------------------------------------------------------------
 Center     Atomic      Atomic             Coordinates (Angstroms)
 Number     Number       Type             X           Y           Z
 ---------------------------------------------------------------------
      1          6           0       -3.202230    0.038684    0.017085
      2          6           0       -1.698575   -0.108965   -0.007153
      3          7           0       -0.986196    1.043675   -0.016713
      4          8           0       -1.167753   -1.202715   -0.009479
      5          6           0        2.043123   -0.589351   -0.007929
      6          6           0        3.317171   -0.439292    0.010278
      7          6           0        2.536273    0.839156    0.007111
      8          1           0       -3.622755   -0.572602   -0.780164
      9          1           0       -3.571904   -0.355804    0.963955
     10          1           0       -3.541951    1.067906   -0.096774
     11          1           0        0.020520    0.996855   -0.018134
     12          1           0        1.154219   -1.201828   -0.021625
     13          1           0       -1.432130    1.940112   -0.011763
     14          1           0        4.303973   -0.865734    0.021282
     15          1           0        2.468362    1.427498    0.923108
     16          1           0        2.492492    1.438194   -0.903419
 ---------------------------------------------------------------------

 SCF Done:  E(RHF) =  -325.366015629     A.U. after    2 cycles

 The electronic state is 1-A.
 Alpha  occ. eigenvalues --  -21.01806 -15.77696 -11.50085 -11.43880 -11.42661
 Alpha  occ. eigenvalues --  -11.38947 -11.38009  -1.70415  -1.34857  -1.28376
 Alpha  occ. eigenvalues --   -1.09185  -0.85430  -0.81063  -0.78530  -0.71465
 Alpha  occ. eigenvalues --   -0.67811  -0.63211  -0.60923  -0.59602  -0.54424
 Alpha  occ. eigenvalues --   -0.49197  -0.48140  -0.45708  -0.39264  -0.33623
 Alpha  occ. eigenvalues --   -0.32115  -0.28754
 Alpha virt. eigenvalues --    0.03287   0.04685   0.05106   0.05638   0.06367
 Alpha virt. eigenvalues --    0.06773   0.07176   0.07745   0.09804   0.10419
 Alpha virt. eigenvalues --    0.10617   0.12482   0.13257   0.13285   0.13883

 Mulliken charges:
               1
     1  C   -4.160341
     2  C    5.113958
     3  N   -2.938301
     4  O   -3.366614
     5  C    0.210255
     6  C   -1.389806
     7  C   -2.884743
     8  H    1.187925
     9  H    1.189818
    10  H    1.367714
    11  H    0.824351
    12  H    0.830673
    13  H    0.760783
    14  H    0.793535
    15  H    1.231982
    16  H    1.228812
 Sum of Mulliken charges =  -0.00000

 Dipole moment (field-independent basis, Debye):
    X=             -0.5572    Y=              1.8017    Z=              0.0224  Tot=              1.8860

 Test job not archived.
 1\1\GINC-SE340\SP\RHF\Aug-CC-pVDZ\C5H9N1O1\OHZDE\09-Apr-2025\0\\#t hf
 aug-cc-pvdz iop(5/13=1,5/36=2,99/5=2) pseudo=read geom=check guess=(re
 ad,tcheck) scf=(maxcycle=1)\\title\\0,1\C,0,3.16174435,-0.19962151,0.0
 3822819\C,0,1.66012176,-0.2502677,0.19925769\N,0,0.94907449,0.61612755
 ,-0.56227118\O,0,1.12939714,-1.0321213,0.96417628\C,0,-2.07887891,-0.4
 9939327,0.63386067\C,0,-3.35261434,-0.3680997,0.55381656\C,0,-2.571722
 35,0.54548918,-0.34050112\H,0,3.6127877,-0.11178258,1.02563069\H,0,3.4
 9410688,-1.14457954,-0.39239084\H,0,3.5060176,0.61973722,-0.59248478\H

 Normal termination of Gaussian 16 at Wed Apr  9 19:05:55 2025.
