 Gaussian 16, Revision C.01,

 ----------------------------------------------------------------------
 #t hf aug-cc-pvdz symm=none int=(grid=ultrafine) guess=(read,tcheck) s
 table=(opt,rrhf)
 ----------------------------------------------------------------------
 -----
 title
 -----
 Symbolic Z-matrix:
 Charge =  0 Multiplicity = 1

 SCF Done:  E(RHF) =  -302.814100445     A.U. after   15 cycles
 Normal termination of Gaussian 16 at Wed Apr  9 19:32:13 2025.
 Gaussian 16:  ES64L-G16RevC.01  3-Jul-2019

 ----------------------------------------------------------------------
 #t hf aug-cc-pvdz iop(5/13=1,5/36=2,99/5=2) pseudo=read geom=check gue
 ss=(read,tcheck) scf=(maxcycle=1)
 ----------------------------------------------------------------------
 -----
 title
 -----
 Structure from the checkpoint file:  "Grambow2020_wb97xd3_009342_reverse_mol2.chk"
 Charge =  0 Multiplicity = 1

                         Standard orientation:
 ---------------------------------------------------------------------
 Center     Atomic      Atomic             Coordinates (Angstroms)
 Number     Number       Type             X           Y           Z
 ---------------------------------------------------------------------
      1          6           0       -2.854074   -0.891321    0.098938
      2          7           0       -1.497027   -0.421960   -0.114783
      3          6           0        2.066396    0.026054    0.539141
      4          6           0        1.006247    0.661855    0.143619
      5          6           0        2.884309   -0.884234   -0.330135
      6          6           0       -0.072337    1.307418   -0.212005
      7          7           0       -1.400820    0.803899   -0.064320
      8          1           0       -3.133880   -1.521818   -0.747157
      9          1           0       -3.560170   -0.066721    0.219322
     10          1           0       -2.851791   -1.524604    0.988936
     11          1           0        2.384486    0.157066    1.571063
     12          1           0        2.462041   -0.954263   -1.331189
     13          1           0        2.923098   -1.887018    0.100717
     14          1           0        3.911571   -0.520719   -0.407165
     15          1           0       -0.033674    2.325878   -0.578152
 ---------------------------------------------------------------------

 SCF Done:  E(RHF) =  -304.266516313     A.U. after    2 cycles

 The electronic state is 1-A.
 Alpha  occ. eigenvalues --  -15.78593 -15.77857 -11.43504 -11.43174 -11.40441
 Alpha  occ. eigenvalues --  -11.38355 -11.37910  -1.55295  -1.23669  -1.15600
 Alpha  occ. eigenvalues --   -1.02800  -0.93801  -0.83072  -0.70739  -0.66544
 Alpha  occ. eigenvalues --   -0.64304  -0.60949  -0.57407  -0.56857  -0.54049
 Alpha  occ. eigenvalues --   -0.52359  -0.50822  -0.47137  -0.35533  -0.33855
 Alpha  occ. eigenvalues --   -0.32367
 Alpha virt. eigenvalues --    0.03609   0.04869   0.05589   0.05814   0.06316
 Alpha virt. eigenvalues --    0.06437   0.07006   0.07255   0.10155   0.10698
 Alpha virt. eigenvalues --    0.11338   0.11647   0.11895   0.12895   0.13508

 Mulliken charges:
               1
     1  C   -3.137655
     2  N   -0.948229
     3  C   -2.075031
     4  C    2.513576
     5  C   -4.368028
     6  C   -0.611336
     7  N   -1.699787
     8  H    1.344299
     9  H    1.360061
    10  H    1.356677
    11  H    1.243019
    12  H    1.331961
    13  H    1.194721
    14  H    1.191537
    15  H    1.304214
 Sum of Mulliken charges =  -0.00000

 Dipole moment (field-independent basis, Debye):
    X=              0.6819    Y=             -0.7137    Z=              0.2257  Tot=              1.0126

 Test job not archived.
 1\1\GINC-SE131\SP\RHF\Aug-CC-pVDZ\C5H8N2\OHZDE\09-Apr-2025\0\\#t hf au
 g-cc-pvdz iop(5/13=1,5/36=2,99/5=2) pseudo=read geom=check guess=(read
 ,tcheck) scf=(maxcycle=1)\\title\\0,1\C,0,-3.00625834,0.16642852,-0.60
 588685\N,0,-1.59856336,0.34101009,-0.2969081\C,0,1.7737341,-0.5911894,
 0.74469245\C,0,0.88048216,0.34205517,0.87019923\C,0,2.67218357,-0.7518
 5639,-0.44703743\C,0,-0.03822902,1.25725124,1.028157\N,0,-1.40727197,1
 .10096892,0.65198783\H,0,-3.15689342,0.41078857,-1.65911639\H,0,-3.646
 3009,0.78103828,0.03100445\H,0,-3.2466151,-0.89171494,-0.48054213\H,0,

 Normal termination of Gaussian 16 at Wed Apr  9 19:32:18 2025.
