 Gaussian 16, Revision C.01,

 ----------------------------------------------------------------------
 #t hf aug-cc-pvdz symm=none int=(grid=ultrafine) guess=(read,tcheck) s
 table=(opt,rrhf)
 ----------------------------------------------------------------------
 -----
 title
 -----
 Symbolic Z-matrix:
 Charge =  0 Multiplicity = 1

 SCF Done:  E(RHF) =  -360.959599028     A.U. after   13 cycles
 Normal termination of Gaussian 16 at Wed Apr  9 19:20:05 2025.
 Gaussian 16:  ES64L-G16RevC.01  3-Jul-2019

 ----------------------------------------------------------------------
 #t hf aug-cc-pvdz iop(5/13=1,5/36=2,99/5=2) pseudo=read geom=check gue
 ss=(read,tcheck) scf=(maxcycle=1)
 ----------------------------------------------------------------------
 -----
 title
 -----
 Structure from the checkpoint file:  "Grambow2020_wb97xd3_008625_reverse_mol2.chk"
 Charge =  0 Multiplicity = 1

                         Standard orientation:
 ---------------------------------------------------------------------
 Center     Atomic      Atomic             Coordinates (Angstroms)
 Number     Number       Type             X           Y           Z
 ---------------------------------------------------------------------
      1          6           0        2.043931    1.251137   -0.369671
      2          6           0        2.383688   -0.203790   -0.303614
      3          6           0        2.018471   -1.025664    0.673865
      4          8           0       -1.048070    0.545022    1.060696
      5          6           0       -1.549011    0.004154    0.102669
      6          8           0       -0.879509   -0.788602   -0.751653
      7          7           0       -2.847104    0.123133   -0.261731
      8          1           0        2.951153    1.857606   -0.305366
      9          1           0        1.567546    1.496054   -1.322694
     10          1           0        1.367719    1.537458    0.435775
     11          1           0        0.042231   -0.837219   -0.446188
     12          1           0        2.982765   -0.598693   -1.121619
     13          1           0        2.310541   -2.069269    0.669365
     14          1           0        1.423235   -0.673951    1.510846
     15          1           0       -3.216512   -0.416304   -1.020311
     16          1           0       -3.460790    0.636005    0.340467
 ---------------------------------------------------------------------

 SCF Done:  E(RHF) =  -362.589842583     A.U. after    2 cycles

 The electronic state is 1-A.
 Alpha  occ. eigenvalues --  -21.10687 -21.02518 -15.78180 -11.51658 -11.42274
 Alpha  occ. eigenvalues --  -11.38194 -11.36183  -1.82727  -1.64684  -1.34328
 Alpha  occ. eigenvalues --   -1.20335  -0.99407  -0.84796  -0.78729  -0.72630
 Alpha  occ. eigenvalues --   -0.64391  -0.62813  -0.59387  -0.58387  -0.56555
 Alpha  occ. eigenvalues --   -0.56072  -0.50123  -0.47480  -0.45873  -0.37591
 Alpha  occ. eigenvalues --   -0.35213  -0.32037  -0.29373
 Alpha virt. eigenvalues --    0.03614   0.04782   0.05472   0.05670   0.06201
 Alpha virt. eigenvalues --    0.06420   0.07464   0.07882   0.08784   0.10729
 Alpha virt. eigenvalues --    0.12384   0.13701   0.13860   0.14634   0.15053

 Mulliken charges:
               1
     1  C   -4.544265
     2  C   -0.529579
     3  C   -3.492668
     4  O   -2.670817
     5  C    6.018148
     6  O   -3.039768
     7  N   -2.753508
     8  H    1.175612
     9  H    1.290328
    10  H    1.452100
    11  H    1.485873
    12  H    1.376857
    13  H    1.367820
    14  H    1.549707
    15  H    0.741701
    16  H    0.572459
 Sum of Mulliken charges =  -0.00000

 Dipole moment (field-independent basis, Debye):
    X=             -0.9098    Y=             -0.4750    Z=             -1.3855  Tot=              1.7242

 Test job not archived.
 1\1\GINC-SE014\SP\RHF\Aug-CC-pVDZ\C4H9N1O2\OHZDE\09-Apr-2025\0\\#t hf
 aug-cc-pvdz iop(5/13=1,5/36=2,99/5=2) pseudo=read geom=check guess=(re
 ad,tcheck) scf=(maxcycle=1)\\title\\0,1\C,0,-1.90328173,-0.58826262,-0
 .53658485\C,0,-1.84248795,0.59267622,0.37900161\C,0,-1.15112079,0.6407
 0856,1.51215207\O,0,1.42670921,-1.27293279,0.20328567\C,0,1.91988208,-
 0.35481565,-0.40919915\O,0,1.37217595,0.86889563,-0.50465087\N,0,3.082
 97275,-0.42086418,-1.09828938\H,0,-2.92002044,-0.98785012,-0.57610616\
 H,0,-1.63663849,-0.30251382,-1.55757899\H,0,-1.22431814,-1.37684433,-0

 Normal termination of Gaussian 16 at Wed Apr  9 19:20:11 2025.
