 Gaussian 16, Revision C.01,

 ----------------------------------------------------------------------
 #t hf aug-cc-pvdz symm=none int=(grid=ultrafine) guess=(read,tcheck) s
 table=(opt,rrhf)
 ----------------------------------------------------------------------
 -----
 title
 -----
 Symbolic Z-matrix:
 Charge =  0 Multiplicity = 1

 SCF Done:  E(RHF) =  -1166.70449083     A.U. after   13 cycles
 Normal termination of Gaussian 16 at Wed Apr  9 19:41:26 2025.
 Gaussian 16:  ES64L-G16RevC.01  3-Jul-2019

 ----------------------------------------------------------------------
 #t hf aug-cc-pvdz iop(5/13=1,5/36=2,99/5=2) pseudo=read geom=check gue
 ss=(read,tcheck) scf=(maxcycle=1)
 ----------------------------------------------------------------------
 -----
 title
 -----
 Structure from the checkpoint file:  "HB300SPXx10_1394_5.02_0.95_dimethylsulfone_phosphineF2_dimer_mol1.chk"
 Charge =  0 Multiplicity = 1

                         Standard orientation:
 ---------------------------------------------------------------------
 Center     Atomic      Atomic             Coordinates (Angstroms)
 Number     Number       Type             X           Y           Z
 ---------------------------------------------------------------------
      1          1           0        2.201888    0.498933    2.085954
      2          1           0        1.398532   -1.091493    2.021574
      3          1           0        0.422538    0.393956    1.858580
      4          1           0        0.543104    1.910001   -0.412932
      5          1           0        1.654992    1.477571   -1.741273
      6          1           0        2.321450    2.083328   -0.203546
      7          8           0        2.948814   -0.670615   -0.362856
      8         16           0        1.619385   -0.180776   -0.109614
      9          8           0        0.488001   -0.893955   -0.665077
     10          6           0        1.383083   -0.068648    1.653672
     11          6           0        1.521129    1.510413   -0.662822
     12         15           0       -2.084998   -0.453787   -0.038926
     13          9           0       -3.636280   -0.043353   -0.074754
     14          9           0       -1.498845    1.000975    0.346746
     15          1           0       -1.881355   -0.325717   -1.440216
 ---------------------------------------------------------------------

 SCF Done:  E(RHF) =  -1168.88809448     A.U. after    2 cycles

 The electronic state is 1-A.
 Alpha  occ. eigenvalues -- -105.28680 -75.88849 -29.28915 -29.27802 -21.04956
 Alpha  occ. eigenvalues --  -21.04698 -13.51930 -13.41658 -13.34240 -11.43934
 Alpha  occ. eigenvalues --  -11.42393  -8.24286  -2.87766  -1.84461  -1.66097
 Alpha  occ. eigenvalues --   -1.61702  -1.58639  -1.52390  -1.20174  -1.09810
 Alpha  occ. eigenvalues --   -0.90130  -0.87719  -0.66126  -0.65972  -0.65452
 Alpha  occ. eigenvalues --   -0.62807  -0.56393  -0.56146  -0.55591  -0.46789
 Alpha  occ. eigenvalues --   -0.44387  -0.41659  -0.40371  -0.38747  -0.37758
 Alpha  occ. eigenvalues --   -0.36782  -0.35493  -0.33955  -0.27566  -0.25056
 Alpha  occ. eigenvalues --   -0.19587   0.00537
 Alpha virt. eigenvalues --    0.02943   0.04534   0.05258   0.06449   0.06819
 Alpha virt. eigenvalues --    0.07149   0.07925   0.09925   0.10867   0.12524
 Alpha virt. eigenvalues --    0.13057   0.13600   0.14307   0.14686   0.15174

 Mulliken charges:
               1
     1  H    1.242235
     2  H    0.882571
     3  H    1.099817
     4  H    1.311809
     5  H    1.400071
     6  H    1.227097
     7  O   -2.442388
     8  S    6.183498
     9  O   -2.330544
    10  C   -4.308437
    11  C   -4.407984
    12  P    2.033546
    13  F   -0.109080
    14  F   -0.707614
    15  H   -1.074599
 Sum of Mulliken charges =  -0.00000

 Dipole moment (field-independent basis, Debye):
    X=             -3.9766    Y=              5.4755    Z=             -2.3592  Tot=              7.1666

 Test job not archived.
 1\1\GINC-SE056\SP\RHF\Aug-CC-pVDZ\C2H7F2O2P1S1\OHZDE\09-Apr-2025\0\\#t
  hf aug-cc-pvdz iop(5/13=1,5/36=2,99/5=2) pseudo=read geom=check guess
 =(read,tcheck) scf=(maxcycle=1)\\title\\0,1\H,0,1.82037896,-1.1252997,
 2.45423408\H,0,2.45327614,-0.04590354,1.18406648\H,0,1.26048817,-1.302
 78481,0.75605091\H,0,-1.35656486,-1.06874241,1.510339\H,0,-1.8999986,0
 .31018714,2.5058364\H,0,-0.84910966,-0.93302114,3.2309401\O,0,0.704774
 22,1.412934,2.93921594\S,0,0.30796869,0.58975017,1.82729483\O,0,-0.016
 49706,1.22000253,0.56448154\C,0,1.58998555,-0.61149627,1.52558836\C,0,

 Normal termination of Gaussian 16 at Wed Apr  9 19:41:32 2025.
