 Gaussian 16, Revision C.01,

 ----------------------------------------------------------------------
 #t hf aug-cc-pvdz symm=none int=(grid=ultrafine) guess=(read,tcheck) s
 table=(opt,rrhf)
 ----------------------------------------------------------------------
 -----
 title
 -----
 Symbolic Z-matrix:
 Charge =  0 Multiplicity = 1

 SCF Done:  E(RHF) =  -914.493973304     A.U. after   12 cycles

 1\1\GINC-SE115\Stability\RHF\Aug-CC-pVDZ\C3H10S2\OHZDE\09-Apr-2025\0\\
 #t hf aug-cc-pvdz symm=none int=(grid=ultrafine) guess=(read,tcheck) s
 table=(opt,rrhf)\\title\\0,1\H,0,2.306559,-2.0578968,-0.64952301\H,0,3
 .32031438,-1.47471252,0.67641305\H,0,2.52307119,-0.31083024,-0.3888258
 5\H,0,0.07002633,-1.01993654,0.36023035\C,0,2.42249764,-1.27751778,0.0
 9684023\S,0,1.02865784,-1.2837739,1.27093846\H,0,0.68000626,1.51735538
 ,0.02381803\H,0,-0.23280249,2.79599646,-0.81950287\H,0,0.78206257,1.67
 636457,-1.74184068\H,0,-3.02569877,0.27555581,0.41605823\H,0,-2.501764

 Normal termination of Gaussian 16 at Wed Apr  9 19:38:12 2025.
 Gaussian 16:  ES64L-G16RevC.01  3-Jul-2019

 ----------------------------------------------------------------------
 #t hf aug-cc-pvdz iop(5/13=1,5/36=2,99/5=2) pseudo=read geom=check gue
 ss=(read,tcheck) scf=(maxcycle=1)
 ----------------------------------------------------------------------
 -----
 title
 -----
 Structure from the checkpoint file:  "HB300SPXx10_1185_4.23_1.00_methanethiol_dimethylsulfide_dimer_mol1.chk"
 Charge =  0 Multiplicity = 1

                         Standard orientation:
 ---------------------------------------------------------------------
 Center     Atomic      Atomic             Coordinates (Angstroms)
 Number     Number       Type             X           Y           Z
 ---------------------------------------------------------------------
      1          1           0        2.713254    1.006222   -1.283748
      2          1           0        3.568405    0.910983    0.260777
      3          1           0        1.956174    1.633428    0.199668
      4          1           0        0.760664   -0.634644   -0.513039
      5          6           0        2.592837    0.856679   -0.214810
      6         16           0        1.927136   -0.801847    0.142216
      7          1           0       -0.347366    0.953850    1.267986
      8          1           0       -2.040839    1.496421    1.398757
      9          1           0       -0.931839    2.313511    0.286679
     10          1           0       -2.293941   -2.021012   -0.402107
     11          1           0       -2.859868   -1.075455    0.984670
     12          1           0       -1.151538   -1.566803    0.876442
     13          6           0       -1.200198    1.354239    0.722473
     14         16           0       -1.651384    0.251056   -0.640881
     15          6           0       -2.023495   -1.244894    0.309428
 ---------------------------------------------------------------------

 SCF Done:  E(RHF) =  -915.599893237     A.U. after    2 cycles

 The electronic state is 1-A.
 Alpha  occ. eigenvalues --  -75.67641 -75.67554 -13.11289 -13.10493 -13.08340
 Alpha  occ. eigenvalues --  -13.07622 -13.06104 -13.01836 -11.39611 -11.39393
 Alpha  occ. eigenvalues --  -11.39302  -8.01722  -8.01450  -1.23143  -1.17612
 Alpha  occ. eigenvalues --   -1.03217  -0.93509  -0.88325  -0.61103  -0.60360
 Alpha  occ. eigenvalues --   -0.59195  -0.58496  -0.58141  -0.56911  -0.48607
 Alpha  occ. eigenvalues --   -0.44644  -0.39089  -0.37001  -0.23253  -0.22123
 Alpha virt. eigenvalues --    0.02466   0.03264   0.04346   0.04958   0.06445
 Alpha virt. eigenvalues --    0.06850   0.07330   0.07634   0.08796   0.09640
 Alpha virt. eigenvalues --    0.10026   0.11869   0.12959   0.13182   0.13948

 Mulliken charges:
               1
     1  H    1.388347
     2  H    1.354504
     3  H    1.461439
     4  H    1.221953
     5  C   -4.777811
     6  S   -0.610511
     7  H    1.604906
     8  H    1.353342
     9  H    1.489102
    10  H    1.416630
    11  H    1.386704
    12  H    1.367806
    13  C   -4.690654
    14  S    0.684646
    15  C   -4.650402
 Sum of Mulliken charges =  -0.00000

 Dipole moment (field-independent basis, Debye):
    X=              0.4112    Y=              0.0505    Z=              0.0557  Tot=              0.4180

 Test job not archived.
 1\1\GINC-SE115\SP\RHF\Aug-CC-pVDZ\C3H10S2\OHZDE\09-Apr-2025\0\\#t hf a
 ug-cc-pvdz iop(5/13=1,5/36=2,99/5=2) pseudo=read geom=check guess=(rea
 d,tcheck) scf=(maxcycle=1)\\title\\0,1\H,0,2.306559,-2.0578968,-0.6495
 2301\H,0,3.32031438,-1.47471252,0.67641305\H,0,2.52307119,-0.31083024,
 -0.38882585\H,0,0.07002633,-1.01993654,0.36023035\C,0,2.42249764,-1.27
 751778,0.09684023\S,0,1.02865784,-1.2837739,1.27093846\H,0,0.68000626,
 1.51735538,0.02381803\H,0,-0.23280249,2.79599646,-0.81950287\H,0,0.782
 06257,1.67636457,-1.74184068\H,0,-3.02569877,0.27555581,0.41605823\H,0

 Normal termination of Gaussian 16 at Wed Apr  9 19:38:16 2025.
