 Gaussian 16, Revision C.01,

 ----------------------------------------------------------------------
 #t hf aug-cc-pvdz symm=none int=(grid=ultrafine) guess=(read,tcheck) s
 table=(opt,rrhf)
 ----------------------------------------------------------------------
 -----
 title
 -----
 Symbolic Z-matrix:
 Charge =  0 Multiplicity = 1

 SCF Done:  E(RHF) =  -800.723267536     A.U. after   14 cycles
 Normal termination of Gaussian 16 at Wed Apr  9 19:39:19 2025.
 Gaussian 16:  ES64L-G16RevC.01  3-Jul-2019

 ----------------------------------------------------------------------
 #t hf aug-cc-pvdz iop(5/13=1,5/36=2,99/5=2) pseudo=read geom=check gue
 ss=(read,tcheck) scf=(maxcycle=1)
 ----------------------------------------------------------------------
 -----
 title
 -----
 Structure from the checkpoint file:  "HB300SPXx10_1104_4.14_0.95_Nmethylacetamide_tetrahydrothiophene_dimer_mol1.chk"
 Charge =  0 Multiplicity = 1

                         Standard orientation:
 ---------------------------------------------------------------------
 Center     Atomic      Atomic             Coordinates (Angstroms)
 Number     Number       Type             X           Y           Z
 ---------------------------------------------------------------------
      1          6           0       -2.292380   -1.674353   -0.149661
      2          1           0       -2.209730   -2.163583    0.819559
      3          1           0       -1.446260   -1.955445   -0.773320
      4          1           0       -3.210673   -2.028236   -0.614362
      5          6           0       -2.408101   -0.178673    0.067261
      6          8           0       -3.315872    0.306239    0.722894
      7          7           0       -1.444931    0.570462   -0.527110
      8          1           0       -0.662380    0.101995   -0.962096
      9          6           0       -1.403684    2.010493   -0.388921
     10          1           0       -2.417682    2.383784   -0.278862
     11          1           0       -0.833328    2.324678    0.489287
     12          1           0       -0.951949    2.449700   -1.275973
     13          1           0        1.429309    1.645714   -0.839227
     14          1           0        3.063525    1.111134   -1.238271
     15          1           0        2.535136    1.843920    1.295521
     16          1           0        2.155398   -2.004789    0.908981
     17          1           0        3.498713    0.398099    1.010821
     18          1           0        0.403416   -1.816162    0.784172
     19          1           0        1.696471   -0.278465    2.552268
     20          1           0        0.487960    0.473849    1.516463
     21         16           0        1.541893   -0.765684   -1.077028
     22          6           0        2.190831    0.898615   -0.627215
     23          6           0        2.513249    0.842696    0.865513
     24          6           0        1.449834   -0.039030    1.518035
     25          6           0        1.355798   -1.306146    0.672340
 ---------------------------------------------------------------------

 SCF Done:  E(RHF) =  -802.909839886     A.U. after    2 cycles

 The electronic state is 1-A.
 Alpha  occ. eigenvalues --  -75.68010 -21.00467 -15.74428 -13.13568 -13.12581
 Alpha  occ. eigenvalues --  -13.11368 -11.48755 -11.45401 -11.44181 -11.40429
 Alpha  occ. eigenvalues --  -11.39442 -11.38354 -11.37547  -8.02100  -1.68890
 Alpha  occ. eigenvalues --   -1.38080  -1.33691  -1.10484  -1.08692  -1.08461
 Alpha  occ. eigenvalues --   -0.98405  -0.86012  -0.84310  -0.78210  -0.67767
 Alpha  occ. eigenvalues --   -0.67255  -0.66610  -0.62648  -0.61993  -0.60957
 Alpha  occ. eigenvalues --   -0.57793  -0.55368  -0.54574  -0.51489  -0.50019
 Alpha  occ. eigenvalues --   -0.48064  -0.46732  -0.46317  -0.45344  -0.43383
 Alpha  occ. eigenvalues --   -0.36244  -0.29783  -0.27279  -0.23739
 Alpha virt. eigenvalues --    0.03267   0.03851   0.04524   0.05038   0.05101
 Alpha virt. eigenvalues --    0.05526   0.06059   0.06223   0.06940   0.07106
 Alpha virt. eigenvalues --    0.08213   0.08582   0.09221   0.09689   0.10615

 Mulliken charges:
               1
     1  C   -4.864612
     2  H    1.342805
     3  H    1.635025
     4  H    1.080728
     5  C    5.527833
     6  O   -3.508262
     7  N   -2.757990
     8  H    1.411494
     9  C   -3.957569
    10  H    1.369079
    11  H    1.668504
    12  H    1.485502
    13  H    1.942384
    14  H    1.342160
    15  H    1.310753
    16  H    1.314113
    17  H    1.505942
    18  H    1.979754
    19  H    1.286019
    20  H    2.141551
    21  S    0.282817
    22  C   -3.623605
    23  C   -3.095690
    24  C   -3.116632
    25  C   -3.702103
 Sum of Mulliken charges =   0.00000

 Dipole moment (field-independent basis, Debye):
    X=              3.1327    Y=             -0.1963    Z=             -1.0145  Tot=              3.2987

 Test job not archived.
 1\1\GINC-SE037\SP\RHF\Aug-CC-pVDZ\C7H15N1O1S1\OHZDE\09-Apr-2025\0\\#t
 hf aug-cc-pvdz iop(5/13=1,5/36=2,99/5=2) pseudo=read geom=check guess=
 (read,tcheck) scf=(maxcycle=1)\\title\\0,1\C,0,-2.35790997,-0.53076315
 ,1.51380969\H,0,-2.45888814,0.43106478,2.01406411\H,0,-1.4356415,-1.01
 232631,1.83224394\H,0,-3.20368729,-1.14467685,1.81747472\C,0,-2.435185
 38,-0.3119418,0.01592702\O,0,-3.41358688,0.19433185,-0.50891479\N,0,-1
 .3525984,-0.72916607,-0.68842032\H,0,-0.53292762,-1.03795931,-0.184588
 74\C,0,-1.26500492,-0.56327277,-2.12344447\H,0,-2.26409386,-0.61429593

 Normal termination of Gaussian 16 at Wed Apr  9 19:39:37 2025.
