 Gaussian 16, Revision C.01,

 ----------------------------------------------------------------------
 #t hf aug-cc-pvdz symm=none int=(grid=ultrafine) guess=(read,tcheck) s
 table=(opt,rrhf)
 ----------------------------------------------------------------------
 -----
 title
 -----
 Symbolic Z-matrix:
 Charge =  0 Multiplicity = 1

 SCF Done:  E(RHF) =  -576.786907929     A.U. after   12 cycles
 Normal termination of Gaussian 16 at Wed Apr  9 19:42:49 2025.
 Gaussian 16:  ES64L-G16RevC.01  3-Jul-2019

 ----------------------------------------------------------------------
 #t hf aug-cc-pvdz iop(5/13=1,5/36=2,99/5=2) pseudo=read geom=check gue
 ss=(read,tcheck) scf=(maxcycle=1)
 ----------------------------------------------------------------------
 -----
 title
 -----
 Structure from the checkpoint file:  "HB300SPXx10_1433_5.06_0.90_methanethiol_methylfluoride_dimer_mol1.chk"
 Charge =  0 Multiplicity = 1

                         Standard orientation:
 ---------------------------------------------------------------------
 Center     Atomic      Atomic             Coordinates (Angstroms)
 Number     Number       Type             X           Y           Z
 ---------------------------------------------------------------------
      1          1           0        1.747380    1.714011   -0.527269
      2          1           0        1.705483    1.341956    1.201189
      3          1           0        0.191483    1.399896    0.279506
      4          1           0        0.717958   -0.715768   -1.176497
      5          6           0        1.242871    1.134102    0.239950
      6         16           0        1.445602   -0.654265   -0.051639
      7          1           0       -1.201897   -0.835700    0.869485
      8          1           0       -2.674022    0.131460    1.195808
      9          1           0       -2.724500   -1.196889    0.003223
     10          6           0       -2.108946   -0.413637    0.441832
     11          9           0       -1.743896    0.478499   -0.567767
 ---------------------------------------------------------------------

 SCF Done:  E(RHF) =  -577.783768639     A.U. after    2 cycles

 The electronic state is 1-A.
 Alpha  occ. eigenvalues --  -75.67880 -29.25197 -13.11482 -13.06761 -13.04077
 Alpha  occ. eigenvalues --  -11.42941 -11.38918  -8.01786  -1.17921  -1.14292
 Alpha  occ. eigenvalues --   -0.93671  -0.66377  -0.63096  -0.62608  -0.59216
 Alpha  occ. eigenvalues --   -0.57881  -0.48728  -0.38898  -0.37432  -0.25469
 Alpha  occ. eigenvalues --   -0.24930  -0.23171
 Alpha virt. eigenvalues --    0.03512   0.03935   0.04991   0.05665   0.06472
 Alpha virt. eigenvalues --    0.08417   0.08786   0.10951   0.12411   0.13933
 Alpha virt. eigenvalues --    0.14301   0.15199   0.15820   0.16658   0.17443

 Mulliken charges:
               1
     1  H    1.343584
     2  H    1.412868
     3  H    1.397679
     4  H    1.056304
     5  C   -4.549609
     6  S   -0.746829
     7  H    1.445420
     8  H    1.449402
     9  H    1.429004
    10  C   -4.279254
    11  F    0.041431
 Sum of Mulliken charges =  -0.00000

 Dipole moment (field-independent basis, Debye):
    X=              0.3176    Y=              0.6761    Z=              0.0625  Tot=              0.7496

 Test job not archived.
 1\1\GINC-SE048\SP\RHF\Aug-CC-pVDZ\C2H7F1S1\OHZDE\09-Apr-2025\0\\#t hf
 aug-cc-pvdz iop(5/13=1,5/36=2,99/5=2) pseudo=read geom=check guess=(re
 ad,tcheck) scf=(maxcycle=1)\\title\\0,1\H,0,2.08229041,-1.4254109,-0.5
 8197167\H,0,2.56243491,-0.07269824,0.45116733\H,0,1.30281242,0.1638302
 2,-0.77457926\H,0,-0.45614858,-1.39442223,0.38777169\C,0,1.72720839,-0
 .53887394,-0.06484534\S,0,0.50833702,-0.97408013,1.21941614\H,0,-0.776
 70911,1.39517744,0.42826965\H,0,-0.84936634,2.61671976,-0.88000889\H,0
 ,-2.30098221,1.66111329,-0.46898064\C,0,-1.21451626,1.65128941,-0.5342

 Normal termination of Gaussian 16 at Wed Apr  9 19:42:52 2025.
