 Gaussian 16, Revision C.01,

 ----------------------------------------------------------------------
 #t hf aug-cc-pvdz symm=none int=(grid=ultrafine) guess=(read,tcheck) s
 table=(opt,rrhf)
 ----------------------------------------------------------------------
 -----
 title
 -----
 Symbolic Z-matrix:
 Charge =  0 Multiplicity = 1

 SCF Done:  E(RHF) =  -3015.75999763     A.U. after   14 cycles
 Normal termination of Gaussian 16 at Wed Apr  9 19:39:14 2025.
 Gaussian 16:  ES64L-G16RevC.01  3-Jul-2019

 ----------------------------------------------------------------------
 #t hf aug-cc-pvdz iop(5/13=1,5/36=2,99/5=2) pseudo=read geom=check gue
 ss=(read,tcheck) scf=(maxcycle=1)
 ----------------------------------------------------------------------
 -----
 title
 -----
 Structure from the checkpoint file:  "HB300SPXx10_1343_4.39_0.90_hydrogenchloride_P4S3_dimer_mol1.chk"
 Charge =  0 Multiplicity = 1

                         Standard orientation:
 ---------------------------------------------------------------------
 Center     Atomic      Atomic             Coordinates (Angstroms)
 Number     Number       Type             X           Y           Z
 ---------------------------------------------------------------------
      1          1           0       -2.457656   -0.486634   -0.529296
      2         17           0       -3.517583    0.007549    0.016896
      3         16           0       -0.475899   -0.715185   -1.532000
      4         15           0       -0.191551    1.326521   -1.059167
      5         16           0       -0.203522   -0.724402    1.690619
      6         16           0        2.447842   -0.672478   -0.169821
      7         15           0        1.846620    1.348815   -0.103010
      8         15           0       -0.002811    1.312658    1.183661
      9         15           0        0.611863   -1.711238    0.006603
 ---------------------------------------------------------------------

 SCF Done:  E(RHF) =  -3017.42856134     A.U. after    2 cycles

 The electronic state is 1-A.
 Alpha  occ. eigenvalues -- -105.27003-105.24151-105.24111-105.23271 -99.89014
 Alpha  occ. eigenvalues --  -75.73525 -75.72984 -75.72859 -13.18823 -13.16251
 Alpha  occ. eigenvalues --  -13.15520 -13.14376 -13.13740 -13.11987 -13.08382
 Alpha  occ. eigenvalues --  -13.07497 -13.05574 -10.46210  -9.66370  -9.65474
 Alpha  occ. eigenvalues --   -9.65430  -8.07738  -8.07233  -8.07035  -2.85111
 Alpha  occ. eigenvalues --   -2.82289  -2.81188  -2.81131  -1.64177  -1.54934
 Alpha  occ. eigenvalues --   -1.54809  -1.54355  -1.52345  -1.52009  -1.51440
 Alpha  occ. eigenvalues --   -1.48885  -1.48875  -1.36607  -1.36405  -1.35431
 Alpha  occ. eigenvalues --   -1.29036  -1.11610  -1.02086  -1.01255  -0.79544
 Alpha  occ. eigenvalues --   -0.69175  -0.63025  -0.52463  -0.52032  -0.51481
 Alpha  occ. eigenvalues --   -0.51211  -0.37508  -0.36403  -0.26361  -0.25858
 Alpha  occ. eigenvalues --   -0.22346  -0.21646  -0.11825  -0.11280  -0.03747
 Alpha  occ. eigenvalues --   -0.00036   0.04013   0.04801
 Alpha virt. eigenvalues --    0.05070   0.07120   0.07976   0.08075   0.08653
 Alpha virt. eigenvalues --    0.08771   0.09187   0.09958   0.10568   0.10947
 Alpha virt. eigenvalues --    0.11631   0.11897   0.13157   0.13566   0.14354

 Mulliken charges:
               1
     1  H   -0.892502
     2  Cl  -0.315268
     3  S   -3.742778
     4  P    2.349076
     5  S   -3.288561
     6  S   -2.954839
     7  P    2.393141
     8  P    2.271460
     9  P    4.180271
 Sum of Mulliken charges =   0.00000

 Dipole moment (field-independent basis, Debye):
    X=              3.2274    Y=             25.0199    Z=              3.3642  Tot=             25.4505

 Test job not archived.
 1\1\GINC-SE084\SP\RHF\Aug-CC-pVDZ\Cl1H1P4S3\OHZDE\09-Apr-2025\0\\#t hf
  aug-cc-pvdz iop(5/13=1,5/36=2,99/5=2) pseudo=read geom=check guess=(r
 ead,tcheck) scf=(maxcycle=1)\\title\\0,1\H,0,-0.57388532,0.23171594,-0
 .00983813\Cl,0,-1.31085335,0.72448843,-0.94794305\S,0,0.75550166,0.003
 89392,1.76944229\P,0,0.24847977,2.0129003,2.19348289\S,0,-2.3724995,-0
 .16750026,2.57304595\S,0,-0.09840346,-0.09006843,4.87872468\P,0,-0.352
 92895,1.93961481,4.36184846\P,0,-1.9283115,1.88619896,2.75171189\P,0,-
 0.53435904,-1.09134535,3.06534293\\Version=ES64L-G16RevC.01\State=1-A\

 Normal termination of Gaussian 16 at Wed Apr  9 19:39:20 2025.
