 Gaussian 16, Revision C.01,

 ----------------------------------------------------------------------
 #t hf aug-cc-pvdz symm=none int=(grid=ultrafine) guess=(read,tcheck) s
 table=(opt,rrhf)
 ----------------------------------------------------------------------
 -----
 title
 -----
 Symbolic Z-matrix:
 Charge =  0 Multiplicity = 1

 SCF Done:  E(RHF) =  -1017.02563312     A.U. after   12 cycles
 Normal termination of Gaussian 16 at Wed Apr  9 19:41:04 2025.
 Gaussian 16:  ES64L-G16RevC.01  3-Jul-2019

 ----------------------------------------------------------------------
 #t hf aug-cc-pvdz iop(5/13=1,5/36=2,99/5=2) pseudo=read geom=check gue
 ss=(read,tcheck) scf=(maxcycle=1)
 ----------------------------------------------------------------------
 -----
 title
 -----
 Structure from the checkpoint file:  "HB300SPXx10_1384_5.01_0.95_dimethylsulfide_phosphineF2_dimer_mol1.chk"
 Charge =  0 Multiplicity = 1

                         Standard orientation:
 ---------------------------------------------------------------------
 Center     Atomic      Atomic             Coordinates (Angstroms)
 Number     Number       Type             X           Y           Z
 ---------------------------------------------------------------------
      1          1           0       -0.624079    0.854491    1.431444
      2          1           0       -2.351182    1.295488    1.428658
      3          1           0       -1.179451    2.259800    0.512580
      4          1           0       -2.196447   -2.054563   -0.703069
      5          1           0       -2.924154   -1.298760    0.722075
      6          1           0       -1.182610   -1.673649    0.700437
      7          6           0       -1.440005    1.254920    0.834620
      8         16           0       -1.690095    0.263230   -0.659768
      9          6           0       -2.029935   -1.343974    0.103018
     10         15           0        2.050110   -0.320189   -0.339226
     11          9           0        1.241648   -0.965168    0.883863
     12          9           0        1.708050    1.217707   -0.080626
     13          1           0        1.020152   -0.530178   -1.302401
 ---------------------------------------------------------------------

 SCF Done:  E(RHF) =  -1018.54932593     A.U. after    2 cycles

 The electronic state is 1-A.
 Alpha  occ. eigenvalues -- -105.29222 -75.66810 -29.29369 -29.29247 -13.09138
 Alpha  occ. eigenvalues --  -13.06679 -13.03287 -11.38793 -11.38520  -8.00923
 Alpha  occ. eigenvalues --   -2.88711  -1.63659  -1.59134  -1.53181  -1.21973
 Alpha  occ. eigenvalues --   -1.02707  -0.90509  -0.87700  -0.60124  -0.59589
 Alpha  occ. eigenvalues --   -0.57578  -0.57427  -0.55845  -0.46758  -0.44011
 Alpha  occ. eigenvalues --   -0.40753  -0.37304  -0.35732  -0.34956  -0.29309
 Alpha  occ. eigenvalues --   -0.26569  -0.20372  -0.19351  -0.00521
 Alpha virt. eigenvalues --    0.03911   0.04412   0.05768   0.07250   0.07517
 Alpha virt. eigenvalues --    0.07783   0.08345   0.09593   0.10278   0.10748
 Alpha virt. eigenvalues --    0.12942   0.14410   0.15350   0.15851   0.16469

 Mulliken charges:
               1
     1  H    1.516828
     2  H    1.399141
     3  H    1.352575
     4  H    1.407921
     5  H    1.373505
     6  H    1.389215
     7  C   -4.576686
     8  S    0.959607
     9  C   -4.694699
    10  P    2.208002
    11  F   -0.636509
    12  F   -0.495444
    13  H   -1.203457
 Sum of Mulliken charges =   0.00000

 Dipole moment (field-independent basis, Debye):
    X=             -4.2907    Y=              2.9912    Z=              3.3883  Tot=              6.2320

 Test job not archived.
 1\1\GINC-SE016\SP\RHF\Aug-CC-pVDZ\C2H7F2P1S1\OHZDE\09-Apr-2025\0\\#t h
 f aug-cc-pvdz iop(5/13=1,5/36=2,99/5=2) pseudo=read geom=check guess=(
 read,tcheck) scf=(maxcycle=1)\\title\\0,1\H,0,0.35324965,2.18742239,-0
 .72380577\H,0,0.23256961,2.54349189,-2.46622469\H,0,1.47961489,1.43776
 879,-1.86264863\H,0,-2.97879656,0.33269977,-1.6977403\H,0,-2.43534977,
 1.89515642,-2.32640837\H,0,-2.24831697,1.5140911,-0.59615001\C,0,0.456
 3691,1.7777672,-1.72571744\S,0,-0.61885679,0.337269,-1.94490696\C,0,-2
 .22218849,1.10820804,-1.60517522\P,0,0.00697571,-0.11561603,1.77470125

 Normal termination of Gaussian 16 at Wed Apr  9 19:41:08 2025.
