 Gaussian 16, Revision C.01,

 ----------------------------------------------------------------------
 #t hf aug-cc-pvdz symm=none int=(grid=ultrafine) guess=(read,tcheck) s
 table=(opt,rrhf)
 ----------------------------------------------------------------------
 -----
 title
 -----
 Symbolic Z-matrix:
 Charge =  0 Multiplicity = 1

 SCF Done:  E(RHF) =  -1121.34685846     A.U. after   13 cycles
 Normal termination of Gaussian 16 at Wed Apr  9 19:37:31 2025.
 Gaussian 16:  ES64L-G16RevC.01  3-Jul-2019

 ----------------------------------------------------------------------
 #t hf aug-cc-pvdz iop(5/13=1,5/36=2,99/5=2) pseudo=read geom=check gue
 ss=(read,tcheck) scf=(maxcycle=1)
 ----------------------------------------------------------------------
 -----
 title
 -----
 Structure from the checkpoint file:  "HB300SPXx10_1097_4.13_1.10_Nmethylacetamide_dimethyldisulfide_dimer_mol1.chk"
 Charge =  0 Multiplicity = 1

                         Standard orientation:
 ---------------------------------------------------------------------
 Center     Atomic      Atomic             Coordinates (Angstroms)
 Number     Number       Type             X           Y           Z
 ---------------------------------------------------------------------
      1          6           0       -1.919410    1.678041   -0.757776
      2          1           0       -1.256069    1.495978   -1.603351
      3          1           0       -1.344495    2.133826    0.046053
      4          1           0       -2.698930    2.361208   -1.083673
      5          6           0       -2.556574    0.361969   -0.356900
      6          8           0       -3.476265   -0.125581   -0.991965
      7          7           0       -2.020900   -0.224283    0.745642
      8          1           0       -1.184245    0.178340    1.134591
      9          6           0       -2.403131   -1.552802    1.176998
     10          1           0       -3.410869   -1.750991    0.825516
     11          1           0       -1.736131   -2.315304    0.769102
     12          1           0       -2.381409   -1.610918    2.263581
     13          1           0        2.879223   -2.197383   -1.744716
     14          1           0        3.465522   -1.949330   -0.085557
     15          1           0        3.666693   -0.669127   -1.312484
     16          1           0        1.368083    2.324301   -0.471754
     17          1           0        3.097198    1.905186   -0.349213
     18          1           0        2.290867    2.742986    0.989504
     19          6           0        3.022543   -1.465592   -0.950878
     20         16           0        1.363715   -0.834338   -0.547583
     21         16           0        1.721297    0.443594    1.015996
     22          6           0        2.163371    2.008012    0.195895
 ---------------------------------------------------------------------

 SCF Done:  E(RHF) =  -1123.36893060     A.U. after    2 cycles

 The electronic state is 1-A.
 Alpha  occ. eigenvalues --  -75.71311 -75.70987 -21.00235 -15.74564 -13.15202
 Alpha  occ. eigenvalues --  -13.12598 -13.11112 -13.09549 -13.09175 -13.05144
 Alpha  occ. eigenvalues --  -11.48278 -11.41227 -11.40764 -11.38342 -11.37895
 Alpha  occ. eigenvalues --   -8.05315  -8.05029  -1.68614  -1.37690  -1.27710
 Alpha  occ. eigenvalues --   -1.13845  -1.09974  -0.99376  -0.97764  -0.87968
 Alpha  occ. eigenvalues --   -0.77612  -0.66853  -0.61817  -0.61416  -0.61024
 Alpha  occ. eigenvalues --   -0.60375  -0.60284  -0.59595  -0.57133  -0.53733
 Alpha  occ. eigenvalues --   -0.51050  -0.48465  -0.45890  -0.45180  -0.44261
 Alpha  occ. eigenvalues --   -0.34878  -0.29420  -0.26944  -0.26605  -0.24889
 Alpha virt. eigenvalues --    0.02155   0.02569   0.03743   0.04062   0.06149
 Alpha virt. eigenvalues --    0.06352   0.06909   0.07390   0.07719   0.08042
 Alpha virt. eigenvalues --    0.08174   0.08422   0.08964   0.10102   0.10768

 Mulliken charges:
               1
     1  C   -4.645890
     2  H    1.360225
     3  H    1.515973
     4  H    1.198970
     5  C    5.024827
     6  O   -3.395516
     7  N   -2.523676
     8  H    0.918793
     9  C   -3.474012
    10  H    1.421244
    11  H    1.385606
    12  H    1.388915
    13  H    1.380599
    14  H    1.499656
    15  H    1.463106
    16  H    1.711953
    17  H    1.520480
    18  H    1.426247
    19  C   -5.475760
    20  S    1.182817
    21  S   -0.075185
    22  C   -4.809373
 Sum of Mulliken charges =   0.00000

 Dipole moment (field-independent basis, Debye):
    X=              2.5076    Y=             -0.2656    Z=              1.6118  Tot=              2.9927

 Test job not archived.
 1\1\GINC-SE219\SP\RHF\Aug-CC-pVDZ\C5H13N1O1S2\OHZDE\09-Apr-2025\0\\#t
 hf aug-cc-pvdz iop(5/13=1,5/36=2,99/5=2) pseudo=read geom=check guess=
 (read,tcheck) scf=(maxcycle=1)\\title\\0,1\C,0,-1.31055971,-0.36190707
 ,2.17525478\H,0,-0.76310857,0.57466921,2.28149083\H,0,-0.59510431,-1.1
 7658722,2.08130356\H,0,-1.91110445,-0.50300543,3.06969011\C,0,-2.23351
 851,-0.24400233,0.97818704\O,0,-3.28055753,0.37845097,1.03390772\N,0,-
 1.80028089,-0.8717422,-0.1463058\H,0,-0.86873727,-1.25332097,-0.144399
 63\C,0,-2.47826303,-0.73306099,-1.41840567\H,0,-3.52176476,-0.50262299

 Normal termination of Gaussian 16 at Wed Apr  9 19:37:43 2025.
