 Gaussian 16, Revision C.01,

 ----------------------------------------------------------------------
 #t hf aug-cc-pvdz symm=none int=(grid=ultrafine) guess=(read,tcheck) s
 table=(opt,rrhf)
 ----------------------------------------------------------------------
 -----
 title
 -----
 Symbolic Z-matrix:
 Charge =  0 Multiplicity = 1

 SCF Done:  E(RHF) =  -855.909490053     A.U. after   14 cycles
 Normal termination of Gaussian 16 at Wed Apr  9 19:34:55 2025.
 Gaussian 16:  ES64L-G16RevC.01  3-Jul-2019

 ----------------------------------------------------------------------
 #t hf aug-cc-pvdz iop(5/13=1,5/36=2,99/5=2) pseudo=read geom=check gue
 ss=(read,tcheck) scf=(maxcycle=1)
 ----------------------------------------------------------------------
 -----
 title
 -----
 Structure from the checkpoint file:  "HB300SPXx10_1035_4.07_1.00_phosphaalkyne_methanethiol_dimer_mol1.chk"
 Charge =  0 Multiplicity = 1

                         Standard orientation:
 ---------------------------------------------------------------------
 Center     Atomic      Atomic             Coordinates (Angstroms)
 Number     Number       Type             X           Y           Z
 ---------------------------------------------------------------------
      1          1           0       -1.465863    2.138326    1.260115
      2          1           0       -1.723873    2.465302   -0.455950
      3          1           0       -0.141557    1.912499    0.105146
      4         15           0       -2.027315   -1.046313   -0.169869
      5          6           0       -1.619285    0.423094    0.047307
      6          6           0       -1.219037    1.804176    0.250727
      7          1           0        0.928392   -0.211973    1.516071
      8          1           0        2.690570   -0.338636    1.653585
      9          1           0        1.761958   -1.691400    0.991638
     10          1           0        0.932142   -0.277880   -1.131982
     11          6           0        1.826315   -0.609089    1.052728
     12         16           0        2.093750    0.124336   -0.593447
 ---------------------------------------------------------------------

 SCF Done:  E(RHF) =  -856.936711982     A.U. after    2 cycles

 The electronic state is 1-A.
 Alpha  occ. eigenvalues -- -105.17071 -75.68064 -13.11700 -13.07183 -13.03731
 Alpha  occ. eigenvalues --  -11.45394 -11.40487 -11.39430  -8.01962  -2.75370
 Alpha  occ. eigenvalues --   -1.56923  -1.35696  -1.34911  -1.18083  -1.14185
 Alpha  occ. eigenvalues --   -0.93888  -0.78313  -0.60232  -0.59838  -0.59199
 Alpha  occ. eigenvalues --   -0.59067  -0.58105  -0.48900  -0.39118  -0.23753
 Alpha  occ. eigenvalues --   -0.16508  -0.16344  -0.06837
 Alpha virt. eigenvalues --    0.02899   0.04102   0.05752   0.05888   0.06539
 Alpha virt. eigenvalues --    0.07626   0.08153   0.08618   0.08702   0.09885
 Alpha virt. eigenvalues --    0.11492   0.12766   0.13101   0.14577   0.14710

 Mulliken charges:
               1
     1  H    1.241989
     2  H    1.142152
     3  H    1.435958
     4  P    4.926425
     5  C   -3.999281
     6  C   -4.638323
     7  H    1.522200
     8  H    1.423073
     9  H    1.319393
    10  H    0.957587
    11  C   -4.654638
    12  S   -0.676536
 Sum of Mulliken charges =  -0.00000

 Dipole moment (field-independent basis, Debye):
    X=             -2.4673    Y=             -9.9195    Z=             -1.1270  Tot=             10.2837

 Test job not archived.
 1\1\GINC-SE231\SP\RHF\Aug-CC-pVDZ\C3H7P1S1\OHZDE\09-Apr-2025\0\\#t hf
 aug-cc-pvdz iop(5/13=1,5/36=2,99/5=2) pseudo=read geom=check guess=(re
 ad,tcheck) scf=(maxcycle=1)\\title\\0,1\H,0,0.38933231,2.34404549,-1.6
 8180664\H,0,-1.19987448,1.75919838,-2.18254684\H,0,0.10218747,0.605834
 91,-1.86864837\P,0,-1.17058474,1.34195856,1.32892267\C,0,-0.7484701,1.
 45533882,-0.14816129\C,0,-0.34350289,1.5476729,-1.53972175\H,0,1.83230
 688,-0.05445708,0.18551303\H,0,2.875733,-1.47386311,-0.00625271\H,0,1.
 80315009,-1.35549147,1.39589521\H,0,-0.4169929,-1.42223071,-0.10839913

 Normal termination of Gaussian 16 at Wed Apr  9 19:34:59 2025.
