 Gaussian 16, Revision C.01,

 ----------------------------------------------------------------------
 #t hf aug-cc-pvdz symm=none int=(grid=ultrafine) guess=(read,tcheck) s
 table=(opt,rrhf)
 ----------------------------------------------------------------------
 -----
 title
 -----
 Symbolic Z-matrix:
 Charge =  0 Multiplicity = 1

 SCF Done:  E(RHF) =  -974.722683777     A.U. after   13 cycles
 Normal termination of Gaussian 16 at Wed Apr  9 19:39:52 2025.
 Gaussian 16:  ES64L-G16RevC.01  3-Jul-2019

 ----------------------------------------------------------------------
 #t hf aug-cc-pvdz iop(5/13=1,5/36=2,99/5=2) pseudo=read geom=check gue
 ss=(read,tcheck) scf=(maxcycle=1)
 ----------------------------------------------------------------------
 -----
 title
 -----
 Structure from the checkpoint file:  "HB300SPXx10_1374_4.42_0.95_hydrogenchloride_thioacetone_dimer_mol1.chk"
 Charge =  0 Multiplicity = 1

                         Standard orientation:
 ---------------------------------------------------------------------
 Center     Atomic      Atomic             Coordinates (Angstroms)
 Number     Number       Type             X           Y           Z
 ---------------------------------------------------------------------
      1          1           0        1.597202   -0.129445    0.000000
      2         17           0        2.530882   -1.059565    0.000000
      3          1           0       -0.235994   -1.573368    0.000000
      4          1           0       -1.781298   -1.585150    0.874054
      5          1           0       -1.781298   -1.585150   -0.874054
      6          1           0       -2.689815    1.957924    0.000000
      7          1           0       -3.249356    0.514928   -0.874659
      8          6           0       -1.252251   -1.197054    0.000000
      9          6           0       -1.319251    0.297071    0.000000
     10         16           0       -0.000000    1.253568    0.000000
     11          6           0       -2.701010    0.873458    0.000000
     12          1           0       -3.249356    0.514928    0.874659
 ---------------------------------------------------------------------

 SCF Done:  E(RHF) =  -975.802991041     A.U. after    2 cycles

 The electronic state is 1-A'.
 Alpha  occ. eigenvalues --  -99.86748 -75.68210 -13.17796 -13.08770 -12.99769
 Alpha  occ. eigenvalues --  -11.49722 -11.41670 -11.40076 -10.43897  -9.64029
 Alpha  occ. eigenvalues --   -9.63326  -9.63144  -8.02594  -1.30620  -1.26391
 Alpha  occ. eigenvalues --   -1.06698  -1.05144  -0.77361  -0.66724  -0.63042
 Alpha  occ. eigenvalues --   -0.62677  -0.61440  -0.56729  -0.52439  -0.49352
 Alpha  occ. eigenvalues --   -0.49169  -0.43510  -0.34012  -0.25209
 Alpha virt. eigenvalues --    0.01859   0.04970   0.05039   0.06073   0.06481
 Alpha virt. eigenvalues --    0.06956   0.07301   0.07436   0.09043   0.10754
 Alpha virt. eigenvalues --    0.11975   0.12711   0.14121   0.14910   0.15138

 Mulliken charges:
               1
     1  H    0.832212
     2  Cl  -0.837101
     3  H    1.451950
     4  H    1.157021
     5  H    1.157021
     6  H    1.456227
     7  H    1.183966
     8  C   -4.535338
     9  C    0.263726
    10  S    0.814845
    11  C   -4.128496
    12  H    1.183966
 Sum of Mulliken charges =   0.00000

 Dipole moment (field-independent basis, Debye):
    X=             -2.9983    Y=              1.9118    Z=             -0.0000  Tot=              3.5560

 Test job not archived.
 1\1\GINC-SE131\SP\RHF\Aug-CC-pVDZ\C3H7Cl1S1\OHZDE\09-Apr-2025\0\\#t hf
  aug-cc-pvdz iop(5/13=1,5/36=2,99/5=2) pseudo=read geom=check guess=(r
 ead,tcheck) scf=(maxcycle=1)\\title\\0,1\H,0,-0.37830043,1.49279945,0.
 \Cl,0,0.15229845,2.69917624,0.\H,0,1.6297811,0.30404838,0.\H,0,2.19831
 496,-1.13291791,0.87405369\H,0,2.19831496,-1.13291791,-0.87405369\H,0,
 -0.77831608,-3.25858068,0.\H,0,0.76936742,-3.25980049,-0.87465894\C,0,
 1.64548006,-0.77953083,0.\C,0,0.27616851,-1.38109826,0.\S,0,-1.0918882
 9,-0.49581174,0.\C,0,0.23714336,-2.87774641,0.\H,0,0.76936742,-3.25980

 Normal termination of Gaussian 16 at Wed Apr  9 19:39:56 2025.
