 Gaussian 16, Revision C.01,

 ----------------------------------------------------------------------
 #t hf aug-cc-pvdz symm=none int=(grid=ultrafine) guess=(read,tcheck) s
 table=(opt,rrhf)
 ----------------------------------------------------------------------
 -----
 title
 -----
 Symbolic Z-matrix:
 Charge =  0 Multiplicity = 1

 SCF Done:  E(RHF) =  -1102.15661849     A.U. after   13 cycles
 Normal termination of Gaussian 16 at Wed Apr  9 19:36:31 2025.
 Gaussian 16:  ES64L-G16RevC.01  3-Jul-2019

 ----------------------------------------------------------------------
 #t hf aug-cc-pvdz iop(5/13=1,5/36=2,99/5=2) pseudo=read geom=check gue
 ss=(read,tcheck) scf=(maxcycle=1)
 ----------------------------------------------------------------------
 -----
 title
 -----
 Structure from the checkpoint file:  "HB300SPXx10_1115_4.15_1.00_aceticacid_dimethyldisulfide_dimer_mol1.chk"
 Charge =  0 Multiplicity = 1

                         Standard orientation:
 ---------------------------------------------------------------------
 Center     Atomic      Atomic             Coordinates (Angstroms)
 Number     Number       Type             X           Y           Z
 ---------------------------------------------------------------------
      1          6           0        2.856748   -0.069209   -0.037588
      2          8           0        2.508501    1.077227   -0.186132
      3          8           0        2.001896   -1.104073   -0.042403
      4          1           0        1.095835   -0.760952   -0.196480
      5          6           0        4.276235   -0.517474    0.172460
      6          1           0        4.934638    0.343758    0.191008
      7          1           0        4.354835   -1.070705    1.107255
      8          1           0        4.569392   -1.194240   -0.629141
      9          1           0       -4.699384   -0.694598    0.255191
     10          1           0       -3.975575   -0.094454   -1.252367
     11          1           0       -3.986749    0.928491    0.209903
     12          1           0       -0.454170    1.304758    1.563782
     13          1           0       -1.491055    2.352921    0.555646
     14          1           0        0.250763    2.179930    0.192388
     15          6           0       -3.901941   -0.086044   -0.168979
     16         16           0       -2.342171   -0.855289    0.368033
     17         16           0       -0.921864    0.285911   -0.576312
     18          6           0       -0.640566    1.677711    0.561367
 ---------------------------------------------------------------------

 SCF Done:  E(RHF) =  -1104.01004210     A.U. after    2 cycles

 The electronic state is 1-A.
 Alpha  occ. eigenvalues --  -75.70700 -75.70335 -21.10132 -21.04227 -13.16437
 Alpha  occ. eigenvalues --  -13.12789 -13.11757 -13.09461 -13.07679 -13.04004
 Alpha  occ. eigenvalues --  -11.51547 -11.40296 -11.39593 -11.38957  -8.04732
 Alpha  occ. eigenvalues --   -8.04386  -1.81575  -1.64201  -1.27046  -1.12999
 Alpha  occ. eigenvalues --   -1.10615  -0.98391  -0.87284  -0.79305  -0.63313
 Alpha  occ. eigenvalues --   -0.61337  -0.60531  -0.59951  -0.59769  -0.59241
 Alpha  occ. eigenvalues --   -0.58501  -0.53826  -0.49121  -0.47509  -0.44774
 Alpha  occ. eigenvalues --   -0.43309  -0.34236  -0.32764  -0.29204  -0.25530
 Alpha  occ. eigenvalues --   -0.24219
 Alpha virt. eigenvalues --    0.02620   0.03446   0.04373   0.04605   0.06485
 Alpha virt. eigenvalues --    0.06564   0.06674   0.07395   0.08214   0.08374
 Alpha virt. eigenvalues --    0.09527   0.10754   0.11969   0.12524   0.12901

 Mulliken charges:
               1
     1  C    5.579601
     2  O   -3.126190
     3  O   -3.312045
     4  H    1.870793
     5  C   -4.406450
     6  H    1.290126
     7  H    1.250990
     8  H    1.242797
     9  H    1.343574
    10  H    1.508233
    11  H    1.562225
    12  H    1.533400
    13  H    1.476112
    14  H    1.657687
    15  C   -4.819916
    16  S    0.483308
    17  S   -0.441390
    18  C   -4.692855
 Sum of Mulliken charges =  -0.00000

 Dipole moment (field-independent basis, Debye):
    X=             -0.3325    Y=             -1.2274    Z=             -0.0185  Tot=              1.2718

 Test job not archived.
 1\1\GINC-SE340\SP\RHF\Aug-CC-pVDZ\C4H10O2S2\OHZDE\09-Apr-2025\0\\#t hf
  aug-cc-pvdz iop(5/13=1,5/36=2,99/5=2) pseudo=read geom=check guess=(r
 ead,tcheck) scf=(maxcycle=1)\\title\\0,1\C,0,2.51189353,-1.3688008,0.0
 1480743\O,0,1.76216303,-1.97148126,0.7444221\O,0,2.20838592,-0.1819016
 3,-0.53372859\H,0,1.31541707,0.08523139,-0.22768185\C,0,3.88111819,-1.
 83853704,-0.39087365\H,0,4.08390343,-2.80677129,0.05292751\H,0,3.94369
 33,-1.90220497,-1.47628393\H,0,4.62800978,-1.11523999,-0.06604891\H,0,
 -3.86402426,2.69605347,-0.61494427\H,0,-3.10226217,2.59267462,0.986878

 Normal termination of Gaussian 16 at Wed Apr  9 19:36:37 2025.
