 Gaussian 16, Revision C.01,

 ----------------------------------------------------------------------
 #t hf aug-cc-pvdz symm=none int=(grid=ultrafine) guess=(read,tcheck) s
 table=(opt,rrhf)
 ----------------------------------------------------------------------
 -----
 title
 -----
 Symbolic Z-matrix:
 Charge =  0 Multiplicity = 1

 SCF Done:  E(RHF) =  -858.785443579     A.U. after   11 cycles

 1\1\GINC-SE219\Stability\RHF\Aug-CC-pVDZ\Cl1H3S1\OHZDE\09-Apr-2025\0\\
 #t hf aug-cc-pvdz symm=none int=(grid=ultrafine) guess=(read,tcheck) s
 table=(opt,rrhf)\\title\\0,1\H,0,-0.07574771,0.51696812,0.\Cl,0,0.0020
 5903,1.81286821,0.\H,0,0.86735225,-1.57172316,0.97032462\H,0,0.8673522
 5,-1.57172316,-0.97032462\S,0,-0.05789486,-1.51820773,0.\\Version=ES64
 L-G16RevC.01\HF=-858.7854436\RMSD=4.240e-09\Dipole=0.4310912,-1.044959
 4,0.\Quadrupole=0.743469,-2.4361643,1.6926952,-1.5645112,0.,0.\PG=Unkn
 own\\@

 Normal termination of Gaussian 16 at Wed Apr  9 19:38:50 2025.
 Gaussian 16:  ES64L-G16RevC.01  3-Jul-2019

 ----------------------------------------------------------------------
 #t hf aug-cc-pvdz iop(5/13=1,5/36=2,99/5=2) pseudo=read geom=check gue
 ss=(read,tcheck) scf=(maxcycle=1)
 ----------------------------------------------------------------------
 -----
 title
 -----
 Structure from the checkpoint file:  "HB300SPXx10_1352_4.40_0.85_hydrogenchloride_sulfane_dimer_mol1.chk"
 Charge =  0 Multiplicity = 1

                         Standard orientation:
 ---------------------------------------------------------------------
 Center     Atomic      Atomic             Coordinates (Angstroms)
 Number     Number       Type             X           Y           Z
 ---------------------------------------------------------------------
      1          1           0       -0.104408    0.406795    0.000000
      2         17           0       -0.049935    1.703886    0.000000
      3          1           0        0.876126   -1.664586    0.970325
      4          1           0        0.876126   -1.664586   -0.970325
      5         16           0       -0.049935   -1.627730   -0.000000
 ---------------------------------------------------------------------

 SCF Done:  E(RHF) =  -859.282403181     A.U. after    2 cycles

 The electronic state is 1-A'.
 Alpha  occ. eigenvalues --  -99.87438 -75.73094 -13.18116 -13.15741 -13.10653
 Alpha  occ. eigenvalues --  -10.44681  -9.64841  -9.63889  -9.63886  -8.06983
 Alpha  occ. eigenvalues --   -1.27960  -1.14903  -0.68305  -0.57946  -0.50216
 Alpha  occ. eigenvalues --   -0.50130  -0.46664  -0.29990
 Alpha virt. eigenvalues --    0.01338   0.05599   0.06079   0.09596   0.09953
 Alpha virt. eigenvalues --    0.10435   0.13692   0.15308   0.15365   0.16162
 Alpha virt. eigenvalues --    0.21914   0.21920   0.23336   0.23824   0.24366

 Mulliken charges:
               1
     1  H    1.221622
     2  Cl  -0.826232
     3  H    1.112165
     4  H    1.112165
     5  S   -2.619721
 Sum of Mulliken charges =   0.00000

 Dipole moment (field-independent basis, Debye):
    X=             -1.0742    Y=             -2.9042    Z=             -0.0000  Tot=              3.0965

 Test job not archived.
 1\1\GINC-SE219\SP\RHF\Aug-CC-pVDZ\Cl1H3S1\OHZDE\09-Apr-2025\0\\#t hf a
 ug-cc-pvdz iop(5/13=1,5/36=2,99/5=2) pseudo=read geom=check guess=(rea
 d,tcheck) scf=(maxcycle=1)\\title\\0,1\H,0,-0.07574771,0.51696812,0.\C
 l,0,0.00205903,1.81286821,0.\H,0,0.86735225,-1.57172316,0.97032462\H,0
 ,0.86735225,-1.57172316,-0.97032462\S,0,-0.05789486,-1.51820773,0.\\Ve
 rsion=ES64L-G16RevC.01\State=1-A'\HF=-859.2824032\RMSD=1.125e-01\Dipol
 e=-0.4430967,-1.1348079,0.\Quadrupole=0.1358337,-1.2636922,1.1278586,1
 .0954548,0.,0.\PG=CS [SG(Cl1H1S1),X(H2)]\\@

 Normal termination of Gaussian 16 at Wed Apr  9 19:38:51 2025.
