 Gaussian 16, Revision C.01,

 ----------------------------------------------------------------------
 #t hf aug-cc-pvdz symm=none int=(grid=ultrafine) guess=(read,tcheck) s
 table=(opt,rrhf)
 ----------------------------------------------------------------------
 -----
 title
 -----
 Symbolic Z-matrix:
 Charge =  0 Multiplicity = 1

 SCF Done:  E(RHF) =  -991.406528055     A.U. after   12 cycles

 1\1\GINC-SE048\Stability\RHF\Aug-CC-pVDZ\C5H12S2\OHZDE\09-Apr-2025\0\\
 #t hf aug-cc-pvdz symm=none int=(grid=ultrafine) guess=(read,tcheck) s
 table=(opt,rrhf)\\title\\0,1\H,0,2.75511322,-2.75302781,-0.03281769\H,
 0,2.23328443,-3.6609344,1.39160682\H,0,2.88304587,-2.02859561,1.588775
 53\H,0,0.87227038,-0.86572365,0.25189781\C,0,2.28978938,-2.67174858,0.
 94522466\S,0,0.57786237,-2.06107277,0.80693494\H,0,-0.64047421,-0.6240
 2903,-1.61614519\H,0,-0.73538744,0.84649264,-2.59550028\H,0,-2.8779807
 6,0.18053792,-1.13488111\H,0,-0.59150209,2.54933642,0.99792292\H,0,-2.

 Normal termination of Gaussian 16 at Wed Apr  9 19:39:39 2025.
 Gaussian 16:  ES64L-G16RevC.01  3-Jul-2019

 ----------------------------------------------------------------------
 #t hf aug-cc-pvdz iop(5/13=1,5/36=2,99/5=2) pseudo=read geom=check gue
 ss=(read,tcheck) scf=(maxcycle=1)
 ----------------------------------------------------------------------
 -----
 title
 -----
 Structure from the checkpoint file:  "HB300SPXx10_1203_4.25_0.90_methanethiol_tetrahydrothiophene_dimer_mol1.chk"
 Charge =  0 Multiplicity = 1

                         Standard orientation:
 ---------------------------------------------------------------------
 Center     Atomic      Atomic             Coordinates (Angstroms)
 Number     Number       Type             X           Y           Z
 ---------------------------------------------------------------------
      1          1           0        3.536919    1.092068   -0.805523
      2          1           0        4.352389   -0.292840   -0.068892
      3          1           0        3.525438    0.880997    0.962541
      4          1           0        1.096865    0.309924   -0.016560
      5          6           0        3.494310    0.369906    0.004641
      6         16           0        2.009524   -0.678828   -0.130689
      7          1           0       -0.494790   -0.063544   -1.795198
      8          1           0       -1.964312    0.902032   -1.992042
      9          1           0       -2.247489   -1.691637   -1.391789
     10          1           0       -2.144225    0.365656    1.946613
     11          1           0       -3.217231   -0.521549   -0.499034
     12          1           0       -0.421457   -0.017939    2.066831
     13          1           0       -2.108099   -1.929545    1.199813
     14          1           0       -0.556785   -1.720355    0.399104
     15         16           0       -0.894592    1.355102    0.127017
     16          6           0       -1.390294    0.299424   -1.293472
     17          6           0       -2.196726   -0.851886   -0.698504
     18          6           0       -1.509410   -1.234327    0.611335
     19          6           0       -1.263903    0.061274    1.384813
 ---------------------------------------------------------------------

 SCF Done:  E(RHF) =  -992.895148583     A.U. after    2 cycles

 The electronic state is 1-A.
 Alpha  occ. eigenvalues --  -75.66870 -75.66723 -13.13745 -13.11251 -13.10389
 Alpha  occ. eigenvalues --  -13.09111 -13.06764 -13.00068 -11.43878 -11.42855
 Alpha  occ. eigenvalues --  -11.39084 -11.38851 -11.36310  -8.00966  -8.00656
 Alpha  occ. eigenvalues --   -1.33014  -1.17086  -1.07467  -1.07179  -0.93073
 Alpha  occ. eigenvalues --   -0.84708  -0.83195  -0.66778  -0.65585  -0.60955
 Alpha  occ. eigenvalues --   -0.59132  -0.57778  -0.54804  -0.49331  -0.48658
 Alpha  occ. eigenvalues --   -0.46565  -0.45545  -0.42203  -0.38618  -0.34996
 Alpha  occ. eigenvalues --   -0.22772  -0.21051
 Alpha virt. eigenvalues --    0.02993   0.03611   0.04472   0.05351   0.05803
 Alpha virt. eigenvalues --    0.06091   0.06381   0.06458   0.07453   0.07963
 Alpha virt. eigenvalues --    0.08649   0.09474   0.11214   0.12546   0.13142

 Mulliken charges:
               1
     1  H    1.349740
     2  H    1.323606
     3  H    1.399812
     4  H    2.172697
     5  C   -5.228091
     6  S   -0.554346
     7  H    1.395666
     8  H    1.395313
     9  H    1.298044
    10  H    1.412111
    11  H    1.407841
    12  H    1.436256
    13  H    1.308825
    14  H    1.740407
    15  S    0.184810
    16  C   -3.161261
    17  C   -2.697408
    18  C   -2.837355
    19  C   -3.346667
 Sum of Mulliken charges =   0.00000

 Dipole moment (field-independent basis, Debye):
    X=              0.1182    Y=             -0.5154    Z=             -0.0142  Tot=              0.5290

 Test job not archived.
 1\1\GINC-SE048\SP\RHF\Aug-CC-pVDZ\C5H12S2\OHZDE\09-Apr-2025\0\\#t hf a
 ug-cc-pvdz iop(5/13=1,5/36=2,99/5=2) pseudo=read geom=check guess=(rea
 d,tcheck) scf=(maxcycle=1)\\title\\0,1\H,0,2.75511322,-2.75302781,-0.0
 3281769\H,0,2.23328443,-3.6609344,1.39160682\H,0,2.88304587,-2.0285956
 1,1.58877553\H,0,0.87227038,-0.86572365,0.25189781\C,0,2.28978938,-2.6
 7174858,0.94522466\S,0,0.57786237,-2.06107277,0.80693494\H,0,-0.640474
 21,-0.62402903,-1.61614519\H,0,-0.73538744,0.84649264,-2.59550028\H,0,
 -2.87798076,0.18053792,-1.13488111\H,0,-0.59150209,2.54933642,0.997922

 Normal termination of Gaussian 16 at Wed Apr  9 19:39:47 2025.
