 Gaussian 16, Revision C.01,

 ----------------------------------------------------------------------
 #t hf aug-cc-pvdz symm=none int=(grid=ultrafine) guess=(read,tcheck) s
 table=(opt,rrhf)
 ----------------------------------------------------------------------
 -----
 title
 -----
 Symbolic Z-matrix:
 Charge =  0 Multiplicity = 1

 SCF Done:  E(RHF) =  -855.895579251     A.U. after   14 cycles
 Normal termination of Gaussian 16 at Wed Apr  9 19:34:55 2025.
 Gaussian 16:  ES64L-G16RevC.01  3-Jul-2019

 ----------------------------------------------------------------------
 #t hf aug-cc-pvdz iop(5/13=1,5/36=2,99/5=2) pseudo=read geom=check gue
 ss=(read,tcheck) scf=(maxcycle=1)
 ----------------------------------------------------------------------
 -----
 title
 -----
 Structure from the checkpoint file:  "HB300SPXx10_1031_4.07_0.80_phosphaalkyne_methanethiol_dimer_mol1.chk"
 Charge =  0 Multiplicity = 1

                         Standard orientation:
 ---------------------------------------------------------------------
 Center     Atomic      Atomic             Coordinates (Angstroms)
 Number     Number       Type             X           Y           Z
 ---------------------------------------------------------------------
      1          1           0       -0.831819    2.119678    1.310293
      2          1           0       -1.108036    2.546418   -0.380850
      3          1           0        0.375960    1.705282    0.082172
      4         15           0       -2.014608   -0.865229   -0.170705
      5          6           0       -1.343161    0.501288    0.062974
      6          6           0       -0.695648    1.782749    0.281030
      7          1           0        0.748224   -0.196363    1.551651
      8          1           0        2.464623   -0.635054    1.593489
      9          1           0        1.281196   -1.779953    0.946053
     10          1           0        0.616091   -0.169655   -1.093792
     11          6           0        1.538935   -0.728532    1.031817
     12         16           0        1.854508    0.003440   -0.606460
 ---------------------------------------------------------------------

 SCF Done:  E(RHF) =  -856.933748198     A.U. after    2 cycles

 The electronic state is 1-A.
 Alpha  occ. eigenvalues -- -105.17235 -75.67726 -13.12215 -13.07622 -13.06403
 Alpha  occ. eigenvalues --  -11.45354 -11.40100 -11.39606  -8.01719  -2.75476
 Alpha  occ. eigenvalues --   -1.57133  -1.36321  -1.35257  -1.19091  -1.13523
 Alpha  occ. eigenvalues --   -0.94198  -0.78563  -0.61714  -0.60061  -0.59361
 Alpha  occ. eigenvalues --   -0.59034  -0.57160  -0.49063  -0.39445  -0.23913
 Alpha  occ. eigenvalues --   -0.16618  -0.16140  -0.06910
 Alpha virt. eigenvalues --    0.03146   0.04264   0.05893   0.06029   0.06627
 Alpha virt. eigenvalues --    0.07528   0.07990   0.08425   0.08627   0.10037
 Alpha virt. eigenvalues --    0.11569   0.13043   0.13563   0.14668   0.14989

 Mulliken charges:
               1
     1  H    1.249268
     2  H    1.081067
     3  H    1.833731
     4  P    4.665269
     5  C   -3.868642
     6  C   -4.649023
     7  H    1.704152
     8  H    1.378149
     9  H    1.307890
    10  H    0.896361
    11  C   -4.655977
    12  S   -0.942244
 Sum of Mulliken charges =  -0.00000

 Dipole moment (field-independent basis, Debye):
    X=             -4.4182    Y=             -9.2571    Z=             -1.2356  Tot=             10.3315

 Test job not archived.
 1\1\GINC-SE084\SP\RHF\Aug-CC-pVDZ\C3H7P1S1\OHZDE\09-Apr-2025\0\\#t hf
 aug-cc-pvdz iop(5/13=1,5/36=2,99/5=2) pseudo=read geom=check guess=(re
 ad,tcheck) scf=(maxcycle=1)\\title\\0,1\H,0,0.38933231,2.34404549,-1.6
 8180664\H,0,-1.19987448,1.75919838,-2.18254684\H,0,0.10218747,0.605834
 91,-1.86864837\P,0,-1.17058474,1.34195856,1.32892267\C,0,-0.7484701,1.
 45533882,-0.14816129\C,0,-0.34350289,1.5476729,-1.53972175\H,0,1.72096
 715,0.47011086,-0.0588601\H,0,2.76439326,-0.94929517,-0.25062584\H,0,1
 .69181035,-0.83092352,1.15152209\H,0,-0.52833264,-0.89766276,-0.352772

 Normal termination of Gaussian 16 at Wed Apr  9 19:34:59 2025.
