 Gaussian 16, Revision C.01,

 ----------------------------------------------------------------------
 #t hf aug-cc-pvdz symm=none int=(grid=ultrafine) guess=(read,tcheck) s
 table=(opt,rrhf)
 ----------------------------------------------------------------------
 -----
 title
 -----
 Symbolic Z-matrix:
 Charge =  0 Multiplicity = 1

 SCF Done:  E(RHF) =  -1091.85321183     A.U. after   14 cycles
 Normal termination of Gaussian 16 at Wed Apr  9 19:42:18 2025.
 Gaussian 16:  ES64L-G16RevC.01  3-Jul-2019

 ----------------------------------------------------------------------
 #t hf aug-cc-pvdz iop(5/13=1,5/36=2,99/5=2) pseudo=read geom=check gue
 ss=(read,tcheck) scf=(maxcycle=1)
 ----------------------------------------------------------------------
 -----
 title
 -----
 Structure from the checkpoint file:  "HB300SPXx10_1405_5.03_1.00_dimethylsulfoxide_phosphineF2_dimer_mol1.chk"
 Charge =  0 Multiplicity = 1

                         Standard orientation:
 ---------------------------------------------------------------------
 Center     Atomic      Atomic             Coordinates (Angstroms)
 Number     Number       Type             X           Y           Z
 ---------------------------------------------------------------------
      1          1           0        2.093881    1.674432   -1.456134
      2          1           0        2.892404    1.754306    0.132806
      3          1           0        1.100083    1.828443    0.018205
      4          1           0        1.561105   -1.587737    1.683679
      5          1           0        0.858305    0.049831    1.780922
      6          6           0        2.010134    1.412237   -0.404904
      7         16           0        1.932653   -0.395679   -0.324872
      8          8           0        0.635791   -0.800242   -0.952603
      9          6           0        1.719541   -0.534450    1.468902
     10          1           0        2.628367   -0.189000    1.957809
     11         15           0       -1.819013   -0.377214   -0.097977
     12          9           0       -3.351962    0.106868    0.059062
     13          9           0       -1.150859    0.957942    0.523919
     14          1           0       -1.710380    0.010726   -1.459672
 ---------------------------------------------------------------------

 SCF Done:  E(RHF) =  -1093.70120012     A.U. after    2 cycles

 The electronic state is 1-A.
 Alpha  occ. eigenvalues -- -105.27036 -75.79335 -29.26993 -29.25784 -21.01204
 Alpha  occ. eigenvalues --  -13.34579 -13.22499 -13.18133 -11.41689 -11.41050
 Alpha  occ. eigenvalues --   -8.13764  -2.85955  -1.70929  -1.59239  -1.56878
 Alpha  occ. eigenvalues --   -1.50614  -1.21468  -1.06416  -0.90265  -0.87100
 Alpha  occ. eigenvalues --   -0.64663  -0.63190  -0.61649  -0.60229  -0.54615
 Alpha  occ. eigenvalues --   -0.51008  -0.49582  -0.44779  -0.40387  -0.38332
 Alpha  occ. eigenvalues --   -0.35342  -0.33894  -0.32088  -0.28746  -0.24242
 Alpha  occ. eigenvalues --   -0.23133  -0.18026   0.01901
 Alpha virt. eigenvalues --    0.03009   0.04091   0.05477   0.06418   0.07089
 Alpha virt. eigenvalues --    0.07727   0.08159   0.08743   0.10793   0.12127
 Alpha virt. eigenvalues --    0.12405   0.13091   0.14123   0.15399   0.15740

 Mulliken charges:
               1
     1  H    1.472803
     2  H    1.195146
     3  H    1.343450
     4  H    0.371911
     5  H    1.260683
     6  C   -4.298075
     7  S    3.220786
     8  O   -2.134567
     9  C   -3.895262
    10  H    1.039758
    11  P    2.279369
    12  F   -0.118219
    13  F   -0.616798
    14  H   -1.120984
 Sum of Mulliken charges =  -0.00000

 Dipole moment (field-independent basis, Debye):
    X=             -5.3094    Y=              5.5635    Z=             -4.5583  Tot=              8.9398

 Test job not archived.
 1\1\GINC-SE048\SP\RHF\Aug-CC-pVDZ\C2H7F2O1P1S1\OHZDE\09-Apr-2025\0\\#t
  hf aug-cc-pvdz iop(5/13=1,5/36=2,99/5=2) pseudo=read geom=check guess
 =(read,tcheck) scf=(maxcycle=1)\\title\\0,1\H,0,1.67395499,0.82417178,
 -3.38423362\H,0,0.49124302,-0.02078366,-4.41184902\H,0,0.89589517,-0.6
 6534236,-2.78340018\H,0,-2.718683,0.46280377,-2.2188292\H,0,-1.5421980
 9,-0.87905323,-2.20106353\C,0,0.76564588,0.22768029,-3.38836814\S,0,-0
 .5351395,1.25679703,-2.66046249\O,0,-0.17783951,1.44910918,-1.22000404
 \C,0,-1.85989706,0.022286,-2.71790313\H,0,-2.10168806,-0.18449539,-3.7

 Normal termination of Gaussian 16 at Wed Apr  9 19:42:23 2025.
