 Gaussian 16, Revision C.01,

 ----------------------------------------------------------------------
 #t hf aug-cc-pvdz symm=none int=(grid=ultrafine) guess=(read,tcheck) s
 table=(opt,rrhf)
 ----------------------------------------------------------------------
 -----
 title
 -----
 Symbolic Z-matrix:
 Charge =  0 Multiplicity = 1

 SCF Done:  E(RHF) =  -1334.39186282     A.U. after   13 cycles
 Normal termination of Gaussian 16 at Wed Apr  9 04:10:30 2025.
 Gaussian 16:  ES64L-G16RevC.01  3-Jul-2019

 ----------------------------------------------------------------------
 #t hf aug-cc-pvdz iop(5/13=1,5/36=2,99/5=2) pseudo=read geom=check gue
 ss=(read,tcheck) scf=(maxcycle=1)
 ----------------------------------------------------------------------
 -----
 title
 -----
 Structure from the checkpoint file:  "HB300SPXx10_1313_4.36_0.90_hydrogenchloride_dimethyldisulfide_dimer_mol1.chk"
 Charge =  0 Multiplicity = 1

                         Standard orientation:
 ---------------------------------------------------------------------
 Center     Atomic      Atomic             Coordinates (Angstroms)
 Number     Number       Type             X           Y           Z
 ---------------------------------------------------------------------
      1          1           0       -1.637063   -0.192744    0.388199
      2         17           0       -2.794559   -0.557988   -0.093061
      3          1           0        3.524605   -1.185522   -0.537530
      4          1           0        3.237128   -0.222884    0.927626
      5          1           0        3.104786    0.530385   -0.685320
      6          1           0       -0.659795    1.358822   -1.412346
      7          1           0        0.855629    2.211101   -0.999374
      8          1           0       -0.659817    2.639610   -0.179818
      9          6           0        2.940712   -0.373758   -0.105983
     10         16           0        1.202790   -0.905622   -0.200058
     11         16           0        0.210181    0.633061    0.726596
     12          6           0       -0.084964    1.825093   -0.618017
 ---------------------------------------------------------------------

 SCF Done:  E(RHF) =  -1335.52863439     A.U. after    2 cycles

 The electronic state is 1-A.
 Alpha  occ. eigenvalues --  -99.87129 -75.72002 -75.71342 -13.17377 -13.15006
 Alpha  occ. eigenvalues --  -13.12801 -13.11201 -13.09242 -13.04903 -11.41255
 Alpha  occ. eigenvalues --  -11.41075 -10.44327  -9.64468  -9.63618  -9.63579
 Alpha  occ. eigenvalues --   -8.06127  -8.05387  -1.29259  -1.26477  -1.14236
 Alpha  occ. eigenvalues --   -0.99748  -0.88628  -0.68045  -0.61662  -0.60655
 Alpha  occ. eigenvalues --   -0.60618  -0.59839  -0.49971  -0.49789  -0.48525
 Alpha  occ. eigenvalues --   -0.44658  -0.35487  -0.27585  -0.25328
 Alpha virt. eigenvalues --    0.02111   0.03134   0.04405   0.05108   0.06874
 Alpha virt. eigenvalues --    0.07372   0.08192   0.08580   0.09600   0.11301
 Alpha virt. eigenvalues --    0.12170   0.12408   0.14242   0.14646   0.14886

 Mulliken charges:
               1
     1  H    1.174016
     2  Cl  -0.790325
     3  H    1.333325
     4  H    1.507496
     5  H    1.521129
     6  H    1.343492
     7  H    1.547622
     8  H    1.368945
     9  C   -4.759652
    10  S    0.639558
    11  S   -0.679949
    12  C   -4.205656
 Sum of Mulliken charges =  -0.00000

 Dipole moment (field-independent basis, Debye):
    X=              2.9605    Y=              0.4692    Z=              0.5500  Tot=              3.0475

 Test job not archived.
 1\1\GINC-SE174\SP\RHF\Aug-CC-pVDZ\C2H7Cl1S2\OHZDE\09-Apr-2025\0\\#t hf
  aug-cc-pvdz iop(5/13=1,5/36=2,99/5=2) pseudo=read geom=check guess=(r
 ead,tcheck) scf=(maxcycle=1)\\title\\0,1\H,0,-0.26068265,0.62653872,-1
 .61580209\Cl,0,0.10581098,1.51670262,-2.49790267\H,0,1.8729326,-1.9114
 5441,2.56650325\H,0,0.27459401,-2.53005028,2.09890479\H,0,0.41980744,-
 0.98339408,2.97827448\H,0,-0.52331078,1.96130567,0.56451806\H,0,-1.212
 76077,1.08632038,1.96183575\H,0,-2.22993283,1.46439093,0.55674052\C,0,
 0.8728759,-1.6343735,2.23599343\S,0,1.09450941,-0.76662951,0.65169452\

 Normal termination of Gaussian 16 at Wed Apr  9 04:10:34 2025.
