 Gaussian 16, Revision C.01,

 ----------------------------------------------------------------------
 #t hf aug-cc-pvdz symm=none int=(grid=ultrafine) guess=(read,tcheck) s
 table=(opt,rrhf)
 ----------------------------------------------------------------------
 -----
 title
 -----
 Symbolic Z-matrix:
 Charge =  0 Multiplicity = 1

 SCF Done:  E(RHF) =  -513.773699522     A.U. after   12 cycles
 Normal termination of Gaussian 16 at Wed Apr  9 19:37:51 2025.
 Gaussian 16:  ES64L-G16RevC.01  3-Jul-2019

 ----------------------------------------------------------------------
 #t hf aug-cc-pvdz iop(5/13=1,5/36=2,99/5=2) pseudo=read geom=check gue
 ss=(read,tcheck) scf=(maxcycle=1)
 ----------------------------------------------------------------------
 -----
 title
 -----
 Structure from the checkpoint file:  "HB300SPXx10_1164_4.21_0.95_water_methanethiol_dimer_mol1.chk"
 Charge =  0 Multiplicity = 1

                         Standard orientation:
 ---------------------------------------------------------------------
 Center     Atomic      Atomic             Coordinates (Angstroms)
 Number     Number       Type             X           Y           Z
 ---------------------------------------------------------------------
      1          8           0       -2.253047    0.110653    0.054368
      2          1           0       -1.436319   -0.388763   -0.089113
      3          1           0       -2.953846   -0.438333   -0.303452
      4          1           0       -0.022829    1.529174    0.494011
      5          1           0        0.884136    1.506874   -1.022220
      6          1           0        1.766090    1.510649    0.511683
      7          1           0        0.847234   -0.901049    1.239175
      8          6           0        0.872607    1.157436    0.006475
      9         16           0        0.856517   -0.665525   -0.081492
 ---------------------------------------------------------------------

 SCF Done:  E(RHF) =  -514.544998559     A.U. after    2 cycles

 The electronic state is 1-A.
 Alpha  occ. eigenvalues --  -75.69506 -21.07772 -13.14108 -13.09624 -13.08268
 Alpha  occ. eigenvalues --  -11.40061  -8.03424  -1.64467  -1.19248  -0.94848
 Alpha  occ. eigenvalues --   -0.63014  -0.60494  -0.58643  -0.49960  -0.45333
 Alpha  occ. eigenvalues --   -0.39990  -0.33792  -0.25000
 Alpha virt. eigenvalues --    0.02920   0.04042   0.04849   0.05978   0.07673
 Alpha virt. eigenvalues --    0.09780   0.10989   0.11777   0.14394   0.15230
 Alpha virt. eigenvalues --    0.15903   0.16664   0.18846   0.20352   0.23050

 Mulliken charges:
               1
     1  O   -1.995005
     2  H    1.629329
     3  H    0.857321
     4  H    1.275527
     5  H    1.450364
     6  H    1.311137
     7  H    1.152733
     8  C   -4.472320
     9  S   -1.209086
 Sum of Mulliken charges =  -0.00000

 Dipole moment (field-independent basis, Debye):
    X=              0.6172    Y=             -0.4361    Z=             -1.1920  Tot=              1.4114

 Test job not archived.
 1\1\GINC-SE162\SP\RHF\Aug-CC-pVDZ\C1H6O1S1\OHZDE\09-Apr-2025\0\\#t hf
 aug-cc-pvdz iop(5/13=1,5/36=2,99/5=2) pseudo=read geom=check guess=(re
 ad,tcheck) scf=(maxcycle=1)\\title\\0,1\O,0,-0.58582535,-1.65985485,-1
 .57348405\H,0,-0.07487288,-1.34797585,-0.81275631\H,0,-0.15829821,-2.4
 72369,-1.85201796\H,0,-1.189239,0.83712284,-0.81167621\H,0,0.31048816,
 1.76451051,-0.92484677\H,0,-0.85175481,2.15432649,0.35106413\H,0,-0.55
 206908,-0.21052178,1.57887151\C,0,-0.42339105,1.35025451,-0.23908724\S
 ,0,0.48689518,0.18000064,0.82536961\\Version=ES64L-G16RevC.01\State=1-

 Normal termination of Gaussian 16 at Wed Apr  9 19:37:53 2025.
