 Gaussian 16, Revision C.01,

 ----------------------------------------------------------------------
 #t hf aug-cc-pvdz symm=none int=(grid=ultrafine) guess=(read,tcheck) s
 table=(opt,rrhf)
 ----------------------------------------------------------------------
 -----
 title
 -----
 Symbolic Z-matrix:
 Charge =  0 Multiplicity = 1

 SCF Done:  E(RHF) =  -875.464525602     A.U. after   11 cycles
 Normal termination of Gaussian 16 at Wed Apr  9 19:38:56 2025.
 Gaussian 16:  ES64L-G16RevC.01  3-Jul-2019

 ----------------------------------------------------------------------
 #t hf aug-cc-pvdz iop(5/13=1,5/36=2,99/5=2) pseudo=read geom=check gue
 ss=(read,tcheck) scf=(maxcycle=1)
 ----------------------------------------------------------------------
 -----
 title
 -----
 Structure from the checkpoint file:  "HB300SPXx10_1218_4.26_1.25_sulfane_dimethylsulfide_dimer_mol1.chk"
 Charge =  0 Multiplicity = 1

                         Standard orientation:
 ---------------------------------------------------------------------
 Center     Atomic      Atomic             Coordinates (Angstroms)
 Number     Number       Type             X           Y           Z
 ---------------------------------------------------------------------
      1          1           0        1.614990   -0.022304   -0.560246
      2          1           0        3.137275    1.177487   -0.347958
      3         16           0        2.828881   -0.069348    0.036584
      4          1           0       -2.270847   -1.399828    1.169124
      5          1           0       -0.493517   -1.348873    1.075473
      6          1           0       -1.422466   -2.297720   -0.100300
      7          1           0       -1.506073    2.297371   -0.022669
      8          1           0       -0.526655    1.344996    1.108236
      9          1           0       -2.306447    1.325506    1.222677
     10          6           0       -1.415116   -1.389539    0.497103
     11         16           0       -1.515942    0.009081   -0.648510
     12          6           0       -1.457100    1.370813    0.543976
 ---------------------------------------------------------------------

 SCF Done:  E(RHF) =  -876.357026400     A.U. after    2 cycles

 The electronic state is 1-A.
 Alpha  occ. eigenvalues --  -75.69897 -75.67470 -13.15395 -13.09442 -13.08526
 Alpha  occ. eigenvalues --  -13.07074 -13.03557 -13.01544 -11.39399 -11.39254
 Alpha  occ. eigenvalues --   -8.03584  -8.01566  -1.22840  -1.10908  -1.03172
 Alpha  occ. eigenvalues --   -0.88193  -0.60441  -0.60284  -0.58125  -0.56995
 Alpha  occ. eigenvalues --   -0.54445  -0.44600  -0.43199  -0.36945  -0.25557
 Alpha  occ. eigenvalues --   -0.22295
 Alpha virt. eigenvalues --    0.02367   0.03387   0.03940   0.05567   0.06826
 Alpha virt. eigenvalues --    0.07420   0.07653   0.08864   0.10518   0.11472
 Alpha virt. eigenvalues --    0.12353   0.12643   0.13884   0.15747   0.16647

 Mulliken charges:
               1
     1  H    1.059924
     2  H    1.034477
     3  S   -2.101184
     4  H    1.387570
     5  H    1.388043
     6  H    1.407616
     7  H    1.403146
     8  H    1.388189
     9  H    1.392543
    10  C   -4.649276
    11  S    0.956630
    12  C   -4.667680
 Sum of Mulliken charges =  -0.00000

 Dipole moment (field-independent basis, Debye):
    X=              0.1744    Y=             -0.8209    Z=              0.3805  Tot=              0.9214

 Test job not archived.
 1\1\GINC-SE138\SP\RHF\Aug-CC-pVDZ\C2H8S2\OHZDE\09-Apr-2025\0\\#t hf au
 g-cc-pvdz iop(5/13=1,5/36=2,99/5=2) pseudo=read geom=check guess=(read
 ,tcheck) scf=(maxcycle=1)\\title\\0,1\H,0,0.94021613,0.77457481,-0.419
 26695\H,0,0.91265107,2.63108631,-1.01468344\S,0,1.34625135,1.9701562,0
 .06824785\H,0,-1.24894681,-2.42044501,1.81399064\H,0,-0.23306281,-0.96
 270944,1.6988509\H,0,0.46312295,-2.56307641,1.38286314\H,0,-2.59239218
 ,-0.60270426,-1.43647131\H,0,-2.0088472,0.19513338,0.03599525\H,0,-3.0
 5716098,-1.24351616,0.14762454\C,0,-0.42741385,-1.94834432,1.27901568\

 Normal termination of Gaussian 16 at Wed Apr  9 19:38:59 2025.
