 Gaussian 16, Revision C.01,

 ----------------------------------------------------------------------
 #t hf aug-cc-pvdz symm=none int=(grid=ultrafine) guess=(read,tcheck) s
 table=(opt,rrhf)
 ----------------------------------------------------------------------
 -----
 title
 -----
 Symbolic Z-matrix:
 Charge =  0 Multiplicity = 1

 SCF Done:  E(RHF) =  -977.992220627     A.U. after   13 cycles
 Normal termination of Gaussian 16 at Wed Apr  9 19:43:51 2025.
 Gaussian 16:  ES64L-G16RevC.01  3-Jul-2019

 ----------------------------------------------------------------------
 #t hf aug-cc-pvdz iop(5/13=1,5/36=2,99/5=2) pseudo=read geom=check gue
 ss=(read,tcheck) scf=(maxcycle=1)
 ----------------------------------------------------------------------
 -----
 title
 -----
 Structure from the checkpoint file:  "HB300SPXx10_1444_5.07_0.95_methanethiol_phosphineF2_dimer_mol1.chk"
 Charge =  0 Multiplicity = 1

                         Standard orientation:
 ---------------------------------------------------------------------
 Center     Atomic      Atomic             Coordinates (Angstroms)
 Number     Number       Type             X           Y           Z
 ---------------------------------------------------------------------
      1          1           0        1.425463    1.654070   -0.067387
      2          1           0        2.022837    0.921361   -1.562591
      3          1           0        3.163337    1.290558   -0.259893
      4          1           0        1.973320   -0.456614    1.436127
      5          6           0        2.152548    0.964753   -0.484721
      6         16           0        1.862926   -0.726656    0.126738
      7         15           0       -1.173284   -0.236346   -0.280077
      8          9           0       -0.851417    0.949297    0.751921
      9          9           0       -2.775850   -0.141410   -0.210861
     10          1           0       -1.062411   -1.297191    0.665884
 ---------------------------------------------------------------------

 SCF Done:  E(RHF) =  -979.313032505     A.U. after    2 cycles

 The electronic state is 1-A.
 Alpha  occ. eigenvalues -- -105.28627 -75.69871 -29.28441 -29.27665 -13.14166
 Alpha  occ. eigenvalues --  -13.08860 -13.07522 -11.40551  -8.03809  -2.87821
 Alpha  occ. eigenvalues --   -1.62143  -1.58744  -1.52015  -1.19721  -0.95467
 Alpha  occ. eigenvalues --   -0.89545  -0.61329  -0.60351  -0.55437  -0.50535
 Alpha  occ. eigenvalues --   -0.46395  -0.40903  -0.39705  -0.35630  -0.33840
 Alpha  occ. eigenvalues --   -0.29058  -0.25537  -0.24158  -0.18825  -0.00517
 Alpha virt. eigenvalues --    0.03869   0.04314   0.06151   0.06946   0.08048
 Alpha virt. eigenvalues --    0.09586   0.10631   0.12021   0.12887   0.14853
 Alpha virt. eigenvalues --    0.15169   0.15547   0.16414   0.16804   0.19521

 Mulliken charges:
               1
     1  H    1.060246
     2  H    0.672650
     3  H    1.140756
     4  H    1.169386
     5  C   -3.848061
     6  S   -0.920136
     7  P    2.220497
     8  F   -0.346173
     9  F   -0.084801
    10  H   -1.064364
 Sum of Mulliken charges =   0.00000

 Dipole moment (field-independent basis, Debye):
    X=             -8.1995    Y=             -0.0399    Z=              3.0656  Tot=              8.7539

 Test job not archived.
 1\1\GINC-SE026\SP\RHF\Aug-CC-pVDZ\C1H5F2P1S1\OHZDE\09-Apr-2025\0\\#t h
 f aug-cc-pvdz iop(5/13=1,5/36=2,99/5=2) pseudo=read geom=check guess=(
 read,tcheck) scf=(maxcycle=1)\\title\\0,1\H,0,-1.72434823,-0.02735536,
 -1.47402619\H,0,-1.29643549,-1.41515971,-2.4840979\H,0,-1.57230153,0.1
 6002765,-3.24353895\H,0,0.52779021,1.28305094,-1.94983564\C,0,-1.18500
 823,-0.34129171,-2.36202164\S,0,0.60124692,-0.03772908,-2.17289215\P,0
 ,0.36263764,-1.09852975,0.73266089\F,0,-0.67496691,0.12268297,0.812551
 6\F,0,0.44175868,-1.40606576,2.3078381\H,0,1.54068336,-0.29646345,0.69

 Normal termination of Gaussian 16 at Wed Apr  9 19:43:54 2025.
