 Gaussian 16, Revision C.01,

 ----------------------------------------------------------------------
 #t hf aug-cc-pvdz symm=none int=(grid=ultrafine) guess=(read,tcheck) s
 table=(opt,rrhf)
 ----------------------------------------------------------------------
 -----
 title
 -----
 Symbolic Z-matrix:
 Charge =  0 Multiplicity = 1

 SCF Done:  E(RHF) =  -1037.70068148     A.U. after   14 cycles
 Normal termination of Gaussian 16 at Wed Apr  9 19:46:51 2025.
 Gaussian 16:  ES64L-G16RevC.01  3-Jul-2019

 ----------------------------------------------------------------------
 #t hf aug-cc-pvdz iop(5/13=1,5/36=2,99/5=2) pseudo=read geom=check gue
 ss=(read,tcheck) scf=(maxcycle=1)
 ----------------------------------------------------------------------
 -----
 title
 -----
 Structure from the checkpoint file:  "HB300SPXx10_1476_5.10_1.05_phosphaalkene_phosphineF2_dimer_mol1.chk"
 Charge =  0 Multiplicity = 1

                         Standard orientation:
 ---------------------------------------------------------------------
 Center     Atomic      Atomic             Coordinates (Angstroms)
 Number     Number       Type             X           Y           Z
 ---------------------------------------------------------------------
      1          1           0       -1.788889   -2.917994   -0.585829
      2          1           0       -0.778195   -2.189583    0.663819
      3          1           0       -2.543270   -2.054352    0.753446
      4          1           0       -1.460041    2.156838   -1.515951
      5          1           0       -0.543859    1.190922    1.993630
      6          1           0       -2.263087    2.729576   -0.049166
      7          1           0       -0.509249    2.643902   -0.105344
      8          1           0       -1.408092   -0.347367    2.002547
      9          1           0       -2.293901    1.180544    2.046597
     10         15           0       -1.623884   -0.528084   -0.965099
     11          6           0       -1.476457    0.743588    0.125330
     12          6           0       -1.423534    2.141034   -0.428160
     13          6           0       -1.427395    0.667552    1.620010
     14          6           0       -1.687833   -2.062282    0.079264
     15         15           0        1.834757    0.259267   -0.216052
     16          9           0        3.434297    0.146668   -0.246536
     17          9           0        1.554659   -0.896386    0.857992
     18          1           0        1.616189   -0.552112   -1.368262
 ---------------------------------------------------------------------

 SCF Done:  E(RHF) =  -1039.58250966     A.U. after    2 cycles

 The electronic state is 1-A.
 Alpha  occ. eigenvalues -- -105.29264-105.15429 -29.29018 -29.28564 -11.43797
 Alpha  occ. eigenvalues --  -11.39517 -11.37467 -11.36638  -2.88541  -2.73983
 Alpha  occ. eigenvalues --   -1.63160  -1.59889  -1.53358  -1.53146  -1.45510
 Alpha  occ. eigenvalues --   -1.34532  -1.19540  -1.02286  -1.00189  -0.90153
 Alpha  occ. eigenvalues --   -0.78391  -0.65099  -0.59979  -0.59156  -0.57346
 Alpha  occ. eigenvalues --   -0.55487  -0.55147  -0.54409  -0.53688  -0.48434
 Alpha  occ. eigenvalues --   -0.46734  -0.40480  -0.36059  -0.34487  -0.28570
 Alpha  occ. eigenvalues --   -0.25859  -0.19967  -0.19232  -0.15239  -0.03065
 Alpha  occ. eigenvalues --   -0.00264
 Alpha virt. eigenvalues --    0.04684   0.05400   0.05999   0.06378   0.06495
 Alpha virt. eigenvalues --    0.06891   0.07274   0.07660   0.08488   0.08962
 Alpha virt. eigenvalues --    0.10209   0.11364   0.11628   0.12261   0.12753

 Mulliken charges:
               1
     1  H    1.218550
     2  H    1.188957
     3  H    1.130869
     4  H    1.262623
     5  H    1.321750
     6  H    1.005279
     7  H    0.721536
     8  H    1.347108
     9  H    1.150658
    10  P    5.664360
    11  C    0.485588
    12  C   -5.757578
    13  C   -4.703438
    14  C   -5.931133
    15  P    1.918128
    16  F   -0.141467
    17  F   -0.654999
    18  H   -1.226793
 Sum of Mulliken charges =  -0.00000

 Dipole moment (field-independent basis, Debye):
    X=              4.4024    Y=             -6.9383    Z=             -1.4093  Tot=              8.3371

 Test job not archived.
 1\1\GINC-SE041\SP\RHF\Aug-CC-pVDZ\C4H10F2P2\OHZDE\09-Apr-2025\0\\#t hf
  aug-cc-pvdz iop(5/13=1,5/36=2,99/5=2) pseudo=read geom=check guess=(r
 ead,tcheck) scf=(maxcycle=1)\\title\\0,1\H,0,-0.66372889,3.26375392,-1
 .41484082\H,0,0.57607353,2.07688321,-1.82463407\H,0,-0.55842324,2.6448
 712,-3.06242126\H,0,-2.87100416,-1.40911587,-1.55416728\H,0,0.42715494
 ,-1.23076192,-3.33739031\H,0,-2.60862974,-1.75549695,-3.26751243\H,0,-
 1.47646146,-2.36750684,-2.07165071\H,0,0.4157342,0.51539066,-3.5906339
 2\H,0,-0.67072928,-0.53226666,-4.50884988\P,0,-1.6570918,1.05342876,-1

 Normal termination of Gaussian 16 at Wed Apr  9 19:46:59 2025.
