 Gaussian 16, Revision C.01,

 ----------------------------------------------------------------------
 #t hf aug-cc-pvdz symm=none int=(grid=ultrafine) guess=(read,tcheck) s
 table=(opt,rrhf)
 ----------------------------------------------------------------------
 -----
 title
 -----
 Symbolic Z-matrix:
 Charge =  0 Multiplicity = 1

 SCF Done:  E(RHF) =  -1091.84396282     A.U. after   14 cycles
 Normal termination of Gaussian 16 at Wed Apr  9 19:42:20 2025.
 Gaussian 16:  ES64L-G16RevC.01  3-Jul-2019

 ----------------------------------------------------------------------
 #t hf aug-cc-pvdz iop(5/13=1,5/36=2,99/5=2) pseudo=read geom=check gue
 ss=(read,tcheck) scf=(maxcycle=1)
 ----------------------------------------------------------------------
 -----
 title
 -----
 Structure from the checkpoint file:  "HB300SPXx10_1402_5.03_0.85_dimethylsulfoxide_phosphineF2_dimer_mol1.chk"
 Charge =  0 Multiplicity = 1

                         Standard orientation:
 ---------------------------------------------------------------------
 Center     Atomic      Atomic             Coordinates (Angstroms)
 Number     Number       Type             X           Y           Z
 ---------------------------------------------------------------------
      1          1           0        1.848958    1.678984   -1.473471
      2          1           0        2.686083    1.787468    0.093757
      3          1           0        0.889877    1.801052    0.026627
      4          1           0        1.509678   -1.595817    1.680033
      5          1           0        0.754897    0.017250    1.795501
      6          6           0        1.801930    1.415276   -0.420337
      7         16           0        1.787578   -0.394135   -0.337901
      8          8           0        0.488940   -0.842851   -0.930996
      9          6           0        1.626784   -0.538028    1.460915
     10          1           0        2.536063   -0.161616    1.925520
     11         15           0       -1.624340   -0.360032   -0.096571
     12          9           0       -3.168045    0.072303    0.100891
     13          9           0       -0.985356    0.997562    0.507138
     14          1           0       -1.564900    0.029846   -1.460747
 ---------------------------------------------------------------------

 SCF Done:  E(RHF) =  -1093.69506368     A.U. after    2 cycles

 The electronic state is 1-A.
 Alpha  occ. eigenvalues -- -105.25826 -75.79942 -29.26636 -29.24264 -21.02176
 Alpha  occ. eigenvalues --  -13.35402 -13.23200 -13.19142 -11.42032 -11.41305
 Alpha  occ. eigenvalues --   -8.14420  -2.84886  -1.73303  -1.58239  -1.55778
 Alpha  occ. eigenvalues --   -1.49858  -1.22240  -1.06920  -0.91706  -0.86005
 Alpha  occ. eigenvalues --   -0.66105  -0.63659  -0.62125  -0.61147  -0.54009
 Alpha  occ. eigenvalues --   -0.51627  -0.50581  -0.43993  -0.41678  -0.37689
 Alpha  occ. eigenvalues --   -0.36517  -0.33735  -0.31212  -0.29245  -0.23942
 Alpha  occ. eigenvalues --   -0.22559  -0.17499   0.02391
 Alpha virt. eigenvalues --    0.03167   0.04074   0.05370   0.06412   0.07030
 Alpha virt. eigenvalues --    0.07742   0.08133   0.08724   0.10749   0.11843
 Alpha virt. eigenvalues --    0.12642   0.13050   0.14152   0.15384   0.15689

 Mulliken charges:
               1
     1  H    1.389221
     2  H    0.374967
     3  H    1.480260
     4  H    0.120346
     5  H    1.390896
     6  C   -3.598037
     7  S    3.019183
     8  O   -2.223405
     9  C   -3.038070
    10  H   -0.334885
    11  P    3.265065
    12  F   -0.119430
    13  F   -0.605228
    14  H   -1.120883
 Sum of Mulliken charges =   0.00000

 Dipole moment (field-independent basis, Debye):
    X=            -22.9777    Y=             -1.1891    Z=            -10.9676  Tot=             25.4888

 Test job not archived.
 1\1\GINC-SE026\SP\RHF\Aug-CC-pVDZ\C2H7F2O1P1S1\OHZDE\09-Apr-2025\0\\#t
  hf aug-cc-pvdz iop(5/13=1,5/36=2,99/5=2) pseudo=read geom=check guess
 =(read,tcheck) scf=(maxcycle=1)\\title\\0,1\H,0,1.67395499,0.82417178,
 -3.38423362\H,0,0.49124302,-0.02078366,-4.41184902\H,0,0.89589517,-0.6
 6534236,-2.78340018\H,0,-2.718683,0.46280377,-2.2188292\H,0,-1.5421980
 9,-0.87905323,-2.20106353\C,0,0.76564588,0.22768029,-3.38836814\S,0,-0
 .5351395,1.25679703,-2.66046249\O,0,-0.17783951,1.44910918,-1.22000404
 \C,0,-1.85989706,0.022286,-2.71790313\H,0,-2.10168806,-0.18449539,-3.7

 Normal termination of Gaussian 16 at Wed Apr  9 19:42:25 2025.
