 Gaussian 16, Revision C.01,

 ----------------------------------------------------------------------
 #t hf aug-cc-pvdz symm=none int=(grid=ultrafine) guess=(read,tcheck) s
 table=(opt,rrhf)
 ----------------------------------------------------------------------
 -----
 title
 -----
 Symbolic Z-matrix:
 Charge =  0 Multiplicity = 1

 SCF Done:  E(RHF) =  -991.412681883     A.U. after   12 cycles

 1\1\GINC-SE100\Stability\RHF\Aug-CC-pVDZ\C5H12S2\OHZDE\09-Apr-2025\0\\
 #t hf aug-cc-pvdz symm=none int=(grid=ultrafine) guess=(read,tcheck) s
 table=(opt,rrhf)\\title\\0,1\H,0,2.75511322,-2.75302781,-0.03281769\H,
 0,2.23328443,-3.6609344,1.39160682\H,0,2.88304587,-2.02859561,1.588775
 53\H,0,0.87227038,-0.86572365,0.25189781\C,0,2.28978938,-2.67174858,0.
 94522466\S,0,0.57786237,-2.06107277,0.80693494\H,0,-0.68542348,-0.2801
 7217,-1.76044686\H,0,-0.78033672,1.19034949,-2.73980195\H,0,-2.9229300
 3,0.52439478,-1.27918278\H,0,-0.63645136,2.89319328,0.85362125\H,0,-2.

 Normal termination of Gaussian 16 at Wed Apr  9 19:39:39 2025.
 Gaussian 16:  ES64L-G16RevC.01  3-Jul-2019

 ----------------------------------------------------------------------
 #t hf aug-cc-pvdz iop(5/13=1,5/36=2,99/5=2) pseudo=read geom=check gue
 ss=(read,tcheck) scf=(maxcycle=1)
 ----------------------------------------------------------------------
 -----
 title
 -----
 Structure from the checkpoint file:  "HB300SPXx10_1206_4.25_1.05_methanethiol_tetrahydrothiophene_dimer_mol1.chk"
 Charge =  0 Multiplicity = 1

                         Standard orientation:
 ---------------------------------------------------------------------
 Center     Atomic      Atomic             Coordinates (Angstroms)
 Number     Number       Type             X           Y           Z
 ---------------------------------------------------------------------
      1          1           0        3.699902    1.163155   -0.818287
      2          1           0        4.583568   -0.156983   -0.042430
      3          1           0        3.685208    0.994161    0.954270
      4          1           0        1.299676    0.267670   -0.027656
      5          6           0        3.690013    0.459346    0.008910
      6         16           0        2.265859   -0.672065   -0.111253
      7          1           0       -0.595440   -0.078595   -1.790452
      8          1           0       -2.113777    0.800065   -2.021072
      9          1           0       -2.259973   -1.790104   -1.359816
     10          1           0       -2.297001    0.349089    1.928120
     11          1           0       -3.299545   -0.653842   -0.502662
     12          1           0       -0.556927    0.063403    2.069739
     13          1           0       -2.129431   -1.957910    1.237727
     14          1           0       -0.585221   -1.683307    0.443071
     15         16           0       -1.088096    1.361639    0.093779
     16          6           0       -1.513573    0.246694   -1.304017
     17          6           0       -2.260903   -0.932477   -0.686855
     18          6           0       -1.564690   -1.245237    0.636705
     19          6           0       -1.396722    0.080011    1.380097
 ---------------------------------------------------------------------

 SCF Done:  E(RHF) =  -992.897589893     A.U. after    2 cycles

 The electronic state is 1-A.
 Alpha  occ. eigenvalues --  -75.67579 -75.66511 -13.12249 -13.10603 -13.09553
 Alpha  occ. eigenvalues --  -13.07623 -13.06838 -13.00349 -11.43564 -11.42642
 Alpha  occ. eigenvalues --  -11.39179 -11.38904 -11.36206  -8.01443  -8.00579
 Alpha  occ. eigenvalues --   -1.32683  -1.17516  -1.07132  -1.07020  -0.93351
 Alpha  occ. eigenvalues --   -0.84469  -0.83080  -0.66511  -0.65419  -0.60760
 Alpha  occ. eigenvalues --   -0.59377  -0.58133  -0.54299  -0.49089  -0.48664
 Alpha  occ. eigenvalues --   -0.46642  -0.45470  -0.42004  -0.38714  -0.34776
 Alpha  occ. eigenvalues --   -0.23044  -0.21712
 Alpha virt. eigenvalues --    0.02871   0.03582   0.04543   0.05410   0.05792
 Alpha virt. eigenvalues --    0.06092   0.06351   0.06412   0.07463   0.07735
 Alpha virt. eigenvalues --    0.08588   0.09353   0.10941   0.12721   0.13093

 Mulliken charges:
               1
     1  H    1.385045
     2  H    1.331494
     3  H    1.416145
     4  H    1.617104
     5  C   -5.122487
     6  S   -0.468127
     7  H    1.415728
     8  H    1.386488
     9  H    1.290190
    10  H    1.400758
    11  H    1.416226
    12  H    1.421176
    13  H    1.308561
    14  H    1.608670
    15  S    0.535747
    16  C   -3.141828
    17  C   -2.798066
    18  C   -2.750732
    19  C   -3.252092
 Sum of Mulliken charges =   0.00000

 Dipole moment (field-independent basis, Debye):
    X=              0.2261    Y=             -0.6070    Z=             -0.0267  Tot=              0.6483

 Test job not archived.
 1\1\GINC-SE100\SP\RHF\Aug-CC-pVDZ\C5H12S2\OHZDE\09-Apr-2025\0\\#t hf a
 ug-cc-pvdz iop(5/13=1,5/36=2,99/5=2) pseudo=read geom=check guess=(rea
 d,tcheck) scf=(maxcycle=1)\\title\\0,1\H,0,2.75511322,-2.75302781,-0.0
 3281769\H,0,2.23328443,-3.6609344,1.39160682\H,0,2.88304587,-2.0285956
 1,1.58877553\H,0,0.87227038,-0.86572365,0.25189781\C,0,2.28978938,-2.6
 7174858,0.94522466\S,0,0.57786237,-2.06107277,0.80693494\H,0,-0.685423
 48,-0.28017217,-1.76044686\H,0,-0.78033672,1.19034949,-2.73980195\H,0,
 -2.92293003,0.52439478,-1.27918278\H,0,-0.63645136,2.89319328,0.853621

 Normal termination of Gaussian 16 at Wed Apr  9 19:39:47 2025.
