 Gaussian 16, Revision C.01,

 ----------------------------------------------------------------------
 #t hf aug-cc-pvdz symm=none int=(grid=ultrafine) guess=(read,tcheck) s
 table=(opt,rrhf)
 ----------------------------------------------------------------------
 -----
 title
 -----
 Symbolic Z-matrix:
 Charge =  0 Multiplicity = 1

 SCF Done:  E(RHF) =  -1312.01331312     A.U. after   13 cycles

 1\1\GINC-SE212\Stability\RHF\Aug-CC-pVDZ\C3H10S3\OHZDE\09-Apr-2025\0\\
 #t hf aug-cc-pvdz symm=none int=(grid=ultrafine) guess=(read,tcheck) s
 table=(opt,rrhf)\\title\\0,1\H,0,1.01554051,-2.06430295,-0.26345232\H,
 0,1.41221348,-3.50790796,0.68330627\H,0,2.28776701,-1.9997821,0.978385
 09\H,0,0.09227498,-0.7095981,1.83267489\C,0,1.324424,-2.42503809,0.712
 77693\S,0,0.06941485,-2.04508424,1.97921636\H,0,-2.69963741,0.19572079
 ,0.85975429\H,0,-1.64904896,-1.13147427,0.32383707\H,0,-2.27553103,0.0
 6093374,-0.85678799\H,0,0.54081048,2.41400368,-2.11227706\H,0,-0.47391

 Normal termination of Gaussian 16 at Wed Apr  9 19:38:28 2025.
 Gaussian 16:  ES64L-G16RevC.01  3-Jul-2019

 ----------------------------------------------------------------------
 #t hf aug-cc-pvdz iop(5/13=1,5/36=2,99/5=2) pseudo=read geom=check gue
 ss=(read,tcheck) scf=(maxcycle=1)
 ----------------------------------------------------------------------
 -----
 title
 -----
 Structure from the checkpoint file:  "HB300SPXx10_1171_4.22_0.80_methanethiol_dimethyldisulfide_dimer_mol1.chk"
 Charge =  0 Multiplicity = 1

                         Standard orientation:
 ---------------------------------------------------------------------
 Center     Atomic      Atomic             Coordinates (Angstroms)
 Number     Number       Type             X           Y           Z
 ---------------------------------------------------------------------
      1          1           0        1.033180   -1.556164    0.837602
      2          1           0        2.747171   -1.999556    0.895351
      3          1           0        1.860042   -2.130603   -0.629096
      4          1           0        1.426985    0.515644   -0.785333
      5          6           0        1.967203   -1.552970    0.284292
      6         16           0        2.508923    0.149647   -0.077536
      7          1           0        0.025885    2.819362    0.728190
      8          1           0        0.669925    1.266809    1.300186
      9          1           0       -1.023470    1.730591    1.654464
     10          1           0       -3.527590   -0.395652   -0.407924
     11          1           0       -2.976014   -0.210579    1.278517
     12          1           0       -3.188920   -1.829372    0.586608
     13          6           0       -0.215089    1.776354    0.930341
     14         16           0       -0.732856    1.064028   -0.662737
     15         16           0       -1.164128   -0.884247   -0.195934
     16          6           0       -2.891818   -0.803604    0.372157
 ---------------------------------------------------------------------

 SCF Done:  E(RHF) =  -1313.34630484     A.U. after    2 cycles

 The electronic state is 1-A.
 Alpha  occ. eigenvalues --  -75.70549 -75.70349 -75.66279 -13.15649 -13.12967
 Alpha  occ. eigenvalues --  -13.12398 -13.11371 -13.10895 -13.09124 -13.05866
 Alpha  occ. eigenvalues --  -13.05728 -13.04115 -11.40547 -11.39693 -11.38278
 Alpha  occ. eigenvalues --   -8.04608  -8.04474  -8.00281  -1.27705  -1.17090
 Alpha  occ. eigenvalues --   -1.13113  -0.98773  -0.92940  -0.87387  -0.61285
 Alpha  occ. eigenvalues --   -0.60647  -0.60052  -0.58924  -0.58611  -0.57565
 Alpha  occ. eigenvalues --   -0.48976  -0.47531  -0.43424  -0.38927  -0.34191
 Alpha  occ. eigenvalues --   -0.25276  -0.23193  -0.22440
 Alpha virt. eigenvalues --    0.02381   0.02756   0.03561   0.04449   0.06357
 Alpha virt. eigenvalues --    0.06962   0.07314   0.08103   0.08302   0.09008
 Alpha virt. eigenvalues --    0.09685   0.11076   0.12091   0.12514   0.13274

 Mulliken charges:
               1
     1  H    1.768810
     2  H    1.328283
     3  H    1.381880
     4  H    1.559466
     5  C   -4.784048
     6  S   -1.025198
     7  H    1.354152
     8  H    1.714912
     9  H    1.581986
    10  H    1.467862
    11  H    1.500000
    12  H    1.386367
    13  C   -4.345076
    14  S   -0.529266
    15  S    0.660647
    16  C   -5.020776
 Sum of Mulliken charges =  -0.00000

 Dipole moment (field-independent basis, Debye):
    X=              0.5173    Y=             -0.5097    Z=             -0.0154  Tot=              0.7264

 Test job not archived.
 1\1\GINC-SE212\SP\RHF\Aug-CC-pVDZ\C3H10S3\OHZDE\09-Apr-2025\0\\#t hf a
 ug-cc-pvdz iop(5/13=1,5/36=2,99/5=2) pseudo=read geom=check guess=(rea
 d,tcheck) scf=(maxcycle=1)\\title\\0,1\H,0,1.01554051,-2.06430295,-0.2
 6345232\H,0,1.41221348,-3.50790796,0.68330627\H,0,2.28776701,-1.999782
 1,0.97838509\H,0,0.09227498,-0.7095981,1.83267489\C,0,1.324424,-2.4250
 3809,0.71277693\S,0,0.06941485,-2.04508424,1.97921636\H,0,-2.69963741,
 0.19572079,0.85975429\H,0,-1.64904896,-1.13147427,0.32383707\H,0,-2.27
 553103,0.06093374,-0.85678799\H,0,0.54081048,2.41400368,-2.11227706\H,

 Normal termination of Gaussian 16 at Wed Apr  9 19:38:34 2025.
