 Gaussian 16, Revision C.01,

 ----------------------------------------------------------------------
 #t hf aug-cc-pvdz symm=none int=(grid=ultrafine) guess=(read,tcheck) s
 table=(opt,rrhf)
 ----------------------------------------------------------------------
 -----
 title
 -----
 Symbolic Z-matrix:
 Charge =  0 Multiplicity = 1

 SCF Done:  E(RHF) =  -1312.03409106     A.U. after   13 cycles

 1\1\GINC-SE028\Stability\RHF\Aug-CC-pVDZ\C3H10S3\OHZDE\09-Apr-2025\0\\
 #t hf aug-cc-pvdz symm=none int=(grid=ultrafine) guess=(read,tcheck) s
 table=(opt,rrhf)\\title\\0,1\H,0,1.01554051,-2.06430295,-0.26345232\H,
 0,1.41221348,-3.50790796,0.68330627\H,0,2.28776701,-1.9997821,0.978385
 09\H,0,0.09227498,-0.7095981,1.83267489\C,0,1.324424,-2.42503809,0.712
 77693\S,0,0.06941485,-2.04508424,1.97921636\H,0,-3.03261875,1.15228353
 ,0.11811751\H,0,-1.98203031,-0.17491152,-0.41779971\H,0,-2.60851238,1.
 01749648,-1.59842477\H,0,0.20782914,3.37056642,-2.85391385\H,0,-0.8068

 Normal termination of Gaussian 16 at Wed Apr  9 19:38:22 2025.
 Gaussian 16:  ES64L-G16RevC.01  3-Jul-2019

 ----------------------------------------------------------------------
 #t hf aug-cc-pvdz iop(5/13=1,5/36=2,99/5=2) pseudo=read geom=check gue
 ss=(read,tcheck) scf=(maxcycle=1)
 ----------------------------------------------------------------------
 -----
 title
 -----
 Structure from the checkpoint file:  "HB300SPXx10_1178_4.22_1.25_methanethiol_dimethyldisulfide_dimer_mol1.chk"
 Charge =  0 Multiplicity = 1

                         Standard orientation:
 ---------------------------------------------------------------------
 Center     Atomic      Atomic             Coordinates (Angstroms)
 Number     Number       Type             X           Y           Z
 ---------------------------------------------------------------------
      1          1           0        2.023699   -1.518689    0.823543
      2          1           0        3.778135   -1.749724    0.902746
      3          1           0        2.931208   -1.995756   -0.630320
      4          1           0        2.181087    0.577201   -0.808592
      5          6           0        2.956711   -1.404636    0.280365
      6         16           0        3.291289    0.349381   -0.086741
      7          1           0       -0.751530    2.859513    0.728315
      8          1           0        0.070063    1.399948    1.317421
      9          1           0       -1.671169    1.655870    1.650301
     10          1           0       -3.873879   -0.770208   -0.425075
     11          1           0       -3.368433   -0.510580    1.265987
     12          1           0       -3.374707   -2.146824    0.582448
     13          6           0       -0.866067    1.795985    0.934684
     14         16           0       -1.274854    1.017638   -0.659197
     15         16           0       -1.471122   -0.966208   -0.184317
     16          6           0       -3.202222   -1.093635    0.364501
 ---------------------------------------------------------------------

 SCF Done:  E(RHF) =  -1313.35769747     A.U. after    2 cycles

 The electronic state is 1-A.
 Alpha  occ. eigenvalues --  -75.70206 -75.70043 -75.67819 -13.13592 -13.11039
 Alpha  occ. eigenvalues --  -13.10617 -13.09246 -13.07862 -13.06490 -13.05000
 Alpha  occ. eigenvalues --  -13.03657 -13.00615 -11.40150 -11.39898 -11.39057
 Alpha  occ. eigenvalues --   -8.04205  -8.04123  -8.01693  -1.26809  -1.17703
 Alpha  occ. eigenvalues --   -1.12831  -0.98388  -0.93371  -0.86925  -0.60562
 Alpha  occ. eigenvalues --   -0.59738  -0.59632  -0.59331  -0.58744  -0.58095
 Alpha  occ. eigenvalues --   -0.48512  -0.47372  -0.43287  -0.38645  -0.33989
 Alpha  occ. eigenvalues --   -0.25304  -0.23806  -0.23032
 Alpha virt. eigenvalues --    0.02486   0.02723   0.03246   0.04492   0.05957
 Alpha virt. eigenvalues --    0.06703   0.06977   0.07872   0.08282   0.08976
 Alpha virt. eigenvalues --    0.09310   0.10733   0.11677   0.12546   0.12622

 Mulliken charges:
               1
     1  H    1.361819
     2  H    1.372346
     3  H    1.437964
     4  H    0.977718
     5  C   -4.692470
     6  S   -0.481022
     7  H    1.403785
     8  H    1.526589
     9  H    1.535477
    10  H    1.527861
    11  H    1.509858
    12  H    1.371559
    13  C   -4.567714
    14  S    0.140882
    15  S    0.446004
    16  C   -4.870655
 Sum of Mulliken charges =  -0.00000

 Dipole moment (field-independent basis, Debye):
    X=              0.6495    Y=             -0.3806    Z=              0.0639  Tot=              0.7555

 Test job not archived.
 1\1\GINC-SE028\SP\RHF\Aug-CC-pVDZ\C3H10S3\OHZDE\09-Apr-2025\0\\#t hf a
 ug-cc-pvdz iop(5/13=1,5/36=2,99/5=2) pseudo=read geom=check guess=(rea
 d,tcheck) scf=(maxcycle=1)\\title\\0,1\H,0,1.01554051,-2.06430295,-0.2
 6345232\H,0,1.41221348,-3.50790796,0.68330627\H,0,2.28776701,-1.999782
 1,0.97838509\H,0,0.09227498,-0.7095981,1.83267489\C,0,1.324424,-2.4250
 3809,0.71277693\S,0,0.06941485,-2.04508424,1.97921636\H,0,-3.03261875,
 1.15228353,0.11811751\H,0,-1.98203031,-0.17491152,-0.41779971\H,0,-2.6
 0851238,1.01749648,-1.59842477\H,0,0.20782914,3.37056642,-2.85391385\H

 Normal termination of Gaussian 16 at Wed Apr  9 19:38:27 2025.
