 Gaussian 16, Revision C.01,

 ----------------------------------------------------------------------
 #t hf aug-cc-pvdz symm=none int=(grid=ultrafine) guess=(read,tcheck) s
 table=(opt,rrhf)
 ----------------------------------------------------------------------
 -----
 title
 -----
 Symbolic Z-matrix:
 Charge =  0 Multiplicity = 1

 SCF Done:  E(RHF) =  -989.356911297     A.U. after   13 cycles
 Normal termination of Gaussian 16 at Wed Apr  9 19:37:21 2025.
 Gaussian 16:  ES64L-G16RevC.01  3-Jul-2019

 ----------------------------------------------------------------------
 #t hf aug-cc-pvdz iop(5/13=1,5/36=2,99/5=2) pseudo=read geom=check gue
 ss=(read,tcheck) scf=(maxcycle=1)
 ----------------------------------------------------------------------
 -----
 title
 -----
 Structure from the checkpoint file:  "HB300SPXx10_1142_4.19_0.85_methanol_dimethyldisulfide_dimer_mol1.chk"
 Charge =  0 Multiplicity = 1

                         Standard orientation:
 ---------------------------------------------------------------------
 Center     Atomic      Atomic             Coordinates (Angstroms)
 Number     Number       Type             X           Y           Z
 ---------------------------------------------------------------------
      1          8           0        2.550783    0.118334   -0.139409
      2          1           0        1.737420    0.334743   -0.611180
      3          6           0        2.486143   -1.243630    0.254123
      4          1           0        3.394181   -1.460612    0.812550
      5          1           0        1.625773   -1.443859    0.899126
      6          1           0        2.440278   -1.917320   -0.606313
      7          1           0       -3.152848   -1.573678    0.573138
      8          1           0       -3.209237   -0.301841   -0.666827
      9          1           0       -2.886394    0.116596    1.037603
     10          1           0        0.857417    1.303971    1.387402
     11          1           0       -0.811642    1.952233    1.414515
     12          1           0        0.458231    2.787487    0.498513
     13          6           0       -2.732039   -0.620812    0.254935
     14         16           0       -0.957641   -0.920370   -0.018728
     15         16           0       -0.286324    0.892253   -0.705967
     16          6           0        0.086563    1.815354    0.819585
 ---------------------------------------------------------------------

 SCF Done:  E(RHF) =  -990.757368654     A.U. after    2 cycles

 The electronic state is 1-A.
 Alpha  occ. eigenvalues --  -75.71000 -75.70763 -21.03725 -13.16433 -13.13933
 Alpha  occ. eigenvalues --  -13.12542 -13.10790 -13.09346 -13.04843 -11.40684
 Alpha  occ. eigenvalues --  -11.40271 -11.38280  -8.05106  -8.04824  -1.68150
 Alpha  occ. eigenvalues --   -1.27587  -1.13563  -0.99093  -0.95967  -0.87808
 Alpha  occ. eigenvalues --   -0.63469  -0.60980  -0.60200  -0.59764  -0.59135
 Alpha  occ. eigenvalues --   -0.57907  -0.52507  -0.47994  -0.43926  -0.40521
 Alpha  occ. eigenvalues --   -0.34559  -0.29936  -0.25595  -0.24072
 Alpha virt. eigenvalues --    0.02424   0.03434   0.04040   0.04670   0.06494
 Alpha virt. eigenvalues --    0.07013   0.07657   0.08206   0.08369   0.08780
 Alpha virt. eigenvalues --    0.09845   0.10876   0.12805   0.12915   0.14003

 Mulliken charges:
               1
     1  O   -2.538093
     2  H    2.006468
     3  C   -2.697812
     4  H    1.225798
     5  H    1.433443
     6  H    1.274141
     7  H    1.376913
     8  H    1.483421
     9  H    1.496833
    10  H    1.456937
    11  H    1.535870
    12  H    1.393774
    13  C   -5.136471
    14  S    0.999364
    15  S   -0.910924
    16  C   -4.399661
 Sum of Mulliken charges =  -0.00000

 Dipole moment (field-independent basis, Debye):
    X=             -0.8888    Y=             -0.5905    Z=             -0.2917  Tot=              1.1062

 Test job not archived.
 1\1\GINC-SE212\SP\RHF\Aug-CC-pVDZ\C3H10O1S2\OHZDE\09-Apr-2025\0\\#t hf
  aug-cc-pvdz iop(5/13=1,5/36=2,99/5=2) pseudo=read geom=check guess=(r
 ead,tcheck) scf=(maxcycle=1)\\title\\0,1\O,0,-0.42925951,1.22968046,-2
 .50380826\H,0,-0.36156068,1.36890772,-1.5514469\C,0,-1.37991091,0.2017
 0921,-2.7351714\H,0,-1.41855104,0.0350798,-3.80950666\H,0,-1.09677682,
 -0.73598734,-2.24842974\H,0,-2.37984798,0.48334645,-2.39294418\H,0,-0.
 65843428,-2.48792519,2.18969002\H,0,-0.19300165,-0.9171447,2.87837261\
 H,0,0.97383384,-1.8555446,1.90765076\H,0,1.60158624,0.00784358,-1.5102

 Normal termination of Gaussian 16 at Wed Apr  9 19:37:26 2025.
