 Gaussian 16, Revision C.01,

 ----------------------------------------------------------------------
 #t hf aug-cc-pvdz symm=none int=(grid=ultrafine) guess=(read,tcheck) s
 table=(opt,rrhf)
 ----------------------------------------------------------------------
 -----
 title
 -----
 Symbolic Z-matrix:
 Charge =  0 Multiplicity = 1

 SCF Done:  E(RHF) =  -576.789436588     A.U. after   12 cycles
 Normal termination of Gaussian 16 at Wed Apr  9 19:42:49 2025.
 Gaussian 16:  ES64L-G16RevC.01  3-Jul-2019

 ----------------------------------------------------------------------
 #t hf aug-cc-pvdz iop(5/13=1,5/36=2,99/5=2) pseudo=read geom=check gue
 ss=(read,tcheck) scf=(maxcycle=1)
 ----------------------------------------------------------------------
 -----
 title
 -----
 Structure from the checkpoint file:  "HB300SPXx10_1437_5.06_1.10_methanethiol_methylfluoride_dimer_mol1.chk"
 Charge =  0 Multiplicity = 1

                         Standard orientation:
 ---------------------------------------------------------------------
 Center     Atomic      Atomic             Coordinates (Angstroms)
 Number     Number       Type             X           Y           Z
 ---------------------------------------------------------------------
      1          1           0        2.009352    1.668311   -0.559580
      2          1           0        2.036134    1.300508    1.170088
      3          1           0        0.481846    1.456685    0.330537
      4          1           0        0.790565   -0.689425   -1.143253
      5          6           0        1.510057    1.122865    0.235808
      6         16           0        1.579982   -0.675039   -0.059202
      7          1           0       -1.472445   -0.859367    0.838813
      8          1           0       -2.858840    0.201888    1.239664
      9          1           0       -3.059621   -1.120842    0.056706
     10          6           0       -2.371729   -0.379222    0.458668
     11          9           0       -2.004075    0.486779   -0.572511
 ---------------------------------------------------------------------

 SCF Done:  E(RHF) =  -577.786365765     A.U. after    2 cycles

 The electronic state is 1-A.
 Alpha  occ. eigenvalues --  -75.68058 -29.25131 -13.11399 -13.06625 -13.02297
 Alpha  occ. eigenvalues --  -11.43053 -11.39219  -8.01950  -1.17968  -1.14328
 Alpha  occ. eigenvalues --   -0.93690  -0.65981  -0.62647  -0.62559  -0.59563
 Alpha  occ. eigenvalues --   -0.58288  -0.48812  -0.38908  -0.37244  -0.25019
 Alpha  occ. eigenvalues --   -0.24854  -0.23433
 Alpha virt. eigenvalues --    0.03311   0.03922   0.04932   0.05669   0.06404
 Alpha virt. eigenvalues --    0.08306   0.08808   0.11145   0.12209   0.13657
 Alpha virt. eigenvalues --    0.14352   0.15146   0.15573   0.16645   0.17380

 Mulliken charges:
               1
     1  H    1.370482
     2  H    1.386603
     3  H    1.356835
     4  H    1.057238
     5  C   -4.572192
     6  S   -0.621230
     7  H    1.326127
     8  H    1.420110
     9  H    1.406279
    10  C   -4.232157
    11  F    0.101906
 Sum of Mulliken charges =  -0.00000

 Dipole moment (field-independent basis, Debye):
    X=              0.5676    Y=              0.6516    Z=              0.0998  Tot=              0.8699

 Test job not archived.
 1\1\GINC-SE100\SP\RHF\Aug-CC-pVDZ\C2H7F1S1\OHZDE\09-Apr-2025\0\\#t hf
 aug-cc-pvdz iop(5/13=1,5/36=2,99/5=2) pseudo=read geom=check guess=(re
 ad,tcheck) scf=(maxcycle=1)\\title\\0,1\H,0,2.08229041,-1.4254109,-0.5
 8197167\H,0,2.56243491,-0.07269824,0.45116733\H,0,1.30281242,0.1638302
 2,-0.77457926\H,0,-0.45614858,-1.39442223,0.38777169\C,0,1.72720839,-0
 .53887394,-0.06484534\S,0,0.50833702,-0.97408013,1.21941614\H,0,-1.252
 13386,1.50946118,0.27576354\H,0,-1.32479108,2.7310035,-1.032515\H,0,-2
 .77640696,1.77539703,-0.62148675\C,0,-1.68994101,1.76557315,-0.6867820

 Normal termination of Gaussian 16 at Wed Apr  9 19:42:52 2025.
