 Gaussian 16, Revision C.01,

 ----------------------------------------------------------------------
 #t hf aug-cc-pvdz symm=none int=(grid=ultrafine) guess=(read,tcheck) s
 table=(opt,rrhf)
 ----------------------------------------------------------------------
 -----
 title
 -----
 Symbolic Z-matrix:
 Charge =  0 Multiplicity = 1

 SCF Done:  E(RHF) =  -1121.33414087     A.U. after   13 cycles
 Normal termination of Gaussian 16 at Wed Apr  9 19:37:37 2025.
 Gaussian 16:  ES64L-G16RevC.01  3-Jul-2019

 ----------------------------------------------------------------------
 #t hf aug-cc-pvdz iop(5/13=1,5/36=2,99/5=2) pseudo=read geom=check gue
 ss=(read,tcheck) scf=(maxcycle=1)
 ----------------------------------------------------------------------
 -----
 title
 -----
 Structure from the checkpoint file:  "HB300SPXx10_1092_4.13_0.85_Nmethylacetamide_dimethyldisulfide_dimer_mol1.chk"
 Charge =  0 Multiplicity = 1

                         Standard orientation:
 ---------------------------------------------------------------------
 Center     Atomic      Atomic             Coordinates (Angstroms)
 Number     Number       Type             X           Y           Z
 ---------------------------------------------------------------------
      1          6           0       -1.594046    1.678959   -0.759609
      2          1           0       -0.933901    1.510908   -1.610568
      3          1           0       -1.022284    2.146475    0.039717
      4          1           0       -2.390232    2.345798   -1.078972
      5          6           0       -2.200404    0.349827   -0.354070
      6          8           0       -3.114833   -0.156661   -0.981870
      7          7           0       -1.643757   -0.225340    0.743912
      8          1           0       -0.812559    0.194555    1.126244
      9          6           0       -1.994740   -1.561611    1.177872
     10          1           0       -3.000934   -1.780687    0.834456
     11          1           0       -1.315315   -2.309978    0.764345
     12          1           0       -1.963046   -1.619460    2.264223
     13          1           0        2.617438   -2.169513   -1.754305
     14          1           0        3.211810   -1.909602   -0.099840
     15          1           0        3.376366   -0.625263   -1.327901
     16          1           0        1.022760    2.319479   -0.467620
     17          1           0        2.761163    1.936453   -0.359170
     18          1           0        1.948382    2.757031    0.986297
     19          6           0        2.751885   -1.435040   -0.961393
     20         16           0        1.083575   -0.838553   -0.544516
     21         16           0        1.427064    0.446267    1.016576
     22          6           0        1.829824    2.019704    0.193485
 ---------------------------------------------------------------------

 SCF Done:  E(RHF) =  -1123.36367187     A.U. after    2 cycles

 The electronic state is 1-A.
 Alpha  occ. eigenvalues --  -75.71583 -75.71148 -20.99937 -15.73559 -13.19308
 Alpha  occ. eigenvalues --  -13.15137 -13.12855 -13.11428 -13.10376 -13.06322
 Alpha  occ. eigenvalues --  -11.48263 -11.41614 -11.40951 -11.38376 -11.37905
 Alpha  occ. eigenvalues --   -8.05657  -8.05198  -1.68334  -1.37601  -1.27947
 Alpha  occ. eigenvalues --   -1.14246  -1.09883  -0.99917  -0.97489  -0.88447
 Alpha  occ. eigenvalues --   -0.77678  -0.66887  -0.62528  -0.61679  -0.61646
 Alpha  occ. eigenvalues --   -0.60481  -0.59838  -0.59295  -0.57021  -0.53697
 Alpha  occ. eigenvalues --   -0.50775  -0.48794  -0.45762  -0.45354  -0.44027
 Alpha  occ. eigenvalues --   -0.35072  -0.29176  -0.27081  -0.26540  -0.25058
 Alpha virt. eigenvalues --    0.02160   0.02617   0.03774   0.04254   0.06092
 Alpha virt. eigenvalues --    0.06353   0.06902   0.07414   0.07729   0.08230
 Alpha virt. eigenvalues --    0.08316   0.08420   0.09033   0.10360   0.10928

 Mulliken charges:
               1
     1  C   -4.859567
     2  H    1.496219
     3  H    1.691293
     4  H    1.080514
     5  C    5.256251
     6  O   -3.495243
     7  N   -2.387827
     8  H    1.472417
     9  C   -3.621678
    10  H    1.421953
    11  H    1.497884
    12  H    1.366796
    13  H    1.394373
    14  H    1.490669
    15  H    1.449757
    16  H    1.802262
    17  H    1.507374
    18  H    1.434940
    19  C   -5.629354
    20  S    1.153754
    21  S   -0.743869
    22  C   -4.778919
 Sum of Mulliken charges =   0.00000

 Dipole moment (field-independent basis, Debye):
    X=              2.4628    Y=             -0.3175    Z=              1.4498  Tot=              2.8755

 Test job not archived.
 1\1\GINC-SE084\SP\RHF\Aug-CC-pVDZ\C5H13N1O1S2\OHZDE\09-Apr-2025\0\\#t
 hf aug-cc-pvdz iop(5/13=1,5/36=2,99/5=2) pseudo=read geom=check guess=
 (read,tcheck) scf=(maxcycle=1)\\title\\0,1\C,0,-1.31055971,-0.36190707
 ,2.17525478\H,0,-0.76310857,0.57466921,2.28149083\H,0,-0.59510431,-1.1
 7658722,2.08130356\H,0,-1.91110445,-0.50300543,3.06969011\C,0,-2.23351
 851,-0.24400233,0.97818704\O,0,-3.28055753,0.37845097,1.03390772\N,0,-
 1.80028089,-0.8717422,-0.1463058\H,0,-0.86873727,-1.25332097,-0.144399
 63\C,0,-2.47826303,-0.73306099,-1.41840567\H,0,-3.52176476,-0.50262299

 Normal termination of Gaussian 16 at Wed Apr  9 19:37:50 2025.
