 Gaussian 16, Revision C.01,

 ----------------------------------------------------------------------
 #t hf aug-cc-pvdz symm=none int=(grid=ultrafine) guess=(read,tcheck) s
 table=(opt,rrhf)
 ----------------------------------------------------------------------
 -----
 title
 -----
 Symbolic Z-matrix:
 Charge =  0 Multiplicity = 1

 SCF Done:  E(RHF) =  -742.483582901     A.U. after   14 cycles
 Normal termination of Gaussian 16 at Wed Apr  9 19:37:41 2025.
 Gaussian 16:  ES64L-G16RevC.01  3-Jul-2019

 ----------------------------------------------------------------------
 #t hf aug-cc-pvdz iop(5/13=1,5/36=2,99/5=2) pseudo=read geom=check gue
 ss=(read,tcheck) scf=(maxcycle=1)
 ----------------------------------------------------------------------
 -----
 title
 -----
 Structure from the checkpoint file:  "HB300SPXx10_1134_4.17_0.95_aceticacid_thioacetone_dimer_mol1.chk"
 Charge =  0 Multiplicity = 1

                         Standard orientation:
 ---------------------------------------------------------------------
 Center     Atomic      Atomic             Coordinates (Angstroms)
 Number     Number       Type             X           Y           Z
 ---------------------------------------------------------------------
      1          6           0       -1.897429    1.488966    0.000000
      2          8           0       -2.149335    0.307296    0.000000
      3          8           0       -0.651955    1.979441    0.000000
      4          1           0       -0.000000    1.242087    0.000000
      5          6           0       -2.929460    2.583252    0.000000
      6          1           0       -3.923961    2.151247    0.000000
      7          1           0       -2.795906    3.215265    0.876954
      8          1           0       -2.795906    3.215265   -0.876954
      9          1           0        3.523944   -2.167954    0.000000
     10          1           0        2.417627   -3.251079    0.874412
     11          1           0        2.417627   -3.251079   -0.874412
     12          1           0       -0.691140   -1.301527    0.000000
     13          1           0       -0.088251   -2.729351   -0.872921
     14          6           0        2.531556   -2.605567    0.000000
     15          6           0        1.455740   -1.563610    0.000000
     16         16           0        1.820714    0.025926    0.000000
     17          6           0        0.056778   -2.086748    0.000000
     18          1           0       -0.088251   -2.729351    0.872921
 ---------------------------------------------------------------------

 SCF Done:  E(RHF) =  -744.279241579     A.U. after    2 cycles

 The electronic state is 1-A'.
 Alpha  occ. eigenvalues --  -75.67015 -21.09135 -21.03705 -13.16652 -13.07955
 Alpha  occ. eigenvalues --  -12.98628 -11.51204 -11.48701 -11.40493 -11.38817
 Alpha  occ. eigenvalues --  -11.38676  -8.01367  -1.80942  -1.63818  -1.29092
 Alpha  occ. eigenvalues --   -1.10192  -1.05380  -1.03740  -0.79228  -0.75497
 Alpha  occ. eigenvalues --   -0.63929  -0.61757  -0.60930  -0.60899  -0.60082
 Alpha  occ. eigenvalues --   -0.59154  -0.55345  -0.53569  -0.50552  -0.48650
 Alpha  occ. eigenvalues --   -0.44634  -0.41624  -0.33105  -0.31846  -0.28713
 Alpha  occ. eigenvalues --   -0.22969
 Alpha virt. eigenvalues --    0.02691   0.04348   0.05336   0.05777   0.06630
 Alpha virt. eigenvalues --    0.06647   0.06849   0.07471   0.07558   0.08146
 Alpha virt. eigenvalues --    0.08453   0.09151   0.12277   0.12824   0.13591

 Mulliken charges:
               1
     1  C    5.912422
     2  O   -3.396054
     3  O   -3.576478
     4  H    1.852720
     5  C   -4.443773
     6  H    1.324178
     7  H    1.237791
     8  H    1.237791
     9  H    1.457352
    10  H    1.201940
    11  H    1.201940
    12  H    2.065306
    13  H    1.093402
    14  C   -4.544944
    15  C    0.493957
    16  S    0.637916
    17  C   -4.848867
    18  H    1.093402
 Sum of Mulliken charges =   0.00000

 Dipole moment (field-independent basis, Debye):
    X=              1.0970    Y=              0.4466    Z=              0.0000  Tot=              1.1844

 Test job not archived.
 1\1\GINC-SE135\SP\RHF\Aug-CC-pVDZ\C5H10O2S1\OHZDE\09-Apr-2025\0\\#t hf
  aug-cc-pvdz iop(5/13=1,5/36=2,99/5=2) pseudo=read geom=check guess=(r
 ead,tcheck) scf=(maxcycle=1)\\title\\0,1\C,0,0.15920132,2.45664609,0.\
 O,0,1.21885316,1.87618237,0.\O,0,-1.02533188,1.83322707,0.\H,0,-0.8922
 641,0.85801947,0.\C,0,0.00380934,3.95277518,0.\H,0,0.98023034,4.424223
 4,0.\H,0,-0.56217465,4.2641268,-0.87695442\H,0,-0.56217465,4.2641268,0
 .87695442\H,0,-0.60900319,-4.03752137,0.\H,0,0.93368693,-3.90636454,-0
 .87441231\H,0,0.93368693,-3.90636454,0.87441231\H,0,1.48588819,-0.2786

 Normal termination of Gaussian 16 at Wed Apr  9 19:37:47 2025.
