 Gaussian 16, Revision C.01,

 ----------------------------------------------------------------------
 #t hf aug-cc-pvdz symm=none int=(grid=ultrafine) guess=(read,tcheck) s
 table=(opt,rrhf)
 ----------------------------------------------------------------------
 -----
 title
 -----
 Symbolic Z-matrix:
 Charge =  0 Multiplicity = 1

 SCF Done:  E(RHF) =  -1013.77821024     A.U. after   12 cycles
 Normal termination of Gaussian 16 at Wed Apr  9 19:40:12 2025.
 Gaussian 16:  ES64L-G16RevC.01  3-Jul-2019

 ----------------------------------------------------------------------
 #t hf aug-cc-pvdz iop(5/13=1,5/36=2,99/5=2) pseudo=read geom=check gue
 ss=(read,tcheck) scf=(maxcycle=1)
 ----------------------------------------------------------------------
 -----
 title
 -----
 Structure from the checkpoint file:  "HB300SPXx10_1366_4.41_1.05_hydrogenchloride_tetrahydrothiophene_dimer_mol1.chk"
 Charge =  0 Multiplicity = 1

                         Standard orientation:
 ---------------------------------------------------------------------
 Center     Atomic      Atomic             Coordinates (Angstroms)
 Number     Number       Type             X           Y           Z
 ---------------------------------------------------------------------
      1          1           0       -1.593944   -0.448829    0.051283
      2         17           0       -2.677986    0.295103   -0.150525
      3          1           0        1.786369   -0.088344    1.943137
      4          1           0        0.076542    0.353896    2.058972
      5          1           0        1.753365    2.106484    0.906807
      6          1           0        0.150896   -0.162222   -1.823043
      7          1           0        0.200006    1.787979    0.137407
      8          1           0        1.604684   -1.171887   -1.821336
      9          1           0        1.907564    1.490287   -1.620332
     10          1           0        2.857208    0.453483   -0.559538
     11         16           0        0.455269   -1.264156    0.304792
     12          6           0        0.897636    0.169054    1.371619
     13          6           0        1.150922    1.338315    0.422410
     14          6           0        1.841782    0.761936   -0.812487
     15          6           0        1.026120   -0.454490   -1.246727
 ---------------------------------------------------------------------

 SCF Done:  E(RHF) =  -1015.07338260     A.U. after    2 cycles

 The electronic state is 1-A.
 Alpha  occ. eigenvalues --  -99.87922 -75.68263 -13.13631 -13.12700 -13.10688
 Alpha  occ. eigenvalues --  -11.44611 -11.43730 -11.40082 -11.37119 -10.44964
 Alpha  occ. eigenvalues --   -9.65056  -9.64336  -9.64261  -8.02376  -1.33878
 Alpha  occ. eigenvalues --   -1.27161  -1.08674  -1.08296  -0.85869  -0.84163
 Alpha  occ. eigenvalues --   -0.68110  -0.66947  -0.65813  -0.61982  -0.55201
 Alpha  occ. eigenvalues --   -0.50549  -0.50294  -0.49804  -0.47764  -0.46472
 Alpha  occ. eigenvalues --   -0.43189  -0.36184  -0.24879
 Alpha virt. eigenvalues --    0.03192   0.04603   0.05256   0.05677   0.05813
 Alpha virt. eigenvalues --    0.06330   0.06452   0.06898   0.07334   0.10062
 Alpha virt. eigenvalues --    0.11999   0.12135   0.12942   0.13888   0.14220

 Mulliken charges:
               1
     1  H    0.832152
     2  Cl  -0.726888
     3  H    1.425986
     4  H    1.312686
     5  H    1.293509
     6  H    1.359713
     7  H    1.359940
     8  H    1.397196
     9  H    1.288854
    10  H    1.409840
    11  S    0.402864
    12  C   -3.112147
    13  C   -2.397485
    14  C   -2.862577
    15  C   -2.983644
 Sum of Mulliken charges =   0.00000

 Dipole moment (field-independent basis, Debye):
    X=              3.1794    Y=             -0.7573    Z=              0.2804  Tot=              3.2804

 Test job not archived.
 1\1\GINC-SE014\SP\RHF\Aug-CC-pVDZ\C4H9Cl1S1\OHZDE\09-Apr-2025\0\\#t hf
  aug-cc-pvdz iop(5/13=1,5/36=2,99/5=2) pseudo=read geom=check guess=(r
 ead,tcheck) scf=(maxcycle=1)\\title\\0,1\H,0,-0.21838216,0.19107529,-1
 .4737198\Cl,0,-0.27626126,1.34164549,-2.13866114\H,0,-1.60302176,-1.22
 75839,1.87377996\H,0,-2.03095958,-0.14122796,0.54366618\H,0,-0.8592578
 ,0.92590772,2.71141174\H,0,1.8507151,0.04901912,0.05545028\H,0,-0.3023
 7893,1.42393063,1.11510104\H,0,2.19356357,-1.45746718,0.91909465\H,0,1
 .71793984,0.75573956,2.36644074\H,0,0.948581,-0.7509093,2.85650934\S,0

 Normal termination of Gaussian 16 at Wed Apr  9 19:40:17 2025.
