 Gaussian 16, Revision C.01,

 ----------------------------------------------------------------------
 #t hf aug-cc-pvdz symm=none int=(grid=ultrafine) guess=(read,tcheck) s
 table=(opt,rrhf)
 ----------------------------------------------------------------------
 -----
 title
 -----
 Symbolic Z-matrix:
 Charge =  0 Multiplicity = 1

 SCF Done:  E(RHF) =  -1054.89114673     A.U. after   15 cycles
 Normal termination of Gaussian 16 at Wed Apr  9 19:47:17 2025.
 Gaussian 16:  ES64L-G16RevC.01  3-Jul-2019

 ----------------------------------------------------------------------
 #t hf aug-cc-pvdz iop(5/13=1,5/36=2,99/5=2) pseudo=read geom=check gue
 ss=(read,tcheck) scf=(maxcycle=1)
 ----------------------------------------------------------------------
 -----
 title
 -----
 Structure from the checkpoint file:  "HB300SPXx10_1484_5.11_0.95_thioacetone_phosphineF2_dimer_mol1.chk"
 Charge =  0 Multiplicity = 1

                         Standard orientation:
 ---------------------------------------------------------------------
 Center     Atomic      Atomic             Coordinates (Angstroms)
 Number     Number       Type             X           Y           Z
 ---------------------------------------------------------------------
      1          1           0        0.568119    1.650221   -0.122727
      2          1           0        1.810104    1.916844    1.118132
      3          1           0        2.215602    2.145744   -0.567197
      4          1           0        3.790688   -1.167867    0.218685
      5          1           0        4.101714    0.425867   -0.502964
      6          6           0        1.618774    1.532673    0.112419
      7          6           0        2.064845    0.106299    0.035009
      8         16           0        1.044797   -1.126786   -0.260684
      9          6           0        3.529871   -0.115800    0.254765
     10          1           0        3.827028    0.301218    1.220340
     11         15           0       -1.903860   -0.245697    0.278501
     12          9           0       -3.506345   -0.100813    0.289343
     13          9           0       -1.592209    1.044599   -0.622252
     14          1           0       -1.866059   -1.191104   -0.787819
 ---------------------------------------------------------------------

 SCF Done:  E(RHF) =  -1056.58412594     A.U. after    2 cycles

 The electronic state is 1-A.
 Alpha  occ. eigenvalues -- -105.28016 -75.67223 -29.27879 -29.26989 -13.16767
 Alpha  occ. eigenvalues --  -13.05413 -12.98924 -11.48797 -11.40992 -11.39366
 Alpha  occ. eigenvalues --   -8.01553  -2.87143  -1.61372  -1.58287  -1.51421
 Alpha  occ. eigenvalues --   -1.29400  -1.05707  -1.04431  -0.88912  -0.76197
 Alpha  occ. eigenvalues --   -0.62392  -0.62342  -0.61104  -0.56140  -0.55427
 Alpha  occ. eigenvalues --   -0.51193  -0.46081  -0.42722  -0.39204  -0.34986
 Alpha  occ. eigenvalues --   -0.33377  -0.33073  -0.27961  -0.24792  -0.22388
 Alpha  occ. eigenvalues --   -0.18317   0.00282
 Alpha virt. eigenvalues --    0.02903   0.05319   0.05513   0.06202   0.06846
 Alpha virt. eigenvalues --    0.06964   0.08429   0.08926   0.09706   0.10667
 Alpha virt. eigenvalues --    0.11884   0.12525   0.13693   0.13931   0.14744

 Mulliken charges:
               1
     1  H    1.200873
     2  H    0.874622
     3  H    1.110040
     4  H    1.327136
     5  H    1.143912
     6  C   -4.849389
     7  C    0.108532
     8  S    0.955782
     9  C   -3.602147
    10  H    1.088543
    11  P    2.070331
    12  F   -0.112989
    13  F   -0.307604
    14  H   -1.007642
 Sum of Mulliken charges =   0.00000

 Dipole moment (field-independent basis, Debye):
    X=             -9.6328    Y=              1.4546    Z=             -2.9747  Tot=             10.1860

 Test job not archived.
 1\1\GINC-SE056\SP\RHF\Aug-CC-pVDZ\C3H7F2P1S1\OHZDE\09-Apr-2025\0\\#t h
 f aug-cc-pvdz iop(5/13=1,5/36=2,99/5=2) pseudo=read geom=check guess=(
 read,tcheck) scf=(maxcycle=1)\\title\\0,1\H,0,-0.82524406,-0.11851319,
 -2.18150719\H,0,-1.6981931,1.21808686,-2.95919937\H,0,-0.71897066,0.14
 764096,-3.93512177\H,0,1.41759528,3.22175764,-3.68330427\H,0,0.7352472
 6,2.04678605,-4.82844268\C,0,-0.77357806,0.63435768,-2.9583614\C,0,0.3
 925438,1.55581911,-2.78347778\S,0,1.39271927,1.4865874,-1.50157001\C,0
 ,0.57891903,2.56210758,-3.87735604\H,0,-0.33203334,3.15446018,-3.99493

 Normal termination of Gaussian 16 at Wed Apr  9 19:47:22 2025.
