 Gaussian 16, Revision C.01,

 ----------------------------------------------------------------------
 #t hf aug-cc-pvdz symm=none int=(grid=ultrafine) guess=(read,tcheck) s
 table=(opt,rrhf)
 ----------------------------------------------------------------------
 -----
 title
 -----
 Symbolic Z-matrix:
 Charge =  0 Multiplicity = 1

 SCF Done:  E(RHF) =  -704.600377528     A.U. after   13 cycles
 Normal termination of Gaussian 16 at Wed Apr  9 19:37:28 2025.
 Gaussian 16:  ES64L-G16RevC.01  3-Jul-2019

 ----------------------------------------------------------------------
 #t hf aug-cc-pvdz iop(5/13=1,5/36=2,99/5=2) pseudo=read geom=check gue
 ss=(read,tcheck) scf=(maxcycle=1)
 ----------------------------------------------------------------------
 -----
 title
 -----
 Structure from the checkpoint file:  "HB300SPXx10_1121_4.16_0.80_aceticacid_dimethylsulfide_dimer_mol1.chk"
 Charge =  0 Multiplicity = 1

                         Standard orientation:
 ---------------------------------------------------------------------
 Center     Atomic      Atomic             Coordinates (Angstroms)
 Number     Number       Type             X           Y           Z
 ---------------------------------------------------------------------
      1          6           0        0.280790    1.615629   -0.000000
      2          8           0       -0.876859    1.265222   -0.000000
      3          8           0        1.309806    0.760767   -0.000000
      4          1           0        0.966336   -0.167265    0.000000
      5          6           0        0.738892    3.048103   -0.000000
      6          1           0       -0.120131    3.709721   -0.000000
      7          1           0        1.356879    3.236979    0.876781
      8          1           0        1.356879    3.236979   -0.876781
      9          1           0       -1.707557   -2.145347    1.379195
     10          1           0       -1.241447   -0.421121    1.315483
     11          1           0       -0.306825   -1.571509    2.299403
     12          1           0       -0.306825   -1.571509   -2.299403
     13          1           0       -1.241447   -0.421121   -1.315483
     14          1           0       -1.707557   -2.145347   -1.379195
     15          6           0       -0.876859   -1.443074    1.382643
     16         16           0        0.243271   -1.788368    0.000000
     17          6           0       -0.876859   -1.443074   -1.382643
 ---------------------------------------------------------------------

 SCF Done:  E(RHF) =  -706.233732111     A.U. after    2 cycles

 The electronic state is 1-A'.
 Alpha  occ. eigenvalues --  -75.68093 -21.07518 -21.03461 -13.14502 -13.12976
 Alpha  occ. eigenvalues --  -13.09763 -11.51354 -11.39317 -11.39155 -11.38637
 Alpha  occ. eigenvalues --   -8.02535  -1.81027  -1.64100  -1.23821  -1.10211
 Alpha  occ. eigenvalues --   -1.03381  -0.89636  -0.79187  -0.64053  -0.61331
 Alpha  occ. eigenvalues --   -0.61002  -0.59597  -0.59032  -0.58021  -0.57175
 Alpha  occ. eigenvalues --   -0.54050  -0.48571  -0.44732  -0.44450  -0.36945
 Alpha  occ. eigenvalues --   -0.31996  -0.28582  -0.21734
 Alpha virt. eigenvalues --    0.03390   0.03873   0.04571   0.05885   0.06160
 Alpha virt. eigenvalues --    0.06277   0.07012   0.07475   0.07950   0.08896
 Alpha virt. eigenvalues --    0.10953   0.11907   0.11937   0.12800   0.14203

 Mulliken charges:
               1
     1  C    5.855340
     2  O   -3.041819
     3  O   -3.752903
     4  H    3.017410
     5  C   -4.580577
     6  H    1.318501
     7  H    1.245340
     8  H    1.245340
     9  H    1.387916
    10  H    1.588624
    11  H    1.426194
    12  H    1.426194
    13  H    1.588624
    14  H    1.387916
    15  C   -4.699187
    16  S   -0.713723
    17  C   -4.699187
 Sum of Mulliken charges =   0.00000

 Dipole moment (field-independent basis, Debye):
    X=              0.9985    Y=             -0.4155    Z=              0.0000  Tot=              1.0815

 Test job not archived.
 1\1\GINC-SE016\SP\RHF\Aug-CC-pVDZ\C4H10O2S1\OHZDE\09-Apr-2025\0\\#t hf
  aug-cc-pvdz iop(5/13=1,5/36=2,99/5=2) pseudo=read geom=check guess=(r
 ead,tcheck) scf=(maxcycle=1)\\title\\0,1\C,0,0.08152563,1.86646531,0.\
 O,0,1.12794826,1.25988757,0.\O,0,-1.11612638,1.27040068,0.\H,0,-0.9946
 6015,0.28833063,0.\C,0,-0.03582077,3.36582142,0.\H,0,0.95204799,3.8127
 8193,0.\H,0,-0.5940149,3.69140047,-0.87678098\H,0,-0.5940149,3.6914004
 7,0.87678098\H,0,1.15427315,-2.25029033,-1.37919498\H,0,1.09604659,-0.
 46512234,-1.31548339\H,0,-0.07750735,-1.37048569,-2.29940307\H,0,-0.07

 Normal termination of Gaussian 16 at Wed Apr  9 19:37:33 2025.
