 Gaussian 16, Revision C.01,

 ----------------------------------------------------------------------
 #t hf aug-cc-pvdz symm=none int=(grid=ultrafine) guess=(read,tcheck) s
 table=(opt,rrhf)
 ----------------------------------------------------------------------
 -----
 title
 -----
 Symbolic Z-matrix:
 Charge =  0 Multiplicity = 1

 SCF Done:  E(RHF) =  -974.725459543     A.U. after   13 cycles
 Normal termination of Gaussian 16 at Wed Apr  9 19:39:53 2025.
 Gaussian 16:  ES64L-G16RevC.01  3-Jul-2019

 ----------------------------------------------------------------------
 #t hf aug-cc-pvdz iop(5/13=1,5/36=2,99/5=2) pseudo=read geom=check gue
 ss=(read,tcheck) scf=(maxcycle=1)
 ----------------------------------------------------------------------
 -----
 title
 -----
 Structure from the checkpoint file:  "HB300SPXx10_1376_4.42_1.05_hydrogenchloride_thioacetone_dimer_mol1.chk"
 Charge =  0 Multiplicity = 1

                         Standard orientation:
 ---------------------------------------------------------------------
 Center     Atomic      Atomic             Coordinates (Angstroms)
 Number     Number       Type             X           Y           Z
 ---------------------------------------------------------------------
      1          1           0        1.702544   -0.298431    0.000000
      2         17           0        2.598133   -1.265281    0.000000
      3          1           0       -0.349284   -1.515388    0.000000
      4          1           0       -1.893816   -1.465128    0.874054
      5          1           0       -1.893816   -1.465128   -0.874054
      6          1           0       -2.659372    2.111560    0.000000
      7          1           0       -3.276388    0.692189   -0.874659
      8          6           0       -1.349616   -1.098582    0.000000
      9          6           0       -1.356584    0.397028    0.000000
     10         16           0        0.000000    1.299796    0.000000
     11          6           0       -2.714091    1.028418    0.000000
     12          1           0       -3.276388    0.692189    0.874659
 ---------------------------------------------------------------------

 SCF Done:  E(RHF) =  -975.803933140     A.U. after    2 cycles

 The electronic state is 1-A'.
 Alpha  occ. eigenvalues --  -99.87870 -75.67928 -13.17389 -13.07426 -12.99282
 Alpha  occ. eigenvalues --  -11.49364 -11.41496 -11.39878 -10.44943  -9.65051
 Alpha  occ. eigenvalues --   -9.64329  -9.64184  -8.02224  -1.30191  -1.27108
 Alpha  occ. eigenvalues --   -1.06225  -1.04942  -0.76891  -0.66651  -0.62857
 Alpha  occ. eigenvalues --   -0.62462  -0.61362  -0.56572  -0.52185  -0.50057
 Alpha  occ. eigenvalues --   -0.49925  -0.43259  -0.33673  -0.24718
 Alpha virt. eigenvalues --    0.01896   0.05040   0.05082   0.06119   0.06412
 Alpha virt. eigenvalues --    0.06989   0.07338   0.07606   0.09043   0.10479
 Alpha virt. eigenvalues --    0.11813   0.12721   0.14014   0.14683   0.15114

 Mulliken charges:
               1
     1  H    0.652600
     2  Cl  -0.722104
     3  H    1.486456
     4  H    1.166595
     5  H    1.166595
     6  H    1.457005
     7  H    1.184601
     8  C   -4.510475
     9  C    0.175524
    10  S    0.881616
    11  C   -4.123015
    12  H    1.184601
 Sum of Mulliken charges =   0.00000

 Dipole moment (field-independent basis, Debye):
    X=             -2.5193    Y=              1.7940    Z=             -0.0000  Tot=              3.0928

 Test job not archived.
 1\1\GINC-SE138\SP\RHF\Aug-CC-pVDZ\C3H7Cl1S1\OHZDE\09-Apr-2025\0\\#t hf
  aug-cc-pvdz iop(5/13=1,5/36=2,99/5=2) pseudo=read geom=check guess=(r
 ead,tcheck) scf=(maxcycle=1)\\title\\0,1\H,0,-0.37830043,1.49279945,0.
 \Cl,0,0.15229845,2.69917624,0.\H,0,1.55466659,0.09472088,0.\H,0,2.1232
 0045,-1.3422454,0.87405369\H,0,2.12320045,-1.3422454,-0.87405369\H,0,-
 0.85343059,-3.46790818,0.\H,0,0.69425291,-3.46912799,-0.87465894\C,0,1
 .57036555,-0.98885832,0.\C,0,0.201054,-1.59042576,0.\S,0,-1.1670028,-0
 .70513923,0.\C,0,0.16202885,-3.0870739,0.\H,0,0.69425291,-3.46912799,0

 Normal termination of Gaussian 16 at Wed Apr  9 19:39:56 2025.
