 Gaussian 16, Revision C.01,

 ----------------------------------------------------------------------
 #t hf aug-cc-pvdz symm=none int=(grid=ultrafine) guess=(read,tcheck) s
 table=(opt,rrhf)
 ----------------------------------------------------------------------
 -----
 title
 -----
 Symbolic Z-matrix:
 Charge =  0 Multiplicity = 1

 SCF Done:  E(RHF) =  -989.361302879     A.U. after   13 cycles
 Normal termination of Gaussian 16 at Wed Apr  9 19:37:20 2025.
 Gaussian 16:  ES64L-G16RevC.01  3-Jul-2019

 ----------------------------------------------------------------------
 #t hf aug-cc-pvdz iop(5/13=1,5/36=2,99/5=2) pseudo=read geom=check gue
 ss=(read,tcheck) scf=(maxcycle=1)
 ----------------------------------------------------------------------
 -----
 title
 -----
 Structure from the checkpoint file:  "HB300SPXx10_1143_4.19_0.90_methanol_dimethyldisulfide_dimer_mol1.chk"
 Charge =  0 Multiplicity = 1

                         Standard orientation:
 ---------------------------------------------------------------------
 Center     Atomic      Atomic             Coordinates (Angstroms)
 Number     Number       Type             X           Y           Z
 ---------------------------------------------------------------------
      1          8           0        2.635431    0.150891   -0.140105
      2          1           0        1.816726    0.350490   -0.610042
      3          6           0        2.600718   -1.212695    0.251585
      4          1           0        3.514253   -1.410962    0.808000
      5          1           0        1.746059   -1.432207    0.897906
      6          1           0        2.567655   -1.886008   -0.609733
      7          1           0       -3.149026   -1.633633    0.575359
      8          1           0       -3.234991   -0.361561   -0.662665
      9          1           0       -2.917945    0.061307    1.041759
     10          1           0        0.800239    1.328097    1.386269
     11          1           0       -0.882264    1.940427    1.417435
     12          1           0        0.367689    2.803967    0.500265
     13          6           0       -2.749323   -0.671529    0.257743
     14         16           0       -0.969440   -0.932634   -0.019668
     15         16           0       -0.338399    0.894910   -0.705549
     16          6           0        0.017534    1.823649    0.820631
 ---------------------------------------------------------------------

 SCF Done:  E(RHF) =  -990.761186179     A.U. after    2 cycles

 The electronic state is 1-A.
 Alpha  occ. eigenvalues --  -75.70989 -75.70711 -21.04182 -13.15912 -13.13292
 Alpha  occ. eigenvalues --  -13.12246 -13.10576 -13.09143 -13.04705 -11.40640
 Alpha  occ. eigenvalues --  -11.40277 -11.38402  -8.05044  -8.04768  -1.68245
 Alpha  occ. eigenvalues --   -1.27490  -1.13477  -0.99011  -0.96012  -0.87694
 Alpha  occ. eigenvalues --   -0.63134  -0.60954  -0.60163  -0.59776  -0.59125
 Alpha  occ. eigenvalues --   -0.58060  -0.52542  -0.47935  -0.43913  -0.40429
 Alpha  occ. eigenvalues --   -0.34537  -0.30123  -0.25737  -0.24288
 Alpha virt. eigenvalues --    0.02424   0.03421   0.04026   0.04656   0.06483
 Alpha virt. eigenvalues --    0.07004   0.07661   0.08203   0.08387   0.08794
 Alpha virt. eigenvalues --    0.09808   0.10835   0.12775   0.12866   0.14012

 Mulliken charges:
               1
     1  O   -2.510746
     2  H    1.789128
     3  C   -2.655731
     4  H    1.234418
     5  H    1.395400
     6  H    1.285815
     7  H    1.377510
     8  H    1.485911
     9  H    1.498980
    10  H    1.460214
    11  H    1.530864
    12  H    1.406471
    13  C   -5.112278
    14  S    0.953169
    15  S   -0.709770
    16  C   -4.429353
 Sum of Mulliken charges =  -0.00000

 Dipole moment (field-independent basis, Debye):
    X=             -0.9573    Y=             -0.5917    Z=             -0.3075  Tot=              1.1666

 Test job not archived.
 1\1\GINC-SE231\SP\RHF\Aug-CC-pVDZ\C3H10O1S2\OHZDE\09-Apr-2025\0\\#t hf
  aug-cc-pvdz iop(5/13=1,5/36=2,99/5=2) pseudo=read geom=check guess=(r
 ead,tcheck) scf=(maxcycle=1)\\title\\0,1\O,0,-0.42925951,1.22968046,-2
 .50380826\H,0,-0.36156068,1.36890772,-1.5514469\C,0,-1.37991091,0.2017
 0921,-2.7351714\H,0,-1.41855104,0.0350798,-3.80950666\H,0,-1.09677682,
 -0.73598734,-2.24842974\H,0,-2.37984798,0.48334645,-2.39294418\H,0,-0.
 61558151,-2.51483719,2.30246143\H,0,-0.15014888,-0.94405671,2.99114402
 \H,0,1.01668661,-1.88245661,2.02042217\H,0,1.64443901,-0.01906843,-1.3

 Normal termination of Gaussian 16 at Wed Apr  9 19:37:25 2025.
