 Gaussian 16, Revision C.01,

 ----------------------------------------------------------------------
 #t hf aug-cc-pvdz symm=none int=(grid=ultrafine) guess=(read,tcheck) s
 table=(opt,rrhf)
 ----------------------------------------------------------------------
 -----
 title
 -----
 Symbolic Z-matrix:
 Charge =  0 Multiplicity = 1

 SCF Done:  E(RHF) =  -532.972254057     A.U. after   12 cycles
 Normal termination of Gaussian 16 at Wed Apr  9 19:34:54 2025.
 Gaussian 16:  ES64L-G16RevC.01  3-Jul-2019

 ----------------------------------------------------------------------
 #t hf aug-cc-pvdz iop(5/13=1,5/36=2,99/5=2) pseudo=read geom=check gue
 ss=(read,tcheck) scf=(maxcycle=1)
 ----------------------------------------------------------------------
 -----
 title
 -----
 Structure from the checkpoint file:  "HB300SPXx10_1047_4.08_1.10_ammonia_dimethylsulfide_dimer_mol1.chk"
 Charge =  0 Multiplicity = 1

                         Standard orientation:
 ---------------------------------------------------------------------
 Center     Atomic      Atomic             Coordinates (Angstroms)
 Number     Number       Type             X           Y           Z
 ---------------------------------------------------------------------
      1          7           0        3.168241   -0.235895    0.135681
      2          1           0        3.819309   -0.305131    0.907399
      3          1           0        2.325608   -0.733514    0.401603
      4          1           0        3.575232   -0.736116   -0.644442
      5          1           0       -0.307766    1.590044    1.072106
      6          1           0       -0.888848    2.042900   -0.549839
      7          1           0        0.809509    1.566553   -0.299210
      8          1           0       -2.561741   -1.510009    0.220779
      9          1           0       -2.923928    0.184421   -0.141863
     10          1           0       -2.216138   -0.262020    1.429262
     11          6           0       -0.218496    1.389779    0.005655
     12         16           0       -0.569964   -0.351085   -0.347597
     13          6           0       -2.229752   -0.484530    0.363677
 ---------------------------------------------------------------------

 SCF Done:  E(RHF) =  -533.910571984     A.U. after    2 cycles

 The electronic state is 1-A.
 Alpha  occ. eigenvalues --  -75.66726 -15.73812 -13.09201 -13.06349 -13.00523
 Alpha  occ. eigenvalues --  -11.38859 -11.38261  -8.00839  -1.24269  -1.22008
 Alpha  occ. eigenvalues --   -1.02507  -0.87496  -0.60740  -0.60476  -0.59586
 Alpha  occ. eigenvalues --   -0.59289  -0.57359  -0.56286  -0.43851  -0.38186
 Alpha  occ. eigenvalues --   -0.36287  -0.21622
 Alpha virt. eigenvalues --    0.03217   0.03992   0.04521   0.05377   0.06747
 Alpha virt. eigenvalues --    0.07221   0.08022   0.08129   0.09143   0.10902
 Alpha virt. eigenvalues --    0.13171   0.13775   0.15131   0.15999   0.17485

 Mulliken charges:
               1
     1  N   -1.947335
     2  H    0.658196
     3  H    0.692283
     4  H    0.611528
     5  H    1.451041
     6  H    1.380276
     7  H    1.429053
     8  H    1.387000
     9  H    1.399735
    10  H    1.415120
    11  C   -4.748328
    12  S    1.075368
    13  C   -4.803936
 Sum of Mulliken charges =  -0.00000

 Dipole moment (field-independent basis, Debye):
    X=              0.3006    Y=             -1.1682    Z=              0.1366  Tot=              1.2140

 Test job not archived.
 1\1\GINC-SE362\SP\RHF\Aug-CC-pVDZ\C2H9N1S1\OHZDE\09-Apr-2025\0\\#t hf
 aug-cc-pvdz iop(5/13=1,5/36=2,99/5=2) pseudo=read geom=check guess=(re
 ad,tcheck) scf=(maxcycle=1)\\title\\0,1\N,0,-1.73355141,-2.37393966,0.
 81983189\H,0,-2.47172211,-2.47256241,1.50511242\H,0,-1.77953232,-1.428
 67287,0.45551723\H,0,-1.951459,-2.99867579,0.05388488\H,0,0.96118335,0
 .49852299,1.70353521\H,0,2.32825341,-0.00650549,0.67908179\H,0,0.99062
 753,-1.13284087,1.02005433\H,0,0.26737064,2.62212414,-1.52515379\H,0,1
 .84789215,2.31074256,-0.79114117\H,0,0.44308068,2.68444825,0.23626306\

 Normal termination of Gaussian 16 at Wed Apr  9 19:34:57 2025.
