 Gaussian 16, Revision C.01,

 ----------------------------------------------------------------------
 #t hf aug-cc-pvdz symm=none int=(grid=ultrafine) guess=(read,tcheck) s
 table=(opt,rrhf)
 ----------------------------------------------------------------------
 -----
 title
 -----
 Symbolic Z-matrix:
 Charge =  0 Multiplicity = 1

 SCF Done:  E(RHF) =  -914.492053800     A.U. after   12 cycles

 1\1\GINC-SE220\Stability\RHF\Aug-CC-pVDZ\C3H10S2\OHZDE\09-Apr-2025\0\\
 #t hf aug-cc-pvdz symm=none int=(grid=ultrafine) guess=(read,tcheck) s
 table=(opt,rrhf)\\title\\0,1\H,0,2.306559,-2.0578968,-0.64952301\H,0,3
 .32031438,-1.47471252,0.67641305\H,0,2.52307119,-0.31083024,-0.3888258
 5\H,0,0.07002633,-1.01993654,0.36023035\C,0,2.42249764,-1.27751778,0.0
 9684023\S,0,1.02865784,-1.2837739,1.27093846\H,0,0.7459842,1.43540162,
 0.09782784\H,0,-0.16682454,2.7140427,-0.74549305\H,0,0.84804052,1.5944
 1081,-1.66783087\H,0,-2.95972083,0.19360205,0.49006805\H,0,-2.43578692

 Normal termination of Gaussian 16 at Wed Apr  9 19:38:12 2025.
 Gaussian 16:  ES64L-G16RevC.01  3-Jul-2019

 ----------------------------------------------------------------------
 #t hf aug-cc-pvdz iop(5/13=1,5/36=2,99/5=2) pseudo=read geom=check gue
 ss=(read,tcheck) scf=(maxcycle=1)
 ----------------------------------------------------------------------
 -----
 title
 -----
 Structure from the checkpoint file:  "HB300SPXx10_1184_4.23_0.95_methanethiol_dimethylsulfide_dimer_mol1.chk"
 Charge =  0 Multiplicity = 1

                         Standard orientation:
 ---------------------------------------------------------------------
 Center     Atomic      Atomic             Coordinates (Angstroms)
 Number     Number       Type             X           Y           Z
 ---------------------------------------------------------------------
      1          1           0        2.666561    0.978973   -1.283575
      2          1           0        3.517244    0.867748    0.262349
      3          1           0        1.919508    1.621474    0.198379
      4          1           0        0.681120   -0.623162   -0.515311
      5          6           0        2.541557    0.832274   -0.214769
      6         16           0        1.843069   -0.812797    0.141870
      7          1           0       -0.278833    0.940794    1.269905
      8          1           0       -1.961606    1.516347    1.397757
      9          1           0       -0.835120    2.311166    0.287116
     10          1           0       -2.280410   -1.996268   -0.402078
     11          1           0       -2.829984   -1.039247    0.983412
     12          1           0       -1.131393   -1.563867    0.878104
     13          6           0       -1.122827    1.357501    0.722871
     14         16           0       -1.593283    0.262731   -0.640751
     15          6           0       -1.996006   -1.225261    0.309571
 ---------------------------------------------------------------------

 SCF Done:  E(RHF) =  -915.599561631     A.U. after    2 cycles

 The electronic state is 1-A.
 Alpha  occ. eigenvalues --  -75.67736 -75.67319 -13.11208 -13.10911 -13.09193
 Alpha  occ. eigenvalues --  -13.07914 -13.06207 -13.02097 -11.39697 -11.39459
 Alpha  occ. eigenvalues --  -11.39248  -8.01832  -8.01227  -1.23351  -1.17452
 Alpha  occ. eigenvalues --   -1.03288  -0.93456  -0.88425  -0.61388  -0.60429
 Alpha  occ. eigenvalues --   -0.59045  -0.58511  -0.58193  -0.56903  -0.48636
 Alpha  occ. eigenvalues --   -0.44714  -0.39125  -0.37067  -0.23205  -0.21969
 Alpha virt. eigenvalues --    0.02481   0.03285   0.04371   0.04950   0.06509
 Alpha virt. eigenvalues --    0.06881   0.07343   0.07666   0.08796   0.09661
 Alpha virt. eigenvalues --    0.10041   0.11868   0.12970   0.13290   0.14070

 Mulliken charges:
               1
     1  H    1.379245
     2  H    1.354528
     3  H    1.465964
     4  H    1.293250
     5  C   -4.779266
     6  S   -0.649111
     7  H    1.646132
     8  H    1.339592
     9  H    1.503812
    10  H    1.418408
    11  H    1.390162
    12  H    1.356620
    13  C   -4.683042
    14  S    0.584882
    15  C   -4.621177
 Sum of Mulliken charges =  -0.00000

 Dipole moment (field-independent basis, Debye):
    X=              0.3742    Y=              0.0374    Z=              0.0319  Tot=              0.3774

 Test job not archived.
 1\1\GINC-SE220\SP\RHF\Aug-CC-pVDZ\C3H10S2\OHZDE\09-Apr-2025\0\\#t hf a
 ug-cc-pvdz iop(5/13=1,5/36=2,99/5=2) pseudo=read geom=check guess=(rea
 d,tcheck) scf=(maxcycle=1)\\title\\0,1\H,0,2.306559,-2.0578968,-0.6495
 2301\H,0,3.32031438,-1.47471252,0.67641305\H,0,2.52307119,-0.31083024,
 -0.38882585\H,0,0.07002633,-1.01993654,0.36023035\C,0,2.42249764,-1.27
 751778,0.09684023\S,0,1.02865784,-1.2837739,1.27093846\H,0,0.7459842,1
 .43540162,0.09782784\H,0,-0.16682454,2.7140427,-0.74549305\H,0,0.84804
 052,1.59441081,-1.66783087\H,0,-2.95972083,0.19360205,0.49006805\H,0,-

 Normal termination of Gaussian 16 at Wed Apr  9 19:38:16 2025.
