 Gaussian 16, Revision C.01,

 ----------------------------------------------------------------------
 #t hf aug-cc-pvdz symm=none int=(grid=ultrafine) guess=(read,tcheck) s
 table=(opt,rrhf)
 ----------------------------------------------------------------------
 -----
 title
 -----
 Symbolic Z-matrix:
 Charge =  0 Multiplicity = 1

 SCF Done:  E(RHF) =  -936.849923604     A.U. after   12 cycles
 Normal termination of Gaussian 16 at Wed Apr  9 04:10:27 2025.
 Gaussian 16:  ES64L-G16RevC.01  3-Jul-2019

 ----------------------------------------------------------------------
 #t hf aug-cc-pvdz iop(5/13=1,5/36=2,99/5=2) pseudo=read geom=check gue
 ss=(read,tcheck) scf=(maxcycle=1)
 ----------------------------------------------------------------------
 -----
 title
 -----
 Structure from the checkpoint file:  "HB300SPXx10_1322_4.37_0.85_hydrogenchloride_dimethylsulfide_dimer_mol1.chk"
 Charge =  0 Multiplicity = 1

                         Standard orientation:
 ---------------------------------------------------------------------
 Center     Atomic      Atomic             Coordinates (Angstroms)
 Number     Number       Type             X           Y           Z
 ---------------------------------------------------------------------
      1          1           0       -0.839650   -0.000003   -0.450314
      2         17           0       -2.067821   -0.000002    0.044907
      3          1           0        0.326158   -1.354202    1.235341
      4          1           0        2.094185   -1.365703    0.989337
      5          1           0        1.037447   -2.299390   -0.084478
      6          1           0        1.037436    2.299393   -0.084479
      7          1           0        2.094175    1.365710    0.989340
      8          1           0        0.326146    1.354203    1.235338
      9          6           0        1.124652   -1.385385    0.497055
     10         16           0        0.973830    0.000001   -0.659885
     11          6           0        1.124644    1.385389    0.497054
 ---------------------------------------------------------------------

 SCF Done:  E(RHF) =  -937.769583009     A.U. after    2 cycles

 The electronic state is 1-A.
 Alpha  occ. eigenvalues --  -99.85419 -75.70152 -13.15140 -13.14276 -13.10813
 Alpha  occ. eigenvalues --  -11.41157 -11.40988 -10.42694  -9.62838  -9.62022
 Alpha  occ. eigenvalues --   -9.62005  -8.04476  -1.28262  -1.23621  -1.05074
 Alpha  occ. eigenvalues --   -0.91019  -0.68750  -0.62009  -0.60837  -0.59764
 Alpha  occ. eigenvalues --   -0.58929  -0.48870  -0.48821  -0.46338  -0.39139
 Alpha  occ. eigenvalues --   -0.26129
 Alpha virt. eigenvalues --    0.02733   0.03462   0.05072   0.05917   0.07016
 Alpha virt. eigenvalues --    0.07567   0.08389   0.09075   0.11010   0.11537
 Alpha virt. eigenvalues --    0.13083   0.15017   0.15475   0.16272   0.16332

 Mulliken charges:
               1
     1  H    1.320770
     2  Cl  -0.870174
     3  H    1.276258
     4  H    1.419964
     5  H    1.360822
     6  H    1.360822
     7  H    1.419962
     8  H    1.276259
     9  C   -4.258259
    10  S   -0.048168
    11  C   -4.258256
 Sum of Mulliken charges =  -0.00000

 Dipole moment (field-independent basis, Debye):
    X=              4.1263    Y=              0.0000    Z=             -0.7909  Tot=              4.2015

 Test job not archived.
 1\1\GINC-SE273\SP\RHF\Aug-CC-pVDZ\C2H7Cl1S1\OHZDE\09-Apr-2025\0\\#t hf
  aug-cc-pvdz iop(5/13=1,5/36=2,99/5=2) pseudo=read geom=check guess=(r
 ead,tcheck) scf=(maxcycle=1)\\title\\0,1\H,0,-0.09169332,-0.01707414,-
 1.03147385\Cl,0,0.64323048,-0.44620369,-2.04605842\H,0,1.66603013,0.71
 530723,0.52043648\H,0,1.01406676,1.15176287,2.12387695\H,0,0.77536044,
 2.23193438,0.73903253\H,0,-1.27732118,-1.87568881,0.98950226\H,0,-0.20
 510395,-1.28793199,2.27263941\H,0,0.45712433,-1.70383436,0.66794268\C,
 0,0.84469381,1.19297906,1.05040738\S,0,-0.72897355,0.4025187,0.6269728

 Normal termination of Gaussian 16 at Wed Apr  9 04:10:31 2025.
