 Gaussian 16, Revision C.01,

 ----------------------------------------------------------------------
 #t hf aug-cc-pvdz symm=none int=(grid=ultrafine) guess=(read,tcheck) s
 table=(opt,rrhf)
 ----------------------------------------------------------------------
 -----
 title
 -----
 Symbolic Z-matrix:
 Charge =  0 Multiplicity = 1

 SCF Done:  E(RHF) =  -1017.02370533     A.U. after   12 cycles
 Normal termination of Gaussian 16 at Wed Apr  9 19:41:05 2025.
 Gaussian 16:  ES64L-G16RevC.01  3-Jul-2019

 ----------------------------------------------------------------------
 #t hf aug-cc-pvdz iop(5/13=1,5/36=2,99/5=2) pseudo=read geom=check gue
 ss=(read,tcheck) scf=(maxcycle=1)
 ----------------------------------------------------------------------
 -----
 title
 -----
 Structure from the checkpoint file:  "HB300SPXx10_1383_5.01_0.90_dimethylsulfide_phosphineF2_dimer_mol1.chk"
 Charge =  0 Multiplicity = 1

                         Standard orientation:
 ---------------------------------------------------------------------
 Center     Atomic      Atomic             Coordinates (Angstroms)
 Number     Number       Type             X           Y           Z
 ---------------------------------------------------------------------
      1          1           0       -0.576981    0.865733    1.434139
      2          1           0       -2.309559    1.284606    1.424669
      3          1           0       -1.146707    2.263930    0.513216
      4          1           0       -2.103708   -2.062946   -0.706660
      5          1           0       -2.846555   -1.316677    0.715694
      6          1           0       -1.100287   -1.669259    0.700801
      7          6           0       -1.395636    1.255763    0.834174
      8         16           0       -1.627213    0.261127   -0.661239
      9          6           0       -1.949432   -1.350379    0.100114
     10         15           0        1.991807   -0.313363   -0.336351
     11          9           0        1.186913   -0.968769    0.883543
     12          9           0        1.629103    1.220004   -0.078983
     13          1           0        0.968369   -0.536395   -1.303537
 ---------------------------------------------------------------------

 SCF Done:  E(RHF) =  -1018.54755352     A.U. after    2 cycles

 The electronic state is 1-A.
 Alpha  occ. eigenvalues -- -105.29135 -75.66765 -29.29336 -29.29183 -13.09227
 Alpha  occ. eigenvalues --  -13.06737 -13.03751 -11.38752 -11.38487  -8.00889
 Alpha  occ. eigenvalues --   -2.88630  -1.63600  -1.59110  -1.53221  -1.21939
 Alpha  occ. eigenvalues --   -1.02732  -0.90521  -0.87744  -0.60419  -0.59612
 Alpha  occ. eigenvalues --   -0.57747  -0.57587  -0.55570  -0.46727  -0.44016
 Alpha  occ. eigenvalues --   -0.40712  -0.37483  -0.35675  -0.34905  -0.29331
 Alpha  occ. eigenvalues --   -0.26729  -0.20127  -0.19236  -0.00496
 Alpha virt. eigenvalues --    0.03957   0.04433   0.05775   0.07256   0.07510
 Alpha virt. eigenvalues --    0.07787   0.08330   0.09597   0.10315   0.10790
 Alpha virt. eigenvalues --    0.12975   0.14471   0.15419   0.15765   0.16479

 Mulliken charges:
               1
     1  H    1.527650
     2  H    1.401162
     3  H    1.342845
     4  H    1.402183
     5  H    1.373797
     6  H    1.395003
     7  C   -4.555465
     8  S    0.915024
     9  C   -4.661498
    10  P    2.273695
    11  F   -0.671305
    12  F   -0.500318
    13  H   -1.242773
 Sum of Mulliken charges =  -0.00000

 Dipole moment (field-independent basis, Debye):
    X=             -4.2636    Y=              2.9362    Z=              3.3507  Tot=              6.1666

 Test job not archived.
 1\1\GINC-SE014\SP\RHF\Aug-CC-pVDZ\C2H7F2P1S1\OHZDE\09-Apr-2025\0\\#t h
 f aug-cc-pvdz iop(5/13=1,5/36=2,99/5=2) pseudo=read geom=check guess=(
 read,tcheck) scf=(maxcycle=1)\\title\\0,1\H,0,0.35324965,2.18742239,-0
 .72380577\H,0,0.23256961,2.54349189,-2.46622469\H,0,1.47961489,1.43776
 879,-1.86264863\H,0,-2.97879656,0.33269977,-1.6977403\H,0,-2.43534977,
 1.89515642,-2.32640837\H,0,-2.24831697,1.5140911,-0.59615001\C,0,0.456
 3691,1.7777672,-1.72571744\S,0,-0.61885679,0.337269,-1.94490696\C,0,-2
 .22218849,1.10820804,-1.60517522\P,0,-0.06861653,-0.10048632,1.6659796

 Normal termination of Gaussian 16 at Wed Apr  9 19:41:09 2025.
