 Gaussian 16, Revision C.01,

 ----------------------------------------------------------------------
 #t hf aug-cc-pvdz symm=none int=(grid=ultrafine) guess=(read,tcheck) s
 table=(opt,rrhf)
 ----------------------------------------------------------------------
 -----
 title
 -----
 Symbolic Z-matrix:
 Charge =  0 Multiplicity = 1

 SCF Done:  E(RHF) =  -571.988350988     A.U. after   12 cycles
 Normal termination of Gaussian 16 at Wed Apr  9 19:39:14 2025.
 Gaussian 16:  ES64L-G16RevC.01  3-Jul-2019

 ----------------------------------------------------------------------
 #t hf aug-cc-pvdz iop(5/13=1,5/36=2,99/5=2) pseudo=read geom=check gue
 ss=(read,tcheck) scf=(maxcycle=1)
 ----------------------------------------------------------------------
 -----
 title
 -----
 Structure from the checkpoint file:  "HB300SPXx10_134_1.14_0.95_sulfane_trimethylamine_dimer_mol1.chk"
 Charge =  0 Multiplicity = 1

                         Standard orientation:
 ---------------------------------------------------------------------
 Center     Atomic      Atomic             Coordinates (Angstroms)
 Number     Number       Type             X           Y           Z
 ---------------------------------------------------------------------
      1          1           0       -1.004444    0.038341    0.000000
      2          1           0       -2.629715   -1.071125    0.000000
      3         16           0       -2.360039    0.242080    0.000000
      4          1           0        2.371837   -0.828267    1.303193
      5          1           0        0.876956   -0.268217    2.080506
      6          1           0        0.888406   -1.796089    1.197590
      7          1           0        0.888406   -1.796089   -1.197590
      8          1           0        2.371837   -0.828267   -1.303193
      9          1           0        0.876956   -0.268217   -2.080506
     10          1           0        2.371624    1.416782    0.000000
     11          1           0        0.882832    1.808992   -0.882789
     12          6           0        1.276645   -0.778753    1.205875
     13          7           0        0.857640   -0.084274    0.000000
     14          6           0        1.276645   -0.778753   -1.205875
     15          6           0        1.276645    1.307473    0.000000
     16          1           0        0.882832    1.808992    0.882789
 ---------------------------------------------------------------------

 SCF Done:  E(RHF) =  -573.123819437     A.U. after    2 cycles

 The electronic state is 1-A'.
 Alpha  occ. eigenvalues --  -75.66669 -15.71835 -13.13326 -13.07782 -12.99180
 Alpha  occ. eigenvalues --  -11.39208 -11.39197 -11.38143  -8.00434  -1.43964
 Alpha  occ. eigenvalues --   -1.08177  -1.04284  -1.04280  -0.84934  -0.67229
 Alpha  occ. eigenvalues --   -0.63894  -0.63878  -0.55588  -0.55581  -0.52496
 Alpha  occ. eigenvalues --   -0.52303  -0.48963  -0.48948  -0.42484  -0.29041
 Alpha  occ. eigenvalues --   -0.23592
 Alpha virt. eigenvalues --    0.03050   0.04781   0.05349   0.05388   0.06015
 Alpha virt. eigenvalues --    0.06250   0.06520   0.06987   0.07023   0.08978
 Alpha virt. eigenvalues --    0.09618   0.12155   0.13237   0.13812   0.14118

 Mulliken charges:
               1
     1  H    1.258858
     2  H    0.943142
     3  S   -2.627873
     4  H    1.267186
     5  H    1.300650
     6  H    1.316519
     7  H    1.316519
     8  H    1.267186
     9  H    1.300650
    10  H    1.244606
    11  H    1.274876
    12  C   -3.654171
    13  N   -0.108209
    14  C   -3.654171
    15  C   -3.720645
    16  H    1.274876
 Sum of Mulliken charges =  -0.00000

 Dipole moment (field-independent basis, Debye):
    X=              1.3719    Y=              0.8509    Z=              0.0000  Tot=              1.6144

 Test job not archived.
 1\1\GINC-SE174\SP\RHF\Aug-CC-pVDZ\C3H11N1S1\OHZDE\09-Apr-2025\0\\#t hf
  aug-cc-pvdz iop(5/13=1,5/36=2,99/5=2) pseudo=read geom=check guess=(r
 ead,tcheck) scf=(maxcycle=1)\\title\\0,1\H,0,0.06719299,0.97177334,0.\
 H,0,1.32304535,2.48678341,0.\S,0,-0.00955285,2.34044335,0.\H,0,0.61595
 079,-2.47048536,-1.30319342\H,0,0.19739685,-0.92998642,-2.08050641\H,0
 ,1.7175781,-1.08352334,-1.19759028\H,0,1.7175781,-1.08352334,1.1975902
 8\H,0,0.61595079,-2.47048536,1.30319342\H,0,0.19739685,-0.92998642,2.0
 8050641\H,0,-1.61934269,-2.26141893,0.\H,0,-1.87135073,-0.74259657,0.8

 Normal termination of Gaussian 16 at Wed Apr  9 19:39:17 2025.
