 Gaussian 16, Revision C.01,

 ----------------------------------------------------------------------
 #t hf aug-cc-pvdz symm=none int=(grid=ultrafine) guess=(read,tcheck) s
 table=(opt,rrhf)
 ----------------------------------------------------------------------
 -----
 title
 -----
 Symbolic Z-matrix:
 Charge =  0 Multiplicity = 1

 SCF Done:  E(RHF) =  -605.473758208     A.U. after   13 cycles
 Normal termination of Gaussian 16 at Wed Apr  9 19:36:50 2025.
 Gaussian 16:  ES64L-G16RevC.01  3-Jul-2019

 ----------------------------------------------------------------------
 #t hf aug-cc-pvdz iop(5/13=1,5/36=2,99/5=2) pseudo=read geom=check gue
 ss=(read,tcheck) scf=(maxcycle=1)
 ----------------------------------------------------------------------
 -----
 title
 -----
 Structure from the checkpoint file:  "HB300SPXx10_112_1.12_0.85_sulfane_methylcyanate_dimer_mol1.chk"
 Charge =  0 Multiplicity = 1

                         Standard orientation:
 ---------------------------------------------------------------------
 Center     Atomic      Atomic             Coordinates (Angstroms)
 Number     Number       Type             X           Y           Z
 ---------------------------------------------------------------------
      1          1           0        1.369986    0.865471    0.030305
      2          1           0        2.365883   -0.351624    1.172072
      3         16           0        2.044494   -0.286446   -0.128318
      4          1           0       -1.715551   -1.271201    1.311532
      5          1           0       -2.061741   -2.115796   -0.224892
      6          1           0       -0.388009   -1.596431    0.151646
      7          6           0       -1.445054   -1.371636    0.263682
      8          8           0       -1.746243   -0.119235   -0.429282
      9          6           0       -1.066202    0.898946   -0.054290
     10          7           0       -0.463572    1.834677    0.255762
 ---------------------------------------------------------------------

 SCF Done:  E(RHF) =  -606.607593232     A.U. after    2 cycles

 The electronic state is 1-A.
 Alpha  occ. eigenvalues --  -75.69180 -21.15653 -15.75741 -13.15254 -13.09018
 Alpha  occ. eigenvalues --  -13.06622 -11.49282 -11.45441  -8.03005  -1.85489
 Alpha  occ. eigenvalues --   -1.30227  -1.10969  -1.05240  -0.73987  -0.66823
 Alpha  occ. eigenvalues --   -0.65523  -0.57507  -0.56282  -0.53158  -0.50918
 Alpha  occ. eigenvalues --   -0.43639  -0.40080  -0.34596  -0.25985
 Alpha virt. eigenvalues --    0.02287   0.04350   0.05390   0.06019   0.07369
 Alpha virt. eigenvalues --    0.09174   0.10857   0.11466   0.11644   0.12396
 Alpha virt. eigenvalues --    0.13700   0.14039   0.15096   0.15185   0.16361

 Mulliken charges:
               1
     1  H    1.239250
     2  H    1.079640
     3  S   -2.561527
     4  H    1.359208
     5  H    1.295618
     6  H    1.528522
     7  C   -2.853405
     8  O   -2.690138
     9  C    4.136787
    10  N   -2.533956
 Sum of Mulliken charges =   0.00000

 Dipole moment (field-independent basis, Debye):
    X=             -1.1633    Y=             -4.2669    Z=             -1.0478  Tot=              4.5450

 Test job not archived.
 1\1\GINC-SE056\SP\RHF\Aug-CC-pVDZ\C2H5N1O1S1\OHZDE\09-Apr-2025\0\\#t h
 f aug-cc-pvdz iop(5/13=1,5/36=2,99/5=2) pseudo=read geom=check guess=(
 read,tcheck) scf=(maxcycle=1)\\title\\0,1\H,0,1.70020261,0.23216325,0.
 14198181\H,0,1.83071194,2.07603691,0.74186388\S,0,1.65222468,0.8789214
 7,1.31945248\H,0,-2.10276787,1.21588164,-0.4031454\H,0,-2.78300529,0.2
 4748635,0.93598604\H,0,-1.11198738,0.88524498,1.05373842\C,0,-1.884078
 55,0.50586086,0.39013303\O,0,-1.4310331,-0.75087107,-0.20551569\C,0,-0
 .32598042,-0.6920352,-0.84984787\N,0,0.67230754,-0.67373163,-1.4312035

 Normal termination of Gaussian 16 at Wed Apr  9 19:36:53 2025.
