 Gaussian 16, Revision C.01,

 ----------------------------------------------------------------------
 #t hf aug-cc-pvdz symm=none int=(grid=ultrafine) guess=(read,tcheck) s
 table=(opt,rrhf)
 ----------------------------------------------------------------------
 -----
 title
 -----
 Symbolic Z-matrix:
 Charge =  0 Multiplicity = 1

 SCF Done:  E(RHF) =  -855.911079411     A.U. after   14 cycles
 Normal termination of Gaussian 16 at Wed Apr  9 19:34:55 2025.
 Gaussian 16:  ES64L-G16RevC.01  3-Jul-2019

 ----------------------------------------------------------------------
 #t hf aug-cc-pvdz iop(5/13=1,5/36=2,99/5=2) pseudo=read geom=check gue
 ss=(read,tcheck) scf=(maxcycle=1)
 ----------------------------------------------------------------------
 -----
 title
 -----
 Structure from the checkpoint file:  "HB300SPXx10_1037_4.07_1.10_phosphaalkyne_methanethiol_dimer_mol1.chk"
 Charge =  0 Multiplicity = 1

                         Standard orientation:
 ---------------------------------------------------------------------
 Center     Atomic      Atomic             Coordinates (Angstroms)
 Number     Number       Type             X           Y           Z
 ---------------------------------------------------------------------
      1          1           0       -1.738614    2.120579    1.244680
      2          1           0       -1.984175    2.418200   -0.478540
      3          1           0       -0.379919    1.975651    0.116990
      4         15           0       -2.059351   -1.103835   -0.170346
      5          6           0       -1.754094    0.390881    0.042861
      6          6           0       -1.450470    1.796859    0.242870
      7          1           0        1.037163   -0.227473    1.500754
      8          1           0        2.800837   -0.235698    1.672828
      9          1           0        1.977195   -1.651634    1.004095
     10          1           0        1.097030   -0.310664   -1.146137
     11          6           0        1.968352   -0.567056    1.057782
     12         16           0        2.218626    0.171528   -0.588784
 ---------------------------------------------------------------------

 SCF Done:  E(RHF) =  -856.935914451     A.U. after    2 cycles

 The electronic state is 1-A.
 Alpha  occ. eigenvalues -- -105.17004 -75.68129 -13.11450 -13.07030 -13.02429
 Alpha  occ. eigenvalues --  -11.45333 -11.40522 -11.39400  -8.02018  -2.75323
 Alpha  occ. eigenvalues --   -1.56851  -1.35399  -1.34783  -1.18021  -1.14244
 Alpha  occ. eigenvalues --   -0.93840  -0.78253  -0.60061  -0.59737  -0.59149
 Alpha  occ. eigenvalues --   -0.59090  -0.58322  -0.48869  -0.39071  -0.23616
 Alpha  occ. eigenvalues --   -0.16442  -0.16289  -0.06797
 Alpha virt. eigenvalues --    0.02816   0.04023   0.05649   0.05850   0.06521
 Alpha virt. eigenvalues --    0.07658   0.08196   0.08684   0.08757   0.09794
 Alpha virt. eigenvalues --    0.11470   0.12544   0.12946   0.14474   0.14653

 Mulliken charges:
               1
     1  H    1.240009
     2  H    1.163087
     3  H    1.297205
     4  P    5.015292
     5  C   -4.055495
     6  C   -4.594527
     7  H    1.426860
     8  H    1.423371
     9  H    1.353829
    10  H    0.981600
    11  C   -4.646022
    12  S   -0.605208
 Sum of Mulliken charges =  -0.00000

 Dipole moment (field-independent basis, Debye):
    X=             -1.7735    Y=            -10.0402    Z=             -1.0807  Tot=             10.2527

 Test job not archived.
 1\1\GINC-SE112\SP\RHF\Aug-CC-pVDZ\C3H7P1S1\OHZDE\09-Apr-2025\0\\#t hf
 aug-cc-pvdz iop(5/13=1,5/36=2,99/5=2) pseudo=read geom=check guess=(re
 ad,tcheck) scf=(maxcycle=1)\\title\\0,1\H,0,0.38933231,2.34404549,-1.6
 8180664\H,0,-1.19987448,1.75919838,-2.18254684\H,0,0.10218747,0.605834
 91,-1.86864837\P,0,-1.17058474,1.34195856,1.32892267\C,0,-0.7484701,1.
 45533882,-0.14816129\C,0,-0.34350289,1.5476729,-1.53972175\H,0,1.88797
 675,-0.31674106,0.30769959\H,0,2.93140287,-1.73614709,0.11593386\H,0,1
 .85881996,-1.61777544,1.51808178\H,0,-0.36132304,-1.68451468,0.0137874

 Normal termination of Gaussian 16 at Wed Apr  9 19:34:59 2025.
