 Gaussian 16, Revision C.01,

 ----------------------------------------------------------------------
 #t hf aug-cc-pvdz symm=none int=(grid=ultrafine) guess=(read,tcheck) s
 table=(opt,rrhf)
 ----------------------------------------------------------------------
 -----
 title
 -----
 Symbolic Z-matrix:
 Charge =  0 Multiplicity = 1

 SCF Done:  E(RHF) =  -513.774889405     A.U. after   12 cycles
 Normal termination of Gaussian 16 at Wed Apr  9 19:37:51 2025.
 Gaussian 16:  ES64L-G16RevC.01  3-Jul-2019

 ----------------------------------------------------------------------
 #t hf aug-cc-pvdz iop(5/13=1,5/36=2,99/5=2) pseudo=read geom=check gue
 ss=(read,tcheck) scf=(maxcycle=1)
 ----------------------------------------------------------------------
 -----
 title
 -----
 Structure from the checkpoint file:  "HB300SPXx10_1165_4.21_1.00_water_methanethiol_dimer_mol1.chk"
 Charge =  0 Multiplicity = 1

                         Standard orientation:
 ---------------------------------------------------------------------
 Center     Atomic      Atomic             Coordinates (Angstroms)
 Number     Number       Type             X           Y           Z
 ---------------------------------------------------------------------
      1          8           0       -2.340920    0.106326    0.054208
      2          1           0       -1.521048   -0.387903   -0.089305
      3          1           0       -3.038242   -0.447106   -0.303557
      4          1           0        0.001044    1.525179    0.494078
      5          1           0        0.908046    1.508590   -1.022204
      6          1           0        1.790045    1.518005    0.511649
      7          1           0        0.886550   -0.899453    1.239262
      8          6           0        0.898792    1.159116    0.006502
      9         16           0        0.894263   -0.663913   -0.081412
 ---------------------------------------------------------------------

 SCF Done:  E(RHF) =  -514.545972408     A.U. after    2 cycles

 The electronic state is 1-A.
 Alpha  occ. eigenvalues --  -75.69463 -21.08105 -13.13731 -13.09048 -13.08121
 Alpha  occ. eigenvalues --  -11.40063  -8.03355  -1.64609  -1.19161  -0.94769
 Alpha  occ. eigenvalues --   -0.62813  -0.60465  -0.58840  -0.49903  -0.45374
 Alpha  occ. eigenvalues --   -0.39925  -0.33972  -0.25070
 Alpha virt. eigenvalues --    0.02882   0.04032   0.04832   0.05950   0.07660
 Alpha virt. eigenvalues --    0.09816   0.11032   0.11737   0.14313   0.15318
 Alpha virt. eigenvalues --    0.15878   0.16652   0.18824   0.20332   0.23011

 Mulliken charges:
               1
     1  O   -1.974927
     2  H    1.486967
     3  H    0.870861
     4  H    1.279836
     5  H    1.456261
     6  H    1.306146
     7  H    1.140020
     8  C   -4.490951
     9  S   -1.074213
 Sum of Mulliken charges =  -0.00000

 Dipole moment (field-independent basis, Debye):
    X=              0.6517    Y=             -0.4400    Z=             -1.1929  Tot=              1.4288

 Test job not archived.
 1\1\GINC-SE168\SP\RHF\Aug-CC-pVDZ\C1H6O1S1\OHZDE\09-Apr-2025\0\\#t hf
 aug-cc-pvdz iop(5/13=1,5/36=2,99/5=2) pseudo=read geom=check guess=(re
 ad,tcheck) scf=(maxcycle=1)\\title\\0,1\O,0,-0.58582535,-1.65985485,-1
 .57348405\H,0,-0.07487288,-1.34797585,-0.81275631\H,0,-0.15829821,-2.4
 72369,-1.85201796\H,0,-1.15967226,0.91754265,-0.72545905\H,0,0.3400549
 ,1.84493032,-0.83862962\H,0,-0.82218807,2.23474631,0.43728128\H,0,-0.5
 2250234,-0.13010197,1.66508867\C,0,-0.39382431,1.43067433,-0.15287009\
 S,0,0.51646192,0.26042045,0.91158677\\Version=ES64L-G16RevC.01\State=1

 Normal termination of Gaussian 16 at Wed Apr  9 19:37:53 2025.
