 Gaussian 16, Revision C.01,

 ----------------------------------------------------------------------
 #t hf aug-cc-pvdz symm=none int=(grid=ultrafine) guess=(read,tcheck) s
 table=(opt,rrhf)
 ----------------------------------------------------------------------
 -----
 title
 -----
 Symbolic Z-matrix:
 Charge =  0 Multiplicity = 1

 SCF Done:  E(RHF) =  -875.462291648     A.U. after   12 cycles
 Normal termination of Gaussian 16 at Wed Apr  9 19:38:56 2025.
 Gaussian 16:  ES64L-G16RevC.01  3-Jul-2019

 ----------------------------------------------------------------------
 #t hf aug-cc-pvdz iop(5/13=1,5/36=2,99/5=2) pseudo=read geom=check gue
 ss=(read,tcheck) scf=(maxcycle=1)
 ----------------------------------------------------------------------
 -----
 title
 -----
 Structure from the checkpoint file:  "HB300SPXx10_1215_4.26_1.00_sulfane_dimethylsulfide_dimer_mol1.chk"
 Charge =  0 Multiplicity = 1

                         Standard orientation:
 ---------------------------------------------------------------------
 Center     Atomic      Atomic             Coordinates (Angstroms)
 Number     Number       Type             X           Y           Z
 ---------------------------------------------------------------------
      1          1           0        1.207705   -0.020599   -0.567163
      2          1           0        2.731612    1.176056   -0.348893
      3         16           0        2.419199   -0.070191    0.034312
      4          1           0       -2.061442   -1.397934    1.167178
      5          1           0       -0.283665   -1.350600    1.080350
      6          1           0       -1.210035   -2.297413   -0.099092
      7          1           0       -1.284552    2.297830   -0.021225
      8          1           0       -0.311426    1.343327    1.113313
      9          1           0       -2.091680    1.327460    1.220926
     10          6           0       -1.203121   -1.389318    0.498445
     11         16           0       -1.296695    0.009636   -0.647376
     12          6           0       -1.239645    1.371109    0.545492
 ---------------------------------------------------------------------

 SCF Done:  E(RHF) =  -876.357596408     A.U. after    2 cycles

 The electronic state is 1-A.
 Alpha  occ. eigenvalues --  -75.69125 -75.67866 -13.15247 -13.10295 -13.09426
 Alpha  occ. eigenvalues --  -13.07843 -13.07205 -13.01779 -11.39649 -11.39508
 Alpha  occ. eigenvalues --   -8.02852  -8.01966  -1.23317  -1.10380  -1.03398
 Alpha  occ. eigenvalues --   -0.88534  -0.61012  -0.60507  -0.58325  -0.57270
 Alpha  occ. eigenvalues --   -0.54059  -0.44840  -0.43122  -0.37205  -0.25288
 Alpha  occ. eigenvalues --   -0.22391
 Alpha virt. eigenvalues --    0.02596   0.03311   0.04154   0.05440   0.06965
 Alpha virt. eigenvalues --    0.07386   0.07747   0.08898   0.10743   0.11500
 Alpha virt. eigenvalues --    0.12279   0.13018   0.14583   0.15725   0.16398

 Mulliken charges:
               1
     1  H    1.343220
     2  H    1.014473
     3  S   -2.263485
     4  H    1.395605
     5  H    1.342932
     6  H    1.419011
     7  H    1.422651
     8  H    1.374367
     9  H    1.391405
    10  C   -4.522840
    11  S    0.651422
    12  C   -4.568761
 Sum of Mulliken charges =  -0.00000

 Dipole moment (field-independent basis, Debye):
    X=             -0.1025    Y=             -0.8255    Z=              0.2756  Tot=              0.8763

 Test job not archived.
 1\1\GINC-SE131\SP\RHF\Aug-CC-pVDZ\C2H8S2\OHZDE\09-Apr-2025\0\\#t hf au
 g-cc-pvdz iop(5/13=1,5/36=2,99/5=2) pseudo=read geom=check guess=(read
 ,tcheck) scf=(maxcycle=1)\\title\\0,1\H,0,0.94021613,0.77457481,-0.419
 26695\H,0,0.91265107,2.63108631,-1.01468344\S,0,1.34625135,1.9701562,0
 .06824785\H,0,-0.90149127,-1.89935314,1.82807399\H,0,0.11439273,-0.441
 61757,1.71293425\H,0,0.8105785,-2.04198454,1.39694649\H,0,-2.24493664,
 -0.08161239,-1.42238796\H,0,-1.66139166,0.71622525,0.0500786\H,0,-2.70
 970544,-0.72242428,0.16170789\C,0,-0.07995831,-1.42725245,1.29309902\S

 Normal termination of Gaussian 16 at Wed Apr  9 19:39:00 2025.
