 Gaussian 16, Revision C.01,

 ----------------------------------------------------------------------
 #t hf aug-cc-pvdz symm=none int=(grid=ultrafine) guess=(read,tcheck) s
 table=(opt,rrhf)
 ----------------------------------------------------------------------
 -----
 title
 -----
 Symbolic Z-matrix:
 Charge =  0 Multiplicity = 1

 SCF Done:  E(RHF) =  -571.986092327     A.U. after   12 cycles
 Normal termination of Gaussian 16 at Wed Apr  9 19:39:14 2025.
 Gaussian 16:  ES64L-G16RevC.01  3-Jul-2019

 ----------------------------------------------------------------------
 #t hf aug-cc-pvdz iop(5/13=1,5/36=2,99/5=2) pseudo=read geom=check gue
 ss=(read,tcheck) scf=(maxcycle=1)
 ----------------------------------------------------------------------
 -----
 title
 -----
 Structure from the checkpoint file:  "HB300SPXx10_133_1.14_0.90_sulfane_trimethylamine_dimer_mol1.chk"
 Charge =  0 Multiplicity = 1

                         Standard orientation:
 ---------------------------------------------------------------------
 Center     Atomic      Atomic             Coordinates (Angstroms)
 Number     Number       Type             X           Y           Z
 ---------------------------------------------------------------------
      1          1           0       -0.940364    0.034121    0.000000
      2          1           0       -2.565635   -1.075345    0.000000
      3         16           0       -2.295959    0.237861    0.000000
      4          1           0        2.337912   -0.826033    1.303193
      5          1           0        0.843031   -0.265983    2.080506
      6          1           0        0.854481   -1.793856    1.197590
      7          1           0        0.854481   -1.793856   -1.197590
      8          1           0        2.337912   -0.826033   -1.303193
      9          1           0        0.843031   -0.265983   -2.080506
     10          1           0        2.337700    1.419016    0.000000
     11          1           0        0.848908    1.811226   -0.882789
     12          6           0        1.242721   -0.776519    1.205875
     13          7           0        0.823716   -0.082040    0.000000
     14          6           0        1.242721   -0.776519   -1.205875
     15          6           0        1.242721    1.309707    0.000000
     16          1           0        0.848908    1.811226    0.882789
 ---------------------------------------------------------------------

 SCF Done:  E(RHF) =  -573.122429707     A.U. after    2 cycles

 The electronic state is 1-A'.
 Alpha  occ. eigenvalues --  -75.66027 -15.72109 -13.12990 -13.07687 -12.98797
 Alpha  occ. eigenvalues --  -11.39404 -11.39386 -11.38340  -7.99844  -1.44417
 Alpha  occ. eigenvalues --   -1.07843  -1.04502  -1.04502  -0.85247  -0.67810
 Alpha  occ. eigenvalues --   -0.64121  -0.64103  -0.55804  -0.55784  -0.52469
 Alpha  occ. eigenvalues --   -0.52436  -0.49177  -0.49158  -0.42602  -0.28206
 Alpha  occ. eigenvalues --   -0.23348
 Alpha virt. eigenvalues --    0.03014   0.04824   0.05338   0.05374   0.05997
 Alpha virt. eigenvalues --    0.06255   0.06494   0.06983   0.07006   0.08968
 Alpha virt. eigenvalues --    0.09660   0.12168   0.13390   0.13823   0.14068

 Mulliken charges:
               1
     1  H    1.214595
     2  H    0.936044
     3  S   -2.640539
     4  H    1.255449
     5  H    1.299694
     6  H    1.308346
     7  H    1.308346
     8  H    1.255449
     9  H    1.299694
    10  H    1.235602
    11  H    1.265423
    12  C   -3.707191
    13  N    0.163371
    14  C   -3.707191
    15  C   -3.752514
    16  H    1.265423
 Sum of Mulliken charges =   0.00000

 Dipole moment (field-independent basis, Debye):
    X=              1.6982    Y=              0.8305    Z=             -0.0000  Tot=              1.8904

 Test job not archived.
 1\1\GINC-SE029\SP\RHF\Aug-CC-pVDZ\C3H11N1S1\OHZDE\09-Apr-2025\0\\#t hf
  aug-cc-pvdz iop(5/13=1,5/36=2,99/5=2) pseudo=read geom=check guess=(r
 ead,tcheck) scf=(maxcycle=1)\\title\\0,1\H,0,0.06719299,0.97177334,0.\
 H,0,1.32304535,2.48678341,0.\S,0,-0.00955285,2.34044335,0.\H,0,0.61864
 261,-2.37230558,-1.30319342\H,0,0.20008867,-0.83180664,-2.08050641\H,0
 ,1.72026992,-0.98534356,-1.19759028\H,0,1.72026992,-0.98534356,1.19759
 028\H,0,0.61864261,-2.37230558,1.30319342\H,0,0.20008867,-0.83180664,2
 .08050641\H,0,-1.61665087,-2.16323915,0.\H,0,-1.86865891,-0.64441678,0

 Normal termination of Gaussian 16 at Wed Apr  9 19:39:18 2025.
