 Gaussian 16, Revision C.01,

 ----------------------------------------------------------------------
 #t hf aug-cc-pvdz symm=none int=(grid=ultrafine) guess=(read,tcheck) s
 table=(opt,rrhf)
 ----------------------------------------------------------------------
 -----
 title
 -----
 Symbolic Z-matrix:
 Charge =  0 Multiplicity = 1

 SCF Done:  E(RHF) =  -977.989508416     A.U. after   13 cycles
 Normal termination of Gaussian 16 at Wed Apr  9 19:43:52 2025.
 Gaussian 16:  ES64L-G16RevC.01  3-Jul-2019

 ----------------------------------------------------------------------
 #t hf aug-cc-pvdz iop(5/13=1,5/36=2,99/5=2) pseudo=read geom=check gue
 ss=(read,tcheck) scf=(maxcycle=1)
 ----------------------------------------------------------------------
 -----
 title
 -----
 Structure from the checkpoint file:  "HB300SPXx10_1443_5.07_0.90_methanethiol_phosphineF2_dimer_mol1.chk"
 Charge =  0 Multiplicity = 1

                         Standard orientation:
 ---------------------------------------------------------------------
 Center     Atomic      Atomic             Coordinates (Angstroms)
 Number     Number       Type             X           Y           Z
 ---------------------------------------------------------------------
      1          1           0        1.340866    1.646420   -0.055105
      2          1           0        1.925772    0.924494   -1.560450
      3          1           0        3.079542    1.300603   -0.271488
      4          1           0        1.928916   -0.463689    1.433964
      5          6           0        2.069131    0.965635   -0.484222
      6         16           0        1.804058   -0.730522    0.125216
      7         15           0       -1.122960   -0.230284   -0.284862
      8          9           0       -0.799224    0.955081    0.746870
      9          9           0       -2.725335   -0.151299   -0.194434
     10          1           0       -0.989377   -1.293075    0.655966
 ---------------------------------------------------------------------

 SCF Done:  E(RHF) =  -979.312269368     A.U. after    2 cycles

 The electronic state is 1-A.
 Alpha  occ. eigenvalues -- -105.28503 -75.69972 -29.28347 -29.27449 -13.14635
 Alpha  occ. eigenvalues --  -13.09112 -13.08048 -11.40580  -8.03941  -2.87676
 Alpha  occ. eigenvalues --   -1.62107  -1.58665  -1.51923  -1.19926  -0.95661
 Alpha  occ. eigenvalues --   -0.89516  -0.61624  -0.60640  -0.55207  -0.50690
 Alpha  occ. eigenvalues --   -0.46446  -0.41108  -0.39490  -0.35640  -0.33761
 Alpha  occ. eigenvalues --   -0.29105  -0.25568  -0.23922  -0.18777  -0.00625
 Alpha virt. eigenvalues --    0.03930   0.04311   0.06184   0.06980   0.08068
 Alpha virt. eigenvalues --    0.09553   0.10623   0.12027   0.12912   0.14789
 Alpha virt. eigenvalues --    0.15240   0.15623   0.16415   0.16784   0.19569

 Mulliken charges:
               1
     1  H    1.078052
     2  H    0.704534
     3  H    1.112327
     4  H    1.193968
     5  C   -3.836121
     6  S   -1.015581
     7  P    2.242856
     8  F   -0.349182
     9  F   -0.063211
    10  H   -1.067641
 Sum of Mulliken charges =  -0.00000

 Dipole moment (field-independent basis, Debye):
    X=             -8.1239    Y=             -0.0449    Z=              2.9393  Tot=              8.6394

 Test job not archived.
 1\1\GINC-SE018\SP\RHF\Aug-CC-pVDZ\C1H5F2P1S1\OHZDE\09-Apr-2025\0\\#t h
 f aug-cc-pvdz iop(5/13=1,5/36=2,99/5=2) pseudo=read geom=check guess=(
 read,tcheck) scf=(maxcycle=1)\\title\\0,1\H,0,-1.72434823,-0.02735536,
 -1.47402619\H,0,-1.29643549,-1.41515971,-2.4840979\H,0,-1.57230153,0.1
 6002765,-3.24353895\H,0,0.52779021,1.28305094,-1.94983564\C,0,-1.18500
 823,-0.34129171,-2.36202164\S,0,0.60124692,-0.03772908,-2.17289215\P,0
 ,0.30740704,-1.1064265,0.61231469\F,0,-0.7301975,0.11478622,0.6922054\
 F,0,0.38652808,-1.41396252,2.1874919\H,0,1.48545277,-0.3043602,0.57456

 Normal termination of Gaussian 16 at Wed Apr  9 19:43:56 2025.
