 Gaussian 16, Revision C.01,

 ----------------------------------------------------------------------
 #t hf aug-cc-pvdz symm=none int=(grid=ultrafine) guess=(read,tcheck) s
 table=(opt,rrhf)
 ----------------------------------------------------------------------
 -----
 title
 -----
 Symbolic Z-matrix:
 Charge =  0 Multiplicity = 1

 SCF Done:  E(RHF) =  -571.996679426     A.U. after   12 cycles
 Normal termination of Gaussian 16 at Wed Apr  9 19:36:08 2025.
 Gaussian 16:  ES64L-G16RevC.01  3-Jul-2019

 ----------------------------------------------------------------------
 #t hf aug-cc-pvdz iop(5/13=1,5/36=2,99/5=2) pseudo=read geom=check gue
 ss=(read,tcheck) scf=(maxcycle=1)
 ----------------------------------------------------------------------
 -----
 title
 -----
 Structure from the checkpoint file:  "HB300SPXx10_1075_4.11_1.00_methylamine_dimethylsulfide_dimer_mol1.chk"
 Charge =  0 Multiplicity = 1

                         Standard orientation:
 ---------------------------------------------------------------------
 Center     Atomic      Atomic             Coordinates (Angstroms)
 Number     Number       Type             X           Y           Z
 ---------------------------------------------------------------------
      1          7           0       -1.910987   -0.770581    0.153393
      2          1           0       -2.317063   -1.685833    0.013055
      3          1           0       -1.132658   -0.683348   -0.490805
      4          6           0       -2.899424    0.277661   -0.096535
      5          1           0       -2.436970    1.251419    0.062817
      6          1           0       -3.330000    0.275284   -1.104639
      7          1           0       -3.716704    0.186720    0.618382
      8          1           0        1.588668    1.615375    1.299155
      9          1           0       -0.076289    0.999549    1.120139
     10          1           0        0.520184    2.296153    0.062161
     11          1           0        1.990798   -2.051419   -0.173022
     12          1           0        0.757423   -1.497103    0.978863
     13          1           0        2.456191   -0.988881    1.164699
     14          6           0        0.792840    1.387037    0.592642
     15         16           0        1.356483    0.188498   -0.644117
     16          6           0        1.668182   -1.221335    0.450779
 ---------------------------------------------------------------------

 SCF Done:  E(RHF) =  -573.138090855     A.U. after    2 cycles

 The electronic state is 1-A.
 Alpha  occ. eigenvalues --  -75.66926 -15.71890 -13.09715 -13.07528 -13.05983
 Alpha  occ. eigenvalues --  -11.38856 -11.38685 -11.37369  -8.01020  -1.30976
 Alpha  occ. eigenvalues --   -1.22107  -1.02619  -0.94475  -0.87662  -0.65559
 Alpha  occ. eigenvalues --   -0.59738  -0.59483  -0.58977  -0.57413  -0.56339
 Alpha  occ. eigenvalues --   -0.52834  -0.50370  -0.43893  -0.36346  -0.34653
 Alpha  occ. eigenvalues --   -0.22085
 Alpha virt. eigenvalues --    0.03616   0.03693   0.04420   0.05496   0.06525
 Alpha virt. eigenvalues --    0.06776   0.07087   0.07647   0.08610   0.08935
 Alpha virt. eigenvalues --    0.09768   0.11356   0.12528   0.13331   0.14578

 Mulliken charges:
               1
     1  N   -2.183963
     2  H    0.589654
     3  H    1.027178
     4  C   -3.249873
     5  H    1.483040
     6  H    1.317180
     7  H    1.260743
     8  H    1.346865
     9  H    1.625892
    10  H    1.421625
    11  H    1.435154
    12  H    1.423819
    13  H    1.388852
    14  C   -4.847211
    15  S    0.686038
    16  C   -4.724992
 Sum of Mulliken charges =  -0.00000

 Dipole moment (field-independent basis, Debye):
    X=             -0.0937    Y=             -0.1683    Z=             -1.0131  Tot=              1.0313

 Test job not archived.
 1\1\GINC-SE207\SP\RHF\Aug-CC-pVDZ\C3H11N1S1\OHZDE\09-Apr-2025\0\\#t hf
  aug-cc-pvdz iop(5/13=1,5/36=2,99/5=2) pseudo=read geom=check guess=(r
 ead,tcheck) scf=(maxcycle=1)\\title\\0,1\N,0,-1.19251098,0.46771599,1.
 69699571\H,0,-2.17204653,0.34511648,1.91553075\H,0,-1.12099987,0.60068
 208,0.69419832\C,0,-0.64549649,1.62445241,2.40482331\H,0,0.40921091,1.
 73255139,2.15309408\H,0,-1.13947726,2.57752576,2.18276464\H,0,-0.70604
 436,1.45678733,3.47978713\H,0,2.3591833,-0.98600217,-0.43028212\H,0,1.
 26164662,-0.32275079,0.81023443\H,0,2.19959111,0.76648545,-0.23384722\

 Normal termination of Gaussian 16 at Wed Apr  9 19:36:12 2025.
