 Gaussian 16, Revision C.01,

 ----------------------------------------------------------------------
 #t hf aug-cc-pvdz symm=none int=(grid=ultrafine) guess=(read,tcheck) s
 table=(opt,rrhf)
 ----------------------------------------------------------------------
 -----
 title
 -----
 Symbolic Z-matrix:
 Charge =  0 Multiplicity = 1

 SCF Done:  E(RHF) =  -977.994185261     A.U. after   12 cycles
 Normal termination of Gaussian 16 at Wed Apr  9 19:43:50 2025.
 Gaussian 16:  ES64L-G16RevC.01  3-Jul-2019

 ----------------------------------------------------------------------
 #t hf aug-cc-pvdz iop(5/13=1,5/36=2,99/5=2) pseudo=read geom=check gue
 ss=(read,tcheck) scf=(maxcycle=1)
 ----------------------------------------------------------------------
 -----
 title
 -----
 Structure from the checkpoint file:  "HB300SPXx10_1449_5.07_1.50_methanethiol_phosphineF2_dimer_mol1.chk"
 Charge =  0 Multiplicity = 1

                         Standard orientation:
 ---------------------------------------------------------------------
 Center     Atomic      Atomic             Coordinates (Angstroms)
 Number     Number       Type             X           Y           Z
 ---------------------------------------------------------------------
      1          1           0        2.332689    1.708956   -0.157601
      2          1           0        3.019966    0.886273   -1.564796
      3          1           0        4.048299    1.212898   -0.161259
      4          1           0        2.563752   -0.386324    1.446175
      5          6           0        3.043399    0.954987   -0.480711
      6         16           0        2.565508   -0.689888    0.139479
      7         15           0       -1.754532   -0.286288   -0.243299
      8          9           0       -1.448737    0.905414    0.786605
      9          9           0       -3.343988   -0.071865   -0.341660
     10          1           0       -1.820728   -1.321152    0.735068
 ---------------------------------------------------------------------

 SCF Done:  E(RHF) =  -979.309852228     A.U. after    2 cycles

 The electronic state is 1-A.
 Alpha  occ. eigenvalues -- -105.29467 -75.68945 -29.29072 -29.28841 -13.12144
 Alpha  occ. eigenvalues --  -13.07430 -13.01670 -11.40052  -8.02837  -2.88866
 Alpha  occ. eigenvalues --   -1.62875  -1.59445  -1.52753  -1.18816  -0.94493
 Alpha  occ. eigenvalues --   -0.90131  -0.60507  -0.59284  -0.56210  -0.49701
 Alpha  occ. eigenvalues --   -0.46582  -0.40532  -0.39664  -0.36059  -0.34444
 Alpha  occ. eigenvalues --   -0.28346  -0.25949  -0.24113  -0.19318  -0.00234
 Alpha virt. eigenvalues --    0.03031   0.04209   0.05835   0.06553   0.07640
 Alpha virt. eigenvalues --    0.09844   0.10585   0.11743   0.12216   0.14158
 Alpha virt. eigenvalues --    0.14803   0.15896   0.16184   0.17084   0.19196

 Mulliken charges:
               1
     1  H    1.102779
     2  H    1.051142
     3  H    1.334444
     4  H    1.070879
     5  C   -4.365947
     6  S   -0.460047
     7  P    1.871595
     8  F   -0.247887
     9  F   -0.219266
    10  H   -1.137692
 Sum of Mulliken charges =  -0.00000

 Dipole moment (field-independent basis, Debye):
    X=             -5.9665    Y=              1.8469    Z=              3.1644  Tot=              7.0017

 Test job not archived.
 1\1\GINC-SE048\SP\RHF\Aug-CC-pVDZ\C1H5F2P1S1\OHZDE\09-Apr-2025\0\\#t h
 f aug-cc-pvdz iop(5/13=1,5/36=2,99/5=2) pseudo=read geom=check guess=(
 read,tcheck) scf=(maxcycle=1)\\title\\0,1\H,0,-1.72434823,-0.02735536,
 -1.47402619\H,0,-1.29643549,-1.41515971,-2.4840979\H,0,-1.57230153,0.1
 6002765,-3.24353895\H,0,0.52779021,1.28305094,-1.94983564\C,0,-1.18500
 823,-0.34129171,-2.36202164\S,0,0.60124692,-0.03772908,-2.17289215\P,0
 ,0.97017419,-1.01166545,2.05646908\F,0,-0.06743035,0.20954727,2.136359
 8\F,0,1.04929523,-1.31920147,3.6316463\H,0,2.14821992,-0.20959915,2.01

 Normal termination of Gaussian 16 at Wed Apr  9 19:43:53 2025.
