 Gaussian 16, Revision C.01,

 ----------------------------------------------------------------------
 #t hf aug-cc-pvdz symm=none int=(grid=ultrafine) guess=(read,tcheck) s
 table=(opt,rrhf)
 ----------------------------------------------------------------------
 -----
 title
 -----
 Symbolic Z-matrix:
 Charge =  0 Multiplicity = 1

 SCF Done:  E(RHF) =  -969.529365757     A.U. after   13 cycles
 Normal termination of Gaussian 16 at Wed Apr  9 19:36:25 2025.
 Gaussian 16:  ES64L-G16RevC.01  3-Jul-2019

 ----------------------------------------------------------------------
 #t hf aug-cc-pvdz iop(5/13=1,5/36=2,99/5=2) pseudo=read geom=check gue
 ss=(read,tcheck) scf=(maxcycle=1)
 ----------------------------------------------------------------------
 -----
 title
 -----
 Structure from the checkpoint file:  "HB300SPXx10_1063_4.10_0.90_methylamine_dimethyldisulfide_dimer_mol1.chk"
 Charge =  0 Multiplicity = 1

                         Standard orientation:
 ---------------------------------------------------------------------
 Center     Atomic      Atomic             Coordinates (Angstroms)
 Number     Number       Type             X           Y           Z
 ---------------------------------------------------------------------
      1          7           0        2.025137    0.946596   -0.010946
      2          1           0        2.165492    1.901381   -0.313405
      3          1           0        1.334401    0.538221   -0.629339
      4          6           0        3.279156    0.195782   -0.069606
      5          1           0        3.102484   -0.824026    0.270661
      6          1           0        3.738302    0.141899   -1.063149
      7          1           0        4.002054    0.643038    0.611623
      8          1           0       -1.892452    2.513883    0.639905
      9          1           0       -0.876020    2.182414   -0.777616
     10          1           0       -0.298231    1.755652    0.854746
     11          1           0       -0.392382   -2.012736    1.569962
     12          1           0        0.827949   -0.727267    1.315304
     13          1           0        1.029857   -2.318453    0.550421
     14          6           0       -1.166772    1.826436    0.207030
     15         16           0       -2.017351    0.221042    0.078125
     16         16           0       -0.571939   -1.042561   -0.639524
     17          6           0        0.306152   -1.568197    0.867558
 ---------------------------------------------------------------------

 SCF Done:  E(RHF) =  -970.893449613     A.U. after    2 cycles

 The electronic state is 1-A.
 Alpha  occ. eigenvalues --  -75.69739 -75.69481 -15.72324 -13.14603 -13.12441
 Alpha  occ. eigenvalues --  -13.09361 -13.08817 -13.07984 -13.03277 -11.39681
 Alpha  occ. eigenvalues --  -11.39282 -11.38004  -8.03744  -8.03551  -1.31877
 Alpha  occ. eigenvalues --   -1.25950  -1.12425  -0.97836  -0.95218  -0.86414
 Alpha  occ. eigenvalues --   -0.66553  -0.59966  -0.59907  -0.58933  -0.58671
 Alpha  occ. eigenvalues --   -0.57988  -0.53363  -0.51187  -0.46650  -0.42738
 Alpha  occ. eigenvalues --   -0.35435  -0.33372  -0.24856  -0.23304
 Alpha virt. eigenvalues --    0.03248   0.03372   0.04043   0.05286   0.06477
 Alpha virt. eigenvalues --    0.06633   0.06822   0.07476   0.07684   0.09118
 Alpha virt. eigenvalues --    0.09774   0.09863   0.11398   0.12799   0.13887

 Mulliken charges:
               1
     1  N   -2.178380
     2  H    0.626132
     3  H    1.127523
     4  C   -3.301098
     5  H    1.562990
     6  H    1.326092
     7  H    1.286351
     8  H    1.328510
     9  H    1.504470
    10  H    1.709973
    11  H    1.375467
    12  H    1.841485
    13  H    1.474451
    14  C   -4.887383
    15  S    0.377042
    16  S   -0.372006
    17  C   -4.801620
 Sum of Mulliken charges =  -0.00000

 Dipole moment (field-independent basis, Debye):
    X=             -0.0451    Y=              0.0249    Z=             -0.9963  Tot=              0.9976

 Test job not archived.
 1\1\GINC-SE104\SP\RHF\Aug-CC-pVDZ\C3H11N1S2\OHZDE\09-Apr-2025\0\\#t hf
  aug-cc-pvdz iop(5/13=1,5/36=2,99/5=2) pseudo=read geom=check guess=(r
 ead,tcheck) scf=(maxcycle=1)\\title\\0,1\N,0,-0.790217,0.77789413,2.28
 472778\H,0,-1.73224372,0.61681804,2.6155392\H,0,-0.85550262,0.99181266
 ,1.29666237\C,0,-0.16836631,1.8838218,3.01270443\H,0,0.84688345,2.0289
 6517,2.64500493\H,0,-0.69345824,2.84224623,2.93178871\H,0,-0.0959132,1
 .62767695,4.06903376\H,0,-1.8295884,-2.62975869,-0.06795445\H,0,-2.358
 77013,-0.93723669,0.01984177\H,0,-1.02598698,-1.51088806,1.05675314\H,

 Normal termination of Gaussian 16 at Wed Apr  9 19:36:31 2025.
