 Gaussian 16, Revision C.01,

 ----------------------------------------------------------------------
 #t hf aug-cc-pvdz symm=none int=(grid=ultrafine) guess=(read,tcheck) s
 table=(opt,rrhf)
 ----------------------------------------------------------------------
 -----
 title
 -----
 Symbolic Z-matrix:
 Charge =  0 Multiplicity = 1

 SCF Done:  E(RHF) =  -601.597826514     A.U. after   14 cycles
 Normal termination of Gaussian 16 at Wed Apr  9 19:35:53 2025.
 Gaussian 16:  ES64L-G16RevC.01  3-Jul-2019

 ----------------------------------------------------------------------
 #t hf aug-cc-pvdz iop(5/13=1,5/36=2,99/5=2) pseudo=read geom=check gue
 ss=(read,tcheck) scf=(maxcycle=1)
 ----------------------------------------------------------------------
 -----
 title
 -----
 Structure from the checkpoint file:  "HB300SPXx10_106_1.11_1.05_sulfane_methylazide_dimer_mol1.chk"
 Charge =  0 Multiplicity = 1

                         Standard orientation:
 ---------------------------------------------------------------------
 Center     Atomic      Atomic             Coordinates (Angstroms)
 Number     Number       Type             X           Y           Z
 ---------------------------------------------------------------------
      1          1           0       -1.424198   -0.537338   -0.013139
      2          1           0       -2.906488   -0.408377    1.239863
      3         16           0       -2.741888   -0.273666   -0.084111
      4          1           0        1.337834    1.941804   -0.910884
      5          1           0        1.387222    1.978909    0.868765
      6          1           0       -0.167580    1.871094    0.022710
      7          6           0        0.872442    1.564807    0.000762
      8          7           0        0.873633    0.092716    0.031735
      9          7           0        1.972699   -0.448869    0.004136
     10          7           0        2.926349   -1.051885   -0.016743
 ---------------------------------------------------------------------

 SCF Done:  E(RHF) =  -602.776227032     A.U. after    2 cycles

 The electronic state is 1-A.
 Alpha  occ. eigenvalues --  -75.69174 -15.96995 -15.85556 -15.77746 -13.14834
 Alpha  occ. eigenvalues --  -13.08237 -13.01610 -11.41752  -8.02918  -1.68542
 Alpha  occ. eigenvalues --   -1.38232  -1.10471  -1.05803  -0.74401  -0.69289
 Alpha  occ. eigenvalues --   -0.68890  -0.64060  -0.58997  -0.56359  -0.54007
 Alpha  occ. eigenvalues --   -0.43598  -0.40195  -0.35081  -0.25235
 Alpha virt. eigenvalues --    0.02759   0.04265   0.05738   0.06865   0.07352
 Alpha virt. eigenvalues --    0.09926   0.10583   0.11341   0.12116   0.13258
 Alpha virt. eigenvalues --    0.14098   0.14232   0.15717   0.16552   0.16779

 Mulliken charges:
               1
     1  H    1.113609
     2  H    1.023888
     3  S   -2.232839
     4  H    1.331744
     5  H    1.347763
     6  H    1.387641
     7  C   -3.198999
     8  N   -2.148429
     9  N    2.941510
    10  N   -1.565888
 Sum of Mulliken charges =  -0.00000

 Dipole moment (field-independent basis, Debye):
    X=             -0.6833    Y=              1.9589    Z=             -0.8862  Tot=              2.2560

 Test job not archived.
 1\1\GINC-SE138\SP\RHF\Aug-CC-pVDZ\C1H5N3S1\OHZDE\09-Apr-2025\0\\#t hf
 aug-cc-pvdz iop(5/13=1,5/36=2,99/5=2) pseudo=read geom=check guess=(re
 ad,tcheck) scf=(maxcycle=1)\\title\\0,1\H,0,1.21774303,0.78814331,-0.0
 7896573\H,0,1.90622629,2.11329938,-1.32547278\S,0,1.84165876,1.9773473
 1,0.00700442\H,0,-2.32715061,0.10099099,1.16299378\H,0,-2.57799212,0.2
 0710449,-0.59677485\H,0,-1.43518626,1.29875389,0.20767549\C,0,-1.84316
 057,0.29402109,0.20470975\N,0,-0.70639303,-0.61624099,-0.01253429\N,0,
 -0.96818088,-1.81323412,-0.03891219\N,0,-1.09252145,-2.9340471,-0.0817

 Normal termination of Gaussian 16 at Wed Apr  9 19:35:56 2025.
