 Gaussian 16, Revision C.01,

 ----------------------------------------------------------------------
 #t hf aug-cc-pvdz symm=none int=(grid=ultrafine) guess=(read,tcheck) s
 table=(opt,rrhf)
 ----------------------------------------------------------------------
 -----
 title
 -----
 Symbolic Z-matrix:
 Charge =  0 Multiplicity = 1

 SCF Done:  E(RHF) =  -532.968673131     A.U. after   13 cycles
 Normal termination of Gaussian 16 at Wed Apr  9 19:34:57 2025.
 Gaussian 16:  ES64L-G16RevC.01  3-Jul-2019

 ----------------------------------------------------------------------
 #t hf aug-cc-pvdz iop(5/13=1,5/36=2,99/5=2) pseudo=read geom=check gue
 ss=(read,tcheck) scf=(maxcycle=1)
 ----------------------------------------------------------------------
 -----
 title
 -----
 Structure from the checkpoint file:  "HB300SPXx10_1043_4.08_0.90_ammonia_dimethylsulfide_dimer_mol1.chk"
 Charge =  0 Multiplicity = 1

                         Standard orientation:
 ---------------------------------------------------------------------
 Center     Atomic      Atomic             Coordinates (Angstroms)
 Number     Number       Type             X           Y           Z
 ---------------------------------------------------------------------
      1          7           0        2.749710   -0.278794    0.144725
      2          1           0        3.367929   -0.345059    0.943253
      3          1           0        1.879857   -0.737007    0.393251
      4          1           0        3.167480   -0.819087   -0.602272
      5          1           0       -0.172065    1.616138    1.043488
      6          1           0       -0.673925    2.034481   -0.613789
      7          1           0        0.995016    1.506942   -0.281412
      8          1           0       -2.504282   -1.428968    0.204687
      9          1           0       -2.789934    0.264074   -0.226351
     10          1           0       -2.159371   -0.154063    1.384942
     11          6           0       -0.049652    1.377070   -0.011621
     12         16           0       -0.451092   -0.361142   -0.322087
     13          6           0       -2.140548   -0.411673    0.327374
 ---------------------------------------------------------------------

 SCF Done:  E(RHF) =  -533.909517572     A.U. after    2 cycles

 The electronic state is 1-A.
 Alpha  occ. eigenvalues --  -75.66662 -15.73255 -13.10516 -13.07188 -13.01380
 Alpha  occ. eigenvalues --  -11.38919 -11.37899  -8.00815  -1.24504  -1.21663
 Alpha  occ. eigenvalues --   -1.02366  -0.87556  -0.61677  -0.60270  -0.59509
 Alpha  occ. eigenvalues --   -0.58901  -0.56828  -0.56151  -0.43759  -0.38017
 Alpha  occ. eigenvalues --   -0.36214  -0.21794
 Alpha virt. eigenvalues --    0.03236   0.04058   0.04560   0.05362   0.06931
 Alpha virt. eigenvalues --    0.07313   0.08028   0.08094   0.09225   0.11171
 Alpha virt. eigenvalues --    0.13214   0.13926   0.15542   0.15965   0.17413

 Mulliken charges:
               1
     1  N   -1.949919
     2  H    0.649723
     3  H    0.847966
     4  H    0.581709
     5  H    1.442619
     6  H    1.372018
     7  H    1.444985
     8  H    1.390242
     9  H    1.394712
    10  H    1.412962
    11  C   -4.708304
    12  S    0.919207
    13  C   -4.797918
 Sum of Mulliken charges =  -0.00000

 Dipole moment (field-independent basis, Debye):
    X=              0.2759    Y=             -1.1209    Z=              0.1645  Tot=              1.1660

 Test job not archived.
 1\1\GINC-SE117\SP\RHF\Aug-CC-pVDZ\C2H9N1S1\OHZDE\09-Apr-2025\0\\#t hf
 aug-cc-pvdz iop(5/13=1,5/36=2,99/5=2) pseudo=read geom=check guess=(re
 ad,tcheck) scf=(maxcycle=1)\\title\\0,1\N,0,-1.73355141,-2.37393966,0.
 81983189\H,0,-2.47172211,-2.47256241,1.50511242\H,0,-1.77953232,-1.428
 67287,0.45551723\H,0,-1.951459,-2.99867579,0.05388488\H,0,0.57652343,0
 .1616579,1.90131568\H,0,1.94359348,-0.34337058,0.87686226\H,0,0.605967
 6,-1.46970595,1.2178348\H,0,-0.11728929,2.28525906,-1.32737331\H,0,1.4
 6323222,1.97387747,-0.59336069\H,0,0.05842076,2.34758316,0.43404354\C,

 Normal termination of Gaussian 16 at Wed Apr  9 19:35:00 2025.
