 Gaussian 16, Revision C.01,

 ----------------------------------------------------------------------
 #t hf aug-cc-pvdz symm=none int=(grid=ultrafine) guess=(read,tcheck) s
 table=(opt,rrhf)
 ----------------------------------------------------------------------
 -----
 title
 -----
 Symbolic Z-matrix:
 Charge =  0 Multiplicity = 1

 SCF Done:  E(RHF) =  -648.914471127     A.U. after   12 cycles
 Normal termination of Gaussian 16 at Wed Apr  9 19:36:42 2025.
 Gaussian 16:  ES64L-G16RevC.01  3-Jul-2019

 ----------------------------------------------------------------------
 #t hf aug-cc-pvdz iop(5/13=1,5/36=2,99/5=2) pseudo=read geom=check gue
 ss=(read,tcheck) scf=(maxcycle=1)
 ----------------------------------------------------------------------
 -----
 title
 -----
 Structure from the checkpoint file:  "HB300SPXx10_1086_4.12_1.05_methylamine_tetrahydrothiophene_dimer_mol1.chk"
 Charge =  0 Multiplicity = 1

                         Standard orientation:
 ---------------------------------------------------------------------
 Center     Atomic      Atomic             Coordinates (Angstroms)
 Number     Number       Type             X           Y           Z
 ---------------------------------------------------------------------
      1          7           0        2.385498   -0.266294    0.816856
      2          1           0        1.656307   -0.858151    0.432758
      3          1           0        2.949089   -0.843563    1.426505
      4          6           0        3.201760    0.297818   -0.256798
      5          1           0        3.992294    0.913875    0.170656
      6          1           0        3.669431   -0.440412   -0.918802
      7          1           0        2.584244    0.951005   -0.873480
      8          1           0       -1.568395    0.550871   -2.009951
      9          1           0        0.189663    0.411147   -1.917920
     10          1           0       -0.985574    2.437931   -0.607780
     11          1           0       -0.512689   -0.567580    1.793547
     12          1           0        0.275154    1.516309    0.219086
     13          1           0       -2.197573   -1.051196    1.533322
     14          1           0       -1.649026    1.563436    1.752494
     15          1           0       -2.728474    1.042079    0.459730
     16         16           0       -0.904426   -1.224905   -0.504586
     17          6           0       -0.727200    0.409197   -1.334296
     18          6           0       -0.720218    1.454150   -0.219834
     19          6           0       -1.708244    0.969605    0.840278
     20          6           0       -1.363117   -0.491304    1.119851
 ---------------------------------------------------------------------

 SCF Done:  E(RHF) =  -650.435086177     A.U. after    2 cycles

 The electronic state is 1-A.
 Alpha  occ. eigenvalues --  -75.66109 -15.71864 -13.10336 -13.09190 -13.06428
 Alpha  occ. eigenvalues --  -11.43107 -11.42243 -11.38608 -11.37504 -11.35778
 Alpha  occ. eigenvalues --   -8.00189  -1.32320  -1.30687  -1.06810  -1.06760
 Alpha  occ. eigenvalues --   -0.94442  -0.84153  -0.82677  -0.66226  -0.65321
 Alpha  occ. eigenvalues --   -0.64690  -0.60538  -0.58870  -0.53931  -0.52742
 Alpha  occ. eigenvalues --   -0.50368  -0.48439  -0.46571  -0.45022  -0.41637
 Alpha  occ. eigenvalues --   -0.34783  -0.34162  -0.21856
 Alpha virt. eigenvalues --    0.03810   0.04389   0.04799   0.05604   0.05839
 Alpha virt. eigenvalues --    0.05999   0.06127   0.06548   0.07074   0.08194
 Alpha virt. eigenvalues --    0.08841   0.09127   0.10018   0.11499   0.12943

 Mulliken charges:
               1
     1  N   -2.189858
     2  H    1.064620
     3  H    0.571443
     4  C   -3.397517
     5  H    1.272980
     6  H    1.306988
     7  H    1.622218
     8  H    1.383162
     9  H    1.594613
    10  H    1.284119
    11  H    1.638492
    12  H    1.840601
    13  H    1.353587
    14  H    1.305480
    15  H    1.431595
    16  S    0.694214
    17  C   -3.424947
    18  C   -3.055612
    19  C   -2.792956
    20  C   -3.503223
 Sum of Mulliken charges =   0.00000

 Dipole moment (field-independent basis, Debye):
    X=              0.1239    Y=             -0.4823    Z=             -0.2570  Tot=              0.5603

 Test job not archived.
 1\1\GINC-SE028\SP\RHF\Aug-CC-pVDZ\C5H13N1S1\OHZDE\09-Apr-2025\0\\#t hf
  aug-cc-pvdz iop(5/13=1,5/36=2,99/5=2) pseudo=read geom=check guess=(r
 ead,tcheck) scf=(maxcycle=1)\\title\\0,1\N,0,-0.48023551,2.04199658,1.
 33183501\H,0,-0.98136805,1.22913012,0.98881982\H,0,-1.14375731,2.80345
 765,1.38144373\C,0,0.08991425,1.76981847,2.65020044\H,0,0.60698078,2.6
 5693888,3.01468146\H,0,-0.63523497,1.46399211,3.41346792\H,0,0.8338340
 5,0.97768014,2.5643137\H,0,0.85797603,-2.51535989,0.01594703\H,0,0.568
 15397,-1.37275025,1.33094022\H,0,2.58620576,-0.86129084,-0.36357428\H,

 Normal termination of Gaussian 16 at Wed Apr  9 19:36:50 2025.
