 Gaussian 16, Revision C.01,

 ----------------------------------------------------------------------
 #t hf aug-cc-pvdz symm=none int=(grid=ultrafine) guess=(read,tcheck) s
 table=(opt,rrhf)
 ----------------------------------------------------------------------
 -----
 title
 -----
 Symbolic Z-matrix:
 Charge =  0 Multiplicity = 1

 SCF Done:  E(RHF) =  -875.450893864     A.U. after   12 cycles
 Normal termination of Gaussian 16 at Wed Apr  9 19:37:55 2025.
 Gaussian 16:  ES64L-G16RevC.01  3-Jul-2019

 ----------------------------------------------------------------------
 #t hf aug-cc-pvdz iop(5/13=1,5/36=2,99/5=2) pseudo=read geom=check gue
 ss=(read,tcheck) scf=(maxcycle=1)
 ----------------------------------------------------------------------
 -----
 title
 -----
 Structure from the checkpoint file:  "HB300SPXx10_1192_4.24_0.85_methanethiol_methanethiol_dimer_mol1.chk"
 Charge =  0 Multiplicity = 1

                         Standard orientation:
 ---------------------------------------------------------------------
 Center     Atomic      Atomic             Coordinates (Angstroms)
 Number     Number       Type             X           Y           Z
 ---------------------------------------------------------------------
      1          1           0       -0.881024    0.922403    1.370582
      2          1           0       -2.638591    0.891492    1.198197
      3          1           0       -1.669285    1.828437    0.055366
      4          1           0       -0.469874   -0.304577   -0.975457
      5          6           0       -1.698435    0.922681    0.654027
      6         16           0       -1.657506   -0.562541   -0.399451
      7          1           0        2.035703   -0.463336    1.759513
      8          1           0        2.076648   -1.697731    0.495969
      9          1           0        0.516225   -1.066224    1.031120
     10          1           0        1.095868    1.435635    0.152245
     11          6           0        1.556628   -0.811340    0.849486
     12         16           0        1.706579    0.424157   -0.482337
 ---------------------------------------------------------------------

 SCF Done:  E(RHF) =  -876.351138862     A.U. after    2 cycles

 The electronic state is 1-A.
 Alpha  occ. eigenvalues --  -75.69243 -75.67268 -13.13408 -13.11480 -13.08897
 Alpha  occ. eigenvalues --  -13.08386 -13.06881 -13.03463 -11.40104 -11.39784
 Alpha  occ. eigenvalues --   -8.03172  -8.01234  -1.20502  -1.16977  -0.94832
 Alpha  occ. eigenvalues --   -0.93965  -0.61751  -0.60264  -0.59470  -0.58032
 Alpha  occ. eigenvalues --   -0.50303  -0.48939  -0.40111  -0.39562  -0.23909
 Alpha  occ. eigenvalues --   -0.23123
 Alpha virt. eigenvalues --    0.02423   0.03076   0.04337   0.04968   0.07073
 Alpha virt. eigenvalues --    0.07289   0.07674   0.08785   0.10593   0.11406
 Alpha virt. eigenvalues --    0.12600   0.13284   0.14962   0.15043   0.15601

 Mulliken charges:
               1
     1  H    1.619378
     2  H    1.331449
     3  H    1.303056
     4  H    1.254545
     5  C   -4.676564
     6  S   -0.729117
     7  H    1.326380
     8  H    1.339526
     9  H    1.673427
    10  H    1.012605
    11  C   -4.494304
    12  S   -0.960381
 Sum of Mulliken charges =  -0.00000

 Dipole moment (field-independent basis, Debye):
    X=             -0.1051    Y=             -0.9192    Z=             -0.1805  Tot=              0.9427

 Test job not archived.
 1\1\GINC-SE340\SP\RHF\Aug-CC-pVDZ\C2H8S2\OHZDE\09-Apr-2025\0\\#t hf au
 g-cc-pvdz iop(5/13=1,5/36=2,99/5=2) pseudo=read geom=check guess=(read
 ,tcheck) scf=(maxcycle=1)\\title\\0,1\H,0,1.48841111,-0.83932977,-0.94
 699875\H,0,2.60301323,-1.84400864,-0.01533608\H,0,2.55978836,-0.100175
 65,0.26866848\H,0,0.07877426,-0.11956038,1.21477831\C,0,1.95766928,-0.
 9705586,0.02469451\S,0,0.71991769,-1.29709475,1.32035013\H,0,-1.426936
 48,-0.08918535,-2.17861125\H,0,-2.49683574,-0.1568477,-0.77408753\H,0,
 -0.94917701,-1.0063863,-0.71801856\H,0,0.45941267,1.3046227,-0.9249449

 Normal termination of Gaussian 16 at Wed Apr  9 19:37:58 2025.
