 Gaussian 16, Revision C.01,

 ----------------------------------------------------------------------
 #t hf aug-cc-pvdz symm=none int=(grid=ultrafine) guess=(read,tcheck) s
 table=(opt,rrhf)
 ----------------------------------------------------------------------
 -----
 title
 -----
 Symbolic Z-matrix:
 Charge =  0 Multiplicity = 1

 SCF Done:  E(RHF) =  -1334.38771329     A.U. after   13 cycles
 Normal termination of Gaussian 16 at Wed Apr  9 04:10:31 2025.
 Gaussian 16:  ES64L-G16RevC.01  3-Jul-2019

 ----------------------------------------------------------------------
 #t hf aug-cc-pvdz iop(5/13=1,5/36=2,99/5=2) pseudo=read geom=check gue
 ss=(read,tcheck) scf=(maxcycle=1)
 ----------------------------------------------------------------------
 -----
 title
 -----
 Structure from the checkpoint file:  "HB300SPXx10_1312_4.36_0.85_hydrogenchloride_dimethyldisulfide_dimer_mol1.chk"
 Charge =  0 Multiplicity = 1

                         Standard orientation:
 ---------------------------------------------------------------------
 Center     Atomic      Atomic             Coordinates (Angstroms)
 Number     Number       Type             X           Y           Z
 ---------------------------------------------------------------------
      1          1           0       -1.560305   -0.189553    0.393740
      2         17           0       -2.708727   -0.573059   -0.094992
      3          1           0        3.521105   -1.130971   -0.532471
      4          1           0        3.209388   -0.181868    0.936552
      5          1           0        3.070865    0.577829   -0.672856
      6          1           0       -0.704736    1.341848   -1.413171
      7          1           0        0.793019    2.219176   -0.988363
      8          1           0       -0.733750    2.615554   -0.173666
      9          6           0        2.920562   -0.332348   -0.099260
     10         16           0        1.193046   -0.895129   -0.204480
     11         16           0        0.168353    0.620115    0.725866
     12          6           0       -0.142163    1.814050   -0.613586
 ---------------------------------------------------------------------

 SCF Done:  E(RHF) =  -1335.52579893     A.U. after    2 cycles

 The electronic state is 1-A.
 Alpha  occ. eigenvalues --  -99.86395 -75.72187 -75.71511 -13.17807 -13.15612
 Alpha  occ. eigenvalues --  -13.13125 -13.11511 -13.09470 -13.05072 -11.41385
 Alpha  occ. eigenvalues --  -11.41213 -10.43653  -9.63812  -9.62952  -9.62903
 Alpha  occ. eigenvalues --   -8.06376  -8.05555  -1.29687  -1.26052  -1.14423
 Alpha  occ. eigenvalues --   -0.99942  -0.88934  -0.68430  -0.61780  -0.60775
 Alpha  occ. eigenvalues --   -0.60645  -0.59944  -0.49782  -0.49375  -0.48475
 Alpha  occ. eigenvalues --   -0.44792  -0.35620  -0.27726  -0.25474
 Alpha virt. eigenvalues --    0.02065   0.03123   0.04359   0.05175   0.06886
 Alpha virt. eigenvalues --    0.07340   0.08158   0.08548   0.09648   0.11399
 Alpha virt. eigenvalues --    0.12155   0.12440   0.14251   0.14689   0.14745

 Mulliken charges:
               1
     1  H    1.347139
     2  Cl  -0.836647
     3  H    1.331988
     4  H    1.510793
     5  H    1.520944
     6  H    1.334749
     7  H    1.544940
     8  H    1.358196
     9  C   -4.759158
    10  S    0.671227
    11  S   -0.861908
    12  C   -4.162263
 Sum of Mulliken charges =   0.00000

 Dipole moment (field-independent basis, Debye):
    X=              3.2261    Y=              0.5695    Z=              0.5861  Tot=              3.3280

 Test job not archived.
 1\1\GINC-SE165\SP\RHF\Aug-CC-pVDZ\C2H7Cl1S2\OHZDE\09-Apr-2025\0\\#t hf
  aug-cc-pvdz iop(5/13=1,5/36=2,99/5=2) pseudo=read geom=check guess=(r
 ead,tcheck) scf=(maxcycle=1)\\title\\0,1\H,0,-0.26068265,0.62653872,-1
 .61580209\Cl,0,0.10581098,1.51670262,-2.49790267\H,0,1.90496179,-1.855
 11363,2.47274881\H,0,0.30662321,-2.4737095,2.00515035\H,0,0.45183663,-
 0.9270533,2.88452004\H,0,-0.49128158,2.01764645,0.47076362\H,0,-1.1807
 3158,1.14266116,1.86808131\H,0,-2.19790363,1.52073171,0.46298608\C,0,0
 .90490509,-1.57803272,2.142239\S,0,1.1265386,-0.71028873,0.55794008\S,

 Normal termination of Gaussian 16 at Wed Apr  9 04:10:36 2025.
