 Gaussian 16, Revision C.01,

 ----------------------------------------------------------------------
 #t hf aug-cc-pvdz symm=none int=(grid=ultrafine) guess=(read,tcheck) s
 table=(opt,rrhf)
 ----------------------------------------------------------------------
 -----
 title
 -----
 Symbolic Z-matrix:
 Charge =  0 Multiplicity = 1

 SCF Done:  E(RHF) =  -974.724429250     A.U. after   13 cycles
 Normal termination of Gaussian 16 at Wed Apr  9 19:39:52 2025.
 Gaussian 16:  ES64L-G16RevC.01  3-Jul-2019

 ----------------------------------------------------------------------
 #t hf aug-cc-pvdz iop(5/13=1,5/36=2,99/5=2) pseudo=read geom=check gue
 ss=(read,tcheck) scf=(maxcycle=1)
 ----------------------------------------------------------------------
 -----
 title
 -----
 Structure from the checkpoint file:  "HB300SPXx10_1375_4.42_1.00_hydrogenchloride_thioacetone_dimer_mol1.chk"
 Charge =  0 Multiplicity = 1

                         Standard orientation:
 ---------------------------------------------------------------------
 Center     Atomic      Atomic             Coordinates (Angstroms)
 Number     Number       Type             X           Y           Z
 ---------------------------------------------------------------------
      1          1           0        1.651160   -0.213438    0.000000
      2         17           0        2.565633   -1.162447    0.000000
      3          1           0       -0.293724   -1.545097    0.000000
      4          1           0       -1.838946   -1.525292    0.874054
      5          1           0       -1.838946   -1.525292   -0.874054
      6          1           0       -2.674857    2.035610    0.000000
      7          1           0       -3.263774    0.604352   -0.874659
      8          6           0       -1.302077   -1.148091    0.000000
      9          6           0       -1.338525    0.347091    0.000000
     10         16           0        0.000000    1.276425    0.000000
     11          6           0       -2.708215    0.951599    0.000000
     12          1           0       -3.263774    0.604352    0.874659
 ---------------------------------------------------------------------

 SCF Done:  E(RHF) =  -975.803710832     A.U. after    2 cycles

 The electronic state is 1-A'.
 Alpha  occ. eigenvalues --  -99.87357 -75.68064 -13.17584 -13.08115 -12.99516
 Alpha  occ. eigenvalues --  -11.49529 -11.41576 -11.39973 -10.44464  -9.64582
 Alpha  occ. eigenvalues --   -9.63871  -9.63708  -8.02397  -1.30386  -1.26770
 Alpha  occ. eigenvalues --   -1.06438  -1.05036  -0.77099  -0.66650  -0.62943
 Alpha  occ. eigenvalues --   -0.62566  -0.61407  -0.56645  -0.52305  -0.49728
 Alpha  occ. eigenvalues --   -0.49574  -0.43383  -0.33832  -0.24972
 Alpha virt. eigenvalues --    0.01880   0.05008   0.05063   0.06103   0.06450
 Alpha virt. eigenvalues --    0.06974   0.07312   0.07528   0.09045   0.10615
 Alpha virt. eigenvalues --    0.11885   0.12718   0.14069   0.14805   0.15125

 Mulliken charges:
               1
     1  H    0.732866
     2  Cl  -0.777032
     3  H    1.471614
     4  H    1.161935
     5  H    1.161935
     6  H    1.456085
     7  H    1.184252
     8  C   -4.529437
     9  C    0.226653
    10  S    0.850728
    11  C   -4.123851
    12  H    1.184252
 Sum of Mulliken charges =  -0.00000

 Dipole moment (field-independent basis, Debye):
    X=             -2.7462    Y=              1.8535    Z=              0.0000  Tot=              3.3132

 Test job not archived.
 1\1\GINC-SE135\SP\RHF\Aug-CC-pVDZ\C3H7Cl1S1\OHZDE\09-Apr-2025\0\\#t hf
  aug-cc-pvdz iop(5/13=1,5/36=2,99/5=2) pseudo=read geom=check guess=(r
 ead,tcheck) scf=(maxcycle=1)\\title\\0,1\H,0,-0.37830043,1.49279945,0.
 \Cl,0,0.15229845,2.69917624,0.\H,0,1.59222385,0.19938463,0.\H,0,2.1607
 5771,-1.23758166,0.87405369\H,0,2.16075771,-1.23758166,-0.87405369\H,0
 ,-0.81587334,-3.36324443,0.\H,0,0.73181017,-3.36446424,-0.87465894\C,0
 ,1.6079228,-0.88419457,0.\C,0,0.23861125,-1.48576201,0.\S,0,-1.1294455
 5,-0.60047548,0.\C,0,0.19958611,-2.98241016,0.\H,0,0.73181017,-3.36446

 Normal termination of Gaussian 16 at Wed Apr  9 19:39:56 2025.
