 Gaussian 16, Revision C.01,

 ----------------------------------------------------------------------
 #t hf aug-cc-pvdz symm=none int=(grid=ultrafine) guess=(read,tcheck) s
 table=(opt,rrhf)
 ----------------------------------------------------------------------
 -----
 title
 -----
 Symbolic Z-matrix:
 Charge =  0 Multiplicity = 1

 SCF Done:  E(RHF) =  -1121.34615847     A.U. after   13 cycles
 Normal termination of Gaussian 16 at Wed Apr  9 19:37:34 2025.
 Gaussian 16:  ES64L-G16RevC.01  3-Jul-2019

 ----------------------------------------------------------------------
 #t hf aug-cc-pvdz iop(5/13=1,5/36=2,99/5=2) pseudo=read geom=check gue
 ss=(read,tcheck) scf=(maxcycle=1)
 ----------------------------------------------------------------------
 -----
 title
 -----
 Structure from the checkpoint file:  "HB300SPXx10_1096_4.13_1.05_Nmethylacetamide_dimethyldisulfide_dimer_mol1.chk"
 Charge =  0 Multiplicity = 1

                         Standard orientation:
 ---------------------------------------------------------------------
 Center     Atomic      Atomic             Coordinates (Angstroms)
 Number     Number       Type             X           Y           Z
 ---------------------------------------------------------------------
      1          6           0       -1.852727    1.678585   -0.758112
      2          1           0       -1.189944    1.498803   -1.604611
      3          1           0       -1.278238    2.136244    0.044956
      4          1           0       -2.634983    2.359153   -1.082887
      5          6           0       -2.484919    0.360356   -0.356450
      6          8           0       -3.403842   -0.130236   -0.990282
      7          7           0       -1.945762   -0.224167    0.745313
      8          1           0       -1.109928    0.181237    1.133137
      9          6           0       -2.322939   -1.553988    1.177103
     10          1           0       -3.330489   -1.755535    0.826996
     11          1           0       -1.653946   -2.314221    0.768236
     12          1           0       -2.299525   -1.612102    2.263651
     13          1           0        2.825498   -2.193152   -1.746355
     14          1           0        3.413246   -1.943240   -0.087987
     15          1           0        3.608431   -0.662291   -1.315102
     16          1           0        1.300949    2.323354   -0.471001
     17          1           0        3.031628    1.910035   -0.350869
     18          1           0        2.224335    2.745038    0.989014
     19          6           0        2.967456   -1.460936   -0.952664
     20         16           0        1.307075   -0.835278   -0.547042
     21         16           0        1.662521    0.443746    1.016132
     22          6           0        2.098212    2.009691    0.195531
 ---------------------------------------------------------------------

 SCF Done:  E(RHF) =  -1123.36869512     A.U. after    2 cycles

 The electronic state is 1-A.
 Alpha  occ. eigenvalues --  -75.71381 -75.71032 -21.00183 -15.74431 -13.15756
 Alpha  occ. eigenvalues --  -13.12983 -13.11536 -13.09943 -13.09582 -13.05296
 Alpha  occ. eigenvalues --  -11.48275 -11.41308 -11.40803 -11.38285 -11.37943
 Alpha  occ. eigenvalues --   -8.05387  -8.05071  -1.68563  -1.37635  -1.27760
 Alpha  occ. eigenvalues --   -1.13909  -1.09941  -0.99448  -0.97715  -0.88039
 Alpha  occ. eigenvalues --   -0.77569  -0.66826  -0.61797  -0.61466  -0.61152
 Alpha  occ. eigenvalues --   -0.60391  -0.60207  -0.59622  -0.57101  -0.53698
 Alpha  occ. eigenvalues --   -0.51001  -0.48546  -0.45837  -0.45169  -0.44295
 Alpha  occ. eigenvalues --   -0.34923  -0.29358  -0.26928  -0.26689  -0.24956
 Alpha virt. eigenvalues --    0.02154   0.02575   0.03747   0.04100   0.06143
 Alpha virt. eigenvalues --    0.06352   0.06911   0.07402   0.07730   0.08075
 Alpha virt. eigenvalues --    0.08204   0.08423   0.08982   0.10158   0.10792

 Mulliken charges:
               1
     1  C   -4.672709
     2  H    1.380671
     3  H    1.545598
     4  H    1.180305
     5  C    5.027013
     6  O   -3.409649
     7  N   -2.470272
     8  H    0.988789
     9  C   -3.496865
    10  H    1.421013
    11  H    1.399707
    12  H    1.388308
    13  H    1.382984
    14  H    1.497920
    15  H    1.458592
    16  H    1.730552
    17  H    1.521226
    18  H    1.427947
    19  C   -5.506747
    20  S    1.184050
    21  S   -0.167704
    22  C   -4.810730
 Sum of Mulliken charges =  -0.00000

 Dipole moment (field-independent basis, Debye):
    X=              2.5422    Y=             -0.2766    Z=              1.5836  Tot=              3.0079

 Test job not archived.
 1\1\GINC-SE174\SP\RHF\Aug-CC-pVDZ\C5H13N1O1S2\OHZDE\09-Apr-2025\0\\#t
 hf aug-cc-pvdz iop(5/13=1,5/36=2,99/5=2) pseudo=read geom=check guess=
 (read,tcheck) scf=(maxcycle=1)\\title\\0,1\C,0,-1.31055971,-0.36190707
 ,2.17525478\H,0,-0.76310857,0.57466921,2.28149083\H,0,-0.59510431,-1.1
 7658722,2.08130356\H,0,-1.91110445,-0.50300543,3.06969011\C,0,-2.23351
 851,-0.24400233,0.97818704\O,0,-3.28055753,0.37845097,1.03390772\N,0,-
 1.80028089,-0.8717422,-0.1463058\H,0,-0.86873727,-1.25332097,-0.144399
 63\C,0,-2.47826303,-0.73306099,-1.41840567\H,0,-3.52176476,-0.50262299

 Normal termination of Gaussian 16 at Wed Apr  9 19:37:46 2025.
