 Gaussian 16, Revision C.01,

 ----------------------------------------------------------------------
 #t hf aug-cc-pvdz symm=none int=(grid=ultrafine) guess=(read,tcheck) s
 table=(opt,rrhf)
 ----------------------------------------------------------------------
 -----
 title
 -----
 Symbolic Z-matrix:
 Charge =  0 Multiplicity = 1

 SCF Done:  E(RHF) =  -1017.02684644     A.U. after   12 cycles
 Normal termination of Gaussian 16 at Wed Apr  9 19:41:05 2025.
 Gaussian 16:  ES64L-G16RevC.01  3-Jul-2019

 ----------------------------------------------------------------------
 #t hf aug-cc-pvdz iop(5/13=1,5/36=2,99/5=2) pseudo=read geom=check gue
 ss=(read,tcheck) scf=(maxcycle=1)
 ----------------------------------------------------------------------
 -----
 title
 -----
 Structure from the checkpoint file:  "HB300SPXx10_1385_5.01_1.00_dimethylsulfide_phosphineF2_dimer_mol1.chk"
 Charge =  0 Multiplicity = 1

                         Standard orientation:
 ---------------------------------------------------------------------
 Center     Atomic      Atomic             Coordinates (Angstroms)
 Number     Number       Type             X           Y           Z
 ---------------------------------------------------------------------
      1          1           0       -0.673275    0.843642    1.428991
      2          1           0       -2.395232    1.304324    1.432253
      3          1           0       -1.215795    2.255200    0.512029
      4          1           0       -2.286232   -2.047271   -0.699874
      5          1           0       -3.000256   -1.283214    0.727786
      6          1           0       -1.263191   -1.677957    0.700047
      7          6           0       -1.486669    1.253359    0.835020
      8         16           0       -1.753308    0.264590   -0.658442
      9          6           0       -2.108791   -1.338631    0.105595
     10         15           0        2.109139   -0.325654   -0.341808
     11          9           0        1.297668   -0.961364    0.884137
     12          9           0        1.785566    1.216047   -0.082068
     13          1           0        1.073475   -0.523871   -1.301353
 ---------------------------------------------------------------------

 SCF Done:  E(RHF) =  -1018.55050038     A.U. after    2 cycles

 The electronic state is 1-A.
 Alpha  occ. eigenvalues -- -105.29302 -75.66840 -29.29397 -29.29303 -13.09068
 Alpha  occ. eigenvalues --  -13.06622 -13.02833 -11.38822 -11.38546  -8.00946
 Alpha  occ. eigenvalues --   -2.88788  -1.63720  -1.59165  -1.53163  -1.22006
 Alpha  occ. eigenvalues --   -1.02690  -0.90509  -0.87672  -0.59949  -0.59581
 Alpha  occ. eigenvalues --   -0.57573  -0.57178  -0.56052  -0.46769  -0.44012
 Alpha  occ. eigenvalues --   -0.40784  -0.37155  -0.35784  -0.34996  -0.29296
 Alpha  occ. eigenvalues --   -0.26425  -0.20607  -0.19413  -0.00548
 Alpha virt. eigenvalues --    0.03868   0.04392   0.05760   0.07239   0.07525
 Alpha virt. eigenvalues --    0.07779   0.08361   0.09588   0.10239   0.10707
 Alpha virt. eigenvalues --    0.12917   0.14322   0.15303   0.15940   0.16472

 Mulliken charges:
               1
     1  H    1.505617
     2  H    1.396354
     3  H    1.364110
     4  H    1.411546
     5  H    1.372906
     6  H    1.386376
     7  C   -4.597577
     8  S    0.995034
     9  C   -4.720583
    10  P    2.145382
    11  F   -0.601678
    12  F   -0.485147
    13  H   -1.172339
 Sum of Mulliken charges =   0.00000

 Dipole moment (field-independent basis, Debye):
    X=             -4.3016    Y=              3.0334    Z=              3.4199  Tot=              6.2770

 Test job not archived.
 1\1\GINC-SE018\SP\RHF\Aug-CC-pVDZ\C2H7F2P1S1\OHZDE\09-Apr-2025\0\\#t h
 f aug-cc-pvdz iop(5/13=1,5/36=2,99/5=2) pseudo=read geom=check guess=(
 read,tcheck) scf=(maxcycle=1)\\title\\0,1\H,0,0.35324965,2.18742239,-0
 .72380577\H,0,0.23256961,2.54349189,-2.46622469\H,0,1.47961489,1.43776
 879,-1.86264863\H,0,-2.97879656,0.33269977,-1.6977403\H,0,-2.43534977,
 1.89515642,-2.32640837\H,0,-2.24831697,1.5140911,-0.59615001\C,0,0.456
 3691,1.7777672,-1.72571744\S,0,-0.61885679,0.337269,-1.94490696\C,0,-2
 .22218849,1.10820804,-1.60517522\P,0,0.08256794,-0.13074574,1.88342285

 Normal termination of Gaussian 16 at Wed Apr  9 19:41:10 2025.
