 Gaussian 16, Revision C.01,

 ----------------------------------------------------------------------
 #t hf aug-cc-pvdz symm=none int=(grid=ultrafine) guess=(read,tcheck) s
 table=(opt,rrhf)
 ----------------------------------------------------------------------
 -----
 title
 -----
 Symbolic Z-matrix:
 Charge =  0 Multiplicity = 1

 SCF Done:  E(RHF) =  -571.978456182     A.U. after   12 cycles
 Normal termination of Gaussian 16 at Wed Apr  9 04:10:45 2025.
 Gaussian 16:  ES64L-G16RevC.01  3-Jul-2019

 ----------------------------------------------------------------------
 #t hf aug-cc-pvdz iop(5/13=1,5/36=2,99/5=2) pseudo=read geom=check gue
 ss=(read,tcheck) scf=(maxcycle=1)
 ----------------------------------------------------------------------
 -----
 title
 -----
 Structure from the checkpoint file:  "HB300SPXx10_131_1.14_0.80_sulfane_trimethylamine_dimer_mol1.chk"
 Charge =  0 Multiplicity = 1

                         Standard orientation:
 ---------------------------------------------------------------------
 Center     Atomic      Atomic             Coordinates (Angstroms)
 Number     Number       Type             X           Y           Z
 ---------------------------------------------------------------------
      1          1           0       -0.812204    0.025682    0.000000
      2          1           0       -2.437475   -1.083784    0.000000
      3         16           0       -2.167800    0.229421    0.000000
      4          1           0        2.270063   -0.821566    1.303193
      5          1           0        0.775182   -0.261516    2.080506
      6          1           0        0.786632   -1.789388    1.197590
      7          1           0        0.786632   -1.789388   -1.197590
      8          1           0        2.270063   -0.821566   -1.303193
      9          1           0        0.775182   -0.261516   -2.080506
     10          1           0        2.269850    1.423483    0.000000
     11          1           0        0.781059    1.815693   -0.882789
     12          6           0        1.174871   -0.772051    1.205875
     13          7           0        0.755866   -0.077573    0.000000
     14          6           0        1.174871   -0.772051   -1.205875
     15          6           0        1.174871    1.314175    0.000000
     16          1           0        0.781059    1.815693    0.882789
 ---------------------------------------------------------------------

 SCF Done:  E(RHF) =  -573.116443176     A.U. after    2 cycles

 The electronic state is 1-A'.
 Alpha  occ. eigenvalues --  -75.64354 -15.72840 -13.12100 -13.07147 -12.97736
 Alpha  occ. eigenvalues --  -11.39906 -11.39874 -11.38858  -7.98320  -1.45711
 Alpha  occ. eigenvalues --   -1.07093  -1.05073  -1.05067  -0.86123  -0.69318
 Alpha  occ. eigenvalues --   -0.64724  -0.64702  -0.56365  -0.56314  -0.52895
 Alpha  occ. eigenvalues --   -0.52489  -0.49742  -0.49716  -0.42763  -0.25945
 Alpha  occ. eigenvalues --   -0.22747
 Alpha virt. eigenvalues --    0.02898   0.04861   0.05208   0.05410   0.05958
 Alpha virt. eigenvalues --    0.06308   0.06424   0.06963   0.06975   0.08943
 Alpha virt. eigenvalues --    0.09746   0.12172   0.13739   0.13833   0.13955

 Mulliken charges:
               1
     1  H    1.157159
     2  H    0.925366
     3  S   -2.604979
     4  H    1.235902
     5  H    1.300283
     6  H    1.289964
     7  H    1.289964
     8  H    1.235902
     9  H    1.300283
    10  H    1.220032
    11  H    1.246314
    12  C   -3.817275
    13  N    0.586388
    14  C   -3.817275
    15  C   -3.794344
    16  H    1.246314
 Sum of Mulliken charges =   0.00000

 Dipole moment (field-independent basis, Debye):
    X=              2.5856    Y=              0.7756    Z=              0.0000  Tot=              2.6994

 Test job not archived.
 1\1\GINC-SE126\SP\RHF\Aug-CC-pVDZ\C3H11N1S1\OHZDE\09-Apr-2025\0\\#t hf
  aug-cc-pvdz iop(5/13=1,5/36=2,99/5=2) pseudo=read geom=check guess=(r
 ead,tcheck) scf=(maxcycle=1)\\title\\0,1\H,0,0.06719299,0.97177334,0.\
 H,0,1.32304535,2.48678341,0.\S,0,-0.00955285,2.34044335,0.\H,0,0.62402
 625,-2.17594602,-1.30319342\H,0,0.20547231,-0.63544708,-2.08050641\H,0
 ,1.72565356,-0.788984,-1.19759028\H,0,1.72565356,-0.788984,1.19759028\
 H,0,0.62402625,-2.17594602,1.30319342\H,0,0.20547231,-0.63544708,2.080
 50641\H,0,-1.61126723,-1.96687959,0.\H,0,-1.86327527,-0.44805722,0.882

 Normal termination of Gaussian 16 at Wed Apr  9 04:10:49 2025.
