 Gaussian 16, Revision C.01,

 ----------------------------------------------------------------------
 #t hf aug-cc-pvdz symm=none int=(grid=ultrafine) guess=(read,tcheck) s
 table=(opt,rrhf)
 ----------------------------------------------------------------------
 -----
 title
 -----
 Symbolic Z-matrix:
 Charge =  0 Multiplicity = 1

 SCF Done:  E(RHF) =  -1013.77703326     A.U. after   12 cycles
 Normal termination of Gaussian 16 at Wed Apr  9 19:39:16 2025.
 Gaussian 16:  ES64L-G16RevC.01  3-Jul-2019

 ----------------------------------------------------------------------
 #t hf aug-cc-pvdz iop(5/13=1,5/36=2,99/5=2) pseudo=read geom=check gue
 ss=(read,tcheck) scf=(maxcycle=1)
 ----------------------------------------------------------------------
 -----
 title
 -----
 Structure from the checkpoint file:  "HB300SPXx10_1365_4.41_1.00_hydrogenchloride_tetrahydrothiophene_dimer_mol1.chk"
 Charge =  0 Multiplicity = 1

                         Standard orientation:
 ---------------------------------------------------------------------
 Center     Atomic      Atomic             Coordinates (Angstroms)
 Number     Number       Type             X           Y           Z
 ---------------------------------------------------------------------
      1          1           0       -1.531570   -0.448757    0.059679
      2         17           0       -2.600951    0.310173   -0.163388
      3          1           0        1.746460   -0.071014    1.952081
      4          1           0        0.044127    0.403613    2.048490
      5          1           0        1.758789    2.103401    0.873143
      6          1           0        0.132478   -0.189442   -1.822224
      7          1           0        0.204626    1.797490    0.100261
      8          1           0        1.567998   -1.224468   -1.791718
      9          1           0        1.917085    1.435343   -1.640530
     10          1           0        2.841734    0.402795   -0.553819
     11         16           0        0.404428   -1.254835    0.328488
     12          6           0        0.865890    0.190873    1.370063
     13          6           0        1.145653    1.336709    0.399951
     14          6           0        1.833499    0.724183   -0.819127
     15          6           0        0.998890   -0.485855   -1.234817
 ---------------------------------------------------------------------

 SCF Done:  E(RHF) =  -1015.07309130     A.U. after    2 cycles

 The electronic state is 1-A.
 Alpha  occ. eigenvalues --  -99.87345 -75.68468 -13.14720 -13.13136 -13.10998
 Alpha  occ. eigenvalues --  -11.44769 -11.43862 -11.40192 -11.37192 -10.44426
 Alpha  occ. eigenvalues --   -9.64529  -9.63810  -9.63727  -8.02614  -1.34057
 Alpha  occ. eigenvalues --   -1.26811  -1.08895  -1.08407  -0.86064  -0.84245
 Alpha  occ. eigenvalues --   -0.68416  -0.67017  -0.65698  -0.62089  -0.55235
 Alpha  occ. eigenvalues --   -0.50363  -0.50099  -0.49691  -0.47717  -0.46522
 Alpha  occ. eigenvalues --   -0.43329  -0.36358  -0.25139
 Alpha virt. eigenvalues --    0.03189   0.04572   0.05235   0.05665   0.05837
 Alpha virt. eigenvalues --    0.06317   0.06507   0.06869   0.07351   0.10189
 Alpha virt. eigenvalues --    0.12082   0.12149   0.13012   0.13869   0.14225

 Mulliken charges:
               1
     1  H    0.941295
     2  Cl  -0.767868
     3  H    1.429200
     4  H    1.297458
     5  H    1.290968
     6  H    1.339615
     7  H    1.355356
     8  H    1.397097
     9  H    1.290637
    10  H    1.408375
    11  S    0.290479
    12  C   -3.099104
    13  C   -2.378027
    14  C   -2.837005
    15  C   -2.958476
 Sum of Mulliken charges =   0.00000

 Dipole moment (field-independent basis, Debye):
    X=              3.3846    Y=             -0.8916    Z=              0.3464  Tot=              3.5171

 Test job not archived.
 1\1\GINC-SE454\SP\RHF\Aug-CC-pVDZ\C4H9Cl1S1\OHZDE\09-Apr-2025\0\\#t hf
  aug-cc-pvdz iop(5/13=1,5/36=2,99/5=2) pseudo=read geom=check guess=(r
 ead,tcheck) scf=(maxcycle=1)\\title\\0,1\H,0,-0.21838216,0.19107529,-1
 .4737198\Cl,0,-0.27626126,1.34164549,-2.13866114\H,0,-1.61077747,-1.15
 018549,1.80219356\H,0,-2.03871529,-0.06382955,0.47207978\H,0,-0.867013
 51,1.00330613,2.63982534\H,0,1.84295939,0.12641753,-0.01613612\H,0,-0.
 31013464,1.50132904,1.04351463\H,0,2.18580786,-1.38006877,0.84750824\H
 ,0,1.71018413,0.83313797,2.29485434\H,0,0.94082529,-0.67351089,2.78492

 Normal termination of Gaussian 16 at Wed Apr  9 19:39:21 2025.
