 Gaussian 16, Revision C.01,

 ----------------------------------------------------------------------
 #t hf aug-cc-pvdz symm=none int=(grid=ultrafine) guess=(read,tcheck) s
 table=(opt,rrhf)
 ----------------------------------------------------------------------
 -----
 title
 -----
 Symbolic Z-matrix:
 Charge =  0 Multiplicity = 1

 SCF Done:  E(RHF) =  -1013.77456721     A.U. after   12 cycles
 Normal termination of Gaussian 16 at Wed Apr  9 19:40:10 2025.
 Gaussian 16:  ES64L-G16RevC.01  3-Jul-2019

 ----------------------------------------------------------------------
 #t hf aug-cc-pvdz iop(5/13=1,5/36=2,99/5=2) pseudo=read geom=check gue
 ss=(read,tcheck) scf=(maxcycle=1)
 ----------------------------------------------------------------------
 -----
 title
 -----
 Structure from the checkpoint file:  "HB300SPXx10_1370_4.41_2.00_hydrogenchloride_tetrahydrothiophene_dimer_mol1.chk"
 Charge =  0 Multiplicity = 1

                         Standard orientation:
 ---------------------------------------------------------------------
 Center     Atomic      Atomic             Coordinates (Angstroms)
 Number     Number       Type             X           Y           Z
 ---------------------------------------------------------------------
      1          1           0       -2.915247   -0.423973    0.000879
      2         17           0       -4.120937    0.134257   -0.062367
      3          1           0        2.420021   -0.123389    1.867685
      4          1           0        0.669245   -0.010492    2.101225
      5          1           0        1.949982    2.141837    1.132733
      6          1           0        0.606087   -0.019420   -1.815136
      7          1           0        0.432603    1.649810    0.383189
      8          1           0        2.209487   -0.746390   -1.998305
      9          1           0        2.061100    1.881328   -1.457575
     10          1           0        3.234796    0.906701   -0.577455
     11         16           0        1.218289   -1.304906    0.136099
     12          6           0        1.468645    0.040547    1.366942
     13          6           0        1.461587    1.344811    0.572481
     14          6           0        2.168518    1.058391   -0.751408
     15          6           0        1.550453   -0.220396   -1.313779
 ---------------------------------------------------------------------

 SCF Done:  E(RHF) =  -1015.06603072     A.U. after    2 cycles

 The electronic state is 1-A.
 Alpha  occ. eigenvalues --  -99.90907 -75.66501 -13.10381 -13.09389 -13.00831
 Alpha  occ. eigenvalues --  -11.43504 -11.42457 -11.39167 -11.36486 -10.47827
 Alpha  occ. eigenvalues --   -9.67854  -9.67100  -9.67075  -8.00585  -1.32910
 Alpha  occ. eigenvalues --   -1.29389  -1.07404  -1.07341  -0.84690  -0.83520
 Alpha  occ. eigenvalues --   -0.68113  -0.66792  -0.65728  -0.61146  -0.54510
 Alpha  occ. eigenvalues --   -0.52365  -0.52361  -0.49246  -0.47527  -0.45932
 Alpha  occ. eigenvalues --   -0.42171  -0.34904  -0.21994
 Alpha virt. eigenvalues --    0.02869   0.04247   0.04684   0.05543   0.05764
 Alpha virt. eigenvalues --    0.06169   0.06542   0.07039   0.07191   0.08638
 Alpha virt. eigenvalues --    0.10685   0.12107   0.12645   0.13389   0.13885

 Mulliken charges:
               1
     1  H    0.442476
     2  Cl  -0.468870
     3  H    1.455560
     4  H    1.433855
     5  H    1.285467
     6  H    1.517419
     7  H    1.478631
     8  H    1.397909
     9  H    1.276948
    10  H    1.429579
    11  S    1.102163
    12  C   -3.506194
    13  C   -2.602674
    14  C   -2.768587
    15  C   -3.473683
 Sum of Mulliken charges =  -0.00000

 Dipole moment (field-independent basis, Debye):
    X=              1.2615    Y=              0.0246    Z=              0.0120  Tot=              1.2618

 Test job not archived.
 1\1\GINC-SE018\SP\RHF\Aug-CC-pVDZ\C4H9Cl1S1\OHZDE\09-Apr-2025\0\\#t hf
  aug-cc-pvdz iop(5/13=1,5/36=2,99/5=2) pseudo=read geom=check guess=(r
 ead,tcheck) scf=(maxcycle=1)\\title\\0,1\H,0,-0.21838216,0.19107529,-1
 .4737198\Cl,0,-0.27626126,1.34164549,-2.13866114\H,0,-1.45566323,-2.69
 815371,3.23392161\H,0,-1.88360105,-1.61179777,1.90380783\H,0,-0.711899
 27,-0.5446621,4.07155339\H,0,1.99807363,-1.4215507,1.41559193\H,0,-0.1
 550204,-0.04663918,2.47524269\H,0,2.34092211,-2.92803699,2.2792363\H,0
 ,1.86529837,-0.71483025,3.72658239\H,0,1.09593953,-2.22147911,4.216650

 Normal termination of Gaussian 16 at Wed Apr  9 19:40:15 2025.
