 Gaussian 16, Revision C.01,

 ----------------------------------------------------------------------
 #t hf aug-cc-pvdz symm=none int=(grid=ultrafine) guess=(read,tcheck) s
 table=(opt,rrhf)
 ----------------------------------------------------------------------
 -----
 title
 -----
 Symbolic Z-matrix:
 Charge =  0 Multiplicity = 1

 SCF Done:  E(RHF) =  -1312.02135016     A.U. after   13 cycles

 1\1\GINC-SE222\Stability\RHF\Aug-CC-pVDZ\C3H10S3\OHZDE\09-Apr-2025\0\\
 #t hf aug-cc-pvdz symm=none int=(grid=ultrafine) guess=(read,tcheck) s
 table=(opt,rrhf)\\title\\0,1\H,0,1.01554051,-2.06430295,-0.26345232\H,
 0,1.41221348,-3.50790796,0.68330627\H,0,2.28776701,-1.9997821,0.978385
 09\H,0,0.09227498,-0.7095981,1.83267489\C,0,1.324424,-2.42503809,0.712
 77693\S,0,0.06941485,-2.04508424,1.97921636\H,0,-2.73663534,0.30200553
 ,0.77735021\H,0,-1.68604689,-1.02518952,0.24143299\H,0,-2.31252896,0.1
 6721849,-0.93919208\H,0,0.50381256,2.52028842,-2.19468115\H,0,-0.51090

 Normal termination of Gaussian 16 at Wed Apr  9 19:38:27 2025.
 Gaussian 16:  ES64L-G16RevC.01  3-Jul-2019

 ----------------------------------------------------------------------
 #t hf aug-cc-pvdz iop(5/13=1,5/36=2,99/5=2) pseudo=read geom=check gue
 ss=(read,tcheck) scf=(maxcycle=1)
 ----------------------------------------------------------------------
 -----
 title
 -----
 Structure from the checkpoint file:  "HB300SPXx10_1172_4.22_0.85_methanethiol_dimethyldisulfide_dimer_mol1.chk"
 Charge =  0 Multiplicity = 1

                         Standard orientation:
 ---------------------------------------------------------------------
 Center     Atomic      Atomic             Coordinates (Angstroms)
 Number     Number       Type             X           Y           Z
 ---------------------------------------------------------------------
      1          1           0        1.154818   -1.553215    0.835627
      2          1           0        2.877960   -1.959166    0.896304
      3          1           0        1.996174   -2.110791   -0.629334
      4          1           0        1.505891    0.525274   -0.788573
      5          6           0        2.089378   -1.530178    0.283695
      6         16           0        2.594473    0.183508   -0.078851
      7          1           0       -0.082969    2.830604    0.728253
      8          1           0        0.593834    1.292921    1.302586
      9          1           0       -1.109777    1.720059    1.653947
     10          1           0       -3.563964   -0.461928   -0.410240
     11          1           0       -3.019068   -0.263450    1.276849
     12          1           0       -3.195675   -1.887086    0.586070
     13          6           0       -0.301500    1.782774    0.930978
     14         16           0       -0.801264    1.057983   -0.662226
     15         16           0       -1.190752   -0.898810   -0.194322
     16          6           0       -2.920636   -0.855283    0.371143
 ---------------------------------------------------------------------

 SCF Done:  E(RHF) =  -1313.35162040     A.U. after    2 cycles

 The electronic state is 1-A.
 Alpha  occ. eigenvalues --  -75.70486 -75.70321 -75.66694 -13.15092 -13.12426
 Alpha  occ. eigenvalues --  -13.11964 -13.11004 -13.10572 -13.08844 -13.06047
 Alpha  occ. eigenvalues --  -13.05407 -13.03736 -11.40478 -11.39735 -11.38438
 Alpha  occ. eigenvalues --   -8.04508  -8.04428  -8.00646  -1.27424  -1.17208
 Alpha  occ. eigenvalues --   -1.13044  -0.98667  -0.92949  -0.87270  -0.60911
 Alpha  occ. eigenvalues --   -0.60505  -0.59984  -0.58892  -0.58642  -0.57624
 Alpha  occ. eigenvalues --   -0.48704  -0.47498  -0.43468  -0.38784  -0.34165
 Alpha  occ. eigenvalues --   -0.25322  -0.23608  -0.22657
 Alpha virt. eigenvalues --    0.02404   0.02751   0.03535   0.04446   0.06321
 Alpha virt. eigenvalues --    0.06933   0.07286   0.08100   0.08296   0.09027
 Alpha virt. eigenvalues --    0.09634   0.11042   0.12075   0.12495   0.13209

 Mulliken charges:
               1
     1  H    1.689952
     2  H    1.341697
     3  H    1.378706
     4  H    1.431999
     5  C   -4.761703
     6  S   -0.934846
     7  H    1.370453
     8  H    1.653963
     9  H    1.583068
    10  H    1.476113
    11  H    1.503032
    12  H    1.384842
    13  C   -4.380939
    14  S   -0.377244
    15  S    0.654742
    16  C   -5.013837
 Sum of Mulliken charges =  -0.00000

 Dipole moment (field-independent basis, Debye):
    X=              0.4988    Y=             -0.4795    Z=             -0.0175  Tot=              0.6921

 Test job not archived.
 1\1\GINC-SE222\SP\RHF\Aug-CC-pVDZ\C3H10S3\OHZDE\09-Apr-2025\0\\#t hf a
 ug-cc-pvdz iop(5/13=1,5/36=2,99/5=2) pseudo=read geom=check guess=(rea
 d,tcheck) scf=(maxcycle=1)\\title\\0,1\H,0,1.01554051,-2.06430295,-0.2
 6345232\H,0,1.41221348,-3.50790796,0.68330627\H,0,2.28776701,-1.999782
 1,0.97838509\H,0,0.09227498,-0.7095981,1.83267489\C,0,1.324424,-2.4250
 3809,0.71277693\S,0,0.06941485,-2.04508424,1.97921636\H,0,-2.73663534,
 0.30200553,0.77735021\H,0,-1.68604689,-1.02518952,0.24143299\H,0,-2.31
 252896,0.16721849,-0.93919208\H,0,0.50381256,2.52028842,-2.19468115\H,

 Normal termination of Gaussian 16 at Wed Apr  9 19:38:32 2025.
