 Gaussian 16, Revision C.01,

 ----------------------------------------------------------------------
 #t hf aug-cc-pvdz symm=none int=(grid=ultrafine) guess=(read,tcheck) s
 table=(opt,rrhf)
 ----------------------------------------------------------------------
 -----
 title
 -----
 Symbolic Z-matrix:
 Charge =  0 Multiplicity = 1

 SCF Done:  E(RHF) =  -858.792381685     A.U. after   10 cycles

 1\1\GINC-SE117\Stability\RHF\Aug-CC-pVDZ\Cl1H3S1\OHZDE\09-Apr-2025\0\\
 #t hf aug-cc-pvdz symm=none int=(grid=ultrafine) guess=(read,tcheck) s
 table=(opt,rrhf)\\title\\0,1\H,0,-0.07574771,0.51696812,0.\Cl,0,0.0020
 5903,1.81286821,0.\H,0,0.88100444,-3.12803411,0.97032462\H,0,0.8810044
 4,-3.12803411,-0.97032462\S,0,-0.04424267,-3.07451868,0.\\Version=ES64
 L-G16RevC.01\HF=-858.7923817\RMSD=6.733e-09\Dipole=0.4184107,-0.633920
 2,0.\Quadrupole=0.3707287,-1.6747657,1.304037,-2.7504641,0.,0.\PG=Unkn
 own\\@

 Normal termination of Gaussian 16 at Wed Apr  9 19:38:52 2025.
 Gaussian 16:  ES64L-G16RevC.01  3-Jul-2019

 ----------------------------------------------------------------------
 #t hf aug-cc-pvdz iop(5/13=1,5/36=2,99/5=2) pseudo=read geom=check gue
 ss=(read,tcheck) scf=(maxcycle=1)
 ----------------------------------------------------------------------
 -----
 title
 -----
 Structure from the checkpoint file:  "HB300SPXx10_1359_4.40_1.50_hydrogenchloride_sulfane_dimer_mol1.chk"
 Charge =  0 Multiplicity = 1

                         Standard orientation:
 ---------------------------------------------------------------------
 Center     Atomic      Atomic             Coordinates (Angstroms)
 Number     Number       Type             X           Y           Z
 ---------------------------------------------------------------------
      1          1           0       -0.115135    1.185726   -0.000000
      2         17           0       -0.049608    2.482305   -0.000000
      3          1           0        0.876104   -2.450049    0.970325
      4          1           0        0.876104   -2.450049   -0.970325
      5         16           0       -0.049608   -2.405301    0.000000
 ---------------------------------------------------------------------

 SCF Done:  E(RHF) =  -859.283758874     A.U. after    2 cycles

 The electronic state is 1-A'.
 Alpha  occ. eigenvalues --  -99.90513 -75.71423 -13.16034 -13.09769 -13.03705
 Alpha  occ. eigenvalues --  -10.47577  -9.67660  -9.66744  -9.66742  -8.05148
 Alpha  occ. eigenvalues --   -1.29675  -1.12622  -0.68593  -0.56089  -0.52211
 Alpha  occ. eigenvalues --   -0.52210  -0.44688  -0.27198
 Alpha virt. eigenvalues --    0.01315   0.05145   0.05541   0.09786   0.10632
 Alpha virt. eigenvalues --    0.10921   0.12186   0.14043   0.14325   0.15787
 Alpha virt. eigenvalues --    0.16526   0.22905   0.24214   0.24231   0.25195

 Mulliken charges:
               1
     1  H    0.454734
     2  Cl  -0.471873
     3  H    1.005394
     4  H    1.005394
     5  S   -1.993649
 Sum of Mulliken charges =  -0.00000

 Dipole moment (field-independent basis, Debye):
    X=             -1.1612    Y=             -1.3215    Z=              0.0000  Tot=              1.7592

 Test job not archived.
 1\1\GINC-SE117\SP\RHF\Aug-CC-pVDZ\Cl1H3S1\OHZDE\09-Apr-2025\0\\#t hf a
 ug-cc-pvdz iop(5/13=1,5/36=2,99/5=2) pseudo=read geom=check guess=(rea
 d,tcheck) scf=(maxcycle=1)\\title\\0,1\H,0,-0.07574771,0.51696812,0.\C
 l,0,0.00205903,1.81286821,0.\H,0,0.88100444,-3.12803411,0.97032462\H,0
 ,0.88100444,-3.12803411,-0.97032462\S,0,-0.04424267,-3.07451868,0.\\Ve
 rsion=ES64L-G16RevC.01\State=1-A'\HF=-859.2837589\RMSD=9.327e-02\Dipol
 e=-0.4617619,-0.5155639,0.\Quadrupole=0.4077777,-1.8032439,1.3954663,1
 .8765221,0.,0.\PG=CS [SG(Cl1H1S1),X(H2)]\\@

 Normal termination of Gaussian 16 at Wed Apr  9 19:38:54 2025.
