 Gaussian 16, Revision C.01,

 ----------------------------------------------------------------------
 #t hf aug-cc-pvdz symm=none int=(grid=ultrafine) guess=(read,tcheck) s
 table=(opt,rrhf)
 ----------------------------------------------------------------------
 -----
 title
 -----
 Symbolic Z-matrix:
 Charge =  0 Multiplicity = 1

 SCF Done:  E(RHF) =  -704.615202611     A.U. after   13 cycles
 Normal termination of Gaussian 16 at Wed Apr  9 19:37:24 2025.
 Gaussian 16:  ES64L-G16RevC.01  3-Jul-2019

 ----------------------------------------------------------------------
 #t hf aug-cc-pvdz iop(5/13=1,5/36=2,99/5=2) pseudo=read geom=check gue
 ss=(read,tcheck) scf=(maxcycle=1)
 ----------------------------------------------------------------------
 -----
 title
 -----
 Structure from the checkpoint file:  "HB300SPXx10_1123_4.16_0.90_aceticacid_dimethylsulfide_dimer_mol1.chk"
 Charge =  0 Multiplicity = 1

                         Standard orientation:
 ---------------------------------------------------------------------
 Center     Atomic      Atomic             Coordinates (Angstroms)
 Number     Number       Type             X           Y           Z
 ---------------------------------------------------------------------
      1          6           0        0.273813    1.729349    0.000000
      2          8           0       -0.872404    1.343184    0.000000
      3          8           0        1.328864    0.906834   -0.000000
      4          1           0        1.014360   -0.031411   -0.000000
      5          6           0        0.687238    3.175350    0.000000
      6          1           0       -0.191904    3.809990    0.000000
      7          1           0        1.299066    3.383314    0.876781
      8          1           0        1.299066    3.383314   -0.876781
      9          1           0       -1.680906   -2.296868    1.379195
     10          1           0       -1.268531   -0.559007    1.315483
     11          1           0       -0.298658   -1.679836    2.299403
     12          1           0       -0.298658   -1.679836   -2.299403
     13          1           0       -1.268531   -0.559007   -1.315483
     14          1           0       -1.680906   -2.296868   -1.379195
     15          6           0       -0.872404   -1.569153    1.382643
     16         16           0        0.257903   -1.879518   -0.000000
     17          6           0       -0.872404   -1.569153   -1.382643
 ---------------------------------------------------------------------

 SCF Done:  E(RHF) =  -706.249564424     A.U. after    2 cycles

 The electronic state is 1-A'.
 Alpha  occ. eigenvalues --  -75.68110 -21.08841 -21.03859 -13.14114 -13.12027
 Alpha  occ. eigenvalues --  -13.09091 -11.51499 -11.39268 -11.39102 -11.38849
 Alpha  occ. eigenvalues --   -8.02353  -1.81238  -1.64114  -1.23318  -1.10444
 Alpha  occ. eigenvalues --   -1.03195  -0.88850  -0.79203  -0.63686  -0.61351
 Alpha  occ. eigenvalues --   -0.60580  -0.59744  -0.59403  -0.57916  -0.57011
 Alpha  occ. eigenvalues --   -0.53925  -0.48929  -0.44593  -0.44582  -0.36891
 Alpha  occ. eigenvalues --   -0.32405  -0.28920  -0.22768
 Alpha virt. eigenvalues --    0.03377   0.03850   0.04504   0.05845   0.06153
 Alpha virt. eigenvalues --    0.06285   0.07083   0.07531   0.08016   0.08879
 Alpha virt. eigenvalues --    0.10797   0.11868   0.12015   0.12833   0.14255

 Mulliken charges:
               1
     1  C    5.746657
     2  O   -3.047071
     3  O   -3.572236
     4  H    2.440855
     5  C   -4.475050
     6  H    1.313218
     7  H    1.242344
     8  H    1.242344
     9  H    1.384082
    10  H    1.559386
    11  H    1.450943
    12  H    1.450943
    13  H    1.559386
    14  H    1.384082
    15  C   -4.710929
    16  S   -0.258024
    17  C   -4.710929
 Sum of Mulliken charges =   0.00000

 Dipole moment (field-independent basis, Debye):
    X=              0.9623    Y=             -0.4605    Z=             -0.0000  Tot=              1.0668

 Test job not archived.
 1\1\GINC-SE026\SP\RHF\Aug-CC-pVDZ\C4H10O2S1\OHZDE\09-Apr-2025\0\\#t hf
  aug-cc-pvdz iop(5/13=1,5/36=2,99/5=2) pseudo=read geom=check guess=(r
 ead,tcheck) scf=(maxcycle=1)\\title\\0,1\C,0,0.08152563,1.86646531,0.\
 O,0,1.12794826,1.25988757,0.\O,0,-1.11612638,1.27040068,0.\H,0,-0.9946
 6015,0.28833063,0.\C,0,-0.03582077,3.36582142,0.\H,0,0.95204799,3.8127
 8193,0.\H,0,-0.5940149,3.69140047,-0.87678098\H,0,-0.5940149,3.6914004
 7,0.87678098\H,0,1.19577105,-2.4682562,-1.37919498\H,0,1.13754449,-0.6
 830882,-1.31548339\H,0,-0.03600946,-1.58845155,-2.29940307\H,0,-0.0360

 Normal termination of Gaussian 16 at Wed Apr  9 19:37:28 2025.
