 Gaussian 16, Revision C.01,

 ----------------------------------------------------------------------
 #t hf aug-cc-pvdz symm=none int=(grid=ultrafine) guess=(read,tcheck) s
 table=(opt,rrhf)
 ----------------------------------------------------------------------
 -----
 title
 -----
 Symbolic Z-matrix:
 Charge =  0 Multiplicity = 1

 SCF Done:  E(RHF) =  -1037.70144349     A.U. after   14 cycles
 Normal termination of Gaussian 16 at Wed Apr  9 19:46:50 2025.
 Gaussian 16:  ES64L-G16RevC.01  3-Jul-2019

 ----------------------------------------------------------------------
 #t hf aug-cc-pvdz iop(5/13=1,5/36=2,99/5=2) pseudo=read geom=check gue
 ss=(read,tcheck) scf=(maxcycle=1)
 ----------------------------------------------------------------------
 -----
 title
 -----
 Structure from the checkpoint file:  "HB300SPXx10_1477_5.10_1.10_phosphaalkene_phosphineF2_dimer_mol1.chk"
 Charge =  0 Multiplicity = 1

                         Standard orientation:
 ---------------------------------------------------------------------
 Center     Atomic      Atomic             Coordinates (Angstroms)
 Number     Number       Type             X           Y           Z
 ---------------------------------------------------------------------
      1          1           0       -1.898000   -2.904648   -0.582846
      2          1           0       -0.868421   -2.197150    0.663395
      3          1           0       -2.629992   -2.024955    0.758405
      4          1           0       -1.465825    2.161876   -1.515981
      5          1           0       -0.559239    1.178144    1.991144
      6          1           0       -2.252169    2.751790   -0.046955
      7          1           0       -0.500691    2.629388   -0.108501
      8          1           0       -1.455465   -0.341705    2.003329
      9          1           0       -2.308944    1.204436    2.049504
     10         15           0       -1.684156   -0.518844   -0.963566
     11          6           0       -1.506765    0.749822    0.125902
     12          6           0       -1.426299    2.145670   -0.428301
     13          6           0       -1.454691    0.673269    1.620453
     14          6           0       -1.776993   -2.051021    0.081595
     15         15           0        1.904893    0.255394   -0.216606
     16          9           0        3.501622    0.109312   -0.251973
     17          9           0        1.603973   -0.893785    0.858752
     18          1           0        1.665825   -0.551610   -1.367817
 ---------------------------------------------------------------------

 SCF Done:  E(RHF) =  -1039.58207373     A.U. after    2 cycles

 The electronic state is 1-A.
 Alpha  occ. eigenvalues -- -105.29376-105.15362 -29.29095 -29.28716 -11.43706
 Alpha  occ. eigenvalues --  -11.39471 -11.37426 -11.36616  -2.88670  -2.73921
 Alpha  occ. eigenvalues --   -1.63245  -1.59945  -1.53289  -1.53172  -1.45433
 Alpha  occ. eigenvalues --   -1.34196  -1.19498  -1.02241  -1.00164  -0.90213
 Alpha  occ. eigenvalues --   -0.78320  -0.65041  -0.59920  -0.59065  -0.57143
 Alpha  occ. eigenvalues --   -0.55554  -0.55229  -0.54401  -0.53643  -0.48395
 Alpha  occ. eigenvalues --   -0.46770  -0.40579  -0.36129  -0.34570  -0.28616
 Alpha  occ. eigenvalues --   -0.25876  -0.19911  -0.19291  -0.15096  -0.03056
 Alpha  occ. eigenvalues --   -0.00368
 Alpha virt. eigenvalues --    0.04677   0.05391   0.05998   0.06388   0.06506
 Alpha virt. eigenvalues --    0.06892   0.07291   0.07651   0.08479   0.08982
 Alpha virt. eigenvalues --    0.10209   0.11328   0.11593   0.12179   0.12699

 Mulliken charges:
               1
     1  H    1.218051
     2  H    1.183556
     3  H    1.133466
     4  H    1.281603
     5  H    1.303735
     6  H    1.028414
     7  H    0.683044
     8  H    1.329098
     9  H    1.179320
    10  P    5.635297
    11  C    0.550632
    12  C   -5.770772
    13  C   -4.745586
    14  C   -5.897171
    15  P    1.890273
    16  F   -0.155776
    17  F   -0.630434
    18  H   -1.216752
 Sum of Mulliken charges =  -0.00000

 Dipole moment (field-independent basis, Debye):
    X=              4.0709    Y=             -6.9499    Z=             -1.3875  Tot=              8.1731

 Test job not archived.
 1\1\GINC-SE045\SP\RHF\Aug-CC-pVDZ\C4H10F2P2\OHZDE\09-Apr-2025\0\\#t hf
  aug-cc-pvdz iop(5/13=1,5/36=2,99/5=2) pseudo=read geom=check guess=(r
 ead,tcheck) scf=(maxcycle=1)\\title\\0,1\H,0,-0.66372889,3.26375392,-1
 .41484082\H,0,0.57607353,2.07688321,-1.82463407\H,0,-0.55842324,2.6448
 712,-3.06242126\H,0,-2.87100416,-1.40911587,-1.55416728\H,0,0.42715494
 ,-1.23076192,-3.33739031\H,0,-2.60862974,-1.75549695,-3.26751243\H,0,-
 1.47646146,-2.36750684,-2.07165071\H,0,0.4157342,0.51539066,-3.5906339
 2\H,0,-0.67072928,-0.53226666,-4.50884988\P,0,-1.6570918,1.05342876,-1

 Normal termination of Gaussian 16 at Wed Apr  9 19:46:58 2025.
