 Gaussian 16, Revision C.01,

 ----------------------------------------------------------------------
 #t hf aug-cc-pvdz symm=none int=(grid=ultrafine) guess=(read,tcheck) s
 table=(opt,rrhf)
 ----------------------------------------------------------------------
 -----
 title
 -----
 Symbolic Z-matrix:
 Charge =  0 Multiplicity = 1

 SCF Done:  E(RHF) =  -2555.67227055     A.U. after   14 cycles
 Normal termination of Gaussian 16 at Wed Apr  9 04:10:37 2025.
 Gaussian 16:  ES64L-G16RevC.01  3-Jul-2019

 ----------------------------------------------------------------------
 #t hf aug-cc-pvdz iop(5/13=1,5/36=2,99/5=2) pseudo=read geom=check gue
 ss=(read,tcheck) scf=(maxcycle=1)
 ----------------------------------------------------------------------
 -----
 title
 -----
 Structure from the checkpoint file:  "HB300SPXx10_1271_4.32_0.80_hydrogenfluoride_P4S3_dimer_mol3.chk"
 Charge =  0 Multiplicity = 1

                         Standard orientation:
 ---------------------------------------------------------------------
 Center     Atomic      Atomic             Coordinates (Angstroms)
 Number     Number       Type             X           Y           Z
 ---------------------------------------------------------------------
      1         16           0        0.657052   -0.648011    1.767550
      2         15           0       -1.369311   -0.439191    1.187071
      3         16           0        0.719996    1.839864   -0.299695
      4         16           0        0.744890   -1.209969   -1.401764
      5         15           0       -1.297454   -0.831925   -1.028956
      6         15           0       -1.313753    1.284804   -0.260036
      7         15           0        1.717117    0.005635    0.031424
 ---------------------------------------------------------------------

 SCF Done:  E(RHF) =  -2557.07716961     A.U. after    2 cycles

 The electronic state is 1-A.
 Alpha  occ. eigenvalues -- -105.26118-105.23372-105.23321-105.22259 -75.72323
 Alpha  occ. eigenvalues --  -75.72243 -75.72036 -13.15472 -13.15418 -13.12836
 Alpha  occ. eigenvalues --  -13.12789 -13.12585 -13.07692 -13.06808 -13.04271
 Alpha  occ. eigenvalues --  -13.04049  -8.06586  -8.06469  -8.06149  -2.84279
 Alpha  occ. eigenvalues --   -2.81608  -2.80481  -2.80456  -1.63285  -1.54061
 Alpha  occ. eigenvalues --   -1.53902  -1.53241  -1.51324  -1.51205  -1.50491
 Alpha  occ. eigenvalues --   -1.48199  -1.48039  -1.35727  -1.35699  -1.34719
 Alpha  occ. eigenvalues --   -1.10663  -1.00558  -1.00546  -0.78733  -0.62069
 Alpha  occ. eigenvalues --   -0.51140  -0.51103  -0.35797  -0.35663  -0.25371
 Alpha  occ. eigenvalues --   -0.24252  -0.21159  -0.21095  -0.10759  -0.10700
 Alpha  occ. eigenvalues --   -0.03030   0.00291   0.05050   0.05314
 Alpha virt. eigenvalues --    0.05320   0.08140   0.08156   0.08786   0.09240
 Alpha virt. eigenvalues --    0.09275   0.09814   0.11007   0.11058   0.12678
 Alpha virt. eigenvalues --    0.12963   0.14135   0.14341   0.14343   0.15644

 Mulliken charges:
               1
     1  S   -2.768813
     2  P    1.814448
     3  S   -2.905270
     4  S   -2.838574
     5  P    1.742525
     6  P    1.642359
     7  P    3.313325
 Sum of Mulliken charges =  -0.00000

 Dipole moment (field-independent basis, Debye):
    X=            -22.7312    Y=             -1.3442    Z=              1.4889  Tot=             22.8195

 Test job not archived.
 1\1\GINC-SE039\SP\RHF\Aug-CC-pVDZ\P4S3\OHZDE\09-Apr-2025\0\\#t hf aug-
 cc-pvdz iop(5/13=1,5/36=2,99/5=2) pseudo=read geom=check guess=(read,t
 check) scf=(maxcycle=1)\\title\\0,1\S,0,0.50054833,0.14050822,1.471853
 43\P,0,0.05515558,2.11691482,2.09003828\S,0,-2.56468744,-0.06224484,2.
 48684532\S,0,-0.11990107,-0.20040246,4.61301422\P,0,-0.37864246,1.8681
 4028,4.28551321\P,0,-2.07396232,1.96336821,2.80603144\P,0,-0.71514226,
 -1.04653296,2.76728951\\Version=ES64L-G16RevC.01\State=1-A\HF=-2557.07
 71696\RMSD=2.250e-01\Dipole=0.5245085,8.956505,0.3291719\Quadrupole=-2

 Normal termination of Gaussian 16 at Wed Apr  9 04:10:44 2025.
