 Gaussian 16, Revision C.01,

 ----------------------------------------------------------------------
 #t hf aug-cc-pvdz symm=none int=(grid=ultrafine) guess=(read,tcheck) s
 table=(opt,rrhf)
 ----------------------------------------------------------------------
 -----
 title
 -----
 Symbolic Z-matrix:
 Charge =  0 Multiplicity = 1

 SCF Done:  E(RHF) =  -215.886651006     A.U. after   13 cycles
 Normal termination of Gaussian 16 at Wed Apr  9 19:42:47 2025.
 Gaussian 16:  ES64L-G16RevC.01  3-Jul-2019

 ----------------------------------------------------------------------
 #t hf aug-cc-pvdz iop(5/13=1,5/36=2,99/5=2) pseudo=read geom=check gue
 ss=(read,tcheck) scf=(maxcycle=1)
 ----------------------------------------------------------------------
 -----
 title
 -----
 Structure from the checkpoint file:  "HB300SPXx10_1413_5.04_0.90_ethyne_methylfluoride_dimer_mol1.chk"
 Charge =  0 Multiplicity = 1

                         Standard orientation:
 ---------------------------------------------------------------------
 Center     Atomic      Atomic             Coordinates (Angstroms)
 Number     Number       Type             X           Y           Z
 ---------------------------------------------------------------------
      1          6           0        1.059548    1.133326    0.000000
      2          1           0        0.000000    1.033974    0.000000
      3          6           0        2.251929    1.229201    0.000000
      4          1           0        3.309163    1.321014    0.000000
      5          1           0       -1.392404   -2.024974    0.893893
      6          1           0       -1.392404   -2.024974   -0.893893
      7          1           0        0.041055   -1.440199    0.000000
      8          6           0       -1.044786   -1.511336    0.000000
      9          9           0       -1.573951   -0.219110    0.000000
 ---------------------------------------------------------------------

 SCF Done:  E(RHF) =  -216.807286917     A.U. after    2 cycles

 The electronic state is 1-A'.
 Alpha  occ. eigenvalues --  -29.26113 -11.43781 -11.40513 -11.40235  -1.15240
 Alpha  occ. eigenvalues --   -1.09056  -0.78564  -0.68092  -0.65253  -0.63242
 Alpha  occ. eigenvalues --   -0.62040  -0.38743  -0.38319  -0.38031  -0.25945
 Alpha  occ. eigenvalues --   -0.25890
 Alpha virt. eigenvalues --    0.03493   0.04631   0.05810   0.06595   0.07406
 Alpha virt. eigenvalues --    0.11671   0.11794   0.12735   0.14263   0.14669
 Alpha virt. eigenvalues --    0.14745   0.15752   0.17626   0.17787   0.19010

 Mulliken charges:
               1
     1  C   -0.417188
     2  H    0.743050
     3  C   -0.968807
     4  H    0.559589
     5  H    1.347555
     6  H    1.347555
     7  H    1.207662
     8  C   -4.146863
     9  F    0.327448
 Sum of Mulliken charges =  -0.00000

 Dipole moment (field-independent basis, Debye):
    X=             -0.7750    Y=              0.2026    Z=              0.0000  Tot=              0.8010

 Test job not archived.
 1\1\GINC-SE014\SP\RHF\Aug-CC-pVDZ\C3H5F1\OHZDE\09-Apr-2025\0\\#t hf au
 g-cc-pvdz iop(5/13=1,5/36=2,99/5=2) pseudo=read geom=check guess=(read
 ,tcheck) scf=(maxcycle=1)\\title\\0,1\C,0,0.31595013,-1.6374503,0.\H,0
 ,0.81540337,-0.69773821,0.\C,0,-0.25942719,-2.68621438,0.\H,0,-0.76390
 634,-3.61984886,0.\H,0,-0.97447797,2.14695473,0.8938929\H,0,-0.9744779
 7,2.14695473,-0.8938929\H,0,-1.27397469,0.62805079,0.\C,0,-0.73649903,
 1.57421729,0.\F,0,0.63385592,1.30590355,0.\\Version=ES64L-G16RevC.01\S
 tate=1-A'\HF=-216.8072869\RMSD=8.385e-01\Dipole=0.2341941,0.2108931,0.

 Normal termination of Gaussian 16 at Wed Apr  9 19:42:49 2025.
