 Gaussian 16, Revision C.01,

 ----------------------------------------------------------------------
 #t hf aug-cc-pvdz symm=none int=(grid=ultrafine) guess=(read,tcheck) s
 table=(opt,rrhf)
 ----------------------------------------------------------------------
 -----
 title
 -----
 Symbolic Z-matrix:
 Charge =  0 Multiplicity = 1

 SCF Done:  E(RHF) =  -797.396218605     A.U. after   10 cycles
 Normal termination of Gaussian 16 at Wed Apr  9 19:38:51 2025.
 Gaussian 16:  ES64L-G16RevC.01  3-Jul-2019

 ----------------------------------------------------------------------
 #t hf aug-cc-pvdz iop(5/13=1,5/36=2,99/5=2) pseudo=read geom=check gue
 ss=(read,tcheck) scf=(maxcycle=1)
 ----------------------------------------------------------------------
 -----
 title
 -----
 Structure from the checkpoint file:  "HB300SPXx10_1225_4.27_1.00_sulfane_sulfane_dimer_mol1.chk"
 Charge =  0 Multiplicity = 1

                         Standard orientation:
 ---------------------------------------------------------------------
 Center     Atomic      Atomic             Coordinates (Angstroms)
 Number     Number       Type             X           Y           Z
 ---------------------------------------------------------------------
      1          1           0       -0.736675   -0.079470   -0.111026
      2          1           0       -2.128928    1.263047    0.083203
      3         16           0       -2.077891   -0.074211   -0.002751
      4          1           0        1.954849    0.374419    1.219059
      5          1           0        2.152459    1.133867   -0.555007
      6         16           0        2.000285   -0.094030   -0.037013
 ---------------------------------------------------------------------

 SCF Done:  E(RHF) =  -797.869428386     A.U. after    2 cycles

 The electronic state is 1-A.
 Alpha  occ. eigenvalues --  -75.71372 -75.69291 -13.16110 -13.14354 -13.11257
 Alpha  occ. eigenvalues --  -13.08532 -13.06731 -13.00655  -8.05094  -8.03021
 Alpha  occ. eigenvalues --   -1.12813  -1.10413  -0.56063  -0.54255  -0.44780
 Alpha  occ. eigenvalues --   -0.42900  -0.27011  -0.25032
 Alpha virt. eigenvalues --    0.01243   0.04161   0.05504   0.06028   0.10803
 Alpha virt. eigenvalues --    0.11372   0.12112   0.13639   0.15254   0.15414
 Alpha virt. eigenvalues --    0.15684   0.18905   0.23575   0.24031   0.24613

 Mulliken charges:
               1
     1  H    1.371544
     2  H    0.939498
     3  S   -2.136971
     4  H    1.029684
     5  H    1.060344
     6  S   -2.264098
 Sum of Mulliken charges =   0.00000

 Dipole moment (field-independent basis, Debye):
    X=             -0.2566    Y=             -1.9244    Z=             -0.4594  Tot=              1.9950

 Test job not archived.
 1\1\GINC-SE212\SP\RHF\Aug-CC-pVDZ\H4S2\OHZDE\09-Apr-2025\0\\#t hf aug-
 cc-pvdz iop(5/13=1,5/36=2,99/5=2) pseudo=read geom=check guess=(read,t
 check) scf=(maxcycle=1)\\title\\0,1\H,0,0.53139832,0.64498716,-0.29055
 053\H,0,2.23879772,0.67266195,0.63813986\S,0,1.60273769,1.45777787,-0.
 24349168\H,0,-1.90612452,-0.48526527,1.1238246\H,0,-1.1381538,-2.00082
 436,0.18764989\S,0,-1.75261837,-0.85887592,-0.15526795\\Version=ES64L-
 G16RevC.01\State=1-A\HF=-797.8694284\RMSD=1.523e-01\Dipole=-0.2102471,
 0.4499117,-0.6078311\Quadrupole=0.0194466,0.6623417,-0.6817883,0.22669

 Normal termination of Gaussian 16 at Wed Apr  9 19:38:52 2025.
