 Gaussian 16, Revision C.01,

 ----------------------------------------------------------------------
 #t hf aug-cc-pvdz symm=none int=(grid=ultrafine) guess=(read,tcheck) s
 table=(opt,rrhf)
 ----------------------------------------------------------------------
 -----
 title
 -----
 Symbolic Z-matrix:
 Charge =  0 Multiplicity = 1

 SCF Done:  E(RHF) =  -1037.69944425     A.U. after   14 cycles
 Normal termination of Gaussian 16 at Wed Apr  9 19:46:51 2025.
 Gaussian 16:  ES64L-G16RevC.01  3-Jul-2019

 ----------------------------------------------------------------------
 #t hf aug-cc-pvdz iop(5/13=1,5/36=2,99/5=2) pseudo=read geom=check gue
 ss=(read,tcheck) scf=(maxcycle=1)
 ----------------------------------------------------------------------
 -----
 title
 -----
 Structure from the checkpoint file:  "HB300SPXx10_1475_5.10_1.00_phosphaalkene_phosphineF2_dimer_mol1.chk"
 Charge =  0 Multiplicity = 1

                         Standard orientation:
 ---------------------------------------------------------------------
 Center     Atomic      Atomic             Coordinates (Angstroms)
 Number     Number       Type             X           Y           Z
 ---------------------------------------------------------------------
      1          1           0       -1.672538   -2.932228   -0.589193
      2          1           0       -0.683400   -2.180989    0.664182
      3          1           0       -2.451452   -2.087247    0.747940
      4          1           0       -1.459713    2.149426   -1.515847
      5          1           0       -0.532883    1.203359    1.996345
      6          1           0       -2.280882    2.702372   -0.051502
      7          1           0       -0.525337    2.657892   -0.101825
      8          1           0       -1.360819   -0.354783    2.001642
      9          1           0       -2.282368    1.151905    2.043425
     10         15           0       -1.562372   -0.538900   -0.966796
     11          6           0       -1.448469    0.735288    0.124714
     12          6           0       -1.426489    2.133891   -0.427946
     13          6           0       -1.402642    0.659611    1.619514
     14          6           0       -1.593811   -2.074743    0.076634
     15         15           0        1.764738    0.264790   -0.215411
     16          9           0        3.366573    0.189758   -0.240573
     17          9           0        1.508232   -0.897699    0.857148
     18          1           0        1.569124   -0.550866   -1.368727
 ---------------------------------------------------------------------

 SCF Done:  E(RHF) =  -1039.58281125     A.U. after    2 cycles

 The electronic state is 1-A.
 Alpha  occ. eigenvalues -- -105.29136-105.15500 -29.28934 -29.28384 -11.43900
 Alpha  occ. eigenvalues --  -11.39572 -11.37517 -11.36656  -2.88397  -2.74049
 Alpha  occ. eigenvalues --   -1.63069  -1.59827  -1.53444  -1.53105  -1.45597
 Alpha  occ. eigenvalues --   -1.34924  -1.19593  -1.02340  -1.00216  -0.90100
 Alpha  occ. eigenvalues --   -0.78475  -0.65168  -0.60050  -0.59291  -0.57599
 Alpha  occ. eigenvalues --   -0.55484  -0.55000  -0.54390  -0.53740  -0.48481
 Alpha  occ. eigenvalues --   -0.46693  -0.40348  -0.35979  -0.34390  -0.28512
 Alpha  occ. eigenvalues --   -0.25858  -0.20035  -0.19167  -0.15391  -0.03068
 Alpha  occ. eigenvalues --   -0.00146
 Alpha virt. eigenvalues --    0.04688   0.05410   0.05998   0.06369   0.06482
 Alpha virt. eigenvalues --    0.06887   0.07261   0.07669   0.08500   0.08942
 Alpha virt. eigenvalues --    0.10205   0.11386   0.11669   0.12347   0.12813

 Mulliken charges:
               1
     1  H    1.218764
     2  H    1.196462
     3  H    1.126887
     4  H    1.242312
     5  H    1.337097
     6  H    0.979487
     7  H    0.755653
     8  H    1.372755
     9  H    1.118101
    10  P    5.712508
    11  C    0.408450
    12  C   -5.752211
    13  C   -4.656007
    14  C   -5.968162
    15  P    1.945528
    16  F   -0.117969
    17  F   -0.678886
    18  H   -1.240769
 Sum of Mulliken charges =  -0.00000

 Dipole moment (field-independent basis, Debye):
    X=              4.7985    Y=             -6.9282    Z=             -1.4335  Tot=              8.5487

 Test job not archived.
 1\1\GINC-SE037\SP\RHF\Aug-CC-pVDZ\C4H10F2P2\OHZDE\09-Apr-2025\0\\#t hf
  aug-cc-pvdz iop(5/13=1,5/36=2,99/5=2) pseudo=read geom=check guess=(r
 ead,tcheck) scf=(maxcycle=1)\\title\\0,1\H,0,-0.66372889,3.26375392,-1
 .41484082\H,0,0.57607353,2.07688321,-1.82463407\H,0,-0.55842324,2.6448
 712,-3.06242126\H,0,-2.87100416,-1.40911587,-1.55416728\H,0,0.42715494
 ,-1.23076192,-3.33739031\H,0,-2.60862974,-1.75549695,-3.26751243\H,0,-
 1.47646146,-2.36750684,-2.07165071\H,0,0.4157342,0.51539066,-3.5906339
 2\H,0,-0.67072928,-0.53226666,-4.50884988\P,0,-1.6570918,1.05342876,-1

 Normal termination of Gaussian 16 at Wed Apr  9 19:46:59 2025.
