 Gaussian 16, Revision C.01,

 ----------------------------------------------------------------------
 #t hf aug-cc-pvdz symm=none int=(grid=ultrafine) guess=(read,tcheck) s
 table=(opt,rrhf)
 ----------------------------------------------------------------------
 -----
 title
 -----
 Symbolic Z-matrix:
 Charge =  0 Multiplicity = 1

 SCF Done:  E(RHF) =  -936.860859906     A.U. after   11 cycles
 Normal termination of Gaussian 16 at Wed Apr  9 04:10:26 2025.
 Gaussian 16:  ES64L-G16RevC.01  3-Jul-2019

 ----------------------------------------------------------------------
 #t hf aug-cc-pvdz iop(5/13=1,5/36=2,99/5=2) pseudo=read geom=check gue
 ss=(read,tcheck) scf=(maxcycle=1)
 ----------------------------------------------------------------------
 -----
 title
 -----
 Structure from the checkpoint file:  "HB300SPXx10_1326_4.37_1.05_hydrogenchloride_dimethylsulfide_dimer_mol1.chk"
 Charge =  0 Multiplicity = 1

                         Standard orientation:
 ---------------------------------------------------------------------
 Center     Atomic      Atomic             Coordinates (Angstroms)
 Number     Number       Type             X           Y           Z
 ---------------------------------------------------------------------
      1          1           0       -1.111698   -0.000003   -0.436214
      2         17           0       -2.347762   -0.000002    0.038963
      3          1           0        0.453981   -1.354202    1.225819
      4          1           0        2.225776   -1.365704    1.008608
      5          1           0        1.186645   -2.299390   -0.082255
      6          1           0        1.186636    2.299393   -0.082256
      7          1           0        2.225767    1.365710    1.008611
      8          1           0        0.453971    1.354203    1.225816
      9          6           0        1.264380   -1.385386    0.500620
     10         16           0        1.132398    0.000000   -0.658621
     11          6           0        1.264372    1.385388    0.500619
 ---------------------------------------------------------------------

 SCF Done:  E(RHF) =  -937.775429371     A.U. after    2 cycles

 The electronic state is 1-A.
 Alpha  occ. eigenvalues --  -99.88227 -75.69211 -13.12263 -13.12026 -13.09173
 Alpha  occ. eigenvalues --  -11.40541 -11.40371 -10.45283  -9.65357  -9.64589
 Alpha  occ. eigenvalues --   -9.64566  -8.03336  -1.27856  -1.24003  -1.04453
 Alpha  occ. eigenvalues --   -0.89659  -0.67375  -0.61386  -0.61228  -0.59200
 Alpha  occ. eigenvalues --   -0.58280  -0.50486  -0.50446  -0.45767  -0.38249
 Alpha  occ. eigenvalues --   -0.25194
 Alpha virt. eigenvalues --    0.02750   0.03578   0.05050   0.05888   0.07154
 Alpha virt. eigenvalues --    0.07303   0.08262   0.08979   0.10873   0.11802
 Alpha virt. eigenvalues --    0.12678   0.15270   0.15492   0.15607   0.16289

 Mulliken charges:
               1
     1  H    0.832177
     2  Cl  -0.704719
     3  H    1.320707
     4  H    1.415877
     5  H    1.393047
     6  H    1.393047
     7  H    1.415876
     8  H    1.320707
     9  C   -4.429818
    10  S    0.472915
    11  C   -4.429816
 Sum of Mulliken charges =  -0.00000

 Dipole moment (field-independent basis, Debye):
    X=              3.0670    Y=              0.0000    Z=             -0.5634  Tot=              3.1183

 Test job not archived.
 1\1\GINC-SE393\SP\RHF\Aug-CC-pVDZ\C2H7Cl1S1\OHZDE\09-Apr-2025\0\\#t hf
  aug-cc-pvdz iop(5/13=1,5/36=2,99/5=2) pseudo=read geom=check guess=(r
 ead,tcheck) scf=(maxcycle=1)\\title\\0,1\H,0,-0.09169332,-0.01707414,-
 1.03147385\Cl,0,0.64323048,-0.44620369,-2.04605842\H,0,1.51608184,0.81
 403496,0.91065923\H,0,0.86411847,1.2504906,2.5140997\H,0,0.62541215,2.
 33066211,1.12925528\H,0,-1.42726946,-1.77696108,1.37972501\H,0,-0.3550
 5224,-1.18920426,2.66286216\H,0,0.30717604,-1.60510663,1.05816543\C,0,
 0.69474552,1.29170678,1.44063013\S,0,-0.87892184,0.50124643,1.0171956\

 Normal termination of Gaussian 16 at Wed Apr  9 04:10:29 2025.
