 Gaussian 16, Revision C.01,

 ----------------------------------------------------------------------
 #t hf aug-cc-pvdz symm=none int=(grid=ultrafine) guess=(read,tcheck) s
 table=(opt,rrhf)
 ----------------------------------------------------------------------
 -----
 title
 -----
 Symbolic Z-matrix:
 Charge =  0 Multiplicity = 1

 SCF Done:  E(RHF) =  -977.995288356     A.U. after   12 cycles
 Normal termination of Gaussian 16 at Wed Apr  9 19:43:50 2025.
 Gaussian 16:  ES64L-G16RevC.01  3-Jul-2019

 ----------------------------------------------------------------------
 #t hf aug-cc-pvdz iop(5/13=1,5/36=2,99/5=2) pseudo=read geom=check gue
 ss=(read,tcheck) scf=(maxcycle=1)
 ----------------------------------------------------------------------
 -----
 title
 -----
 Structure from the checkpoint file:  "HB300SPXx10_1447_5.07_1.10_methanethiol_phosphineF2_dimer_mol1.chk"
 Charge =  0 Multiplicity = 1

                         Standard orientation:
 ---------------------------------------------------------------------
 Center     Atomic      Atomic             Coordinates (Angstroms)
 Number     Number       Type             X           Y           Z
 ---------------------------------------------------------------------
      1          1           0        1.676804    1.673643   -0.099055
      2          1           0        2.306248    0.911629   -1.566191
      3          1           0        3.410326    1.264151   -0.227981
      4          1           0        2.117917   -0.435773    1.440903
      5          6           0        2.399819    0.962053   -0.484890
      6         16           0        2.045778   -0.715479    0.130876
      7         15           0       -1.327458   -0.252760   -0.267502
      8          9           0       -1.010873    0.934157    0.764665
      9          9           0       -2.928476   -0.116374   -0.254752
     10          1           0       -1.276641   -1.306950    0.690948
 ---------------------------------------------------------------------

 SCF Done:  E(RHF) =  -979.312188936     A.U. after    2 cycles

 The electronic state is 1-A.
 Alpha  occ. eigenvalues -- -105.28924 -75.69553 -29.28678 -29.28167 -13.13144
 Alpha  occ. eigenvalues --  -13.08285 -13.05721 -11.40397  -8.03448  -2.88206
 Alpha  occ. eigenvalues --   -1.62333  -1.58964  -1.52263  -1.19305  -0.95032
 Alpha  occ. eigenvalues --   -0.89704  -0.60911  -0.59749  -0.55839  -0.50177
 Alpha  occ. eigenvalues --   -0.46374  -0.40454  -0.40021  -0.35723  -0.34052
 Alpha  occ. eigenvalues --   -0.28717  -0.25564  -0.24458  -0.18980  -0.00281
 Alpha virt. eigenvalues --    0.03652   0.04299   0.06053   0.06840   0.07969
 Alpha virt. eigenvalues --    0.09682   0.10647   0.11958   0.12787   0.14812
 Alpha virt. eigenvalues --    0.15011   0.15438   0.16403   0.16882   0.19396

 Mulliken charges:
               1
     1  H    1.014085
     2  H    0.678960
     3  H    1.226800
     4  H    1.109981
     5  C   -3.945301
     6  S   -0.683019
     7  P    2.137636
     8  F   -0.313218
     9  F   -0.142549
    10  H   -1.083374
 Sum of Mulliken charges =  -0.00000

 Dipole moment (field-independent basis, Debye):
    X=             -8.1337    Y=              0.2290    Z=              3.3159  Tot=              8.7866

 Test job not archived.
 1\1\GINC-SE045\SP\RHF\Aug-CC-pVDZ\C1H5F2P1S1\OHZDE\09-Apr-2025\0\\#t h
 f aug-cc-pvdz iop(5/13=1,5/36=2,99/5=2) pseudo=read geom=check guess=(
 read,tcheck) scf=(maxcycle=1)\\title\\0,1\H,0,-1.72434823,-0.02735536,
 -1.47402619\H,0,-1.29643549,-1.41515971,-2.4840979\H,0,-1.57230153,0.1
 6002765,-3.24353895\H,0,0.52779021,1.28305094,-1.94983564\C,0,-1.18500
 823,-0.34129171,-2.36202164\S,0,0.60124692,-0.03772908,-2.17289215\P,0
 ,0.52832942,-1.07483949,1.09369948\F,0,-0.50927512,0.14637323,1.173590
 2\F,0,0.60745046,-1.3823755,2.6688767\H,0,1.70637515,-0.27277318,1.055

 Normal termination of Gaussian 16 at Wed Apr  9 19:43:53 2025.
