 Gaussian 16, Revision C.01,

 ----------------------------------------------------------------------
 #t hf aug-cc-pvdz symm=none int=(grid=ultrafine) guess=(read,tcheck) s
 table=(opt,rrhf)
 ----------------------------------------------------------------------
 -----
 title
 -----
 Symbolic Z-matrix:
 Charge =  0 Multiplicity = 1

 SCF Done:  E(RHF) =  -1037.68389531     A.U. after   15 cycles
 Normal termination of Gaussian 16 at Wed Apr  9 19:46:56 2025.
 Gaussian 16:  ES64L-G16RevC.01  3-Jul-2019

 ----------------------------------------------------------------------
 #t hf aug-cc-pvdz iop(5/13=1,5/36=2,99/5=2) pseudo=read geom=check gue
 ss=(read,tcheck) scf=(maxcycle=1)
 ----------------------------------------------------------------------
 -----
 title
 -----
 Structure from the checkpoint file:  "HB300SPXx10_1471_5.10_0.80_phosphaalkene_phosphineF2_dimer_mol1.chk"
 Charge =  0 Multiplicity = 1

                         Standard orientation:
 ---------------------------------------------------------------------
 Center     Atomic      Atomic             Coordinates (Angstroms)
 Number     Number       Type             X           Y           Z
 ---------------------------------------------------------------------
      1          1           0        1.096271    2.994128   -0.607939
      2          1           0        0.235563    2.126223    0.664706
      3          1           0        2.001724    2.266264    0.718332
      4          1           0        1.538560   -2.076387   -1.514273
      5          1           0        0.553842   -1.241168    2.010253
      6          1           0        2.449583   -2.508502   -0.062486
      7          1           0        0.702857   -2.695548   -0.082738
      8          1           0        1.169531    0.412326    1.996239
      9          1           0        2.281885   -0.959837    2.027055
     10         15           0        1.295713    0.605063   -0.975810
     11          6           0        1.368626   -0.667031    0.121633
     12          6           0        1.521677   -2.059389   -0.426019
     13          6           0        1.338105   -0.589840    1.616747
     14          6           0        1.142140    2.137403    0.061927
     15         15           0       -1.483720   -0.313191   -0.211643
     16          9           0       -3.081695   -0.449601   -0.209481
     17          9           0       -1.364602    0.878800    0.852560
     18          1           0       -1.416337    0.514767   -1.370798
 ---------------------------------------------------------------------

 SCF Done:  E(RHF) =  -1039.57580335     A.U. after    2 cycles

 The electronic state is 1-A.
 Alpha  occ. eigenvalues -- -105.28449-105.15765 -29.28520 -29.27268 -11.44500
 Alpha  occ. eigenvalues --  -11.39918 -11.37867 -11.36580  -2.87702  -2.74349
 Alpha  occ. eigenvalues --   -1.62743  -1.59514  -1.53908  -1.52921  -1.46064
 Alpha  occ. eigenvalues --   -1.36948  -1.20001  -1.02714  -1.00420  -0.90087
 Alpha  occ. eigenvalues --   -0.78973  -0.65605  -0.61254  -0.60468  -0.58783
 Alpha  occ. eigenvalues --   -0.55686  -0.54943  -0.54129  -0.53159  -0.48823
 Alpha  occ. eigenvalues --   -0.46385  -0.39169  -0.35421  -0.33778  -0.27988
 Alpha  occ. eigenvalues --   -0.26176  -0.20504  -0.18830  -0.15870  -0.03012
 Alpha  occ. eigenvalues --    0.00482
 Alpha virt. eigenvalues --    0.04678   0.05460   0.05981   0.06330   0.06401
 Alpha virt. eigenvalues --    0.06838   0.07235   0.07709   0.08565   0.08844
 Alpha virt. eigenvalues --    0.10173   0.11352   0.11905   0.12629   0.13056

 Mulliken charges:
               1
     1  H    1.214921
     2  H    1.199933
     3  H    1.094321
     4  H    1.133819
     5  H    1.317374
     6  H    0.852868
     7  H    0.818057
     8  H    1.533238
     9  H    0.954467
    10  P    6.150858
    11  C    0.186888
    12  C   -5.827670
    13  C   -4.555048
    14  C   -6.048106
    15  P    2.047708
    16  F    0.051380
    17  F   -0.732247
    18  H   -1.392761
 Sum of Mulliken charges =   0.00000

 Dipole moment (field-independent basis, Debye):
    X=             -7.3310    Y=              6.8800    Z=             -1.5930  Tot=             10.1792

 Test job not archived.
 1\1\GINC-SE014\SP\RHF\Aug-CC-pVDZ\C4H10F2P2\OHZDE\09-Apr-2025\0\\#t hf
  aug-cc-pvdz iop(5/13=1,5/36=2,99/5=2) pseudo=read geom=check guess=(r
 ead,tcheck) scf=(maxcycle=1)\\title\\0,1\H,0,-0.66372889,3.26375392,-1
 .41484082\H,0,0.57607353,2.07688321,-1.82463407\H,0,-0.55842324,2.6448
 712,-3.06242126\H,0,-2.87100416,-1.40911587,-1.55416728\H,0,0.42715494
 ,-1.23076192,-3.33739031\H,0,-2.60862974,-1.75549695,-3.26751243\H,0,-
 1.47646146,-2.36750684,-2.07165071\H,0,0.4157342,0.51539066,-3.5906339
 2\H,0,-0.67072928,-0.53226666,-4.50884988\P,0,-1.6570918,1.05342876,-1

 Normal termination of Gaussian 16 at Wed Apr  9 19:47:04 2025.
