 Gaussian 16, Revision C.01,

 ----------------------------------------------------------------------
 #t hf aug-cc-pvdz symm=none int=(grid=ultrafine) guess=(read,tcheck) s
 table=(opt,rrhf)
 ----------------------------------------------------------------------
 -----
 title
 -----
 Symbolic Z-matrix:
 Charge =  0 Multiplicity = 1

 SCF Done:  E(RHF) =  -989.365595184     A.U. after   13 cycles
 Normal termination of Gaussian 16 at Wed Apr  9 19:37:14 2025.
 Gaussian 16:  ES64L-G16RevC.01  3-Jul-2019

 ----------------------------------------------------------------------
 #t hf aug-cc-pvdz iop(5/13=1,5/36=2,99/5=2) pseudo=read geom=check gue
 ss=(read,tcheck) scf=(maxcycle=1)
 ----------------------------------------------------------------------
 -----
 title
 -----
 Structure from the checkpoint file:  "HB300SPXx10_1145_4.19_1.00_methanol_dimethyldisulfide_dimer_mol1.chk"
 Charge =  0 Multiplicity = 1

                         Standard orientation:
 ---------------------------------------------------------------------
 Center     Atomic      Atomic             Coordinates (Angstroms)
 Number     Number       Type             X           Y           Z
 ---------------------------------------------------------------------
      1          8           0        2.805431    0.207203   -0.141433
      2          1           0        1.978506    0.378497   -0.608138
      3          6           0        2.820838   -1.157666    0.247008
      4          1           0        3.742780   -1.324440    0.799877
      5          1           0        1.976795   -1.409118    0.895638
      6          1           0        2.808919   -1.829710   -0.615853
      7          1           0       -3.150538   -1.732812    0.579290
      8          1           0       -3.286174   -0.461728   -0.655300
      9          1           0       -2.978611   -0.031789    1.049093
     10          1           0        0.693059    1.366355    1.384300
     11          1           0       -1.010145    1.918046    1.422598
     12          1           0        0.204982    2.827884    0.503389
     13          6           0       -2.786582   -0.756286    0.262713
     14         16           0       -0.999462   -0.952918   -0.021286
     15         16           0       -0.436523    0.897629   -0.704763
     16          6           0       -0.108797    1.834922    0.822504
 ---------------------------------------------------------------------

 SCF Done:  E(RHF) =  -990.764747430     A.U. after    2 cycles

 The electronic state is 1-A.
 Alpha  occ. eigenvalues --  -75.70905 -75.70605 -21.04853 -13.15111 -13.11949
 Alpha  occ. eigenvalues --  -13.11482 -13.10172 -13.08734 -13.04475 -11.40551
 Alpha  occ. eigenvalues --  -11.40278 -11.38596  -8.04907  -8.04661  -1.68465
 Alpha  occ. eigenvalues --   -1.27336  -1.13345  -0.98877  -0.96150  -0.87516
 Alpha  occ. eigenvalues --   -0.62793  -0.60908  -0.60088  -0.59801  -0.59099
 Alpha  occ. eigenvalues --   -0.58322  -0.52668  -0.47821  -0.43841  -0.40354
 Alpha  occ. eigenvalues --   -0.34484  -0.30417  -0.25890  -0.24405
 Alpha virt. eigenvalues --    0.02428   0.03396   0.03992   0.04629   0.06459
 Alpha virt. eigenvalues --    0.06986   0.07659   0.08178   0.08410   0.08811
 Alpha virt. eigenvalues --    0.09733   0.10750   0.12670   0.12788   0.14018

 Mulliken charges:
               1
     1  O   -2.472143
     2  H    1.461807
     3  C   -2.575633
     4  H    1.249411
     5  H    1.324580
     6  H    1.311218
     7  H    1.376501
     8  H    1.495374
     9  H    1.500121
    10  H    1.480979
    11  H    1.519394
    12  H    1.423341
    13  C   -5.051804
    14  S    0.832716
    15  S   -0.385307
    16  C   -4.490555
 Sum of Mulliken charges =  -0.00000

 Dipole moment (field-independent basis, Debye):
    X=             -1.0057    Y=             -0.6076    Z=             -0.3323  Tot=              1.2211

 Test job not archived.
 1\1\GINC-SE362\SP\RHF\Aug-CC-pVDZ\C3H10O1S2\OHZDE\09-Apr-2025\0\\#t hf
  aug-cc-pvdz iop(5/13=1,5/36=2,99/5=2) pseudo=read geom=check guess=(r
 ead,tcheck) scf=(maxcycle=1)\\title\\0,1\O,0,-0.42925951,1.22968046,-2
 .50380826\H,0,-0.36156068,1.36890772,-1.5514469\C,0,-1.37991091,0.2017
 0921,-2.7351714\H,0,-1.41855104,0.0350798,-3.80950666\H,0,-1.09677682,
 -0.73598734,-2.24842974\H,0,-2.37984798,0.48334645,-2.39294418\H,0,-0.
 52987596,-2.5686612,2.52800425\H,0,-0.06444334,-0.99788072,3.21668684\
 H,0,1.10239216,-1.93628062,2.24596499\H,0,1.73014455,-0.07289244,-1.17

 Normal termination of Gaussian 16 at Wed Apr  9 19:37:19 2025.
