 Gaussian 16, Revision C.01,

 ----------------------------------------------------------------------
 #t hf aug-cc-pvdz symm=none int=(grid=ultrafine) guess=(read,tcheck) s
 table=(opt,rrhf)
 ----------------------------------------------------------------------
 -----
 title
 -----
 Symbolic Z-matrix:
 Charge =  0 Multiplicity = 1

 SCF Done:  E(RHF) =  -552.786626634     A.U. after   12 cycles
 Normal termination of Gaussian 16 at Wed Apr  9 19:37:50 2025.
 Gaussian 16:  ES64L-G16RevC.01  3-Jul-2019

 ----------------------------------------------------------------------
 #t hf aug-cc-pvdz iop(5/13=1,5/36=2,99/5=2) pseudo=read geom=check gue
 ss=(read,tcheck) scf=(maxcycle=1)
 ----------------------------------------------------------------------
 -----
 title
 -----
 Structure from the checkpoint file:  "HB300SPXx10_1152_4.20_0.85_methanol_methanethiol_dimer_mol1.chk"
 Charge =  0 Multiplicity = 1

                         Standard orientation:
 ---------------------------------------------------------------------
 Center     Atomic      Atomic             Coordinates (Angstroms)
 Number     Number       Type             X           Y           Z
 ---------------------------------------------------------------------
      1          8           0       -1.492184   -0.291476    0.704519
      2          1           0       -0.656061   -0.662093    0.392060
      3          6           0       -2.232170    0.142867   -0.423077
      4          1           0       -3.153225    0.589077   -0.054130
      5          1           0       -1.693180    0.899066   -1.003379
      6          1           0       -2.492246   -0.685025   -1.089046
      7          1           0        0.391543    1.385609    0.841341
      8          1           0        0.907775    1.656332   -0.829662
      9          1           0        2.124262    1.602576    0.451535
     10          1           0        1.688930   -0.970419    1.014440
     11          6           0        1.176307    1.193688    0.116255
     12         16           0        1.322178   -0.593915   -0.219899
 ---------------------------------------------------------------------

 SCF Done:  E(RHF) =  -553.755883954     A.U. after    2 cycles

 The electronic state is 1-A.
 Alpha  occ. eigenvalues --  -75.69786 -21.03925 -13.15579 -13.10730 -13.09024
 Alpha  occ. eigenvalues --  -11.40537 -11.38848  -8.03801  -1.68485  -1.19843
 Alpha  occ. eigenvalues --   -0.96530  -0.95352  -0.63664  -0.60988  -0.59831
 Alpha  occ. eigenvalues --   -0.58111  -0.52961  -0.50552  -0.41349  -0.39800
 Alpha  occ. eigenvalues --   -0.30128  -0.24446
 Alpha virt. eigenvalues --    0.02801   0.04101   0.04379   0.05853   0.06895
 Alpha virt. eigenvalues --    0.07234   0.08233   0.09989   0.10093   0.11208
 Alpha virt. eigenvalues --    0.13453   0.14922   0.15379   0.15574   0.16349

 Mulliken charges:
               1
     1  O   -2.555058
     2  H    1.964818
     3  C   -2.577862
     4  H    1.244389
     5  H    1.362280
     6  H    1.265591
     7  H    1.355770
     8  H    1.556866
     9  H    1.288314
    10  H    1.144825
    11  C   -4.542354
    12  S   -1.507580
 Sum of Mulliken charges =  -0.00000

 Dipole moment (field-independent basis, Debye):
    X=              0.3909    Y=              0.3749    Z=             -1.3826  Tot=              1.4849

 Test job not archived.
 1\1\GINC-SE018\SP\RHF\Aug-CC-pVDZ\C2H8O1S1\OHZDE\09-Apr-2025\0\\#t hf
 aug-cc-pvdz iop(5/13=1,5/36=2,99/5=2) pseudo=read geom=check guess=(re
 ad,tcheck) scf=(maxcycle=1)\\title\\0,1\O,0,-1.11765515,0.11430785,-1.
 55067005\H,0,-0.42321658,-0.33845143,-1.05382579\C,0,-0.58571066,1.330
 64039,-2.0459227\H,0,-1.38742324,1.84483596,-2.57168664\H,0,-0.2297527
 6,1.98264255,-1.24138273\H,0,0.23685112,1.16511886,-2.74774471\H,0,-1.
 30861719,0.53493335,0.9325474\H,0,0.16620315,1.40427764,1.38107912\H,0
 ,-0.49683561,0.1992888,2.4912941\H,0,-0.04987668,-1.84627403,0.8352202

 Normal termination of Gaussian 16 at Wed Apr  9 19:37:54 2025.
