 Gaussian 16, Revision C.01,

 ----------------------------------------------------------------------
 #t hf aug-cc-pvdz symm=none int=(grid=ultrafine) guess=(read,tcheck) s
 table=(opt,rrhf)
 ----------------------------------------------------------------------
 -----
 title
 -----
 Symbolic Z-matrix:
 Charge =  0 Multiplicity = 1

 SCF Done:  E(RHF) =  -952.351169978     A.U. after   14 cycles

 1\1\GINC-SE226\Stability\RHF\Aug-CC-pVDZ\C4H10S2\OHZDE\09-Apr-2025\0\\
 #t hf aug-cc-pvdz symm=none int=(grid=ultrafine) guess=(read,tcheck) s
 table=(opt,rrhf)\\title\\0,1\H,0,1.94048627,-0.28311522,0.30003006\H,0
 ,2.70886397,-1.74966836,-0.33633756\H,0,2.5169729,-1.54996222,1.410513
 58\H,0,-0.19256655,-1.5118813,1.21090974\C,0,2.06439688,-1.35234501,0.
 4434425\S,0,0.46794236,-2.21627191,0.2804649\H,0,-2.34597254,0.2805714
 5,0.26363496\H,0,-2.40393703,0.73704709,-1.45253423\H,0,-1.76206584,-0
 .82963605,-0.9990611\H,0,1.2996488,1.21272496,-1.79165204\H,0,0.523104

 Normal termination of Gaussian 16 at Wed Apr  9 19:35:22 2025.
 Gaussian 16:  ES64L-G16RevC.01  3-Jul-2019

 ----------------------------------------------------------------------
 #t hf aug-cc-pvdz iop(5/13=1,5/36=2,99/5=2) pseudo=read geom=check gue
 ss=(read,tcheck) scf=(maxcycle=1)
 ----------------------------------------------------------------------
 -----
 title
 -----
 Structure from the checkpoint file:  "HB300SPXx10_1022_4.06_0.85_methanethiol_thioacetone_dimer_mol1.chk"
 Charge =  0 Multiplicity = 1

                         Standard orientation:
 ---------------------------------------------------------------------
 Center     Atomic      Atomic             Coordinates (Angstroms)
 Number     Number       Type             X           Y           Z
 ---------------------------------------------------------------------
      1          1           0        0.969212   -1.360769    0.650477
      2          1           0        2.439980   -0.815971    1.478839
      3          1           0        2.571635   -1.695728   -0.049850
      4          1           0        1.244590    0.251954   -1.402028
      5          6           0        1.976460   -0.980268    0.509604
      6         16           0        1.945356    0.638985   -0.326249
      7          1           0       -1.499741    1.320310   -1.675225
      8          1           0       -2.303090    2.024172   -0.255304
      9          1           0       -0.560386    2.138357   -0.403879
     10          1           0       -1.079444   -0.585757    2.142357
     11          1           0       -0.157104    0.899010    1.819475
     12          6           0       -1.416302    1.490804   -0.607359
     13          6           0       -1.261964    0.209342    0.151571
     14         16           0       -1.254691   -1.245877   -0.576853
     15          6           0       -1.095129    0.370414    1.630551
     16          1           0       -1.894675    0.992947    2.038574
 ---------------------------------------------------------------------

 SCF Done:  E(RHF) =  -953.624767004     A.U. after    2 cycles

 The electronic state is 1-A.
 Alpha  occ. eigenvalues --  -75.68209 -75.65855 -13.15641 -13.13254 -13.07979
 Alpha  occ. eigenvalues --  -13.06268 -13.04910 -13.01363 -11.48187 -11.40573
 Alpha  occ. eigenvalues --  -11.39180 -11.38323  -8.02135  -8.00158  -1.28764
 Alpha  occ. eigenvalues --   -1.18128  -1.04551  -1.03575  -0.93950  -0.75217
 Alpha  occ. eigenvalues --   -0.62078  -0.61020  -0.60333  -0.59766  -0.58469
 Alpha  occ. eigenvalues --   -0.55367  -0.50435  -0.48905  -0.41681  -0.39382
 Alpha  occ. eigenvalues --   -0.32062  -0.24429  -0.21716
 Alpha virt. eigenvalues --    0.02718   0.03656   0.04770   0.05446   0.06040
 Alpha virt. eigenvalues --    0.06595   0.06902   0.07335   0.07844   0.08652
 Alpha virt. eigenvalues --    0.09265   0.10654   0.10907   0.12102   0.13075

 Mulliken charges:
               1
     1  H    2.002095
     2  H    1.421203
     3  H    1.285443
     4  H    1.086017
     5  C   -4.731299
     6  S   -0.954875
     7  H    1.457114
     8  H    1.133143
     9  H    1.383855
    10  H    1.469553
    11  H    1.452282
    12  C   -4.547931
    13  C    0.662195
    14  S    0.518422
    15  C   -4.785107
    16  H    1.147892
 Sum of Mulliken charges =  -0.00000

 Dipole moment (field-independent basis, Debye):
    X=              0.6726    Y=              0.1898    Z=              0.7106  Tot=              0.9967

 Test job not archived.
 1\1\GINC-SE226\SP\RHF\Aug-CC-pVDZ\C4H10S2\OHZDE\09-Apr-2025\0\\#t hf a
 ug-cc-pvdz iop(5/13=1,5/36=2,99/5=2) pseudo=read geom=check guess=(rea
 d,tcheck) scf=(maxcycle=1)\\title\\0,1\H,0,1.94048627,-0.28311522,0.30
 003006\H,0,2.70886397,-1.74966836,-0.33633756\H,0,2.5169729,-1.5499622
 2,1.41051358\H,0,-0.19256655,-1.5118813,1.21090974\C,0,2.06439688,-1.3
 5234501,0.4434425\S,0,0.46794236,-2.21627191,0.2804649\H,0,-2.34597254
 ,0.28057145,0.26363496\H,0,-2.40393703,0.73704709,-1.45253423\H,0,-1.7
 6206584,-0.82963605,-0.9990611\H,0,1.2996488,1.21272496,-1.79165204\H,

 Normal termination of Gaussian 16 at Wed Apr  9 19:35:28 2025.
