 Gaussian 16, Revision C.01,

 ----------------------------------------------------------------------
 #t hf aug-cc-pvdz symm=none int=(grid=ultrafine) guess=(read,tcheck) s
 table=(opt,rrhf)
 ----------------------------------------------------------------------
 -----
 title
 -----
 Symbolic Z-matrix:
 Charge =  0 Multiplicity = 1

 SCF Done:  E(RHF) =  -855.901460011     A.U. after   14 cycles
 Normal termination of Gaussian 16 at Wed Apr  9 19:34:55 2025.
 Gaussian 16:  ES64L-G16RevC.01  3-Jul-2019

 ----------------------------------------------------------------------
 #t hf aug-cc-pvdz iop(5/13=1,5/36=2,99/5=2) pseudo=read geom=check gue
 ss=(read,tcheck) scf=(maxcycle=1)
 ----------------------------------------------------------------------
 -----
 title
 -----
 Structure from the checkpoint file:  "HB300SPXx10_1032_4.07_0.85_phosphaalkyne_methanethiol_dimer_mol1.chk"
 Charge =  0 Multiplicity = 1

                         Standard orientation:
 ---------------------------------------------------------------------
 Center     Atomic      Atomic             Coordinates (Angstroms)
 Number     Number       Type             X           Y           Z
 ---------------------------------------------------------------------
      1          1           0       -1.001534    2.135653    1.294419
      2          1           0       -1.274623    2.530703   -0.404911
      3          1           0        0.242984    1.770168    0.087633
      4         15           0       -2.011558   -0.919976   -0.170163
      5          6           0       -1.413026    0.480945    0.057860
      6          6           0       -0.833898    1.795558    0.270857
      7          1           0        0.787503   -0.197260    1.542103
      8          1           0        2.523000   -0.548458    1.612350
      9          1           0        1.407971   -1.758062    0.961171
     10          1           0        0.692050   -0.204161   -1.105043
     11          6           0        1.611307   -0.694171    1.039032
     12         16           0        1.913108    0.036066   -0.602611
 ---------------------------------------------------------------------

 SCF Done:  E(RHF) =  -856.936116618     A.U. after    2 cycles

 The electronic state is 1-A.
 Alpha  occ. eigenvalues -- -105.17191 -75.67845 -13.12103 -13.07482 -13.05765
 Alpha  occ. eigenvalues --  -11.45395 -11.40264 -11.39550  -8.01796  -2.75447
 Alpha  occ. eigenvalues --   -1.57068  -1.36169  -1.35159  -1.18630  -1.13809
 Alpha  occ. eigenvalues --   -0.94079  -0.78474  -0.61138  -0.60032  -0.59286
 Alpha  occ. eigenvalues --   -0.59024  -0.57473  -0.49008  -0.39317  -0.23919
 Alpha  occ. eigenvalues --   -0.16586  -0.16280  -0.06892
 Alpha virt. eigenvalues --    0.03074   0.04224   0.05874   0.05982   0.06597
 Alpha virt. eigenvalues --    0.07556   0.08040   0.08475   0.08643   0.10000
 Alpha virt. eigenvalues --    0.11547   0.12996   0.13428   0.14645   0.14915

 Mulliken charges:
               1
     1  H    1.248772
     2  H    1.096982
     3  H    1.720187
     4  P    4.742911
     5  C   -3.905587
     6  C   -4.662362
     7  H    1.681127
     8  H    1.393879
     9  H    1.299191
    10  H    0.904456
    11  C   -4.671401
    12  S   -0.848154
 Sum of Mulliken charges =   0.00000

 Dipole moment (field-independent basis, Debye):
    X=             -3.8402    Y=             -9.5004    Z=             -1.2080  Tot=             10.3181

 Test job not archived.
 1\1\GINC-SE174\SP\RHF\Aug-CC-pVDZ\C3H7P1S1\OHZDE\09-Apr-2025\0\\#t hf
 aug-cc-pvdz iop(5/13=1,5/36=2,99/5=2) pseudo=read geom=check guess=(re
 ad,tcheck) scf=(maxcycle=1)\\title\\0,1\H,0,0.38933231,2.34404549,-1.6
 8180664\H,0,-1.19987448,1.75919838,-2.18254684\H,0,0.10218747,0.605834
 91,-1.86864837\P,0,-1.17058474,1.34195856,1.32892267\C,0,-0.7484701,1.
 45533882,-0.14816129\C,0,-0.34350289,1.5476729,-1.53972175\H,0,1.74880
 208,0.33896887,0.00223318\H,0,2.7922282,-1.08043716,-0.18953256\H,0,1.
 71964529,-0.96206551,1.21261537\H,0,-0.50049771,-1.02880475,-0.2916789

 Normal termination of Gaussian 16 at Wed Apr  9 19:34:59 2025.
