 Gaussian 16, Revision C.01,

 ----------------------------------------------------------------------
 #t hf aug-cc-pvdz symm=none int=(grid=ultrafine) guess=(read,tcheck) s
 table=(opt,rrhf)
 ----------------------------------------------------------------------
 -----
 title
 -----
 Symbolic Z-matrix:
 Charge =  0 Multiplicity = 1

 SCF Done:  E(RHF) =  -1121.34733876     A.U. after   13 cycles
 Normal termination of Gaussian 16 at Wed Apr  9 19:37:31 2025.
 Gaussian 16:  ES64L-G16RevC.01  3-Jul-2019

 ----------------------------------------------------------------------
 #t hf aug-cc-pvdz iop(5/13=1,5/36=2,99/5=2) pseudo=read geom=check gue
 ss=(read,tcheck) scf=(maxcycle=1)
 ----------------------------------------------------------------------
 -----
 title
 -----
 Structure from the checkpoint file:  "HB300SPXx10_1098_4.13_1.25_Nmethylacetamide_dimethyldisulfide_dimer_mol1.chk"
 Charge =  0 Multiplicity = 1

                         Standard orientation:
 ---------------------------------------------------------------------
 Center     Atomic      Atomic             Coordinates (Angstroms)
 Number     Number       Type             X           Y           Z
 ---------------------------------------------------------------------
      1          6           0       -2.122627    1.675913   -0.756850
      2          1           0       -1.457809    1.488018   -1.599986
      3          1           0       -1.546762    2.126977    0.048959
      4          1           0       -2.895125    2.365610   -1.085699
      5          6           0       -2.772408    0.365402   -0.358014
      6          8           0       -3.693913   -0.114455   -0.996300
      7          7           0       -2.245725   -0.225131    0.746573
      8          1           0       -1.407085    0.170451    1.138462
      9          6           0       -2.640800   -1.550250    1.176813
     10          1           0       -3.648912   -1.739941    0.821732
     11          1           0       -1.978843   -2.318493    0.771483
     12          1           0       -2.623497   -1.608297    2.263479
     13          1           0        3.042955   -2.207624   -1.740415
     14          1           0        3.625348   -1.964184   -0.079198
     15          1           0        3.841832   -0.686023   -1.305647
     16          1           0        1.565751    2.327046   -0.473830
     17          1           0        3.290784    1.893265   -0.344958
     18          1           0        2.486780    2.738204    0.990669
     19          6           0        3.189628   -1.476896   -0.946211
     20         16           0        1.534784   -0.831460   -0.549039
     21         16           0        1.897577    0.443747    1.015565
     22          6           0        2.355902    2.004157    0.196752
 ---------------------------------------------------------------------

 SCF Done:  E(RHF) =  -1123.36957436     A.U. after    2 cycles

 The electronic state is 1-A.
 Alpha  occ. eigenvalues --  -75.71107 -75.70849 -21.00374 -15.74859 -13.14483
 Alpha  occ. eigenvalues --  -13.11965 -13.10262 -13.09008 -13.07071 -13.04751
 Alpha  occ. eigenvalues --  -11.48300 -11.41002 -11.40652 -11.38503 -11.37816
 Alpha  occ. eigenvalues --   -8.05111  -8.04901  -1.68749  -1.37862  -1.27567
 Alpha  occ. eigenvalues --   -1.13675  -1.10086  -0.99203  -0.97899  -0.87786
 Alpha  occ. eigenvalues --   -0.77774  -0.66960  -0.61927  -0.61282  -0.60806
 Alpha  occ. eigenvalues --   -0.60462  -0.60246  -0.59493  -0.57243  -0.53856
 Alpha  occ. eigenvalues --   -0.51182  -0.48251  -0.46034  -0.45281  -0.44102
 Alpha  occ. eigenvalues --   -0.34747  -0.29598  -0.27055  -0.26309  -0.24686
 Alpha virt. eigenvalues --    0.02164   0.02556   0.03738   0.03947   0.06150
 Alpha virt. eigenvalues --    0.06347   0.06892   0.07335   0.07673   0.07934
 Alpha virt. eigenvalues --    0.08107   0.08411   0.08892   0.09927   0.10704

 Mulliken charges:
               1
     1  C   -4.620675
     2  H    1.326466
     3  H    1.442361
     4  H    1.237455
     5  C    5.103384
     6  O   -3.363346
     7  N   -2.681804
     8  H    0.816353
     9  C   -3.429179
    10  H    1.426747
    11  H    1.365341
    12  H    1.372664
    13  H    1.373934
    14  H    1.505534
    15  H    1.484076
    16  H    1.656943
    17  H    1.515232
    18  H    1.421408
    19  C   -5.382098
    20  S    1.118754
    21  S    0.090858
    22  C   -4.780407
 Sum of Mulliken charges =  -0.00000

 Dipole moment (field-independent basis, Debye):
    X=              2.3707    Y=             -0.2292    Z=              1.6821  Tot=              2.9159

 Test job not archived.
 1\1\GINC-SE220\SP\RHF\Aug-CC-pVDZ\C5H13N1O1S2\OHZDE\09-Apr-2025\0\\#t
 hf aug-cc-pvdz iop(5/13=1,5/36=2,99/5=2) pseudo=read geom=check guess=
 (read,tcheck) scf=(maxcycle=1)\\title\\0,1\C,0,-1.31055971,-0.36190707
 ,2.17525478\H,0,-0.76310857,0.57466921,2.28149083\H,0,-0.59510431,-1.1
 7658722,2.08130356\H,0,-1.91110445,-0.50300543,3.06969011\C,0,-2.23351
 851,-0.24400233,0.97818704\O,0,-3.28055753,0.37845097,1.03390772\N,0,-
 1.80028089,-0.8717422,-0.1463058\H,0,-0.86873727,-1.25332097,-0.144399
 63\C,0,-2.47826303,-0.73306099,-1.41840567\H,0,-3.52176476,-0.50262299

 Normal termination of Gaussian 16 at Wed Apr  9 19:37:42 2025.
