 Gaussian 16, Revision C.01,

 ----------------------------------------------------------------------
 #t hf aug-cc-pvdz symm=none int=(grid=ultrafine) guess=(read,tcheck) s
 table=(opt,rrhf)
 ----------------------------------------------------------------------
 -----
 title
 -----
 Symbolic Z-matrix:
 Charge =  0 Multiplicity = 1

 SCF Done:  E(RHF) =  -797.397111344     A.U. after   10 cycles
 Normal termination of Gaussian 16 at Wed Apr  9 04:10:04 2025.
 Gaussian 16:  ES64L-G16RevC.01  3-Jul-2019

 ----------------------------------------------------------------------
 #t hf aug-cc-pvdz iop(5/13=1,5/36=2,99/5=2) pseudo=read geom=check gue
 ss=(read,tcheck) scf=(maxcycle=1)
 ----------------------------------------------------------------------
 -----
 title
 -----
 Structure from the checkpoint file:  "HB300SPXx10_1227_4.27_1.10_sulfane_sulfane_dimer_mol1.chk"
 Charge =  0 Multiplicity = 1

                         Standard orientation:
 ---------------------------------------------------------------------
 Center     Atomic      Atomic             Coordinates (Angstroms)
 Number     Number       Type             X           Y           Z
 ---------------------------------------------------------------------
      1          1           0       -0.873707   -0.079030   -0.113117
      2          1           0       -2.266050    1.263009    0.083750
      3         16           0       -2.214722   -0.074229   -0.002365
      4          1           0        2.093826    0.374334    1.218914
      5          1           0        2.287903    1.133937   -0.555476
      6         16           0        2.137099   -0.094037   -0.037264
 ---------------------------------------------------------------------

 SCF Done:  E(RHF) =  -797.869432692     A.U. after    2 cycles

 The electronic state is 1-A.
 Alpha  occ. eigenvalues --  -75.71218 -75.69561 -13.15901 -13.14535 -13.10342
 Alpha  occ. eigenvalues --  -13.08248 -13.05865 -13.00829  -8.04936  -8.03279
 Alpha  occ. eigenvalues --   -1.12523  -1.10676  -0.55896  -0.54307  -0.44543
 Alpha  occ. eigenvalues --   -0.42969  -0.26964  -0.25188
 Alpha virt. eigenvalues --    0.01246   0.03958   0.05562   0.06147   0.10869
 Alpha virt. eigenvalues --    0.11453   0.12002   0.13471   0.15136   0.15491
 Alpha virt. eigenvalues --    0.15534   0.18565   0.23558   0.24340   0.24813

 Mulliken charges:
               1
     1  H    1.191892
     2  H    0.948737
     3  S   -2.052488
     4  H    1.020928
     5  H    1.041384
     6  S   -2.150453
 Sum of Mulliken charges =   0.00000

 Dipole moment (field-independent basis, Debye):
    X=             -0.3284    Y=             -1.9158    Z=             -0.4487  Tot=              1.9949

 Test job not archived.
 1\1\GINC-SE029\SP\RHF\Aug-CC-pVDZ\H4S2\OHZDE\09-Apr-2025\0\\#t hf aug-
 cc-pvdz iop(5/13=1,5/36=2,99/5=2) pseudo=read geom=check guess=(read,t
 check) scf=(maxcycle=1)\\title\\0,1\H,0,0.53139832,0.64498716,-0.29055
 053\H,0,2.23879772,0.67266195,0.63813986\S,0,1.60273769,1.45777787,-0.
 24349168\H,0,-2.13452619,-0.63565157,1.13735285\H,0,-1.36655547,-2.151
 21066,0.20117815\S,0,-1.98102004,-1.00926223,-0.14173969\\Version=ES64
 L-G16RevC.01\State=1-A\HF=-797.8694327\RMSD=1.433e-01\Dipole=-0.186761
 ,0.465778,-0.6034546\Quadrupole=0.1542333,0.6737304,-0.8279637,0.42916

 Normal termination of Gaussian 16 at Wed Apr  9 04:10:05 2025.
