 Gaussian 16, Revision C.01,

 ----------------------------------------------------------------------
 #t hf aug-cc-pvdz symm=none int=(grid=ultrafine) guess=(read,tcheck) s
 table=(opt,rrhf)
 ----------------------------------------------------------------------
 -----
 title
 -----
 Symbolic Z-matrix:
 Charge =  0 Multiplicity = 1

 SCF Done:  E(RHF) =  -648.913453880     A.U. after   12 cycles
 Normal termination of Gaussian 16 at Wed Apr  9 19:36:41 2025.
 Gaussian 16:  ES64L-G16RevC.01  3-Jul-2019

 ----------------------------------------------------------------------
 #t hf aug-cc-pvdz iop(5/13=1,5/36=2,99/5=2) pseudo=read geom=check gue
 ss=(read,tcheck) scf=(maxcycle=1)
 ----------------------------------------------------------------------
 -----
 title
 -----
 Structure from the checkpoint file:  "HB300SPXx10_1085_4.12_1.00_methylamine_tetrahydrothiophene_dimer_mol1.chk"
 Charge =  0 Multiplicity = 1

                         Standard orientation:
 ---------------------------------------------------------------------
 Center     Atomic      Atomic             Coordinates (Angstroms)
 Number     Number       Type             X           Y           Z
 ---------------------------------------------------------------------
      1          7           0       -2.283844   -0.270909   -0.824096
      2          1           0       -1.565150   -0.864454   -0.423186
      3          1           0       -2.839661   -0.848813   -1.440246
      4          6           0       -3.116092    0.304603    0.231077
      5          1           0       -3.895194    0.922422   -0.214441
      6          1           0       -3.599913   -0.426761    0.889084
      7          1           0       -2.506048    0.958160    0.854763
      8          1           0        1.501984    0.559532    2.021748
      9          1           0       -0.254903    0.429208    1.898775
     10          1           0        0.955526    2.440967    0.597548
     11          1           0        0.508713   -0.576933   -1.793210
     12          1           0       -0.295371    1.521305   -0.246259
     13          1           0        2.185793   -1.068449   -1.499524
     14          1           0        1.656440    1.547816   -1.744845
     15          1           0        2.709319    1.028524   -0.429534
     16         16           0        0.855054   -1.221929    0.515680
     17          6           0        0.672328    0.418365    1.331869
     18          6           0        0.691532    1.456274    0.210987
     19          6           0        1.695728    0.959437   -0.828032
     20          6           0        1.347258   -0.501228   -1.104716
 ---------------------------------------------------------------------

 SCF Done:  E(RHF) =  -650.435085761     A.U. after    2 cycles

 The electronic state is 1-A.
 Alpha  occ. eigenvalues --  -75.66134 -15.71688 -13.10502 -13.09283 -13.07615
 Alpha  occ. eigenvalues --  -11.43182 -11.42267 -11.38625 -11.37516 -11.35763
 Alpha  occ. eigenvalues --   -8.00218  -1.32373  -1.30557  -1.06843  -1.06774
 Alpha  occ. eigenvalues --   -0.94420  -0.84175  -0.82658  -0.66351  -0.65296
 Alpha  occ. eigenvalues --   -0.64571  -0.60575  -0.58824  -0.53990  -0.52626
 Alpha  occ. eigenvalues --   -0.50393  -0.48394  -0.46529  -0.44995  -0.41641
 Alpha  occ. eigenvalues --   -0.34822  -0.34066  -0.21897
 Alpha virt. eigenvalues --    0.03836   0.04408   0.04808   0.05598   0.05843
 Alpha virt. eigenvalues --    0.05994   0.06142   0.06543   0.07058   0.08243
 Alpha virt. eigenvalues --    0.08871   0.09186   0.10006   0.11515   0.12920

 Mulliken charges:
               1
     1  N   -2.186672
     2  H    1.190306
     3  H    0.552651
     4  C   -3.434290
     5  H    1.268676
     6  H    1.291695
     7  H    1.666110
     8  H    1.373437
     9  H    1.626746
    10  H    1.275404
    11  H    1.641578
    12  H    1.886388
    13  H    1.351572
    14  H    1.306945
    15  H    1.429638
    16  S    0.593000
    17  C   -3.443887
    18  C   -3.088192
    19  C   -2.777824
    20  C   -3.523280
 Sum of Mulliken charges =  -0.00000

 Dipole moment (field-independent basis, Debye):
    X=             -0.1387    Y=             -0.4795    Z=              0.2441  Tot=              0.5557

 Test job not archived.
 1\1\GINC-SE229\SP\RHF\Aug-CC-pVDZ\C5H13N1S1\OHZDE\09-Apr-2025\0\\#t hf
  aug-cc-pvdz iop(5/13=1,5/36=2,99/5=2) pseudo=read geom=check guess=(r
 ead,tcheck) scf=(maxcycle=1)\\title\\0,1\N,0,-0.48023551,2.04199658,1.
 33183501\H,0,-0.98136805,1.22913012,0.98881982\H,0,-1.14375731,2.80345
 765,1.38144373\C,0,0.08991425,1.76981847,2.65020044\H,0,0.60698078,2.6
 5693888,3.01468146\H,0,-0.63523497,1.46399211,3.41346792\H,0,0.8338340
 5,0.97768014,2.5643137\H,0,0.86214648,-2.40340209,0.08387841\H,0,0.572
 32441,-1.26079245,1.39887161\H,0,2.5903762,-0.74933304,-0.29564289\H,0

 Normal termination of Gaussian 16 at Wed Apr  9 19:36:50 2025.
