 Gaussian 16, Revision C.01,

 ----------------------------------------------------------------------
 #t hf aug-cc-pvdz symm=none int=(grid=ultrafine) guess=(read,tcheck) s
 table=(opt,rrhf)
 ----------------------------------------------------------------------
 -----
 title
 -----
 Symbolic Z-matrix:
 Charge =  0 Multiplicity = 1

 SCF Done:  E(RHF) =  -969.525128762     A.U. after   13 cycles
 Normal termination of Gaussian 16 at Wed Apr  9 19:36:21 2025.
 Gaussian 16:  ES64L-G16RevC.01  3-Jul-2019

 ----------------------------------------------------------------------
 #t hf aug-cc-pvdz iop(5/13=1,5/36=2,99/5=2) pseudo=read geom=check gue
 ss=(read,tcheck) scf=(maxcycle=1)
 ----------------------------------------------------------------------
 -----
 title
 -----
 Structure from the checkpoint file:  "HB300SPXx10_1062_4.10_0.85_methylamine_dimethyldisulfide_dimer_mol1.chk"
 Charge =  0 Multiplicity = 1

                         Standard orientation:
 ---------------------------------------------------------------------
 Center     Atomic      Atomic             Coordinates (Angstroms)
 Number     Number       Type             X           Y           Z
 ---------------------------------------------------------------------
      1          7           0        1.909922    0.960161   -0.014772
      2          1           0        2.011263    1.919201   -0.319350
      3          1           0        1.235857    0.522820   -0.631753
      4          6           0        3.193287    0.260645   -0.072856
      5          1           0        3.058320   -0.764755    0.269694
      6          1           0        3.653530    0.223289   -1.066651
      7          1           0        3.897957    0.738272    0.606853
      8          1           0       -1.965221    2.460872    0.636210
      9          1           0       -0.937205    2.167832   -0.781423
     10          1           0       -0.341436    1.768311    0.851370
     11          1           0       -0.282324   -1.999264    1.574581
     12          1           0        0.884742   -0.665956    1.316246
     13          1           0        1.150405   -2.249284    0.554548
     14          6           0       -1.212594    1.802468    0.204201
     15         16           0       -1.997524    0.163661    0.079351
     16         16           0       -0.502616   -1.041874   -0.636795
     17          6           0        0.397124   -1.528288    0.870686
 ---------------------------------------------------------------------

 SCF Done:  E(RHF) =  -970.891362700     A.U. after    2 cycles

 The electronic state is 1-A.
 Alpha  occ. eigenvalues --  -75.69745 -75.69496 -15.72047 -13.15119 -13.12770
 Alpha  occ. eigenvalues --  -13.09678 -13.09018 -13.08216 -13.03330 -11.39705
 Alpha  occ. eigenvalues --  -11.39226 -11.37975  -8.03763  -8.03573  -1.32036
 Alpha  occ. eigenvalues --   -1.25858  -1.12452  -0.97862  -0.95271  -0.86451
 Alpha  occ. eigenvalues --   -0.66894  -0.60131  -0.59934  -0.58951  -0.58624
 Alpha  occ. eigenvalues --   -0.57724  -0.53239  -0.51294  -0.46582  -0.42768
 Alpha  occ. eigenvalues --   -0.35377  -0.33406  -0.24784  -0.23269
 Alpha virt. eigenvalues --    0.03256   0.03392   0.04050   0.05317   0.06509
 Alpha virt. eigenvalues --    0.06660   0.06844   0.07487   0.07679   0.09103
 Alpha virt. eigenvalues --    0.09791   0.09889   0.11409   0.12841   0.13919

 Mulliken charges:
               1
     1  N   -2.168608
     2  H    0.624526
     3  H    1.259361
     4  C   -3.324977
     5  H    1.587696
     6  H    1.323305
     7  H    1.291469
     8  H    1.315810
     9  H    1.496513
    10  H    1.731343
    11  H    1.357416
    12  H    1.847941
    13  H    1.475418
    14  C   -4.922370
    15  S    0.421721
    16  S   -0.535655
    17  C   -4.780908
 Sum of Mulliken charges =  -0.00000

 Dipole moment (field-independent basis, Debye):
    X=             -0.0271    Y=              0.0605    Z=             -0.9720  Tot=              0.9743

 Test job not archived.
 1\1\GINC-SE100\SP\RHF\Aug-CC-pVDZ\C3H11N1S2\OHZDE\09-Apr-2025\0\\#t hf
  aug-cc-pvdz iop(5/13=1,5/36=2,99/5=2) pseudo=read geom=check guess=(r
 ead,tcheck) scf=(maxcycle=1)\\title\\0,1\N,0,-0.790217,0.77789413,2.28
 472778\H,0,-1.73224372,0.61681804,2.6155392\H,0,-0.85550262,0.99181266
 ,1.29666237\C,0,-0.16836631,1.8838218,3.01270443\H,0,0.84688345,2.0289
 6517,2.64500493\H,0,-0.69345824,2.84224623,2.93178871\H,0,-0.0959132,1
 .62767695,4.06903376\H,0,-1.89560843,-2.61065393,0.05123323\H,0,-2.424
 79016,-0.91813193,0.13902945\H,0,-1.09200702,-1.49178329,1.17594082\H,

 Normal termination of Gaussian 16 at Wed Apr  9 19:36:27 2025.
