 Gaussian 16, Revision C.01,

 ----------------------------------------------------------------------
 #t hf aug-cc-pvdz symm=none int=(grid=ultrafine) guess=(read,tcheck) s
 table=(opt,rrhf)
 ----------------------------------------------------------------------
 -----
 title
 -----
 Symbolic Z-matrix:
 Charge =  0 Multiplicity = 1

 SCF Done:  E(RHF) =  -1037.69751821     A.U. after   14 cycles
 Normal termination of Gaussian 16 at Wed Apr  9 19:46:52 2025.
 Gaussian 16:  ES64L-G16RevC.01  3-Jul-2019

 ----------------------------------------------------------------------
 #t hf aug-cc-pvdz iop(5/13=1,5/36=2,99/5=2) pseudo=read geom=check gue
 ss=(read,tcheck) scf=(maxcycle=1)
 ----------------------------------------------------------------------
 -----
 title
 -----
 Structure from the checkpoint file:  "HB300SPXx10_1474_5.10_0.95_phosphaalkene_phosphineF2_dimer_mol1.chk"
 Charge =  0 Multiplicity = 1

                         Standard orientation:
 ---------------------------------------------------------------------
 Center     Atomic      Atomic             Coordinates (Angstroms)
 Number     Number       Type             X           Y           Z
 ---------------------------------------------------------------------
      1          1           0       -1.547381   -2.947290   -0.593001
      2          1           0       -0.583084   -2.171020    0.664472
      3          1           0       -2.353293   -2.124221    0.741799
      4          1           0       -1.465914    2.138894   -1.515650
      5          1           0       -0.527174    1.215154    1.999321
      6          1           0       -2.306791    2.668818   -0.053980
      7          1           0       -0.550513    2.670908   -0.097886
      8          1           0       -1.313541   -0.364382    2.000592
      9          1           0       -2.274842    1.117327    2.039946
     10         15           0       -1.499300   -0.551608   -0.968682
     11          6           0       -1.423191    0.724353    0.124045
     12          6           0       -1.436264    2.123451   -0.427645
     13          6           0       -1.380836    0.648826    1.618955
     14          6           0       -1.493838   -2.088507    0.073653
     15         15           0        1.694770    0.272374   -0.214671
     16          9           0        3.298112    0.239833   -0.233999
     17          9           0        1.465244   -0.897286    0.856203
     18          1           0        1.525054   -0.547337   -1.369212
 ---------------------------------------------------------------------

 SCF Done:  E(RHF) =  -1039.58275941     A.U. after    2 cycles

 The electronic state is 1-A.
 Alpha  occ. eigenvalues -- -105.28992-105.15573 -29.28842 -29.28170 -11.44017
 Alpha  occ. eigenvalues --  -11.39637 -11.37578 -11.36667  -2.88240  -2.74119
 Alpha  occ. eigenvalues --   -1.62974  -1.59756  -1.53543  -1.53057  -1.45695
 Alpha  occ. eigenvalues --   -1.35366  -1.19661  -1.02407  -1.00246  -0.90059
 Alpha  occ. eigenvalues --   -0.78573  -0.65251  -0.60135  -0.59500  -0.57897
 Alpha  occ. eigenvalues --   -0.55514  -0.54871  -0.54293  -0.53790  -0.48539
 Alpha  occ. eigenvalues --   -0.46644  -0.40168  -0.35883  -0.34276  -0.28434
 Alpha  occ. eigenvalues --   -0.25881  -0.20118  -0.19095  -0.15543  -0.03066
 Alpha  occ. eigenvalues --   -0.00014
 Alpha virt. eigenvalues --    0.04690   0.05421   0.05997   0.06359   0.06466
 Alpha virt. eigenvalues --    0.06880   0.07251   0.07678   0.08515   0.08919
 Alpha virt. eigenvalues --    0.10198   0.11393   0.11719   0.12430   0.12877

 Mulliken charges:
               1
     1  H    1.218629
     2  H    1.204552
     3  H    1.121337
     4  H    1.220196
     5  H    1.347061
     6  H    0.951268
     7  H    0.783947
     8  H    1.405367
     9  H    1.081896
    10  P    5.783120
    11  C    0.330498
    12  C   -5.756523
    13  C   -4.610394
    14  C   -6.004782
    15  P    1.971414
    16  F   -0.085216
    17  F   -0.701053
    18  H   -1.261318
 Sum of Mulliken charges =  -0.00000

 Dipole moment (field-independent basis, Debye):
    X=              5.2718    Y=             -6.9188    Z=             -1.4606  Tot=              8.8202

 Test job not archived.
 1\1\GINC-SE035\SP\RHF\Aug-CC-pVDZ\C4H10F2P2\OHZDE\09-Apr-2025\0\\#t hf
  aug-cc-pvdz iop(5/13=1,5/36=2,99/5=2) pseudo=read geom=check guess=(r
 ead,tcheck) scf=(maxcycle=1)\\title\\0,1\H,0,-0.66372889,3.26375392,-1
 .41484082\H,0,0.57607353,2.07688321,-1.82463407\H,0,-0.55842324,2.6448
 712,-3.06242126\H,0,-2.87100416,-1.40911587,-1.55416728\H,0,0.42715494
 ,-1.23076192,-3.33739031\H,0,-2.60862974,-1.75549695,-3.26751243\H,0,-
 1.47646146,-2.36750684,-2.07165071\H,0,0.4157342,0.51539066,-3.5906339
 2\H,0,-0.67072928,-0.53226666,-4.50884988\P,0,-1.6570918,1.05342876,-1

 Normal termination of Gaussian 16 at Wed Apr  9 19:47:00 2025.
