 Gaussian 16, Revision C.01,

 ----------------------------------------------------------------------
 #t hf aug-cc-pvdz symm=none int=(grid=ultrafine) guess=(read,tcheck) s
 table=(opt,rrhf)
 ----------------------------------------------------------------------
 -----
 title
 -----
 Symbolic Z-matrix:
 Charge =  0 Multiplicity = 1

 SCF Done:  E(RHF) =  -605.476726274     A.U. after   13 cycles
 Normal termination of Gaussian 16 at Wed Apr  9 19:36:55 2025.
 Gaussian 16:  ES64L-G16RevC.01  3-Jul-2019

 ----------------------------------------------------------------------
 #t hf aug-cc-pvdz iop(5/13=1,5/36=2,99/5=2) pseudo=read geom=check gue
 ss=(read,tcheck) scf=(maxcycle=1)
 ----------------------------------------------------------------------
 -----
 title
 -----
 Structure from the checkpoint file:  "HB300SPXx10_113_1.12_0.90_sulfane_methylcyanate_dimer_mol1.chk"
 Charge =  0 Multiplicity = 1

                         Standard orientation:
 ---------------------------------------------------------------------
 Center     Atomic      Atomic             Coordinates (Angstroms)
 Number     Number       Type             X           Y           Z
 ---------------------------------------------------------------------
      1          1           0        1.411021    0.873802    0.026717
      2          1           0        2.438693   -0.309668    1.175651
      3         16           0        2.121434   -0.257095   -0.126322
      4          1           0       -1.722681   -1.300665    1.311262
      5          1           0       -2.035604   -2.158678   -0.224863
      6          1           0       -0.380423   -1.587188    0.158124
      7          6           0       -1.444399   -1.394860    0.264872
      8          8           0       -1.780854   -0.153762   -0.432192
      9          6           0       -1.134248    0.885667   -0.056350
     10          7           0       -0.562177    1.840166    0.254382
 ---------------------------------------------------------------------

 SCF Done:  E(RHF) =  -606.608933702     A.U. after    2 cycles

 The electronic state is 1-A.
 Alpha  occ. eigenvalues --  -75.69485 -21.15578 -15.75713 -13.15404 -13.09066
 Alpha  occ. eigenvalues --  -13.06412 -11.49122 -11.45487  -8.03274  -1.85421
 Alpha  occ. eigenvalues --   -1.29944  -1.11081  -1.05259  -0.73923  -0.66774
 Alpha  occ. eigenvalues --   -0.65454  -0.56821  -0.56173  -0.53216  -0.51147
 Alpha  occ. eigenvalues --   -0.43567  -0.40287  -0.34681  -0.26102
 Alpha virt. eigenvalues --    0.02259   0.04257   0.05391   0.06093   0.07339
 Alpha virt. eigenvalues --    0.09152   0.10865   0.11461   0.11624   0.12360
 Alpha virt. eigenvalues --    0.13657   0.13981   0.15064   0.15166   0.16314

 Mulliken charges:
               1
     1  H    1.211110
     2  H    1.077672
     3  S   -2.494253
     4  H    1.366452
     5  H    1.298514
     6  H    1.478527
     7  C   -2.826273
     8  O   -2.676688
     9  C    4.103120
    10  N   -2.538182
 Sum of Mulliken charges =   0.00000

 Dipole moment (field-independent basis, Debye):
    X=             -0.9757    Y=             -4.3452    Z=             -1.0538  Tot=              4.5764

 Test job not archived.
 1\1\GINC-SE162\SP\RHF\Aug-CC-pVDZ\C2H5N1O1S1\OHZDE\09-Apr-2025\0\\#t h
 f aug-cc-pvdz iop(5/13=1,5/36=2,99/5=2) pseudo=read geom=check guess=(
 read,tcheck) scf=(maxcycle=1)\\title\\0,1\H,0,1.70020261,0.23216325,0.
 14198181\H,0,1.83071194,2.07603691,0.74186388\S,0,1.65222468,0.8789214
 7,1.31945248\H,0,-2.16323228,1.1625937,-0.49568571\H,0,-2.8434697,0.19
 419842,0.84344573\H,0,-1.17245179,0.83195704,0.96119811\C,0,-1.9445429
 7,0.45257292,0.29759272\O,0,-1.49149751,-0.804159,-0.298056\C,0,-0.386
 44483,-0.74532314,-0.94238818\N,0,0.61184312,-0.72701956,-1.52374381\\

 Normal termination of Gaussian 16 at Wed Apr  9 19:36:58 2025.
