 Gaussian 16, Revision C.01,

 ----------------------------------------------------------------------
 #t hf aug-cc-pvdz symm=none int=(grid=ultrafine) guess=(read,tcheck) s
 table=(opt,rrhf)
 ----------------------------------------------------------------------
 -----
 title
 -----
 Symbolic Z-matrix:
 Charge =  0 Multiplicity = 1

 SCF Done:  E(RHF) =  -1013.77500772     A.U. after   12 cycles
 Normal termination of Gaussian 16 at Wed Apr  9 19:39:14 2025.
 Gaussian 16:  ES64L-G16RevC.01  3-Jul-2019

 ----------------------------------------------------------------------
 #t hf aug-cc-pvdz iop(5/13=1,5/36=2,99/5=2) pseudo=read geom=check gue
 ss=(read,tcheck) scf=(maxcycle=1)
 ----------------------------------------------------------------------
 -----
 title
 -----
 Structure from the checkpoint file:  "HB300SPXx10_1364_4.41_0.95_hydrogenchloride_tetrahydrothiophene_dimer_mol1.chk"
 Charge =  0 Multiplicity = 1

                         Standard orientation:
 ---------------------------------------------------------------------
 Center     Atomic      Atomic             Coordinates (Angstroms)
 Number     Number       Type             X           Y           Z
 ---------------------------------------------------------------------
      1          1           0       -1.470608   -0.448148    0.069778
      2         17           0       -2.523512    0.325793   -0.178648
      3          1           0        1.705102   -0.047669    1.961857
      4          1           0        0.011666    0.461707    2.034750
      5          1           0        1.767018    2.100384    0.832976
      6          1           0        0.115181   -0.222940   -1.820440
      7          1           0        0.212582    1.806482    0.055997
      8          1           0        1.530122   -1.284375   -1.755436
      9          1           0        1.929656    1.371035   -1.663323
     10          1           0        2.826602    0.346500   -0.546234
     11         16           0        0.351596   -1.242975    0.356305
     12          6           0        0.833807    0.217467    1.367482
     13          6           0        1.142411    1.334805    0.373177
     14          6           0        1.826640    0.680940   -0.826308
     15          6           0        0.971615   -0.522187   -1.219982
 ---------------------------------------------------------------------

 SCF Done:  E(RHF) =  -1015.07222509     A.U. after    2 cycles

 The electronic state is 1-A.
 Alpha  occ. eigenvalues --  -99.86664 -75.68692 -13.15710 -13.13616 -13.11293
 Alpha  occ. eigenvalues --  -11.44938 -11.44005 -11.40315 -11.37272 -10.43794
 Alpha  occ. eigenvalues --   -9.63912  -9.63189  -9.63098  -8.02882  -1.34282
 Alpha  occ. eigenvalues --   -1.26421  -1.09162  -1.08532  -0.86302  -0.84339
 Alpha  occ. eigenvalues --   -0.68799  -0.67109  -0.65583  -0.62211  -0.55254
 Alpha  occ. eigenvalues --   -0.50267  -0.49996  -0.49371  -0.47635  -0.46565
 Alpha  occ. eigenvalues --   -0.43488  -0.36552  -0.25375
 Alpha virt. eigenvalues --    0.03182   0.04538   0.05211   0.05652   0.05848
 Alpha virt. eigenvalues --    0.06301   0.06563   0.06851   0.07369   0.10316
 Alpha virt. eigenvalues --    0.12046   0.12270   0.13087   0.13845   0.14219

 Mulliken charges:
               1
     1  H    1.066697
     2  Cl  -0.808217
     3  H    1.433350
     4  H    1.282450
     5  H    1.287658
     6  H    1.319034
     7  H    1.354784
     8  H    1.397191
     9  H    1.292384
    10  H    1.406975
    11  S    0.167950
    12  C   -3.092224
    13  C   -2.362331
    14  C   -2.805583
    15  C   -2.940118
 Sum of Mulliken charges =  -0.00000

 Dipole moment (field-independent basis, Debye):
    X=              3.6012    Y=             -1.0434    Z=              0.4299  Tot=              3.7738

 Test job not archived.
 1\1\GINC-SE362\SP\RHF\Aug-CC-pVDZ\C4H9Cl1S1\OHZDE\09-Apr-2025\0\\#t hf
  aug-cc-pvdz iop(5/13=1,5/36=2,99/5=2) pseudo=read geom=check guess=(r
 ead,tcheck) scf=(maxcycle=1)\\title\\0,1\H,0,-0.21838216,0.19107529,-1
 .4737198\Cl,0,-0.27626126,1.34164549,-2.13866114\H,0,-1.61853319,-1.07
 278707,1.73060716\H,0,-2.046471,0.01356886,0.40049337\H,0,-0.87476922,
 1.08070454,2.56823894\H,0,1.83520367,0.20381594,-0.08772252\H,0,-0.317
 89035,1.57872745,0.97192823\H,0,2.17805215,-1.30267036,0.77592184\H,0,
 1.70242842,0.91053638,2.22326793\H,0,0.93306957,-0.59611248,2.71333654

 Normal termination of Gaussian 16 at Wed Apr  9 19:39:18 2025.
