 Gaussian 16, Revision C.01,

 ----------------------------------------------------------------------
 #t hf aug-cc-pvdz symm=none int=(grid=ultrafine) guess=(read,tcheck) s
 table=(opt,rrhf)
 ----------------------------------------------------------------------
 -----
 title
 -----
 Symbolic Z-matrix:
 Charge =  0 Multiplicity = 1

 SCF Done:  E(RHF) =  -952.363513632     A.U. after   13 cycles

 1\1\GINC-SE092\Stability\RHF\Aug-CC-pVDZ\C4H10S2\OHZDE\09-Apr-2025\0\\
 #t hf aug-cc-pvdz symm=none int=(grid=ultrafine) guess=(read,tcheck) s
 table=(opt,rrhf)\\title\\0,1\H,0,1.25927999,1.11406487,-0.28265552\H,0
 ,2.28279017,2.73418341,-0.67577847\S,0,1.07110419,2.4516331,-0.1764195
 4\H,0,0.35084184,0.44495166,1.77692132\H,0,0.26102308,-1.29826206,2.05
 793002\H,0,-2.04195953,0.05651692,1.8689224\H,0,-1.05937219,-1.2666541
 6,-1.68657566\H,0,-1.89458001,-1.46170895,0.98661582\H,0,-0.35512451,0
 .31914798,-2.03009945\H,0,-2.66740598,0.21253996,-0.65626113\H,0,-1.41

 Normal termination of Gaussian 16 at Wed Apr  9 04:10:52 2025.
 Gaussian 16:  ES64L-G16RevC.01  3-Jul-2019

 ----------------------------------------------------------------------
 #t hf aug-cc-pvdz iop(5/13=1,5/36=2,99/5=2) pseudo=read geom=check gue
 ss=(read,tcheck) scf=(maxcycle=1)
 ----------------------------------------------------------------------
 -----
 title
 -----
 Structure from the checkpoint file:  "HB300SPXx10_1231_4.28_0.80_sulfane_tetrahydrothiophene_dimer_mol1.chk"
 Charge =  0 Multiplicity = 1

                         Standard orientation:
 ---------------------------------------------------------------------
 Center     Atomic      Atomic             Coordinates (Angstroms)
 Number     Number       Type             X           Y           Z
 ---------------------------------------------------------------------
      1          1           0        1.363428    0.573289    0.009091
      2          1           0        3.316378    0.506272    0.100735
      3         16           0        2.328678   -0.363006   -0.156525
      4          1           0       -0.016434    0.011459   -1.806165
      5          1           0       -1.528689    0.917061   -1.943255
      6          1           0       -1.687109   -1.710627   -1.448244
      7          1           0       -1.648043    0.217333    1.963394
      8          1           0       -2.698876   -0.622659   -0.500695
      9          1           0        0.090306   -0.093437    2.064910
     10          1           0       -1.509648   -2.045833    1.130171
     11          1           0        0.022466   -1.732328    0.326753
     12         16           0       -0.450076    1.328940    0.180021
     13          6           0       -0.919599    0.312004   -1.277405
     14          6           0       -1.666674   -0.897882   -0.722074
     15          6           0       -0.949764   -1.300268    0.565730
     16          6           0       -0.757535   -0.026431    1.388311
 ---------------------------------------------------------------------

 SCF Done:  E(RHF) =  -953.645324898     A.U. after    2 cycles

 The electronic state is 1-A.
 Alpha  occ. eigenvalues --  -75.67556 -75.66913 -13.15530 -13.13720 -13.12413
 Alpha  occ. eigenvalues --  -13.10553 -13.07192 -13.00246 -11.44392 -11.43512
 Alpha  occ. eigenvalues --  -11.39633 -11.36738  -8.01780  -8.00831  -1.33878
 Alpha  occ. eigenvalues --   -1.10140  -1.07797  -1.07596  -0.85501  -0.83744
 Alpha  occ. eigenvalues --   -0.67524  -0.66246  -0.61567  -0.57512  -0.52625
 Alpha  occ. eigenvalues --   -0.49419  -0.47537  -0.46080  -0.42901  -0.42692
 Alpha  occ. eigenvalues --   -0.35685  -0.24392  -0.20284
 Alpha virt. eigenvalues --    0.03246   0.04135   0.04685   0.05470   0.06000
 Alpha virt. eigenvalues --    0.06298   0.06349   0.06772   0.07523   0.09063
 Alpha virt. eigenvalues --    0.11964   0.12389   0.12765   0.13677   0.14414

 Mulliken charges:
               1
     1  H    2.053875
     2  H    0.787156
     3  S   -2.325865
     4  H    1.332236
     5  H    1.398178
     6  H    1.275371
     7  H    1.418336
     8  H    1.394898
     9  H    1.349780
    10  H    1.287734
    11  H    1.622270
    12  S   -0.137214
    13  C   -2.970568
    14  C   -2.794525
    15  C   -2.404356
    16  C   -3.287306
 Sum of Mulliken charges =   0.00000

 Dipole moment (field-independent basis, Debye):
    X=             -1.1951    Y=             -0.7456    Z=             -0.1177  Tot=              1.4135

 Test job not archived.
 1\1\GINC-SE092\SP\RHF\Aug-CC-pVDZ\C4H10S2\OHZDE\09-Apr-2025\0\\#t hf a
 ug-cc-pvdz iop(5/13=1,5/36=2,99/5=2) pseudo=read geom=check guess=(rea
 d,tcheck) scf=(maxcycle=1)\\title\\0,1\H,0,1.25927999,1.11406487,-0.28
 265552\H,0,2.28279017,2.73418341,-0.67577847\S,0,1.07110419,2.4516331,
 -0.17641954\H,0,0.35084184,0.44495166,1.77692132\H,0,0.26102308,-1.298
 26206,2.05793002\H,0,-2.04195953,0.05651692,1.8689224\H,0,-1.05937219,
 -1.26665416,-1.68657566\H,0,-1.89458001,-1.46170895,0.98661582\H,0,-0.
 35512451,0.31914798,-2.03009945\H,0,-2.66740598,0.21253996,-0.65626113

 Normal termination of Gaussian 16 at Wed Apr  9 04:11:02 2025.
