 Gaussian 16, Revision C.01,

 ----------------------------------------------------------------------
 #t hf aug-cc-pvdz symm=none int=(grid=ultrafine) guess=(read,tcheck) s
 table=(opt,rrhf)
 ----------------------------------------------------------------------
 -----
 title
 -----
 Symbolic Z-matrix:
 Charge =  0 Multiplicity = 1

 SCF Done:  E(RHF) =  -800.725544856     A.U. after   14 cycles
 Normal termination of Gaussian 16 at Wed Apr  9 19:39:17 2025.
 Gaussian 16:  ES64L-G16RevC.01  3-Jul-2019

 ----------------------------------------------------------------------
 #t hf aug-cc-pvdz iop(5/13=1,5/36=2,99/5=2) pseudo=read geom=check gue
 ss=(read,tcheck) scf=(maxcycle=1)
 ----------------------------------------------------------------------
 -----
 title
 -----
 Structure from the checkpoint file:  "HB300SPXx10_1105_4.14_1.00_Nmethylacetamide_tetrahydrothiophene_dimer_mol1.chk"
 Charge =  0 Multiplicity = 1

                         Standard orientation:
 ---------------------------------------------------------------------
 Center     Atomic      Atomic             Coordinates (Angstroms)
 Number     Number       Type             X           Y           Z
 ---------------------------------------------------------------------
      1          6           0       -2.325180   -1.691762   -0.150682
      2          1           0       -2.234060   -2.181299    0.817623
      3          1           0       -1.473810   -1.956186   -0.774487
      4          1           0       -3.236676   -2.061393   -0.616504
      5          6           0       -2.468203   -0.198862    0.069094
      6          8           0       -3.384938    0.268163    0.725239
      7          7           0       -1.518570    0.568840   -0.523364
      8          1           0       -0.727431    0.115547   -0.958891
      9          6           0       -1.503606    2.009111   -0.382354
     10          1           0       -2.524279    2.363667   -0.272049
     11          1           0       -0.939447    2.331910    0.496732
     12          1           0       -1.059553    2.458201   -1.268337
     13          1           0        1.452584    1.653307   -0.838114
     14          1           0        3.096435    1.149343   -1.237425
     15          1           0        2.553687    1.867439    1.297537
     16          1           0        2.244243   -1.986783    0.903333
     17          1           0        3.543548    0.439956    1.010481
     18          1           0        0.489172   -1.829835    0.778064
     19          1           0        1.753248   -0.272312    2.549757
     20          1           0        0.531695    0.459901    1.514847
     21         16           0        1.609150   -0.755174   -1.080552
     22          6           0        2.227487    0.919781   -0.627196
     23          6           0        2.550218    0.866824    0.865572
     24          6           0        1.502745   -0.035386    1.515876
     25          6           0        1.432161   -1.302349    0.667673
 ---------------------------------------------------------------------

 SCF Done:  E(RHF) =  -802.910491702     A.U. after    2 cycles

 The electronic state is 1-A.
 Alpha  occ. eigenvalues --  -75.67936 -21.00539 -15.74686 -13.13075 -13.11602
 Alpha  occ. eigenvalues --  -13.10985 -11.48795 -11.45248 -11.44059 -11.40353
 Alpha  occ. eigenvalues --  -11.39432 -11.38356 -11.37511  -8.02008  -1.68959
 Alpha  occ. eigenvalues --   -1.38111  -1.33686  -1.10480  -1.08560  -1.08399
 Alpha  occ. eigenvalues --   -0.98423  -0.85899  -0.84264  -0.78212  -0.67660
 Alpha  occ. eigenvalues --   -0.67286  -0.66560  -0.62566  -0.62011  -0.60996
 Alpha  occ. eigenvalues --   -0.57748  -0.55349  -0.54571  -0.51518  -0.50008
 Alpha  occ. eigenvalues --   -0.48069  -0.46688  -0.46344  -0.45416  -0.43309
 Alpha  occ. eigenvalues --   -0.36151  -0.29852  -0.27338  -0.23733
 Alpha virt. eigenvalues --    0.03242   0.03863   0.04509   0.05046   0.05103
 Alpha virt. eigenvalues --    0.05532   0.06048   0.06211   0.06895   0.07078
 Alpha virt. eigenvalues --    0.08188   0.08563   0.09187   0.09612   0.10599

 Mulliken charges:
               1
     1  C   -4.834172
     2  H    1.340757
     3  H    1.631961
     4  H    1.092567
     5  C    5.466873
     6  O   -3.490577
     7  N   -2.748919
     8  H    1.259283
     9  C   -3.900718
    10  H    1.376105
    11  H    1.643204
    12  H    1.485425
    13  H    1.912395
    14  H    1.345304
    15  H    1.316137
    16  H    1.322518
    17  H    1.506978
    18  H    1.923999
    19  H    1.282828
    20  H    2.103216
    21  S    0.445670
    22  C   -3.615891
    23  C   -3.099842
    24  C   -3.108522
    25  C   -3.656577
 Sum of Mulliken charges =  -0.00000

 Dipole moment (field-independent basis, Debye):
    X=              3.1496    Y=             -0.1526    Z=             -1.0158  Tot=              3.3129

 Test job not archived.
 1\1\GINC-SE112\SP\RHF\Aug-CC-pVDZ\C7H15N1O1S1\OHZDE\09-Apr-2025\0\\#t
 hf aug-cc-pvdz iop(5/13=1,5/36=2,99/5=2) pseudo=read geom=check guess=
 (read,tcheck) scf=(maxcycle=1)\\title\\0,1\C,0,-2.35790997,-0.53076315
 ,1.51380969\H,0,-2.45888814,0.43106478,2.01406411\H,0,-1.4356415,-1.01
 232631,1.83224394\H,0,-3.20368729,-1.14467685,1.81747472\C,0,-2.435185
 38,-0.3119418,0.01592702\O,0,-3.41358688,0.19433185,-0.50891479\N,0,-1
 .3525984,-0.72916607,-0.68842032\H,0,-0.53292762,-1.03795931,-0.184588
 74\C,0,-1.26500492,-0.56327277,-2.12344447\H,0,-2.26409386,-0.61429593

 Normal termination of Gaussian 16 at Wed Apr  9 19:39:34 2025.
