 Gaussian 16, Revision C.01,

 ----------------------------------------------------------------------
 #t hf aug-cc-pvdz symm=none int=(grid=ultrafine) guess=(read,tcheck) s
 table=(opt,rrhf)
 ----------------------------------------------------------------------
 -----
 title
 -----
 Symbolic Z-matrix:
 Charge =  0 Multiplicity = 1

 SCF Done:  E(RHF) =  -1166.69254179     A.U. after   13 cycles
 Normal termination of Gaussian 16 at Wed Apr  9 19:41:27 2025.
 Gaussian 16:  ES64L-G16RevC.01  3-Jul-2019

 ----------------------------------------------------------------------
 #t hf aug-cc-pvdz iop(5/13=1,5/36=2,99/5=2) pseudo=read geom=check gue
 ss=(read,tcheck) scf=(maxcycle=1)
 ----------------------------------------------------------------------
 -----
 title
 -----
 Structure from the checkpoint file:  "HB300SPXx10_1391_5.02_0.80_dimethylsulfone_phosphineF2_dimer_mol1.chk"
 Charge =  0 Multiplicity = 1

                         Standard orientation:
 ---------------------------------------------------------------------
 Center     Atomic      Atomic             Coordinates (Angstroms)
 Number     Number       Type             X           Y           Z
 ---------------------------------------------------------------------
      1          1           0        2.122039    0.477649    2.076030
      2          1           0        1.377543   -1.140841    2.003929
      3          1           0        0.341425    0.309007    1.903465
      4          1           0        0.330340    1.873220   -0.338366
      5          1           0        1.413674    1.510139   -1.710351
      6          1           0        2.106786    2.110465   -0.182309
      7          8           0        2.831987   -0.613689   -0.419440
      8         16           0        1.494036   -0.180321   -0.113610
      9          8           0        0.372773   -0.925246   -0.647512
     10          6           0        1.311508   -0.112261    1.658292
     11          6           0        1.314033    1.516471   -0.627721
     12         15           0       -1.880447   -0.438451   -0.057502
     13          9           0       -3.446442   -0.087204   -0.035112
     14          9           0       -1.337253    1.029809    0.339742
     15          1           0       -1.727746   -0.274955   -1.461581
 ---------------------------------------------------------------------

 SCF Done:  E(RHF) =  -1168.87816823     A.U. after    2 cycles

 The electronic state is 1-A.
 Alpha  occ. eigenvalues -- -105.27850 -75.89320 -29.28768 -29.26690 -21.05714
 Alpha  occ. eigenvalues --  -21.05161 -13.52634 -13.42224 -13.34822 -11.44058
 Alpha  occ. eigenvalues --  -11.42436  -8.24798  -2.87062  -1.85590  -1.67615
 Alpha  occ. eigenvalues --   -1.61024  -1.57922  -1.52007  -1.20655  -1.10206
 Alpha  occ. eigenvalues --   -0.91357  -0.87112  -0.67956  -0.66500  -0.65770
 Alpha  occ. eigenvalues --   -0.63591  -0.57121  -0.56591  -0.54630  -0.46550
 Alpha  occ. eigenvalues --   -0.45506  -0.41751  -0.41452  -0.38536  -0.38282
 Alpha  occ. eigenvalues --   -0.37384  -0.35346  -0.33329  -0.27137  -0.24779
 Alpha  occ. eigenvalues --   -0.19402   0.01062
 Alpha virt. eigenvalues --    0.03065   0.04541   0.05186   0.06425   0.06782
 Alpha virt. eigenvalues --    0.07155   0.07989   0.09937   0.10966   0.12497
 Alpha virt. eigenvalues --    0.13009   0.13744   0.14148   0.14790   0.15278

 Mulliken charges:
               1
     1  H    1.052432
     2  H    0.719595
     3  H    1.037903
     4  H    1.321758
     5  H    1.376520
     6  H    1.136754
     7  O   -2.454071
     8  S    6.236333
     9  O   -2.349172
    10  C   -4.158211
    11  C   -4.285354
    12  P    2.265457
    13  F   -0.099757
    14  F   -0.737836
    15  H   -1.062351
 Sum of Mulliken charges =  -0.00000

 Dipole moment (field-independent basis, Debye):
    X=             -6.1930    Y=              4.1886    Z=             -4.0310  Tot=              8.4940

 Test job not archived.
 1\1\GINC-SE041\SP\RHF\Aug-CC-pVDZ\C2H7F2O2P1S1\OHZDE\09-Apr-2025\0\\#t
  hf aug-cc-pvdz iop(5/13=1,5/36=2,99/5=2) pseudo=read geom=check guess
 =(read,tcheck) scf=(maxcycle=1)\\title\\0,1\H,0,1.82037896,-1.1252997,
 2.45423408\H,0,2.45327614,-0.04590354,1.18406648\H,0,1.26048817,-1.302
 78481,0.75605091\H,0,-1.35656486,-1.06874241,1.510339\H,0,-1.8999986,0
 .31018714,2.5058364\H,0,-0.84910966,-0.93302114,3.2309401\O,0,0.704774
 22,1.412934,2.93921594\S,0,0.30796869,0.58975017,1.82729483\O,0,-0.016
 49706,1.22000253,0.56448154\C,0,1.58998555,-0.61149627,1.52558836\C,0,

 Normal termination of Gaussian 16 at Wed Apr  9 19:41:33 2025.
