 Gaussian 16, Revision C.01,

 ----------------------------------------------------------------------
 #t hf aug-cc-pvdz symm=none int=(grid=ultrafine) guess=(read,tcheck) s
 table=(opt,rrhf)
 ----------------------------------------------------------------------
 -----
 title
 -----
 Symbolic Z-matrix:
 Charge =  0 Multiplicity = 1

 SCF Done:  E(RHF) =  -493.929805821     A.U. after   11 cycles
 Normal termination of Gaussian 16 at Wed Apr  9 19:34:46 2025.
 Gaussian 16:  ES64L-G16RevC.01  3-Jul-2019

 ----------------------------------------------------------------------
 #t hf aug-cc-pvdz iop(5/13=1,5/36=2,99/5=2) pseudo=read geom=check gue
 ss=(read,tcheck) scf=(maxcycle=1)
 ----------------------------------------------------------------------
 -----
 title
 -----
 Structure from the checkpoint file:  "HB300SPXx10_100_1.10_2.00_sulfane_methylamine_dimer_mol1.chk"
 Charge =  0 Multiplicity = 1

                         Standard orientation:
 ---------------------------------------------------------------------
 Center     Atomic      Atomic             Coordinates (Angstroms)
 Number     Number       Type             X           Y           Z
 ---------------------------------------------------------------------
      1          1           0        0.000000    1.600530    0.000000
      2          1           0        0.417703    3.517568    0.000000
      3         16           0       -0.695246    2.770220    0.000000
      4          7           0        1.249423   -2.364320    0.000000
      5          1           0        1.789216   -2.624382    0.814449
      6          1           0        1.789216   -2.624382   -0.814449
      7          6           0       -0.059886   -3.021169    0.000000
      8          1           0       -0.619222   -2.700466   -0.877538
      9          1           0       -0.020404   -4.114672    0.000000
     10          1           0       -0.619222   -2.700466    0.877538
 ---------------------------------------------------------------------

 SCF Done:  E(RHF) =  -494.649007197     A.U. after    2 cycles

 The electronic state is 1-A'.
 Alpha  occ. eigenvalues --  -75.69717 -15.72957 -13.14280 -13.07688 -13.00812
 Alpha  occ. eigenvalues --  -11.37781  -8.03374  -1.31477  -1.10580  -0.95065
 Alpha  occ. eigenvalues --   -0.65854  -0.59475  -0.54274  -0.53604  -0.50908
 Alpha  occ. eigenvalues --   -0.42835  -0.35098  -0.25195
 Alpha virt. eigenvalues --    0.02782   0.03752   0.05180   0.05836   0.06266
 Alpha virt. eigenvalues --    0.07842   0.08980   0.11570   0.11842   0.12392
 Alpha virt. eigenvalues --    0.14063   0.15737   0.16756   0.16782   0.18267

 Mulliken charges:
               1
     1  H    0.982068
     2  H    0.985776
     3  S   -1.962928
     4  N   -2.181340
     5  H    0.632637
     6  H    0.632637
     7  C   -2.935618
     8  H    1.280091
     9  H    1.286587
    10  H    1.280091
 Sum of Mulliken charges =   0.00000

 Dipole moment (field-independent basis, Debye):
    X=             -0.8050    Y=             -0.9138    Z=              0.0000  Tot=              1.2178

 Test job not archived.
 1\1\GINC-SE125\SP\RHF\Aug-CC-pVDZ\C1H7N1S1\OHZDE\09-Apr-2025\0\\#t hf
 aug-cc-pvdz iop(5/13=1,5/36=2,99/5=2) pseudo=read geom=check guess=(re
 ad,tcheck) scf=(maxcycle=1)\\title\\0,1\H,0,0.41509073,0.4488286,0.\H,
 0,1.12809873,2.27670481,0.\S,0,-0.08823071,1.71303185,0.\N,0,1.0276404
 8,-3.66284745,0.\H,0,1.520001,-4.00429889,0.81444891\H,0,1.520001,-4.0
 0429889,-0.81444891\C,0,-0.36843744,-4.10636341,0.\H,0,-0.87059522,-3.
 70195667,-0.87753792\H,0,-0.50083318,-5.19253925,0.\H,0,-0.87059522,-3
 .70195667,0.87753792\\Version=ES64L-G16RevC.01\State=1-A'\HF=-494.6490

 Normal termination of Gaussian 16 at Wed Apr  9 19:34:49 2025.
