 Gaussian 16, Revision C.01,

 ----------------------------------------------------------------------
 #t hf aug-cc-pvdz symm=none int=(grid=ultrafine) guess=(read,tcheck) s
 table=(opt,rrhf)
 ----------------------------------------------------------------------
 -----
 title
 -----
 Symbolic Z-matrix:
 Charge =  0 Multiplicity = 1

 SCF Done:  E(RHF) =  -704.609423286     A.U. after   13 cycles
 Normal termination of Gaussian 16 at Wed Apr  9 19:37:25 2025.
 Gaussian 16:  ES64L-G16RevC.01  3-Jul-2019

 ----------------------------------------------------------------------
 #t hf aug-cc-pvdz iop(5/13=1,5/36=2,99/5=2) pseudo=read geom=check gue
 ss=(read,tcheck) scf=(maxcycle=1)
 ----------------------------------------------------------------------
 -----
 title
 -----
 Structure from the checkpoint file:  "HB300SPXx10_1122_4.16_0.85_aceticacid_dimethylsulfide_dimer_mol1.chk"
 Charge =  0 Multiplicity = 1

                         Standard orientation:
 ---------------------------------------------------------------------
 Center     Atomic      Atomic             Coordinates (Angstroms)
 Number     Number       Type             X           Y           Z
 ---------------------------------------------------------------------
      1          6           0        0.277208    1.672498    0.000000
      2          8           0       -0.874656    1.303519    0.000000
      3          8           0        1.319840    0.834296    0.000000
      4          1           0        0.991339   -0.099140    0.000000
      5          6           0        0.712213    3.112154    0.000000
      6          1           0       -0.157339    3.759871    0.000000
      7          1           0        1.327083    3.310945    0.876781
      8          1           0        1.327083    3.310945   -0.876781
      9          1           0       -1.693952   -2.222002    1.379195
     10          1           0       -1.255631   -0.490502    1.315483
     11          1           0       -0.302630   -1.625711    2.299403
     12          1           0       -0.302630   -1.625711   -2.299403
     13          1           0       -1.255631   -0.490502   -1.315483
     14          1           0       -1.693952   -2.222002   -1.379195
     15          6           0       -0.874656   -1.506460    1.382643
     16         16           0        0.250883   -1.833694   -0.000000
     17          6           0       -0.874656   -1.506460   -1.382643
 ---------------------------------------------------------------------

 SCF Done:  E(RHF) =  -706.243637438     A.U. after    2 cycles

 The electronic state is 1-A'.
 Alpha  occ. eigenvalues --  -75.68115 -21.08229 -21.03670 -13.14433 -13.12494
 Alpha  occ. eigenvalues --  -13.09415 -11.51429 -11.39297 -11.39125 -11.38747
 Alpha  occ. eigenvalues --   -8.02446  -1.81116  -1.64089  -1.23537  -1.10332
 Alpha  occ. eigenvalues --   -1.03283  -0.89187  -0.79177  -0.63843  -0.61322
 Alpha  occ. eigenvalues --   -0.60771  -0.59675  -0.59230  -0.57964  -0.57086
 Alpha  occ. eigenvalues --   -0.53974  -0.48764  -0.44654  -0.44538  -0.36916
 Alpha  occ. eigenvalues --   -0.32209  -0.28763  -0.22349
 Alpha virt. eigenvalues --    0.03384   0.03861   0.04537   0.05865   0.06157
 Alpha virt. eigenvalues --    0.06282   0.07049   0.07504   0.07985   0.08888
 Alpha virt. eigenvalues --    0.10876   0.11902   0.11963   0.12825   0.14232

 Mulliken charges:
               1
     1  C    5.797997
     2  O   -3.045328
     3  O   -3.659290
     4  H    2.717928
     5  C   -4.524363
     6  H    1.316138
     7  H    1.243539
     8  H    1.243539
     9  H    1.386420
    10  H    1.575642
    11  H    1.440733
    12  H    1.440733
    13  H    1.575642
    14  H    1.386420
    15  C   -4.705403
    16  S   -0.484943
    17  C   -4.705403
 Sum of Mulliken charges =  -0.00000

 Dipole moment (field-independent basis, Debye):
    X=              0.9761    Y=             -0.4449    Z=             -0.0000  Tot=              1.0727

 Test job not archived.
 1\1\GINC-SE018\SP\RHF\Aug-CC-pVDZ\C4H10O2S1\OHZDE\09-Apr-2025\0\\#t hf
  aug-cc-pvdz iop(5/13=1,5/36=2,99/5=2) pseudo=read geom=check guess=(r
 ead,tcheck) scf=(maxcycle=1)\\title\\0,1\C,0,0.08152563,1.86646531,0.\
 O,0,1.12794826,1.25988757,0.\O,0,-1.11612638,1.27040068,0.\H,0,-0.9946
 6015,0.28833063,0.\C,0,-0.03582077,3.36582142,0.\H,0,0.95204799,3.8127
 8193,0.\H,0,-0.5940149,3.69140047,-0.87678098\H,0,-0.5940149,3.6914004
 7,0.87678098\H,0,1.1750221,-2.35927326,-1.37919498\H,0,1.11679554,-0.5
 7410527,-1.31548339\H,0,-0.05675841,-1.47946862,-2.29940307\H,0,-0.056

 Normal termination of Gaussian 16 at Wed Apr  9 19:37:30 2025.
