 Gaussian 16, Revision C.01,

 ----------------------------------------------------------------------
 #t hf aug-cc-pvdz symm=none int=(grid=ultrafine) guess=(read,tcheck) s
 table=(opt,rrhf)
 ----------------------------------------------------------------------
 -----
 title
 -----
 Symbolic Z-matrix:
 Charge =  0 Multiplicity = 1

 SCF Done:  E(RHF) =  -747.043380240     A.U. after   14 cycles
 Normal termination of Gaussian 16 at Wed Apr  9 19:44:57 2025.
 Gaussian 16:  ES64L-G16RevC.01  3-Jul-2019

 ----------------------------------------------------------------------
 #t hf aug-cc-pvdz iop(5/13=1,5/36=2,99/5=2) pseudo=read geom=check gue
 ss=(read,tcheck) scf=(maxcycle=1)
 ----------------------------------------------------------------------
 -----
 title
 -----
 Structure from the checkpoint file:  "HB300SPXx10_1460_5.08_2.00_methylcyanate_phosphineF2_dimer_mol1.chk"
 Charge =  0 Multiplicity = 1

                         Standard orientation:
 ---------------------------------------------------------------------
 Center     Atomic      Atomic             Coordinates (Angstroms)
 Number     Number       Type             X           Y           Z
 ---------------------------------------------------------------------
      1          1           0       -4.231929   -1.058047    1.286937
      2          1           0       -4.834250   -1.727069   -0.257120
      3          1           0       -3.084269   -1.782351    0.118124
      4          6           0       -4.009859   -1.228510    0.237029
      5          8           0       -3.889346    0.062091   -0.442292
      6          6           0       -2.935724    0.812541   -0.039638
      7          7           0       -2.078057    1.509389    0.297130
      8         15           0        2.877706    0.421233   -0.158599
      9          9           0        1.787096   -0.765966   -0.114984
     10          9           0        4.172741   -0.473997    0.150322
     11          1           0        2.680996    0.842005    1.187075
 ---------------------------------------------------------------------

 SCF Done:  E(RHF) =  -748.806577837     A.U. after    2 cycles

 The electronic state is 1-A.
 Alpha  occ. eigenvalues -- -105.29374 -29.28871 -29.28560 -21.15419 -15.75364
 Alpha  occ. eigenvalues --  -11.48253 -11.46112  -2.88714  -1.85320  -1.62553
 Alpha  occ. eigenvalues --   -1.59046  -1.52637  -1.28942  -1.05670  -0.89917
 Alpha  occ. eigenvalues --   -0.73918  -0.67020  -0.65510  -0.55996  -0.55898
 Alpha  occ. eigenvalues --   -0.54035  -0.51166  -0.46354  -0.40537  -0.40188
 Alpha  occ. eigenvalues --   -0.35810  -0.34519  -0.34139  -0.28013  -0.25580
 Alpha  occ. eigenvalues --   -0.19160  -0.00139
 Alpha virt. eigenvalues --    0.02496   0.05405   0.06208   0.06703   0.07895
 Alpha virt. eigenvalues --    0.09778   0.10913   0.11666   0.12074   0.12265
 Alpha virt. eigenvalues --    0.13470   0.14246   0.14720   0.15562   0.15739

 Mulliken charges:
               1
     1  H    1.338366
     2  H    1.293398
     3  H    1.354618
     4  C   -2.815397
     5  O   -2.552495
     6  C    3.944449
     7  N   -2.576102
     8  P    1.569925
     9  F   -0.249194
    10  F   -0.223606
    11  H   -1.083962
 Sum of Mulliken charges =  -0.00000

 Dipole moment (field-independent basis, Debye):
    X=             -2.3789    Y=             -8.5454    Z=              1.7331  Tot=              9.0381

 Test job not archived.
 1\1\GINC-SE026\SP\RHF\Aug-CC-pVDZ\C2H4F2N1O1P1\OHZDE\09-Apr-2025\0\\#t
  hf aug-cc-pvdz iop(5/13=1,5/36=2,99/5=2) pseudo=read geom=check guess
 =(read,tcheck) scf=(maxcycle=1)\\title\\0,1\H,0,-2.89287834,1.38344137
 ,-2.41875402\H,0,-2.88368966,0.15494314,-3.71690786\H,0,-2.33807438,-0
 .28314113,-2.0686702\C,0,-2.39546429,0.50243917,-2.8151059\O,0,-1.0419
 8507,0.86597867,-3.23651367\C,0,-0.26338211,1.27221362,-2.30729377\N,0
 ,0.4658792,1.6354549,-1.48824768\P,0,2.07867943,-1.2129002,2.41522687\
 F,0,0.69107719,-1.56514185,1.67275746\F,0,1.8314193,-2.08078376,3.7417

 Normal termination of Gaussian 16 at Wed Apr  9 19:45:01 2025.
