 Gaussian 16, Revision C.01,

 ----------------------------------------------------------------------
 #t hf aug-cc-pvdz symm=none int=(grid=ultrafine) guess=(read,tcheck) s
 table=(opt,rrhf)
 ----------------------------------------------------------------------
 -----
 title
 -----
 Symbolic Z-matrix:
 Charge =  0 Multiplicity = 1

 SCF Done:  E(RHF) =  -783.965300516     A.U. after   15 cycles
 Normal termination of Gaussian 16 at Wed Apr  9 19:44:58 2025.
 Gaussian 16:  ES64L-G16RevC.01  3-Jul-2019

 ----------------------------------------------------------------------
 #t hf aug-cc-pvdz iop(5/13=1,5/36=2,99/5=2) pseudo=read geom=check gue
 ss=(read,tcheck) scf=(maxcycle=1)
 ----------------------------------------------------------------------
 -----
 title
 -----
 Structure from the checkpoint file:  "HB300SPXx10_1462_5.09_0.85_nitromethane_phosphineF2_dimer_mol1.chk"
 Charge =  0 Multiplicity = 1

                         Standard orientation:
 ---------------------------------------------------------------------
 Center     Atomic      Atomic             Coordinates (Angstroms)
 Number     Number       Type             X           Y           Z
 ---------------------------------------------------------------------
      1          1           0       -1.393046    1.735172    0.079236
      2          1           0       -2.613569    1.197617   -1.099575
      3          1           0       -2.983544    1.164698    0.668065
      4          6           0       -2.225722    1.059602   -0.097436
      5          7           0       -1.659660   -0.319737   -0.010353
      6          8           0       -1.790360   -0.922450    1.036037
      7          8           0       -1.065384   -0.735905   -0.994046
      8         15           0        1.472036   -0.188474   -0.394215
      9          9           0        2.839873   -0.059107    0.425073
     10          9           0        0.697812    1.063795    0.255206
     11          1           0        0.888359   -1.165188    0.464152
 ---------------------------------------------------------------------

 SCF Done:  E(RHF) =  -785.880200723     A.U. after    2 cycles

 The electronic state is 1-A.
 Alpha  occ. eigenvalues -- -105.28677 -29.29074 -29.28153 -21.12008 -21.10624
 Alpha  occ. eigenvalues --  -16.01161 -11.45391  -2.87949  -2.01967  -1.71494
 Alpha  occ. eigenvalues --   -1.62735  -1.58762  -1.52363  -1.21135  -0.90133
 Alpha  occ. eigenvalues --   -0.88123  -0.73166  -0.70742  -0.68332  -0.59355
 Alpha  occ. eigenvalues --   -0.58075  -0.55487  -0.46927  -0.41128  -0.37765
 Alpha  occ. eigenvalues --   -0.36227  -0.34485  -0.34254  -0.32937  -0.27782
 Alpha  occ. eigenvalues --   -0.24803  -0.19584   0.00620
 Alpha virt. eigenvalues --    0.03423   0.05541   0.06603   0.07737   0.09477
 Alpha virt. eigenvalues --    0.10849   0.11313   0.12333   0.13504   0.14310
 Alpha virt. eigenvalues --    0.15194   0.15860   0.17462   0.18120   0.21255

 Mulliken charges:
               1
     1  H    1.095714
     2  H    1.436377
     3  H    1.312111
     4  C   -3.205655
     5  N    5.631096
     6  O   -2.972778
     7  O   -2.928962
     8  P    1.538946
     9  F   -0.180398
    10  F   -0.481953
    11  H   -1.244498
 Sum of Mulliken charges =   0.00000

 Dipole moment (field-independent basis, Debye):
    X=             -0.5776    Y=              4.0211    Z=              4.3960  Tot=              5.9856

 Test job not archived.
 1\1\GINC-SE045\SP\RHF\Aug-CC-pVDZ\C1H4F2N1O2P1\OHZDE\09-Apr-2025\0\\#t
  hf aug-cc-pvdz iop(5/13=1,5/36=2,99/5=2) pseudo=read geom=check guess
 =(read,tcheck) scf=(maxcycle=1)\\title\\0,1\H,0,0.49481138,0.55069733,
 -2.50359179\H,0,-1.08891031,0.71291216,-3.29967626\H,0,-0.00441746,2.1
 4812453,-3.13671373\C,0,-0.34098337,1.21704881,-2.69950341\N,0,-0.9468
 7558,1.51662809,-1.36768821\O,0,-0.63929751,2.55888018,-0.82511637\O,0
 ,-1.68734525,0.66720154,-0.89420145\P,0,-0.04361695,-0.68472329,0.7084
 3138\F,0,1.08485584,-1.00736976,1.7953522\F,0,0.92439662,-0.30600885,-

 Normal termination of Gaussian 16 at Wed Apr  9 19:45:02 2025.
