 Gaussian 16, Revision C.01,

 ----------------------------------------------------------------------
 #t hf aug-cc-pvdz symm=none int=(grid=ultrafine) guess=(read,tcheck) s
 table=(opt,rrhf)
 ----------------------------------------------------------------------
 -----
 title
 -----
 Symbolic Z-matrix:
 Charge =  0 Multiplicity = 1

 SCF Done:  E(RHF) =  -936.857314216     A.U. after   11 cycles
 Normal termination of Gaussian 16 at Wed Apr  9 04:10:25 2025.
 Gaussian 16:  ES64L-G16RevC.01  3-Jul-2019

 ----------------------------------------------------------------------
 #t hf aug-cc-pvdz iop(5/13=1,5/36=2,99/5=2) pseudo=read geom=check gue
 ss=(read,tcheck) scf=(maxcycle=1)
 ----------------------------------------------------------------------
 -----
 title
 -----
 Structure from the checkpoint file:  "HB300SPXx10_1330_4.37_2.00_hydrogenchloride_dimethylsulfide_dimer_mol1.chk"
 Charge =  0 Multiplicity = 1

                         Standard orientation:
 ---------------------------------------------------------------------
 Center     Atomic      Atomic             Coordinates (Angstroms)
 Number     Number       Type             X           Y           Z
 ---------------------------------------------------------------------
      1          1           0       -2.425564   -0.000003   -0.399230
      2         17           0       -3.679164   -0.000001    0.027542
      3          1           0        1.110986   -1.354202    1.200256
      4          1           0        2.889885   -1.365705    1.052081
      5          1           0        1.893942   -2.299391   -0.078350
      6          1           0        1.893936    2.299392   -0.078351
      7          1           0        2.889878    1.365708    1.052084
      8          1           0        1.110978    1.354203    1.200253
      9          6           0        1.948961   -1.385386    0.507106
     10         16           0        1.862141    0.000000   -0.656389
     11          6           0        1.948956    1.385388    0.507105
 ---------------------------------------------------------------------

 SCF Done:  E(RHF) =  -937.768715224     A.U. after    2 cycles

 The electronic state is 1-A.
 Alpha  occ. eigenvalues --  -99.90913 -75.67472 -13.09399 -13.06857 -13.00725
 Alpha  occ. eigenvalues --  -11.39541 -11.39380 -10.47859  -9.67882  -9.67099
 Alpha  occ. eigenvalues --   -9.67091  -8.01579  -1.29519  -1.22884  -1.03428
 Alpha  occ. eigenvalues --   -0.88262  -0.68288  -0.60572  -0.60433  -0.58310
 Alpha  occ. eigenvalues --   -0.57313  -0.52412  -0.52406  -0.44750  -0.36900
 Alpha  occ. eigenvalues --   -0.22297
 Alpha virt. eigenvalues --    0.02434   0.03581   0.03970   0.05739   0.06615
 Alpha virt. eigenvalues --    0.07296   0.07965   0.08727   0.10663   0.11286
 Alpha virt. eigenvalues --    0.12526   0.12861   0.13564   0.14405   0.16664

 Mulliken charges:
               1
     1  H    0.450739
     2  Cl  -0.469495
     3  H    1.420478
     4  H    1.393188
     5  H    1.384570
     6  H    1.384570
     7  H    1.393187
     8  H    1.420479
     9  C   -4.707835
    10  S    1.037955
    11  C   -4.707835
 Sum of Mulliken charges =  -0.00000

 Dipole moment (field-independent basis, Debye):
    X=              1.1478    Y=             -0.0000    Z=             -0.4191  Tot=              1.2219

 Test job not archived.
 1\1\GINC-SE412\SP\RHF\Aug-CC-pVDZ\C2H7Cl1S1\OHZDE\09-Apr-2025\0\\#t hf
  aug-cc-pvdz iop(5/13=1,5/36=2,99/5=2) pseudo=read geom=check guess=(r
 ead,tcheck) scf=(maxcycle=1)\\title\\0,1\H,0,-0.09169332,-0.01707414,-
 1.03147385\Cl,0,0.64323048,-0.44620369,-2.04605842\H,0,0.80382746,1.28
 299166,2.76421731\H,0,0.1518641,1.7194473,4.36765777\H,0,-0.08684223,2
 .79961881,2.98281335\H,0,-2.13952384,-1.30800438,3.23328309\H,0,-1.067
 30662,-0.72024756,4.51642024\H,0,-0.40507834,-1.13614993,2.9117235\C,0
 ,-0.01750885,1.76066349,3.29418821\S,0,-1.59117622,0.97020313,2.870753

 Normal termination of Gaussian 16 at Wed Apr  9 04:10:27 2025.
