 Gaussian 16, Revision C.01,

 ----------------------------------------------------------------------
 #t hf aug-cc-pvdz symm=none int=(grid=ultrafine) guess=(read,tcheck) s
 table=(opt,rrhf)
 ----------------------------------------------------------------------
 -----
 title
 -----
 Symbolic Z-matrix:
 Charge =  0 Multiplicity = 1

 SCF Done:  E(RHF) =  -601.591933558     A.U. after   14 cycles
 Normal termination of Gaussian 16 at Wed Apr  9 19:34:52 2025.
 Gaussian 16:  ES64L-G16RevC.01  3-Jul-2019

 ----------------------------------------------------------------------
 #t hf aug-cc-pvdz iop(5/13=1,5/36=2,99/5=2) pseudo=read geom=check gue
 ss=(read,tcheck) scf=(maxcycle=1)
 ----------------------------------------------------------------------
 -----
 title
 -----
 Structure from the checkpoint file:  "HB300SPXx10_102_1.11_0.85_sulfane_methylazide_dimer_mol1.chk"
 Charge =  0 Multiplicity = 1

                         Standard orientation:
 ---------------------------------------------------------------------
 Center     Atomic      Atomic             Coordinates (Angstroms)
 Number     Number       Type             X           Y           Z
 ---------------------------------------------------------------------
      1          1           0       -1.127064   -0.517102   -0.011407
      2          1           0       -2.616621   -0.462238    1.238409
      3         16           0       -2.455748   -0.316938   -0.084903
      4          1           0        1.083167    1.952989   -0.907511
      5          1           0        1.126760    1.988619    0.872320
      6          1           0       -0.419176    1.807984    0.022440
      7          6           0        0.634417    1.552102    0.002285
      8          7           0        0.706322    0.081708    0.030274
      9          7           0        1.830217   -0.406347    0.004128
     10          7           0        2.811804   -0.962769   -0.015760
 ---------------------------------------------------------------------

 SCF Done:  E(RHF) =  -602.775209324     A.U. after    2 cycles

 The electronic state is 1-A.
 Alpha  occ. eigenvalues --  -75.68007 -15.97513 -15.86180 -15.78089 -13.14212
 Alpha  occ. eigenvalues --  -13.08049 -13.01654 -11.41853  -8.01841  -1.69104
 Alpha  occ. eigenvalues --   -1.38908  -1.09904  -1.06082  -0.75604  -0.69756
 Alpha  occ. eigenvalues --   -0.69487  -0.64702  -0.59248  -0.56661  -0.53826
 Alpha  occ. eigenvalues --   -0.44787  -0.37834  -0.35647  -0.24858
 Alpha virt. eigenvalues --    0.02855   0.04539   0.05663   0.06671   0.07505
 Alpha virt. eigenvalues --    0.10003   0.10606   0.11212   0.12180   0.13310
 Alpha virt. eigenvalues --    0.13994   0.14312   0.15787   0.16771   0.17083

 Mulliken charges:
               1
     1  H    1.154288
     2  H    1.030035
     3  S   -2.364320
     4  H    1.313624
     5  H    1.336525
     6  H    1.453749
     7  C   -3.188244
     8  N   -1.985342
     9  N    2.787457
    10  N   -1.537771
 Sum of Mulliken charges =  -0.00000

 Dipole moment (field-independent basis, Debye):
    X=             -0.3939    Y=              1.9052    Z=             -0.8726  Tot=              2.1322

 Test job not archived.
 1\1\GINC-SE083\SP\RHF\Aug-CC-pVDZ\C1H5N3S1\OHZDE\09-Apr-2025\0\\#t hf
 aug-cc-pvdz iop(5/13=1,5/36=2,99/5=2) pseudo=read geom=check guess=(re
 ad,tcheck) scf=(maxcycle=1)\\title\\0,1\H,0,1.21774303,0.78814331,-0.0
 7896573\H,0,1.90622629,2.11329938,-1.32547278\S,0,1.84165876,1.9773473
 1,0.00700442\H,0,-1.9606485,0.36849276,1.15034018\H,0,-2.21149001,0.47
 460626,-0.60942846\H,0,-1.06868415,1.56625566,0.19502189\C,0,-1.476658
 46,0.56152287,0.19205615\N,0,-0.33989092,-0.34873922,-0.02518789\N,0,-
 0.60167877,-1.54573235,-0.0515658\N,0,-0.72601934,-2.66654533,-0.09436

 Normal termination of Gaussian 16 at Wed Apr  9 19:34:55 2025.
