 Gaussian 16, Revision C.01,

 ----------------------------------------------------------------------
 #t hf aug-cc-pvdz symm=none int=(grid=ultrafine) guess=(read,tcheck) s
 table=(opt,rrhf)
 ----------------------------------------------------------------------
 -----
 title
 -----
 Symbolic Z-matrix:
 Charge =  0 Multiplicity = 1

 SCF Done:  E(RHF) =  -1102.13964365     A.U. after   13 cycles
 Normal termination of Gaussian 16 at Wed Apr  9 19:36:47 2025.
 Gaussian 16:  ES64L-G16RevC.01  3-Jul-2019

 ----------------------------------------------------------------------
 #t hf aug-cc-pvdz iop(5/13=1,5/36=2,99/5=2) pseudo=read geom=check gue
 ss=(read,tcheck) scf=(maxcycle=1)
 ----------------------------------------------------------------------
 -----
 title
 -----
 Structure from the checkpoint file:  "HB300SPXx10_1111_4.15_0.80_aceticacid_dimethyldisulfide_dimer_mol1.chk"
 Charge =  0 Multiplicity = 1

                         Standard orientation:
 ---------------------------------------------------------------------
 Center     Atomic      Atomic             Coordinates (Angstroms)
 Number     Number       Type             X           Y           Z
 ---------------------------------------------------------------------
      1          6           0        2.611317   -0.069474   -0.048391
      2          8           0        2.321486    1.091391   -0.209786
      3          8           0        1.707096   -1.061460   -0.057675
      4          1           0        0.821016   -0.675794   -0.226618
      5          6           0        4.004281   -0.584742    0.184320
      6          1           0        4.703644    0.243501    0.205856
      7          1           0        4.043242   -1.133923    1.123984
      8          1           0        4.274757   -1.281148   -0.608382
      9          1           0       -4.577801   -0.551847    0.227782
     10          1           0       -3.805417    0.000675   -1.273866
     11          1           0       -3.786221    1.034192    0.180867
     12          1           0       -0.257941    1.248303    1.580538
     13          1           0       -1.228809    2.337944    0.550870
     14          1           0        0.507196    2.077487    0.212839
     15          6           0       -3.745983    0.013839   -0.189654
     16         16           0       -2.232970   -0.826333    0.374174
     17         16           0       -0.746109    0.236989   -0.558557
     18          6           0       -0.412456    1.622157    0.573049
 ---------------------------------------------------------------------

 SCF Done:  E(RHF) =  -1103.99254923     A.U. after    2 cycles

 The electronic state is 1-A.
 Alpha  occ. eigenvalues --  -75.70773 -75.70682 -21.08121 -21.03648 -13.18314
 Alpha  occ. eigenvalues --  -13.14749 -13.12594 -13.10272 -13.08391 -13.04436
 Alpha  occ. eigenvalues --  -11.51292 -11.40612 -11.39386 -11.38582  -8.05076
 Alpha  occ. eigenvalues --   -8.04735  -1.81122  -1.64041  -1.27631  -1.13461
 Alpha  occ. eigenvalues --   -1.10182  -0.98754  -0.88273  -0.79121  -0.63861
 Alpha  occ. eigenvalues --   -0.61144  -0.60839  -0.60079  -0.59863  -0.59041
 Alpha  occ. eigenvalues --   -0.58244  -0.54083  -0.48703  -0.47857  -0.44668
 Alpha  occ. eigenvalues --   -0.43652  -0.33823  -0.32126  -0.28831  -0.24778
 Alpha  occ. eigenvalues --   -0.24351
 Alpha virt. eigenvalues --    0.02545   0.03509   0.04455   0.04604   0.06547
 Alpha virt. eigenvalues --    0.06674   0.06789   0.07349   0.08133   0.08399
 Alpha virt. eigenvalues --    0.09646   0.11025   0.12116   0.12620   0.12931

 Mulliken charges:
               1
     1  C    5.680178
     2  O   -3.223611
     3  O   -3.578152
     4  H    2.931911
     5  C   -4.491593
     6  H    1.298144
     7  H    1.261861
     8  H    1.234189
     9  H    1.340254
    10  H    1.518971
    11  H    1.558788
    12  H    1.488746
    13  H    1.461858
    14  H    1.811993
    15  C   -4.880448
    16  S    0.643465
    17  S   -1.403334
    18  C   -4.653221
 Sum of Mulliken charges =  -0.00000

 Dipole moment (field-independent basis, Debye):
    X=             -0.3895    Y=             -1.3099    Z=              0.0395  Tot=              1.3672

 Test job not archived.
 1\1\GINC-SE115\SP\RHF\Aug-CC-pVDZ\C4H10O2S2\OHZDE\09-Apr-2025\0\\#t hf
  aug-cc-pvdz iop(5/13=1,5/36=2,99/5=2) pseudo=read geom=check guess=(r
 ead,tcheck) scf=(maxcycle=1)\\title\\0,1\C,0,2.51189353,-1.3688008,0.0
 1480743\O,0,1.76216303,-1.97148126,0.7444221\O,0,2.20838592,-0.1819016
 3,-0.53372859\H,0,1.31541707,0.08523139,-0.22768185\C,0,3.88111819,-1.
 83853704,-0.39087365\H,0,4.08390343,-2.80677129,0.05292751\H,0,3.94369
 33,-1.90220497,-1.47628393\H,0,4.62800978,-1.11523999,-0.06604891\H,0,
 -3.444262,2.61530364,-0.78737197\H,0,-2.68249992,2.51192479,0.81445039

 Normal termination of Gaussian 16 at Wed Apr  9 19:36:55 2025.
