 Gaussian 16, Revision C.01,

 ----------------------------------------------------------------------
 #t hf aug-cc-pvdz symm=none int=(grid=ultrafine) guess=(read,tcheck) s
 table=(opt,rrhf)
 ----------------------------------------------------------------------
 -----
 title
 -----
 Symbolic Z-matrix:
 Charge =  0 Multiplicity = 1

 SCF Done:  E(RHF) =  -609.881874414     A.U. after   13 cycles
 Normal termination of Gaussian 16 at Wed Apr  9 19:36:18 2025.
 Gaussian 16:  ES64L-G16RevC.01  3-Jul-2019

 ----------------------------------------------------------------------
 #t hf aug-cc-pvdz iop(5/13=1,5/36=2,99/5=2) pseudo=read geom=check gue
 ss=(read,tcheck) scf=(maxcycle=1)
 ----------------------------------------------------------------------
 -----
 title
 -----
 Structure from the checkpoint file:  "HB300SPXx10_1052_4.09_0.85_ammonia_tetrahydrothiophene_dimer_mol1.chk"
 Charge =  0 Multiplicity = 1

                         Standard orientation:
 ---------------------------------------------------------------------
 Center     Atomic      Atomic             Coordinates (Angstroms)
 Number     Number       Type             X           Y           Z
 ---------------------------------------------------------------------
      1          7           0        2.437422   -0.676237   -0.309595
      2          1           0        1.929611    0.181772   -0.111403
      3          1           0        3.137457   -0.784985    0.413525
      4          1           0        2.934871   -0.537824   -1.180310
      5          1           0       -1.240908    0.213870    1.994032
      6          1           0        0.459362   -0.266301    2.044812
      7          1           0       -1.318727   -2.014783    1.049948
      8          1           0        0.253975    0.053031   -1.827857
      9          1           0        0.214754   -1.774764    0.204307
     10          1           0       -1.164699    1.110958   -1.854077
     11          1           0       -1.556004   -1.515174   -1.494162
     12          1           0       -2.427707   -0.391524   -0.452648
     13         16           0        0.030021    1.295096    0.241305
     14          6           0       -0.387498   -0.084256    1.388295
     15          6           0       -0.712492   -1.289308    0.506821
     16          6           0       -1.434170   -0.749993   -0.727190
     17          6           0       -0.593220    0.413199   -1.247906
 ---------------------------------------------------------------------

 SCF Done:  E(RHF) =  -611.205317473     A.U. after    2 cycles

 The electronic state is 1-A.
 Alpha  occ. eigenvalues --  -75.66104 -15.72507 -13.10891 -13.10446 -13.09182
 Alpha  occ. eigenvalues --  -11.43276 -11.42034 -11.38563 -11.35436  -8.00259
 Alpha  occ. eigenvalues --   -1.32213  -1.23724  -1.06904  -1.06722  -0.84259
 Alpha  occ. eigenvalues --   -0.82445  -0.66107  -0.64936  -0.60979  -0.60831
 Alpha  occ. eigenvalues --   -0.59423  -0.53352  -0.48272  -0.46510  -0.44826
 Alpha  occ. eigenvalues --   -0.41682  -0.37657  -0.34357  -0.21757
 Alpha virt. eigenvalues --    0.03869   0.04612   0.04842   0.05804   0.06046
 Alpha virt. eigenvalues --    0.06258   0.06460   0.06987   0.07471   0.08941
 Alpha virt. eigenvalues --    0.09347   0.11337   0.12944   0.14433   0.14712

 Mulliken charges:
               1
     1  N   -2.009364
     2  H    1.644079
     3  H    0.503106
     4  H    0.496940
     5  H    1.408217
     6  H    1.404359
     7  H    1.256254
     8  H    1.522666
     9  H    1.784902
    10  H    1.357639
    11  H    1.292331
    12  H    1.404089
    13  S    0.244992
    14  C   -3.388449
    15  C   -2.888256
    16  C   -2.604065
    17  C   -3.429441
 Sum of Mulliken charges =  -0.00000

 Dipole moment (field-independent basis, Debye):
    X=              0.4999    Y=              0.4930    Z=              0.0163  Tot=              0.7023

 Test job not archived.
 1\1\GINC-SE016\SP\RHF\Aug-CC-pVDZ\C4H11N1S1\OHZDE\09-Apr-2025\0\\#t hf
  aug-cc-pvdz iop(5/13=1,5/36=2,99/5=2) pseudo=read geom=check guess=(r
 ead,tcheck) scf=(maxcycle=1)\\title\\0,1\N,0,-1.82627315,2.2398073,0.1
 9813908\H,0,-1.3275361,1.71497926,-0.51540753\H,0,-2.80551666,2.240204
 76,-0.05849198\H,0,-1.50884454,3.19950412,0.14356214\H,0,-0.69571178,-
 2.02520911,-0.20256963\H,0,-1.99736279,-0.82958651,-0.21845509\H,0,-0.
 80003113,-1.36357764,2.12457691\H,0,0.86821391,1.71431086,0.45887428\H
 ,0,-1.13149737,0.31825586,1.69347796\H,0,2.17726437,0.68796255,-0.1457

 Normal termination of Gaussian 16 at Wed Apr  9 19:36:24 2025.
