 Gaussian 16, Revision C.01,

 ----------------------------------------------------------------------
 #t hf aug-cc-pvdz symm=none int=(grid=ultrafine) guess=(read,tcheck) s
 table=(opt,rrhf)
 ----------------------------------------------------------------------
 -----
 title
 -----
 Symbolic Z-matrix:
 Charge =  0 Multiplicity = 1

 SCF Done:  E(RHF) =  -914.495160078     A.U. after   12 cycles

 1\1\GINC-SE116\Stability\RHF\Aug-CC-pVDZ\C3H10S2\OHZDE\09-Apr-2025\0\\
 #t hf aug-cc-pvdz symm=none int=(grid=ultrafine) guess=(read,tcheck) s
 table=(opt,rrhf)\\title\\0,1\H,0,2.306559,-2.0578968,-0.64952301\H,0,3
 .32031438,-1.47471252,0.67641305\H,0,2.52307119,-0.31083024,-0.3888258
 5\H,0,0.07002633,-1.01993654,0.36023035\C,0,2.42249764,-1.27751778,0.0
 9684023\S,0,1.02865784,-1.2837739,1.27093846\H,0,0.61402831,1.59930914
 ,-0.05019179\H,0,-0.29878043,2.87795022,-0.89351268\H,0,0.71608463,1.7
 5831833,-1.8158505\H,0,-3.09167672,0.35750957,0.34204842\H,0,-2.567742

 Normal termination of Gaussian 16 at Wed Apr  9 19:38:11 2025.
 Gaussian 16:  ES64L-G16RevC.01  3-Jul-2019

 ----------------------------------------------------------------------
 #t hf aug-cc-pvdz iop(5/13=1,5/36=2,99/5=2) pseudo=read geom=check gue
 ss=(read,tcheck) scf=(maxcycle=1)
 ----------------------------------------------------------------------
 -----
 title
 -----
 Structure from the checkpoint file:  "HB300SPXx10_1186_4.23_1.05_methanethiol_dimethylsulfide_dimer_mol1.chk"
 Charge =  0 Multiplicity = 1

                         Standard orientation:
 ---------------------------------------------------------------------
 Center     Atomic      Atomic             Coordinates (Angstroms)
 Number     Number       Type             X           Y           Z
 ---------------------------------------------------------------------
      1          1           0        2.762036    1.030221   -1.283903
      2          1           0        3.621036    0.949465    0.259310
      3          1           0        1.996289    1.643534    0.200872
      4          1           0        0.839689   -0.644916   -0.510898
      5          6           0        2.645860    0.878219   -0.214843
      6         16           0        2.009894   -0.791855    0.142557
      7          1           0       -0.414744    0.965442    1.266173
      8          1           0       -2.117277    1.478172    1.399668
      9          1           0       -1.024448    2.314979    0.286244
     10          1           0       -2.311324   -2.042537   -0.402126
     11          1           0       -2.891677   -1.107535    0.985845
     12          1           0       -1.175154   -1.568797    0.874888
     13          6           0       -1.275283    1.350995    0.722080
     14         16           0       -1.709085    0.240538   -0.641011
     15          6           0       -2.053472   -1.262039    0.309294
 ---------------------------------------------------------------------

 SCF Done:  E(RHF) =  -915.599878211     A.U. after    2 cycles

 The electronic state is 1-A.
 Alpha  occ. eigenvalues --  -75.67751 -75.67543 -13.11344 -13.10154 -13.07649
 Alpha  occ. eigenvalues --  -13.07350 -13.05883 -13.01559 -11.39536 -11.39370
 Alpha  occ. eigenvalues --  -11.39310  -8.01640  -8.01617  -1.22994  -1.17736
 Alpha  occ. eigenvalues --   -1.03162  -0.93559  -0.88247  -0.60885  -0.60307
 Alpha  occ. eigenvalues --   -0.59328  -0.58498  -0.58099  -0.56903  -0.48605
 Alpha  occ. eigenvalues --   -0.44590  -0.39071  -0.36951  -0.23286  -0.22192
 Alpha virt. eigenvalues --    0.02450   0.03243   0.04319   0.04969   0.06382
 Alpha virt. eigenvalues --    0.06818   0.07313   0.07606   0.08792   0.09618
 Alpha virt. eigenvalues --    0.10011   0.11870   0.12923   0.13098   0.13832

 Mulliken charges:
               1
     1  H    1.395571
     2  H    1.353938
     3  H    1.457400
     4  H    1.163351
     5  C   -4.776251
     6  S   -0.575052
     7  H    1.568220
     8  H    1.364946
     9  H    1.475120
    10  H    1.414225
    11  H    1.384519
    12  H    1.377888
    13  C   -4.696824
    14  S    0.767197
    15  C   -4.674250
 Sum of Mulliken charges =  -0.00000

 Dipole moment (field-independent basis, Debye):
    X=              0.4443    Y=              0.0631    Z=              0.0765  Tot=              0.4553

 Test job not archived.
 1\1\GINC-SE116\SP\RHF\Aug-CC-pVDZ\C3H10S2\OHZDE\09-Apr-2025\0\\#t hf a
 ug-cc-pvdz iop(5/13=1,5/36=2,99/5=2) pseudo=read geom=check guess=(rea
 d,tcheck) scf=(maxcycle=1)\\title\\0,1\H,0,2.306559,-2.0578968,-0.6495
 2301\H,0,3.32031438,-1.47471252,0.67641305\H,0,2.52307119,-0.31083024,
 -0.38882585\H,0,0.07002633,-1.01993654,0.36023035\C,0,2.42249764,-1.27
 751778,0.09684023\S,0,1.02865784,-1.2837739,1.27093846\H,0,0.61402831,
 1.59930914,-0.05019179\H,0,-0.29878043,2.87795022,-0.89351268\H,0,0.71
 608463,1.75831833,-1.8158505\H,0,-3.09167672,0.35750957,0.34204842\H,0

 Normal termination of Gaussian 16 at Wed Apr  9 19:38:15 2025.
