 Gaussian 16, Revision C.01,

 ----------------------------------------------------------------------
 #t hf aug-cc-pvdz symm=none int=(grid=ultrafine) guess=(read,tcheck) s
 table=(opt,rrhf)
 ----------------------------------------------------------------------
 -----
 title
 -----
 Symbolic Z-matrix:
 Charge =  0 Multiplicity = 1

 SCF Done:  E(RHF) =  -514.629206454     A.U. after   12 cycles
 Normal termination of Gaussian 16 at Wed Apr  9 19:36:52 2025.
 Gaussian 16:  ES64L-G16RevC.01  3-Jul-2019

 ----------------------------------------------------------------------
 #t hf aug-cc-pvdz iop(5/13=1,5/36=2,99/5=2) pseudo=read geom=check gue
 ss=(read,tcheck) scf=(maxcycle=1)
 ----------------------------------------------------------------------
 -----
 title
 -----
 Structure from the checkpoint file:  "HB300SPXx10_1131_4.17_0.80_aceticacid_thioacetone_dimer_mol3.chk"
 Charge =  0 Multiplicity = 1

                         Standard orientation:
 ---------------------------------------------------------------------
 Center     Atomic      Atomic             Coordinates (Angstroms)
 Number     Number       Type             X           Y           Z
 ---------------------------------------------------------------------
      1          1           0       -2.154054    0.310976    0.000000
      2          1           0       -1.363296    1.642065    0.874412
      3          1           0       -1.363296    1.642065   -0.874412
      4          1           0        2.142116    0.557045    0.000000
      5          1           0        1.192493    1.781942   -0.872921
      6          6           0       -1.307484    0.988957    0.000000
      7          6           0        0.000000    0.258518    0.000000
      8         16           0        0.055840   -1.371425    0.000000
      9          6           0        1.217503    1.123651    0.000000
     10          1           0        1.192493    1.781942    0.872921
 ---------------------------------------------------------------------

 SCF Done:  E(RHF) =  -515.448525273     A.U. after    2 cycles

 The electronic state is 1-A'.
 Alpha  occ. eigenvalues --  -75.65906 -13.14924 -13.00918 -12.96866 -11.47398
 Alpha  occ. eigenvalues --  -11.40287 -11.38543  -8.00123  -1.28390  -1.04274
 Alpha  occ. eigenvalues --   -1.03657  -0.75237  -0.61663  -0.61057  -0.60099
 Alpha  occ. eigenvalues --   -0.55449  -0.50746  -0.41449  -0.31886  -0.21449
 Alpha virt. eigenvalues --    0.02356   0.05335   0.05481   0.06669   0.06765
 Alpha virt. eigenvalues --    0.07271   0.08158   0.08756   0.09888   0.13587
 Alpha virt. eigenvalues --    0.13722   0.15094   0.17041   0.17176   0.17318

 Mulliken charges:
               1
     1  H    1.497263
     2  H    1.157027
     3  H    1.157027
     4  H    1.490340
     5  H    1.165617
     6  C   -4.208907
     7  C   -0.191796
     8  S    1.002504
     9  C   -4.234691
    10  H    1.165617
 Sum of Mulliken charges =   0.00000

 Dipole moment (field-independent basis, Debye):
    X=             -0.0339    Y=              0.0709    Z=              0.0000  Tot=              0.0786

 Test job not archived.
 1\1\GINC-SE108\SP\RHF\Aug-CC-pVDZ\C3H6S1\OHZDE\09-Apr-2025\0\\#t hf au
 g-cc-pvdz iop(5/13=1,5/36=2,99/5=2) pseudo=read geom=check guess=(read
 ,tcheck) scf=(maxcycle=1)\\title\\0,1\H,0,-0.56683422,-3.69438738,0.\H
 ,0,0.9758559,-3.56323056,-0.87441231\H,0,0.9758559,-3.56323056,0.87441
 231\H,0,1.52805716,0.06447593,0.\H,0,2.21624809,-1.32424657,0.87292068
 \C,0,0.41245578,-3.22820092,0.\C,0,0.32528707,-1.7330563,0.\S,0,-1.117
 16528,-0.97202844,0.\C,0,1.6347512,-1.01467575,0.\H,0,2.21624809,-1.32
 424657,-0.87292068\\Version=ES64L-G16RevC.01\State=1-A'\HF=-515.448525

 Normal termination of Gaussian 16 at Wed Apr  9 19:36:55 2025.
