 Gaussian 16, Revision C.01,

 ----------------------------------------------------------------------
 #t hf aug-cc-pvdz symm=none int=(grid=ultrafine) guess=(read,tcheck) s
 table=(opt,rrhf)
 ----------------------------------------------------------------------
 -----
 title
 -----
 Symbolic Z-matrix:
 Charge =  0 Multiplicity = 1

 SCF Done:  E(RHF) =  -1102.15215545     A.U. after   13 cycles
 Normal termination of Gaussian 16 at Wed Apr  9 19:36:42 2025.
 Gaussian 16:  ES64L-G16RevC.01  3-Jul-2019

 ----------------------------------------------------------------------
 #t hf aug-cc-pvdz iop(5/13=1,5/36=2,99/5=2) pseudo=read geom=check gue
 ss=(read,tcheck) scf=(maxcycle=1)
 ----------------------------------------------------------------------
 -----
 title
 -----
 Structure from the checkpoint file:  "HB300SPXx10_1113_4.15_0.90_aceticacid_dimethyldisulfide_dimer_mol1.chk"
 Charge =  0 Multiplicity = 1

                         Standard orientation:
 ---------------------------------------------------------------------
 Center     Atomic      Atomic             Coordinates (Angstroms)
 Number     Number       Type             X           Y           Z
 ---------------------------------------------------------------------
      1          6           0        2.733173   -0.069831   -0.042618
      2          8           0        2.412965    1.083904   -0.197600
      3          8           0        1.854269   -1.084336   -0.049363
      4          1           0        0.957556   -0.720603   -0.210675
      5          6           0        4.140322   -0.550529    0.178444
      6          1           0        4.818663    0.295060    0.198247
      7          1           0        4.199775   -1.101933    1.115729
      8          1           0        4.422715   -1.237006   -0.618750
      9          1           0       -4.638330   -0.625667    0.242050
     10          1           0       -3.890765   -0.048370   -1.262835
     11          1           0       -3.887438    0.980049    0.195628
     12          1           0       -0.355913    1.278306    1.571514
     13          1           0       -1.361247    2.346741    0.552757
     14          1           0        0.378358    2.131509    0.201671
     15          6           0       -3.824039   -0.037617   -0.179021
     16         16           0       -2.286337   -0.841269    0.371083
     17         16           0       -0.833439    0.262685   -0.567943
     18          6           0       -0.526929    1.651761    0.566547
 ---------------------------------------------------------------------

 SCF Done:  E(RHF) =  -1104.00546814     A.U. after    2 cycles

 The electronic state is 1-A.
 Alpha  occ. eigenvalues --  -75.70779 -75.70493 -21.09305 -21.03977 -13.17653
 Alpha  occ. eigenvalues --  -13.13833 -13.12183 -13.09852 -13.08065 -13.04199
 Alpha  occ. eigenvalues --  -11.51432 -11.40441 -11.39535 -11.38796  -8.04907
 Alpha  occ. eigenvalues --   -8.04543  -1.81328  -1.64087  -1.27282  -1.13175
 Alpha  occ. eigenvalues --   -1.10426  -0.98540  -0.87644  -0.79173  -0.63468
 Alpha  occ. eigenvalues --   -0.61186  -0.60683  -0.59971  -0.59826  -0.59177
 Alpha  occ. eigenvalues --   -0.58388  -0.53887  -0.48919  -0.47687  -0.44755
 Alpha  occ. eigenvalues --   -0.43459  -0.34110  -0.32475  -0.29064  -0.25340
 Alpha  occ. eigenvalues --   -0.24333
 Alpha virt. eigenvalues --    0.02583   0.03475   0.04416   0.04605   0.06522
 Alpha virt. eigenvalues --    0.06611   0.06728   0.07373   0.08178   0.08389
 Alpha virt. eigenvalues --    0.09594   0.10903   0.12043   0.12580   0.12909

 Mulliken charges:
               1
     1  C    5.625701
     2  O   -3.171778
     3  O   -3.424028
     4  H    2.314447
     5  C   -4.443843
     6  H    1.295258
     7  H    1.256228
     8  H    1.238407
     9  H    1.344154
    10  H    1.511589
    11  H    1.559143
    12  H    1.514501
    13  H    1.466579
    14  H    1.740254
    15  C   -4.851906
    16  S    0.567129
    17  S   -0.869066
    18  C   -4.672771
 Sum of Mulliken charges =  -0.00000

 Dipole moment (field-independent basis, Debye):
    X=             -0.3920    Y=             -1.2497    Z=              0.0051  Tot=              1.3098

 Test job not archived.
 1\1\GINC-SE117\SP\RHF\Aug-CC-pVDZ\C4H10O2S2\OHZDE\09-Apr-2025\0\\#t hf
  aug-cc-pvdz iop(5/13=1,5/36=2,99/5=2) pseudo=read geom=check guess=(r
 ead,tcheck) scf=(maxcycle=1)\\title\\0,1\C,0,2.51189353,-1.3688008,0.0
 1480743\O,0,1.76216303,-1.97148126,0.7444221\O,0,2.20838592,-0.1819016
 3,-0.53372859\H,0,1.31541707,0.08523139,-0.22768185\C,0,3.88111819,-1.
 83853704,-0.39087365\H,0,4.08390343,-2.80677129,0.05292751\H,0,3.94369
 33,-1.90220497,-1.47628393\H,0,4.62800978,-1.11523999,-0.06604891\H,0,
 -3.65414313,2.65567856,-0.70115812\H,0,-2.89238105,2.55229971,0.900664

 Normal termination of Gaussian 16 at Wed Apr  9 19:36:50 2025.
