 Gaussian 16, Revision C.01,

 ----------------------------------------------------------------------
 #t hf aug-cc-pvdz symm=none int=(grid=ultrafine) guess=(read,tcheck) s
 table=(opt,rrhf)
 ----------------------------------------------------------------------
 -----
 title
 -----
 Symbolic Z-matrix:
 Charge =  0 Multiplicity = 1

 SCF Done:  E(RHF) =  -742.466180337     A.U. after   14 cycles
 Normal termination of Gaussian 16 at Wed Apr  9 19:37:44 2025.
 Gaussian 16:  ES64L-G16RevC.01  3-Jul-2019

 ----------------------------------------------------------------------
 #t hf aug-cc-pvdz iop(5/13=1,5/36=2,99/5=2) pseudo=read geom=check gue
 ss=(read,tcheck) scf=(maxcycle=1)
 ----------------------------------------------------------------------
 -----
 title
 -----
 Structure from the checkpoint file:  "HB300SPXx10_1131_4.17_0.80_aceticacid_thioacetone_dimer_mol1.chk"
 Charge =  0 Multiplicity = 1

                         Standard orientation:
 ---------------------------------------------------------------------
 Center     Atomic      Atomic             Coordinates (Angstroms)
 Number     Number       Type             X           Y           Z
 ---------------------------------------------------------------------
      1          6           0       -1.913320    1.126757    0.000000
      2          8           0       -1.998171   -0.078482    0.000000
      3          8           0       -0.748308    1.785936    0.000000
      4          1           0        0.000000    1.146584    0.000000
      5          6           0       -3.087717    2.066619    0.000000
      6          1           0       -4.012347    1.500298    0.000000
      7          1           0       -3.043501    2.711074    0.876954
      8          1           0       -3.043501    2.711074   -0.876954
      9          1           0        3.653160   -1.589241    0.000000
     10          1           0        2.708501   -2.815909    0.874412
     11          1           0        2.708501   -2.815909   -0.874412
     12          1           0       -0.641519   -1.318395    0.000000
     13          1           0        0.154379   -2.648321   -0.872921
     14          6           0        2.731403   -2.160821    0.000000
     15          6           0        1.520937   -1.278876    0.000000
     16         16           0        1.660941    0.346003    0.000000
     17          6           0        0.208483   -1.991780    0.000000
     18          1           0        0.154379   -2.648321    0.872921
 ---------------------------------------------------------------------

 SCF Done:  E(RHF) =  -744.262843168     A.U. after    2 cycles

 The electronic state is 1-A'.
 Alpha  occ. eigenvalues --  -75.66897 -21.07453 -21.03262 -13.16908 -13.08811
 Alpha  occ. eigenvalues --  -12.98858 -11.51113 -11.48980 -11.40402 -11.38456
 Alpha  occ. eigenvalues --  -11.38182  -8.01518  -1.80645  -1.63863  -1.29276
 Alpha  occ. eigenvalues --   -1.09993  -1.06056  -1.03578  -0.80136  -0.74943
 Alpha  occ. eigenvalues --   -0.65490  -0.61665  -0.60846  -0.60590  -0.59622
 Alpha  occ. eigenvalues --   -0.58836  -0.55115  -0.53906  -0.50396  -0.48320
 Alpha  occ. eigenvalues --   -0.44782  -0.40881  -0.33584  -0.31199  -0.28185
 Alpha  occ. eigenvalues --   -0.22010
 Alpha virt. eigenvalues --    0.02779   0.04450   0.05321   0.05797   0.06586
 Alpha virt. eigenvalues --    0.06674   0.06818   0.07502   0.07552   0.08137
 Alpha virt. eigenvalues --    0.08447   0.09164   0.12464   0.12849   0.13576

 Mulliken charges:
               1
     1  C    5.939654
     2  O   -3.639859
     3  O   -3.722585
     4  H    2.472105
     5  C   -4.468226
     6  H    1.352220
     7  H    1.235534
     8  H    1.235534
     9  H    1.475526
    10  H    1.199648
    11  H    1.199648
    12  H    2.479535
    13  H    1.049772
    14  C   -4.709200
    15  C    0.324380
    16  S    0.373817
    17  C   -4.847276
    18  H    1.049772
 Sum of Mulliken charges =  -0.00000

 Dipole moment (field-independent basis, Debye):
    X=              0.8953    Y=              0.6860    Z=             -0.0000  Tot=              1.1279

 Test job not archived.
 1\1\GINC-SE104\SP\RHF\Aug-CC-pVDZ\C5H10O2S1\OHZDE\09-Apr-2025\0\\#t hf
  aug-cc-pvdz iop(5/13=1,5/36=2,99/5=2) pseudo=read geom=check guess=(r
 ead,tcheck) scf=(maxcycle=1)\\title\\0,1\C,0,0.15920132,2.45664609,0.\
 O,0,1.21885316,1.87618237,0.\O,0,-1.02533188,1.83322707,0.\H,0,-0.8922
 641,0.85801947,0.\C,0,0.00380934,3.95277518,0.\H,0,0.98023034,4.424223
 4,0.\H,0,-0.56217465,4.2641268,-0.87695442\H,0,-0.56217465,4.2641268,0
 .87695442\H,0,-0.56683422,-3.69438738,0.\H,0,0.9758559,-3.56323056,-0.
 87441231\H,0,0.9758559,-3.56323056,0.87441231\H,0,1.52805716,0.0644759

 Normal termination of Gaussian 16 at Wed Apr  9 19:37:51 2025.
