 Gaussian 16, Revision C.01,

 ----------------------------------------------------------------------
 #t hf aug-cc-pvdz symm=none int=(grid=ultrafine) guess=(read,tcheck) s
 table=(opt,rrhf)
 ----------------------------------------------------------------------
 -----
 title
 -----
 Symbolic Z-matrix:
 Charge =  0 Multiplicity = 1

 SCF Done:  E(RHF) =  -989.349980009     A.U. after   14 cycles
 Normal termination of Gaussian 16 at Wed Apr  9 19:37:22 2025.
 Gaussian 16:  ES64L-G16RevC.01  3-Jul-2019

 ----------------------------------------------------------------------
 #t hf aug-cc-pvdz iop(5/13=1,5/36=2,99/5=2) pseudo=read geom=check gue
 ss=(read,tcheck) scf=(maxcycle=1)
 ----------------------------------------------------------------------
 -----
 title
 -----
 Structure from the checkpoint file:  "HB300SPXx10_1141_4.19_0.80_methanol_dimethyldisulfide_dimer_mol1.chk"
 Charge =  0 Multiplicity = 1

                         Standard orientation:
 ---------------------------------------------------------------------
 Center     Atomic      Atomic             Coordinates (Angstroms)
 Number     Number       Type             X           Y           Z
 ---------------------------------------------------------------------
      1          8           0        2.466265    0.082416   -0.138692
      2          1           0        1.659341    0.317726   -0.612466
      3          6           0        2.367809   -1.276938    0.256851
      4          1           0        3.269193   -1.514978    0.817475
      5          1           0        1.501541   -1.455189    0.900407
      6          1           0        2.307340   -1.950715   -0.602615
      7          1           0       -3.159957   -1.505236    0.570717
      8          1           0       -3.182982   -0.234421   -0.671362
      9          1           0       -2.853504    0.178828    1.033064
     10          1           0        0.917304    1.275598    1.388652
     11          1           0       -0.735586    1.964203    1.411329
     12          1           0        0.556015    2.766915    0.496613
     13          6           0       -2.715515   -0.563377    0.251876
     14         16           0       -0.948361   -0.906337   -0.017684
     15         16           0       -0.231885    0.888348   -0.706401
     16          6           0        0.160226    1.804608    0.818454
 ---------------------------------------------------------------------

 SCF Done:  E(RHF) =  -990.751152550     A.U. after    2 cycles

 The electronic state is 1-A.
 Alpha  occ. eigenvalues --  -75.70986 -75.70811 -21.03165 -13.16936 -13.14441
 Alpha  occ. eigenvalues --  -13.12862 -13.11005 -13.09548 -13.04995 -11.40726
 Alpha  occ. eigenvalues --  -11.40262 -11.38137  -8.05164  -8.04882  -1.68094
 Alpha  occ. eigenvalues --   -1.27703  -1.13671  -0.99189  -0.95961  -0.87942
 Alpha  occ. eigenvalues --   -0.63948  -0.61011  -0.60235  -0.59761  -0.59144
 Alpha  occ. eigenvalues --   -0.57748  -0.52506  -0.48053  -0.43910  -0.40648
 Alpha  occ. eigenvalues --   -0.34582  -0.29720  -0.25446  -0.23647
 Alpha virt. eigenvalues --    0.02429   0.03447   0.04051   0.04684   0.06503
 Alpha virt. eigenvalues --    0.07023   0.07649   0.08201   0.08347   0.08762
 Alpha virt. eigenvalues --    0.09882   0.10914   0.12824   0.12961   0.13990

 Mulliken charges:
               1
     1  O   -2.576088
     2  H    2.268239
     3  C   -2.736761
     4  H    1.217405
     5  H    1.469546
     6  H    1.263903
     7  H    1.375724
     8  H    1.482244
     9  H    1.493501
    10  H    1.458355
    11  H    1.539632
    12  H    1.378136
    13  C   -5.155423
    14  S    1.030468
    15  S   -1.135289
    16  C   -4.373591
 Sum of Mulliken charges =  -0.00000

 Dipole moment (field-independent basis, Debye):
    X=             -0.7809    Y=             -0.5977    Z=             -0.2718  Tot=              1.0203

 Test job not archived.
 1\1\GINC-SE207\SP\RHF\Aug-CC-pVDZ\C3H10O1S2\OHZDE\09-Apr-2025\0\\#t hf
  aug-cc-pvdz iop(5/13=1,5/36=2,99/5=2) pseudo=read geom=check guess=(r
 ead,tcheck) scf=(maxcycle=1)\\title\\0,1\O,0,-0.42925951,1.22968046,-2
 .50380826\H,0,-0.36156068,1.36890772,-1.5514469\C,0,-1.37991091,0.2017
 0921,-2.7351714\H,0,-1.41855104,0.0350798,-3.80950666\H,0,-1.09677682,
 -0.73598734,-2.24842974\H,0,-2.37984798,0.48334645,-2.39294418\H,0,-0.
 70128705,-2.46101318,2.07691861\H,0,-0.23585442,-0.89023269,2.7656012\
 H,0,0.93098107,-1.8286326,1.79487935\H,0,1.55873347,0.03475558,-1.6230

 Normal termination of Gaussian 16 at Wed Apr  9 19:37:27 2025.
