 Gaussian 16, Revision C.01,

 ----------------------------------------------------------------------
 #t hf aug-cc-pvdz symm=none int=(grid=ultrafine) guess=(read,tcheck) s
 table=(opt,rrhf)
 ----------------------------------------------------------------------
 -----
 title
 -----
 Symbolic Z-matrix:
 Charge =  0 Multiplicity = 1

 SCF Done:  E(RHF) =  -952.370007456     A.U. after   13 cycles

 1\1\GINC-SE132\Stability\RHF\Aug-CC-pVDZ\C4H10S2\OHZDE\09-Apr-2025\0\\
 #t hf aug-cc-pvdz symm=none int=(grid=ultrafine) guess=(read,tcheck) s
 table=(opt,rrhf)\\title\\0,1\H,0,1.25927999,1.11406487,-0.28265552\H,0
 ,2.28279017,2.73418341,-0.67577847\S,0,1.07110419,2.4516331,-0.1764195
 4\H,0,0.32370952,0.32474992,1.77954112\H,0,0.23389075,-1.41846381,2.06
 054982\H,0,-2.06909185,-0.06368483,1.8715422\H,0,-1.08650452,-1.386855
 91,-1.68395586\H,0,-1.92171234,-1.58191069,0.98923562\H,0,-0.38225684,
 0.19894623,-2.02747965\H,0,-2.69453831,0.09233821,-0.65364133\H,0,-1.4

 Normal termination of Gaussian 16 at Wed Apr  9 04:10:41 2025.
 Gaussian 16:  ES64L-G16RevC.01  3-Jul-2019

 ----------------------------------------------------------------------
 #t hf aug-cc-pvdz iop(5/13=1,5/36=2,99/5=2) pseudo=read geom=check gue
 ss=(read,tcheck) scf=(maxcycle=1)
 ----------------------------------------------------------------------
 -----
 title
 -----
 Structure from the checkpoint file:  "HB300SPXx10_1232_4.28_0.85_sulfane_tetrahydrothiophene_dimer_mol1.chk"
 Charge =  0 Multiplicity = 1

                         Standard orientation:
 ---------------------------------------------------------------------
 Center     Atomic      Atomic             Coordinates (Angstroms)
 Number     Number       Type             X           Y           Z
 ---------------------------------------------------------------------
      1          1           0        1.431728    0.575426    0.003349
      2          1           0        3.385115    0.559137    0.107831
      3         16           0        2.421400   -0.338083   -0.144415
      4          1           0       -0.036292    0.000484   -1.803672
      5          1           0       -1.570051    0.865633   -1.961553
      6          1           0       -1.665156   -1.758805   -1.434148
      7          1           0       -1.696913    0.212215    1.952871
      8          1           0       -2.710219   -0.685045   -0.506744
      9          1           0        0.048048   -0.053051    2.069007
     10          1           0       -1.495940   -2.056997    1.149363
     11          1           0        0.032916   -1.714833    0.351448
     12         16           0       -0.515943    1.331376    0.162897
     13          6           0       -0.950167    0.284633   -1.284334
     14          6           0       -1.669976   -0.936749   -0.718261
     15          6           0       -0.951455   -1.304612    0.578935
     16          6           0       -0.796826   -0.016079    1.386415
 ---------------------------------------------------------------------

 SCF Done:  E(RHF) =  -953.649508767     A.U. after    2 cycles

 The electronic state is 1-A.
 Alpha  occ. eigenvalues --  -75.67617 -75.67335 -13.15559 -13.13225 -13.11955
 Alpha  occ. eigenvalues --  -13.10185 -13.07279 -13.00519 -11.44236 -11.43362
 Alpha  occ. eigenvalues --  -11.39511 -11.36658  -8.01535  -8.01431  -1.33594
 Alpha  occ. eigenvalues --   -1.09998  -1.07729  -1.07618  -0.85271  -0.83642
 Alpha  occ. eigenvalues --   -0.67291  -0.66095  -0.61412  -0.56885  -0.52846
 Alpha  occ. eigenvalues --   -0.49340  -0.47393  -0.45994  -0.42796  -0.42653
 Alpha  occ. eigenvalues --   -0.35513  -0.24618  -0.20970
 Alpha virt. eigenvalues --    0.03215   0.04055   0.04713   0.05495   0.06012
 Alpha virt. eigenvalues --    0.06319   0.06357   0.06815   0.07516   0.08995
 Alpha virt. eigenvalues --    0.11861   0.12341   0.12773   0.13633   0.14433

 Mulliken charges:
               1
     1  H    1.881738
     2  H    0.820765
     3  S   -2.324875
     4  H    1.344406
     5  H    1.397084
     6  H    1.276276
     7  H    1.420138
     8  H    1.395570
     9  H    1.337343
    10  H    1.293639
    11  H    1.586859
    12  S    0.047597
    13  C   -2.982731
    14  C   -2.815124
    15  C   -2.417928
    16  C   -3.260757
 Sum of Mulliken charges =  -0.00000

 Dipole moment (field-independent basis, Debye):
    X=             -1.0445    Y=             -0.8773    Z=             -0.1405  Tot=              1.3713

 Test job not archived.
 1\1\GINC-SE132\SP\RHF\Aug-CC-pVDZ\C4H10S2\OHZDE\09-Apr-2025\0\\#t hf a
 ug-cc-pvdz iop(5/13=1,5/36=2,99/5=2) pseudo=read geom=check guess=(rea
 d,tcheck) scf=(maxcycle=1)\\title\\0,1\H,0,1.25927999,1.11406487,-0.28
 265552\H,0,2.28279017,2.73418341,-0.67577847\S,0,1.07110419,2.4516331,
 -0.17641954\H,0,0.32370952,0.32474992,1.77954112\H,0,0.23389075,-1.418
 46381,2.06054982\H,0,-2.06909185,-0.06368483,1.8715422\H,0,-1.08650452
 ,-1.38685591,-1.68395586\H,0,-1.92171234,-1.58191069,0.98923562\H,0,-0
 .38225684,0.19894623,-2.02747965\H,0,-2.69453831,0.09233821,-0.6536413

 Normal termination of Gaussian 16 at Wed Apr  9 04:10:47 2025.
