 Gaussian 16, Revision C.01,

 ----------------------------------------------------------------------
 #t hf aug-cc-pvdz symm=none int=(grid=ultrafine) guess=(read,tcheck) s
 table=(opt,rrhf)
 ----------------------------------------------------------------------
 -----
 title
 -----
 Symbolic Z-matrix:
 Charge =  0 Multiplicity = 1

 SCF Done:  E(RHF) =  -1166.70215593     A.U. after   13 cycles
 Normal termination of Gaussian 16 at Wed Apr  9 19:41:28 2025.
 Gaussian 16:  ES64L-G16RevC.01  3-Jul-2019

 ----------------------------------------------------------------------
 #t hf aug-cc-pvdz iop(5/13=1,5/36=2,99/5=2) pseudo=read geom=check gue
 ss=(read,tcheck) scf=(maxcycle=1)
 ----------------------------------------------------------------------
 -----
 title
 -----
 Structure from the checkpoint file:  "HB300SPXx10_1393_5.02_0.90_dimethylsulfone_phosphineF2_dimer_mol1.chk"
 Charge =  0 Multiplicity = 1

                         Standard orientation:
 ---------------------------------------------------------------------
 Center     Atomic      Atomic             Coordinates (Angstroms)
 Number     Number       Type             X           Y           Z
 ---------------------------------------------------------------------
      1          1           0        2.174131    0.491626    2.083042
      2          1           0        1.389135   -1.107846    2.016322
      3          1           0        0.393902    0.366850    1.873229
      4          1           0        0.472945    1.899029   -0.389263
      5          1           0        1.576118    1.488620   -1.731781
      6          1           0        2.251171    2.092255   -0.196973
      7          8           0        2.909582   -0.652884   -0.381024
      8         16           0        1.577105   -0.180654   -0.110912
      9          8           0        0.448610   -0.903679   -0.659479
     10          6           0        1.357716   -0.082878    1.655411
     11          6           0        1.453022    1.512815   -0.651820
     12         15           0       -2.016363   -0.449045   -0.044829
     13          9           0       -3.572707   -0.056980   -0.062019
     14          9           0       -1.443610    1.010078    0.344483
     15          1           0       -1.828746   -0.309400   -1.447250
 ---------------------------------------------------------------------

 SCF Done:  E(RHF) =  -1168.88635966     A.U. after    2 cycles

 The electronic state is 1-A.
 Alpha  occ. eigenvalues -- -105.28453 -75.88981 -29.28869 -29.27501 -21.05153
 Alpha  occ. eigenvalues --  -21.04826 -13.52117 -13.41816 -13.34406 -11.43967
 Alpha  occ. eigenvalues --  -11.42417  -8.24427  -2.87552  -1.84746  -1.66503
 Alpha  occ. eigenvalues --   -1.61497  -1.58457  -1.52276  -1.20295  -1.09918
 Alpha  occ. eigenvalues --   -0.90404  -0.87564  -0.66472  -0.66185  -0.65544
 Alpha  occ. eigenvalues --   -0.63011  -0.56527  -0.56265  -0.55457  -0.46733
 Alpha  occ. eigenvalues --   -0.44687  -0.41720  -0.40662  -0.38700  -0.37921
 Alpha  occ. eigenvalues --   -0.36976  -0.35460  -0.33800  -0.27432  -0.24974
 Alpha  occ. eigenvalues --   -0.19542   0.00700
 Alpha virt. eigenvalues --    0.02981   0.04536   0.05236   0.06444   0.06810
 Alpha virt. eigenvalues --    0.07151   0.07945   0.09942   0.10898   0.12523
 Alpha virt. eigenvalues --    0.13056   0.13644   0.14260   0.14717   0.15214

 Mulliken charges:
               1
     1  H    1.200018
     2  H    0.837108
     3  H    1.087720
     4  H    1.318544
     5  H    1.392929
     6  H    1.204188
     7  O   -2.444963
     8  S    6.207125
     9  O   -2.320529
    10  C   -4.273392
    11  C   -4.384440
    12  P    2.073887
    13  F   -0.102889
    14  F   -0.735551
    15  H   -1.059754
 Sum of Mulliken charges =   0.00000

 Dipole moment (field-independent basis, Debye):
    X=             -4.4875    Y=              5.1523    Z=             -2.7843  Tot=              7.3781

 Test job not archived.
 1\1\GINC-SE054\SP\RHF\Aug-CC-pVDZ\C2H7F2O2P1S1\OHZDE\09-Apr-2025\0\\#t
  hf aug-cc-pvdz iop(5/13=1,5/36=2,99/5=2) pseudo=read geom=check guess
 =(read,tcheck) scf=(maxcycle=1)\\title\\0,1\H,0,1.82037896,-1.1252997,
 2.45423408\H,0,2.45327614,-0.04590354,1.18406648\H,0,1.26048817,-1.302
 78481,0.75605091\H,0,-1.35656486,-1.06874241,1.510339\H,0,-1.8999986,0
 .31018714,2.5058364\H,0,-0.84910966,-0.93302114,3.2309401\O,0,0.704774
 22,1.412934,2.93921594\S,0,0.30796869,0.58975017,1.82729483\O,0,-0.016
 49706,1.22000253,0.56448154\C,0,1.58998555,-0.61149627,1.52558836\C,0,

 Normal termination of Gaussian 16 at Wed Apr  9 19:41:34 2025.
