 Gaussian 16, Revision C.01,

 ----------------------------------------------------------------------
 #t hf aug-cc-pvdz symm=none int=(grid=ultrafine) guess=(read,tcheck) s
 table=(opt,rrhf)
 ----------------------------------------------------------------------
 -----
 title
 -----
 Symbolic Z-matrix:
 Charge =  0 Multiplicity = 1

 SCF Done:  E(RHF) =  -601.596174445     A.U. after   14 cycles
 Normal termination of Gaussian 16 at Wed Apr  9 19:34:51 2025.
 Gaussian 16:  ES64L-G16RevC.01  3-Jul-2019

 ----------------------------------------------------------------------
 #t hf aug-cc-pvdz iop(5/13=1,5/36=2,99/5=2) pseudo=read geom=check gue
 ss=(read,tcheck) scf=(maxcycle=1)
 ----------------------------------------------------------------------
 -----
 title
 -----
 Structure from the checkpoint file:  "HB300SPXx10_104_1.11_0.95_sulfane_methylazide_dimer_mol1.chk"
 Charge =  0 Multiplicity = 1

                         Standard orientation:
 ---------------------------------------------------------------------
 Center     Atomic      Atomic             Coordinates (Angstroms)
 Number     Number       Type             X           Y           Z
 ---------------------------------------------------------------------
      1          1           0       -1.275924   -0.528457   -0.012338
      2          1           0       -2.762055   -0.433859    1.239178
      3         16           0       -2.599099   -0.294216   -0.084488
      4          1           0        1.213550    1.947762   -0.909302
      5          1           0        1.260206    1.984227    0.870434
      6          1           0       -0.290900    1.842533    0.022592
      7          6           0        0.755727    1.559575    0.001481
      8          7           0        0.789769    0.087848    0.031057
      9          7           0        1.900688   -0.429024    0.004135
     10          7           0        2.867592   -1.010567   -0.016283
 ---------------------------------------------------------------------

 SCF Done:  E(RHF) =  -602.776349755     A.U. after    2 cycles

 The electronic state is 1-A.
 Alpha  occ. eigenvalues --  -75.68729 -15.97203 -15.85804 -15.77884 -13.14622
 Alpha  occ. eigenvalues --  -13.08186 -13.01674 -11.41791  -8.02503  -1.68762
 Alpha  occ. eigenvalues --   -1.38487  -1.10218  -1.05918  -0.74822  -0.69474
 Alpha  occ. eigenvalues --   -0.69125  -0.64307  -0.59096  -0.56471  -0.53874
 Alpha  occ. eigenvalues --   -0.44136  -0.39312  -0.35304  -0.25091
 Alpha virt. eigenvalues --    0.02809   0.04387   0.05704   0.06780   0.07426
 Alpha virt. eigenvalues --    0.09983   0.10584   0.11285   0.12144   0.13316
 Alpha virt. eigenvalues --    0.14065   0.14248   0.15754   0.16645   0.16908

 Mulliken charges:
               1
     1  H    1.123307
     2  H    1.026433
     3  S   -2.297072
     4  H    1.325435
     5  H    1.344271
     6  H    1.416311
     7  C   -3.198349
     8  N   -2.078049
     9  N    2.887057
    10  N   -1.549344
 Sum of Mulliken charges =  -0.00000

 Dipole moment (field-independent basis, Debye):
    X=             -0.5778    Y=              1.9254    Z=             -0.8811  Tot=              2.1948

 Test job not archived.
 1\1\GINC-SE454\SP\RHF\Aug-CC-pVDZ\C1H5N3S1\OHZDE\09-Apr-2025\0\\#t hf
 aug-cc-pvdz iop(5/13=1,5/36=2,99/5=2) pseudo=read geom=check guess=(re
 ad,tcheck) scf=(maxcycle=1)\\title\\0,1\H,0,1.21774303,0.78814331,-0.0
 7896573\H,0,1.90622629,2.11329938,-1.32547278\S,0,1.84165876,1.9773473
 1,0.00700442\H,0,-2.14389955,0.23474188,1.15666698\H,0,-2.39474106,0.3
 4085538,-0.60310165\H,0,-1.25193521,1.43250477,0.20134869\C,0,-1.65990
 952,0.42777198,0.19838295\N,0,-0.52314198,-0.48249011,-0.01886109\N,0,
 -0.78492983,-1.67948324,-0.04523899\N,0,-0.9092704,-2.80029622,-0.0880

 Normal termination of Gaussian 16 at Wed Apr  9 19:34:54 2025.
