 Gaussian 16, Revision C.01,

 ----------------------------------------------------------------------
 #t hf aug-cc-pvdz symm=none int=(grid=ultrafine) guess=(read,tcheck) s
 table=(opt,rrhf)
 ----------------------------------------------------------------------
 -----
 title
 -----
 Symbolic Z-matrix:
 Charge =  0 Multiplicity = 1

 SCF Done:  E(RHF) =  -437.699607450     A.U. after   11 cycles
 Normal termination of Gaussian 16 at Wed Apr  9 19:41:48 2025.
 Gaussian 16:  ES64L-G16RevC.01  3-Jul-2019

 ----------------------------------------------------------------------
 #t hf aug-cc-pvdz iop(5/13=1,5/36=2,99/5=2) pseudo=read geom=check gue
 ss=(read,tcheck) scf=(maxcycle=1)
 ----------------------------------------------------------------------
 -----
 title
 -----
 Structure from the checkpoint file:  "HB300SPXx10_13_1.02_0.90_phosphine_methylamine_dimer_mol1.chk"
 Charge =  0 Multiplicity = 1

                         Standard orientation:
 ---------------------------------------------------------------------
 Center     Atomic      Atomic             Coordinates (Angstroms)
 Number     Number       Type             X           Y           Z
 ---------------------------------------------------------------------
      1         15           0        1.769390    0.033109   -0.109900
      2          1           0        0.640136   -0.785632    0.136655
      3          1           0        2.699585   -0.903198    0.407203
      4          1           0        1.653581    0.730649    1.118892
      5          7           0       -1.745739   -0.731758    0.033643
      6          1           0       -2.322548   -1.032749    0.807426
      7          1           0       -2.162571   -1.104237   -0.808779
      8          6           0       -1.664045    0.727489   -0.023447
      9          1           0       -1.023972    1.018878   -0.855422
     10          1           0       -2.624968    1.240850   -0.140775
     11          1           0       -1.195647    1.096177    0.888473
 ---------------------------------------------------------------------

 SCF Done:  E(RHF) =  -438.393070672     A.U. after    2 cycles

 The electronic state is 1-A.
 Alpha  occ. eigenvalues -- -105.16658 -15.73138 -11.38132  -2.73098  -1.43086
 Alpha  occ. eigenvalues --   -1.42002  -1.40665  -1.31929  -0.95468  -0.73411
 Alpha  occ. eigenvalues --   -0.66211  -0.59908  -0.53846  -0.51165  -0.36809
 Alpha  occ. eigenvalues --   -0.24210  -0.21309  -0.02712
 Alpha virt. eigenvalues --    0.03857   0.05381   0.05751   0.06110   0.07210
 Alpha virt. eigenvalues --    0.08328   0.09055   0.10543   0.10958   0.12343
 Alpha virt. eigenvalues --    0.12975   0.15434   0.16526   0.18337   0.18763

 Mulliken charges:
               1
     1  P    1.911027
     2  H   -0.735066
     3  H   -0.631693
     4  H   -0.624745
     5  N   -2.076407
     6  H    0.647422
     7  H    0.638595
     8  C   -3.102761
     9  H    1.348827
    10  H    1.252937
    11  H    1.371864
 Sum of Mulliken charges =   0.00000

 Dipole moment (field-independent basis, Debye):
    X=             -1.1379    Y=              1.7389    Z=             -3.9147  Tot=              4.4321

 Test job not archived.
 1\1\GINC-SE014\SP\RHF\Aug-CC-pVDZ\C1H8N1P1\OHZDE\09-Apr-2025\0\\#t hf
 aug-cc-pvdz iop(5/13=1,5/36=2,99/5=2) pseudo=read geom=check guess=(re
 ad,tcheck) scf=(maxcycle=1)\\title\\0,1\P,0,1.60554835,-0.39061782,-0.
 727406\H,0,0.88263451,-0.28817357,0.48636549\H,0,2.87161411,-0.472756,
 -0.09521777\H,0,1.68852005,1.01288402,-0.9096172\N,0,-1.33338929,0.081
 63038,1.29778064\H,0,-1.53388773,0.76241913,2.01776112\H,0,-1.87073988
 ,-0.74661024,1.51558177\C,0,-1.68166591,0.59897696,-0.02524248\H,0,-1.
 43906792,-0.14957798,-0.77863129\H,0,-2.73413482,0.87649739,-0.1516145

 Normal termination of Gaussian 16 at Wed Apr  9 19:41:50 2025.
