 Gaussian 16, Revision C.01,

 ----------------------------------------------------------------------
 #t hf aug-cc-pvdz symm=none int=(grid=ultrafine) guess=(read,tcheck) s
 table=(opt,rrhf)
 ----------------------------------------------------------------------
 -----
 title
 -----
 Symbolic Z-matrix:
 Charge =  0 Multiplicity = 1

 SCF Done:  E(RHF) =  -1312.03301026     A.U. after   13 cycles

 1\1\GINC-SE231\Stability\RHF\Aug-CC-pVDZ\C3H10S3\OHZDE\09-Apr-2025\0\\
 #t hf aug-cc-pvdz symm=none int=(grid=ultrafine) guess=(read,tcheck) s
 table=(opt,rrhf)\\title\\0,1\H,0,1.01554051,-2.06430295,-0.26345232\H,
 0,1.41221348,-3.50790796,0.68330627\H,0,2.28776701,-1.9997821,0.978385
 09\H,0,0.09227498,-0.7095981,1.83267489\C,0,1.324424,-2.42503809,0.712
 77693\S,0,0.06941485,-2.04508424,1.97921636\H,0,-2.88462704,0.72714453
 ,0.44773386\H,0,-1.8340386,-0.60005052,-0.08818336\H,0,-2.46052067,0.5
 9235748,-1.26880843\H,0,0.35582085,2.94542742,-2.5242975\H,0,-0.658901

 Normal termination of Gaussian 16 at Wed Apr  9 19:38:24 2025.
 Gaussian 16:  ES64L-G16RevC.01  3-Jul-2019

 ----------------------------------------------------------------------
 #t hf aug-cc-pvdz iop(5/13=1,5/36=2,99/5=2) pseudo=read geom=check gue
 ss=(read,tcheck) scf=(maxcycle=1)
 ----------------------------------------------------------------------
 -----
 title
 -----
 Structure from the checkpoint file:  "HB300SPXx10_1176_4.22_1.05_methanethiol_dimethyldisulfide_dimer_mol1.chk"
 Charge =  0 Multiplicity = 1

                         Standard orientation:
 ---------------------------------------------------------------------
 Center     Atomic      Atomic             Coordinates (Angstroms)
 Number     Number       Type             X           Y           Z
 ---------------------------------------------------------------------
      1          1           0        1.606307   -1.536286    0.828879
      2          1           0        3.351003   -1.834122    0.899781
      3          1           0        2.488606   -2.044382   -0.629981
      4          1           0        1.836237    0.555652   -0.799716
      5          6           0        2.540595   -1.456652    0.281770
      6         16           0        2.940113    0.284152   -0.083290
      7          1           0       -0.450814    2.853181    0.728354
      8          1           0        0.317176    1.362111    1.310843
      9          1           0       -1.411570    1.683412    1.652010
     10          1           0       -3.714153   -0.652507   -0.418392
     11          1           0       -3.191774   -0.416003    1.270915
     12          1           0       -3.263352   -2.049326    0.584115
     13          6           0       -0.604862    1.794336    0.933089
     14         16           0       -1.049981    1.035599   -0.660515
     15         16           0       -1.319570   -0.940368   -0.188763
     16          6           0       -3.051843   -1.002994    0.367522
 ---------------------------------------------------------------------

 SCF Done:  E(RHF) =  -1313.35703016     A.U. after    2 cycles

 The electronic state is 1-A.
 Alpha  occ. eigenvalues --  -75.70316 -75.70169 -75.67543 -13.13975 -13.11671
 Alpha  occ. eigenvalues --  -13.10838 -13.09726 -13.08311 -13.07433 -13.06373
 Alpha  occ. eigenvalues --  -13.04365 -13.01749 -11.40270 -11.39870 -11.38828
 Alpha  occ. eigenvalues --   -8.04312  -8.04247  -8.01422  -1.26950  -1.17527
 Alpha  occ. eigenvalues --   -1.12896  -0.98461  -0.93161  -0.87023  -0.60622
 Alpha  occ. eigenvalues --   -0.59893  -0.59755  -0.59051  -0.58763  -0.57882
 Alpha  occ. eigenvalues --   -0.48401  -0.47438  -0.43400  -0.38571  -0.34075
 Alpha  occ. eigenvalues --   -0.25413  -0.23929  -0.22963
 Alpha virt. eigenvalues --    0.02455   0.02739   0.03395   0.04456   0.06146
 Alpha virt. eigenvalues --    0.06826   0.07127   0.08021   0.08289   0.09018
 Alpha virt. eigenvalues --    0.09468   0.10910   0.11881   0.12496   0.12912

 Mulliken charges:
               1
     1  H    1.448735
     2  H    1.376090
     3  H    1.399992
     4  H    1.100535
     5  C   -4.695971
     6  S   -0.627186
     7  H    1.404274
     8  H    1.525839
     9  H    1.561396
    10  H    1.507224
    11  H    1.512041
    12  H    1.378410
    13  C   -4.489990
    14  S   -0.004026
    15  S    0.553114
    16  C   -4.950476
 Sum of Mulliken charges =  -0.00000

 Dipole moment (field-independent basis, Debye):
    X=              0.5428    Y=             -0.4106    Z=              0.0203  Tot=              0.6809

 Test job not archived.
 1\1\GINC-SE231\SP\RHF\Aug-CC-pVDZ\C3H10S3\OHZDE\09-Apr-2025\0\\#t hf a
 ug-cc-pvdz iop(5/13=1,5/36=2,99/5=2) pseudo=read geom=check guess=(rea
 d,tcheck) scf=(maxcycle=1)\\title\\0,1\H,0,1.01554051,-2.06430295,-0.2
 6345232\H,0,1.41221348,-3.50790796,0.68330627\H,0,2.28776701,-1.999782
 1,0.97838509\H,0,0.09227498,-0.7095981,1.83267489\C,0,1.324424,-2.4250
 3809,0.71277693\S,0,0.06941485,-2.04508424,1.97921636\H,0,-2.88462704,
 0.72714453,0.44773386\H,0,-1.8340386,-0.60005052,-0.08818336\H,0,-2.46
 052067,0.59235748,-1.26880843\H,0,0.35582085,2.94542742,-2.5242975\H,0

 Normal termination of Gaussian 16 at Wed Apr  9 19:38:29 2025.
