 Gaussian 16, Revision C.01,

 ----------------------------------------------------------------------
 #t hf aug-cc-pvdz symm=none int=(grid=ultrafine) guess=(read,tcheck) s
 table=(opt,rrhf)
 ----------------------------------------------------------------------
 -----
 title
 -----
 Symbolic Z-matrix:
 Charge =  0 Multiplicity = 1

 SCF Done:  E(RHF) =  -1091.84865628     A.U. after   14 cycles
 Normal termination of Gaussian 16 at Wed Apr  9 19:42:18 2025.
 Gaussian 16:  ES64L-G16RevC.01  3-Jul-2019

 ----------------------------------------------------------------------
 #t hf aug-cc-pvdz iop(5/13=1,5/36=2,99/5=2) pseudo=read geom=check gue
 ss=(read,tcheck) scf=(maxcycle=1)
 ----------------------------------------------------------------------
 -----
 title
 -----
 Structure from the checkpoint file:  "HB300SPXx10_1403_5.03_0.90_dimethylsulfoxide_phosphineF2_dimer_mol1.chk"
 Charge =  0 Multiplicity = 1

                         Standard orientation:
 ---------------------------------------------------------------------
 Center     Atomic      Atomic             Coordinates (Angstroms)
 Number     Number       Type             X           Y           Z
 ---------------------------------------------------------------------
      1          1           0        1.932399    1.677557   -1.467713
      2          1           0        2.755879    1.775904    0.107393
      3          1           0        0.960679    1.810883    0.023265
      4          1           0        1.524310   -1.593296    1.681733
      5          1           0        0.787728    0.028632    1.790398
      6          6           0        1.872266    1.414320   -0.415128
      7         16           0        1.835592   -0.394801   -0.333221
      8          8           0        0.537378   -0.827961   -0.938680
      9          6           0        1.656071   -0.536954    1.463961
     10          1           0        2.565327   -0.171444    1.937234
     11         15           0       -1.688936   -0.366048   -0.096984
     12          9           0       -3.229185    0.084617    0.085948
     13          9           0       -1.039578    0.983778    0.513039
     14          1           0       -1.611944    0.023234   -1.460452
 ---------------------------------------------------------------------

 SCF Done:  E(RHF) =  -1093.69883131     A.U. after    2 cycles

 The electronic state is 1-A.
 Alpha  occ. eigenvalues -- -105.26290 -75.79706 -29.26759 -29.24857 -21.01776
 Alpha  occ. eigenvalues --  -13.35072 -13.22924 -13.18742 -11.41897 -11.41220
 Alpha  occ. eigenvalues --   -8.14163  -2.85270  -1.72302  -1.58605  -1.56206
 Alpha  occ. eigenvalues --   -1.50133  -1.21931  -1.06723  -0.91119  -0.86388
 Alpha  occ. eigenvalues --   -0.65461  -0.63479  -0.61934  -0.60765  -0.54186
 Alpha  occ. eigenvalues --   -0.51376  -0.50336  -0.44277  -0.41185  -0.37967
 Alpha  occ. eigenvalues --   -0.36060  -0.33783  -0.31564  -0.29096  -0.24027
 Alpha  occ. eigenvalues --   -0.22767  -0.17713   0.02263
 Alpha virt. eigenvalues --    0.03081   0.04073   0.05409   0.06417   0.07053
 Alpha virt. eigenvalues --    0.07739   0.08149   0.08731   0.10781   0.11954
 Alpha virt. eigenvalues --    0.12555   0.13071   0.14155   0.15390   0.15714

 Mulliken charges:
               1
     1  H    1.449990
     2  H    0.785865
     3  H    1.406681
     4  H    0.121049
     5  H    1.317142
     6  C   -3.925267
     7  S    3.103627
     8  O   -2.156693
     9  C   -3.381085
    10  H    0.304182
    11  P    2.826952
    12  F   -0.115037
    13  F   -0.626516
    14  H   -1.110890
 Sum of Mulliken charges =   0.00000

 Dipole moment (field-independent basis, Debye):
    X=            -14.7571    Y=              2.4670    Z=             -8.6115  Tot=             17.2632

 Test job not archived.
 1\1\GINC-SE041\SP\RHF\Aug-CC-pVDZ\C2H7F2O1P1S1\OHZDE\09-Apr-2025\0\\#t
  hf aug-cc-pvdz iop(5/13=1,5/36=2,99/5=2) pseudo=read geom=check guess
 =(read,tcheck) scf=(maxcycle=1)\\title\\0,1\H,0,1.67395499,0.82417178,
 -3.38423362\H,0,0.49124302,-0.02078366,-4.41184902\H,0,0.89589517,-0.6
 6534236,-2.78340018\H,0,-2.718683,0.46280377,-2.2188292\H,0,-1.5421980
 9,-0.87905323,-2.20106353\C,0,0.76564588,0.22768029,-3.38836814\S,0,-0
 .5351395,1.25679703,-2.66046249\O,0,-0.17783951,1.44910918,-1.22000404
 \C,0,-1.85989706,0.022286,-2.71790313\H,0,-2.10168806,-0.18449539,-3.7

 Normal termination of Gaussian 16 at Wed Apr  9 19:42:23 2025.
