 Gaussian 16, Revision C.01,

 ----------------------------------------------------------------------
 #t hf aug-cc-pvdz symm=none int=(grid=ultrafine) guess=(read,tcheck) s
 table=(opt,rrhf)
 ----------------------------------------------------------------------
 -----
 title
 -----
 Symbolic Z-matrix:
 Charge =  0 Multiplicity = 1

 SCF Done:  E(RHF) =  -1102.15738041     A.U. after   13 cycles
 Normal termination of Gaussian 16 at Wed Apr  9 19:36:32 2025.
 Gaussian 16:  ES64L-G16RevC.01  3-Jul-2019

 ----------------------------------------------------------------------
 #t hf aug-cc-pvdz iop(5/13=1,5/36=2,99/5=2) pseudo=read geom=check gue
 ss=(read,tcheck) scf=(maxcycle=1)
 ----------------------------------------------------------------------
 -----
 title
 -----
 Structure from the checkpoint file:  "HB300SPXx10_1116_4.15_1.05_aceticacid_dimethyldisulfide_dimer_mol1.chk"
 Charge =  0 Multiplicity = 1

                         Standard orientation:
 ---------------------------------------------------------------------
 Center     Atomic      Atomic             Coordinates (Angstroms)
 Number     Number       Type             X           Y           Z
 ---------------------------------------------------------------------
      1          6           0        2.919111   -0.068605   -0.035318
      2          8           0        2.557672    1.074151   -0.180670
      3          8           0        2.075809   -1.112906   -0.039358
      4          1           0        1.165508   -0.779609   -0.189971
      5          6           0        4.344149   -0.501427    0.169467
      6          1           0        4.992990    0.367042    0.187535
      7          1           0        4.431837   -1.055430    1.102996
      8          1           0        4.642289   -1.173446   -0.634286
      9          1           0       -4.730161   -0.727296    0.261360
     10          1           0       -4.017818   -0.116426   -1.247351
     11          1           0       -4.035765    0.903700    0.216820
     12          1           0       -0.503344    1.316810    1.560334
     13          1           0       -1.554989    2.355184    0.557369
     14          1           0        0.187494    2.202236    0.188349
     15          6           0       -3.940873   -0.109145   -0.164185
     16         16           0       -2.370964   -0.861954    0.366535
     17         16           0       -0.966413    0.296674   -0.580152
     18          6           0       -0.697030    1.689468    0.559192
 ---------------------------------------------------------------------

 SCF Done:  E(RHF) =  -1104.01084722     A.U. after    2 cycles

 The electronic state is 1-A.
 Alpha  occ. eigenvalues --  -75.70635 -75.70267 -21.10442 -21.04325 -13.15836
 Alpha  occ. eigenvalues --  -13.12303 -13.11457 -13.09284 -13.07458 -13.03918
 Alpha  occ. eigenvalues --  -11.51593 -11.40233 -11.39604 -11.39019  -8.04642
 Alpha  occ. eigenvalues --   -8.04319  -1.81691  -1.64264  -1.26955  -1.12936
 Alpha  occ. eigenvalues --   -1.10690  -0.98334  -0.87162  -0.79383  -0.63287
 Alpha  occ. eigenvalues --   -0.61407  -0.60480  -0.59975  -0.59729  -0.59252
 Alpha  occ. eigenvalues --   -0.58543  -0.53830  -0.49210  -0.47430  -0.44785
 Alpha  occ. eigenvalues --   -0.43248  -0.34239  -0.32885  -0.29250  -0.25532
 Alpha  occ. eigenvalues --   -0.24161
 Alpha virt. eigenvalues --    0.02636   0.03432   0.04352   0.04604   0.06461
 Alpha virt. eigenvalues --    0.06547   0.06652   0.07404   0.08230   0.08365
 Alpha virt. eigenvalues --    0.09491   0.10676   0.11931   0.12493   0.12899

 Mulliken charges:
               1
     1  C    5.558256
     2  O   -3.107518
     3  O   -3.269834
     4  H    1.710291
     5  C   -4.389260
     6  H    1.287073
     7  H    1.248756
     8  H    1.244709
     9  H    1.342297
    10  H    1.508178
    11  H    1.563601
    12  H    1.541376
    13  H    1.482144
    14  H    1.618955
    15  C   -4.804851
    16  S    0.443764
    17  S   -0.275485
    18  C   -4.702453
 Sum of Mulliken charges =  -0.00000

 Dipole moment (field-independent basis, Debye):
    X=             -0.2859    Y=             -1.2279    Z=             -0.0270  Tot=              1.2610

 Test job not archived.
 1\1\GINC-SE362\SP\RHF\Aug-CC-pVDZ\C4H10O2S2\OHZDE\09-Apr-2025\0\\#t hf
  aug-cc-pvdz iop(5/13=1,5/36=2,99/5=2) pseudo=read geom=check guess=(r
 ead,tcheck) scf=(maxcycle=1)\\title\\0,1\C,0,2.51189353,-1.3688008,0.0
 1480743\O,0,1.76216303,-1.97148126,0.7444221\O,0,2.20838592,-0.1819016
 3,-0.53372859\H,0,1.31541707,0.08523139,-0.22768185\C,0,3.88111819,-1.
 83853704,-0.39087365\H,0,4.08390343,-2.80677129,0.05292751\H,0,3.94369
 33,-1.90220497,-1.47628393\H,0,4.62800978,-1.11523999,-0.06604891\H,0,
 -3.96896483,2.71624093,-0.57183735\H,0,-3.20720274,2.61286208,1.029985

 Normal termination of Gaussian 16 at Wed Apr  9 19:36:38 2025.
