 Gaussian 16, Revision C.01,

 ----------------------------------------------------------------------
 #t hf aug-cc-pvdz symm=none int=(grid=ultrafine) guess=(read,tcheck) s
 table=(opt,rrhf)
 ----------------------------------------------------------------------
 -----
 title
 -----
 Symbolic Z-matrix:
 Charge =  0 Multiplicity = 1

 SCF Done:  E(RHF) =  -437.693219686     A.U. after   11 cycles
 Normal termination of Gaussian 16 at Wed Apr  9 19:38:47 2025.
 Gaussian 16:  ES64L-G16RevC.01  3-Jul-2019

 ----------------------------------------------------------------------
 #t hf aug-cc-pvdz iop(5/13=1,5/36=2,99/5=2) pseudo=read geom=check gue
 ss=(read,tcheck) scf=(maxcycle=1)
 ----------------------------------------------------------------------
 -----
 title
 -----
 Structure from the checkpoint file:  "HB300SPXx10_11_1.02_0.80_phosphine_methylamine_dimer_mol1.chk"
 Charge =  0 Multiplicity = 1

                         Standard orientation:
 ---------------------------------------------------------------------
 Center     Atomic      Atomic             Coordinates (Angstroms)
 Number     Number       Type             X           Y           Z
 ---------------------------------------------------------------------
      1         15           0        1.637362    0.030237   -0.109777
      2          1           0        0.504338   -0.784358    0.133184
      3          1           0        2.562375   -0.909067    0.411174
      4          1           0        1.519628    0.728880    1.118205
      5          7           0       -1.615915   -0.729009    0.033993
      6          1           0       -2.196555   -1.027516    0.805872
      7          1           0       -2.031046   -1.100486   -0.809710
      8          6           0       -1.528845    0.729907   -0.023613
      9          1           0       -0.884768    1.018555   -0.853450
     10          1           0       -2.487516    1.246603   -0.144667
     11          1           0       -1.062412    1.097450    0.889775
 ---------------------------------------------------------------------

 SCF Done:  E(RHF) =  -438.390278622     A.U. after    2 cycles

 The electronic state is 1-A.
 Alpha  occ. eigenvalues -- -105.16017 -15.73325 -11.38340  -2.72469  -1.43082
 Alpha  occ. eigenvalues --   -1.41577  -1.40321  -1.32396  -0.95837  -0.73279
 Alpha  occ. eigenvalues --   -0.66544  -0.60274  -0.54098  -0.51472  -0.38277
 Alpha  occ. eigenvalues --   -0.24049  -0.19416  -0.02267
 Alpha virt. eigenvalues --    0.03851   0.05342   0.05873   0.06081   0.07266
 Alpha virt. eigenvalues --    0.08269   0.09056   0.10545   0.10964   0.12487
 Alpha virt. eigenvalues --    0.13029   0.15526   0.16627   0.18481   0.18718

 Mulliken charges:
               1
     1  P    1.935073
     2  H   -0.834619
     3  H   -0.572613
     4  H   -0.679896
     5  N   -1.911874
     6  H    0.630111
     7  H    0.636647
     8  C   -3.159235
     9  H    1.334268
    10  H    1.224306
    11  H    1.397833
 Sum of Mulliken charges =  -0.00000

 Dipole moment (field-independent basis, Debye):
    X=             -1.4033    Y=              1.5693    Z=             -3.7671  Tot=              4.3154

 Test job not archived.
 1\1\GINC-SE026\SP\RHF\Aug-CC-pVDZ\C1H8N1P1\OHZDE\09-Apr-2025\0\\#t hf
 aug-cc-pvdz iop(5/13=1,5/36=2,99/5=2) pseudo=read geom=check guess=(re
 ad,tcheck) scf=(maxcycle=1)\\title\\0,1\P,0,1.60554835,-0.39061782,-0.
 727406\H,0,0.88263451,-0.28817357,0.48636549\H,0,2.87161411,-0.472756,
 -0.09521777\H,0,1.68852005,1.01288402,-0.9096172\N,0,-1.08716442,0.040
 54105,1.2076234\H,0,-1.28766287,0.7213298,1.92760388\H,0,-1.62451501,-
 0.78769957,1.42542453\C,0,-1.43544105,0.55788763,-0.11539972\H,0,-1.19
 284305,-0.1906673,-0.86878853\H,0,-2.48790995,0.83540806,-0.24177179\H

 Normal termination of Gaussian 16 at Wed Apr  9 19:38:49 2025.
