 Gaussian 16, Revision C.01,

 ----------------------------------------------------------------------
 #t hf aug-cc-pvdz symm=none int=(grid=ultrafine) guess=(read,tcheck) s
 table=(opt,rrhf)
 ----------------------------------------------------------------------
 -----
 title
 -----
 Symbolic Z-matrix:
 Charge =  0 Multiplicity = 1

 SCF Done:  E(RHF) =  -783.970311469     A.U. after   15 cycles
 Normal termination of Gaussian 16 at Wed Apr  9 19:44:59 2025.
 Gaussian 16:  ES64L-G16RevC.01  3-Jul-2019

 ----------------------------------------------------------------------
 #t hf aug-cc-pvdz iop(5/13=1,5/36=2,99/5=2) pseudo=read geom=check gue
 ss=(read,tcheck) scf=(maxcycle=1)
 ----------------------------------------------------------------------
 -----
 title
 -----
 Structure from the checkpoint file:  "HB300SPXx10_1464_5.09_0.95_nitromethane_phosphineF2_dimer_mol1.chk"
 Charge =  0 Multiplicity = 1

                         Standard orientation:
 ---------------------------------------------------------------------
 Center     Atomic      Atomic             Coordinates (Angstroms)
 Number     Number       Type             X           Y           Z
 ---------------------------------------------------------------------
      1          1           0       -1.548755    1.750501    0.071939
      2          1           0       -2.767629    1.188268   -1.097025
      3          1           0       -3.125707    1.155768    0.673071
      4          6           0       -2.371138    1.060479   -0.096915
      5          7           0       -1.781565   -0.308889   -0.008491
      6          8           0       -1.895492   -0.909795    1.040895
      7          8           0       -1.186712   -0.718747   -0.994482
      8         15           0        1.592381   -0.201619   -0.393605
      9          9           0        2.963070   -0.046396    0.416374
     10          9           0        0.801506    1.039970    0.256257
     11          1           0        1.030598   -1.184730    0.472037
 ---------------------------------------------------------------------

 SCF Done:  E(RHF) =  -785.884641636     A.U. after    2 cycles

 The electronic state is 1-A.
 Alpha  occ. eigenvalues -- -105.28903 -29.29081 -29.28500 -21.11558 -21.10423
 Alpha  occ. eigenvalues --  -16.00945 -11.45452  -2.88208  -2.01450  -1.70844
 Alpha  occ. eigenvalues --   -1.62841  -1.58819  -1.52439  -1.20852  -0.89895
 Alpha  occ. eigenvalues --   -0.88026  -0.72364  -0.70391  -0.68080  -0.58310
 Alpha  occ. eigenvalues --   -0.57833  -0.56160  -0.46892  -0.40975  -0.37565
 Alpha  occ. eigenvalues --   -0.36056  -0.34514  -0.33837  -0.32515  -0.27947
 Alpha  occ. eigenvalues --   -0.25044  -0.19525   0.00409
 Alpha virt. eigenvalues --    0.03366   0.05568   0.06553   0.07693   0.09507
 Alpha virt. eigenvalues --    0.10770   0.11535   0.12523   0.13501   0.14190
 Alpha virt. eigenvalues --    0.15012   0.15762   0.17370   0.18043   0.21298

 Mulliken charges:
               1
     1  H    1.161496
     2  H    1.446317
     3  H    1.320423
     4  C   -3.207949
     5  N    5.348954
     6  O   -2.894546
     7  O   -2.878082
     8  P    1.573402
     9  F   -0.191509
    10  F   -0.471370
    11  H   -1.207136
 Sum of Mulliken charges =   0.00000

 Dipole moment (field-independent basis, Debye):
    X=             -0.5962    Y=              4.2458    Z=              4.3275  Tot=              6.0918

 Test job not archived.
 1\1\GINC-SE054\SP\RHF\Aug-CC-pVDZ\C1H4F2N1O2P1\OHZDE\09-Apr-2025\0\\#t
  hf aug-cc-pvdz iop(5/13=1,5/36=2,99/5=2) pseudo=read geom=check guess
 =(read,tcheck) scf=(maxcycle=1)\\title\\0,1\H,0,0.49481138,0.55069733,
 -2.50359179\H,0,-1.08891031,0.71291216,-3.29967626\H,0,-0.00441746,2.1
 4812453,-3.13671373\C,0,-0.34098337,1.21704881,-2.69950341\N,0,-0.9468
 7558,1.51662809,-1.36768821\O,0,-0.63929751,2.55888018,-0.82511637\O,0
 ,-1.68734525,0.66720154,-0.89420145\P,0,0.00692249,-0.78551225,0.94180
 331\F,0,1.13539528,-1.10815872,2.02872413\F,0,0.97493606,-0.40679781,-

 Normal termination of Gaussian 16 at Wed Apr  9 19:45:04 2025.
