 Gaussian 16, Revision C.01,

 ----------------------------------------------------------------------
 #t hf aug-cc-pvdz symm=none int=(grid=ultrafine) guess=(read,tcheck) s
 table=(opt,rrhf)
 ----------------------------------------------------------------------
 -----
 title
 -----
 Symbolic Z-matrix:
 Charge =  0 Multiplicity = 1

 SCF Done:  E(RHF) =  -1102.14734408     A.U. after   13 cycles
 Normal termination of Gaussian 16 at Wed Apr  9 19:36:42 2025.
 Gaussian 16:  ES64L-G16RevC.01  3-Jul-2019

 ----------------------------------------------------------------------
 #t hf aug-cc-pvdz iop(5/13=1,5/36=2,99/5=2) pseudo=read geom=check gue
 ss=(read,tcheck) scf=(maxcycle=1)
 ----------------------------------------------------------------------
 -----
 title
 -----
 Structure from the checkpoint file:  "HB300SPXx10_1112_4.15_0.85_aceticacid_dimethyldisulfide_dimer_mol1.chk"
 Charge =  0 Multiplicity = 1

                         Standard orientation:
 ---------------------------------------------------------------------
 Center     Atomic      Atomic             Coordinates (Angstroms)
 Number     Number       Type             X           Y           Z
 ---------------------------------------------------------------------
      1          6           0        2.672016   -0.069791   -0.045404
      2          8           0        2.366693    1.087537   -0.203605
      3          8           0        1.780610   -1.073320   -0.053334
      4          1           0        0.889042   -0.698789   -0.218414
      5          6           0        4.072318   -0.567502    0.181406
      6          1           0        4.761035    0.269638    0.202007
      7          1           0        4.121697   -1.117845    1.119898
      8          1           0        4.348904   -1.258923   -0.613549
      9          1           0       -4.608012   -0.589380    0.235060
     10          1           0       -3.848167   -0.024225   -1.268283
     11          1           0       -3.837083    1.006804    0.188299
     12          1           0       -0.306878    1.263782    1.575850
     13          1           0       -1.295358    2.342703    0.551666
     14          1           0        0.442637    2.105239    0.206997
     15          6           0       -3.785039   -0.012270   -0.184266
     16         16           0       -2.259335   -0.833915    0.372627
     17         16           0       -0.789620    0.250161   -0.563384
     18          6           0       -0.469787    1.637449    0.569615
 ---------------------------------------------------------------------

 SCF Done:  E(RHF) =  -1104.00057747     A.U. after    2 cycles

 The electronic state is 1-A.
 Alpha  occ. eigenvalues --  -75.70785 -75.70585 -21.08764 -21.03822 -13.18086
 Alpha  occ. eigenvalues --  -13.14315 -13.12381 -13.10061 -13.08234 -13.04312
 Alpha  occ. eigenvalues --  -11.51364 -11.40524 -11.39476 -11.38696  -8.04992
 Alpha  occ. eigenvalues --   -8.04634  -1.81212  -1.64049  -1.27439  -1.13300
 Alpha  occ. eigenvalues --   -1.10311  -0.98637  -0.87914  -0.79133  -0.63625
 Alpha  occ. eigenvalues --   -0.61127  -0.60780  -0.60019  -0.59843  -0.59118
 Alpha  occ. eigenvalues --   -0.58319  -0.53966  -0.48811  -0.47778  -0.44729
 Alpha  occ. eigenvalues --   -0.43550  -0.33982  -0.32308  -0.28961  -0.25103
 Alpha  occ. eigenvalues --   -0.24377
 Alpha virt. eigenvalues --    0.02564   0.03491   0.04437   0.04604   0.06536
 Alpha virt. eigenvalues --    0.06641   0.06758   0.07361   0.08157   0.08395
 Alpha virt. eigenvalues --    0.09622   0.10969   0.12080   0.12603   0.12918

 Mulliken charges:
               1
     1  C    5.652222
     2  O   -3.197889
     3  O   -3.496168
     4  H    2.604513
     5  C   -4.466105
     6  H    1.296968
     7  H    1.259080
     8  H    1.236211
     9  H    1.342791
    10  H    1.515035
    11  H    1.558234
    12  H    1.502581
    13  H    1.463704
    14  H    1.779127
    15  C   -4.867088
    16  S    0.607572
    17  S   -1.127841
    18  C   -4.662947
 Sum of Mulliken charges =   0.00000

 Dipole moment (field-independent basis, Debye):
    X=             -0.4004    Y=             -1.2744    Z=              0.0209  Tot=              1.3360

 Test job not archived.
 1\1\GINC-SE116\SP\RHF\Aug-CC-pVDZ\C4H10O2S2\OHZDE\09-Apr-2025\0\\#t hf
  aug-cc-pvdz iop(5/13=1,5/36=2,99/5=2) pseudo=read geom=check guess=(r
 ead,tcheck) scf=(maxcycle=1)\\title\\0,1\C,0,2.51189353,-1.3688008,0.0
 1480743\O,0,1.76216303,-1.97148126,0.7444221\O,0,2.20838592,-0.1819016
 3,-0.53372859\H,0,1.31541707,0.08523139,-0.22768185\C,0,3.88111819,-1.
 83853704,-0.39087365\H,0,4.08390343,-2.80677129,0.05292751\H,0,3.94369
 33,-1.90220497,-1.47628393\H,0,4.62800978,-1.11523999,-0.06604891\H,0,
 -3.54920257,2.6354911,-0.74426505\H,0,-2.78744048,2.53211225,0.8575573

 Normal termination of Gaussian 16 at Wed Apr  9 19:36:50 2025.
