 Gaussian 16, Revision C.01,

 ----------------------------------------------------------------------
 #t hf aug-cc-pvdz symm=none int=(grid=ultrafine) guess=(read,tcheck) s
 table=(opt,rrhf)
 ----------------------------------------------------------------------
 -----
 title
 -----
 Symbolic Z-matrix:
 Charge =  0 Multiplicity = 1

 SCF Done:  E(RHF) =  -630.508134317     A.U. after   14 cycles

 1\1\GINC-SE026\Stability\RHF\Aug-CC-pVDZ\C6H10S1\OHZDE\09-Apr-2025\0\\
 #t hf aug-cc-pvdz symm=none int=(grid=ultrafine) guess=(read,tcheck) s
 table=(opt,rrhf)\\title\\0,1\C,0,2.59090187,-0.04968862,0.43961338\H,0
 ,1.93323189,0.27193926,-0.33858357\C,0,3.30609004,-0.41751171,1.325807
 27\H,0,3.94715573,-0.74121457,2.10714096\H,0,0.40806019,-1.69149499,-0
 .47797148\H,0,-1.06659996,-1.73832799,-1.45345247\H,0,-1.31445157,-1.9
 9787214,1.19920089\H,0,-1.62965334,1.79801271,0.2764175\H,0,-2.4114887
 5,-0.89741548,0.3671261\H,0,0.08219918,1.98865211,0.67066752\H,0,-1.42

 Normal termination of Gaussian 16 at Wed Apr  9 19:35:27 2025.
 Gaussian 16:  ES64L-G16RevC.01  3-Jul-2019

 ----------------------------------------------------------------------
 #t hf aug-cc-pvdz iop(5/13=1,5/36=2,99/5=2) pseudo=read geom=check gue
 ss=(read,tcheck) scf=(maxcycle=1)
 ----------------------------------------------------------------------
 -----
 title
 -----
 Structure from the checkpoint file:  "HB300SPXx10_1003_4.04_0.90_ethyne_tetrahydrothiophene_dimer_mol1.chk"
 Charge =  0 Multiplicity = 1

                         Standard orientation:
 ---------------------------------------------------------------------
 Center     Atomic      Atomic             Coordinates (Angstroms)
 Number     Number       Type             X           Y           Z
 ---------------------------------------------------------------------
      1          6           0       -2.416438   -0.405147   -0.057987
      2          1           0       -1.548363   -1.026329   -0.011686
      3          6           0       -3.372772    0.312398   -0.109764
      4          1           0       -4.225965    0.941836   -0.155607
      5          1           0       -0.139385    0.039061   -1.766786
      6          1           0        1.550091   -0.382216   -2.077551
      7          1           0        1.010686    2.117976   -1.287964
      8          1           0        1.752077   -0.064863    1.881448
      9          1           0        2.350218    1.274005   -0.513231
     10          1           0        0.009852   -0.276668    2.086405
     11          1           0        0.926760    2.133601    1.316002
     12          1           0       -0.508414    1.470948    0.539168
     13         16           0        0.796307   -1.294060    0.029777
     14          6           0        0.849178   -0.045830   -1.318440
     15          6           0        1.269041    1.265453   -0.659472
     16          6           0        0.559700    1.318030    0.692785
     17          6           0        0.791547   -0.031969    1.371773
 ---------------------------------------------------------------------

 SCF Done:  E(RHF) =  -631.921003068     A.U. after    2 cycles

 The electronic state is 1-A.
 Alpha  occ. eigenvalues --  -75.66759 -13.11677 -13.11339 -13.09753 -11.43765
 Alpha  occ. eigenvalues --  -11.42922 -11.40750 -11.40309 -11.39091 -11.36254
 Alpha  occ. eigenvalues --   -8.00862  -1.32708  -1.09130  -1.07415  -1.07269
 Alpha  occ. eigenvalues --   -0.84747  -0.83153  -0.78135  -0.66875  -0.65674
 Alpha  occ. eigenvalues --   -0.64762  -0.61002  -0.54137  -0.48949  -0.47156
 Alpha  occ. eigenvalues --   -0.45541  -0.42225  -0.38284  -0.38235  -0.35040
 Alpha  occ. eigenvalues --   -0.22604
 Alpha virt. eigenvalues --    0.03511   0.04487   0.04884   0.05461   0.05722
 Alpha virt. eigenvalues --    0.05955   0.06715   0.06992   0.07443   0.08570
 Alpha virt. eigenvalues --    0.10070   0.11285   0.12118   0.13403   0.14104

 Mulliken charges:
               1
     1  C   -0.002790
     2  H    1.416124
     3  C   -1.446440
     4  H    0.470797
     5  H    1.539778
     6  H    1.369447
     7  H    1.277118
     8  H    1.404351
     9  H    1.433014
    10  H    1.468356
    11  H    1.246951
    12  H    1.921494
    13  S    0.222532
    14  C   -3.300927
    15  C   -2.778704
    16  C   -2.863254
    17  C   -3.377845
 Sum of Mulliken charges =  -0.00000

 Dipole moment (field-independent basis, Debye):
    X=              0.5370    Y=              0.4552    Z=              0.0165  Tot=              0.7042

 Test job not archived.
 1\1\GINC-SE026\SP\RHF\Aug-CC-pVDZ\C6H10S1\OHZDE\09-Apr-2025\0\\#t hf a
 ug-cc-pvdz iop(5/13=1,5/36=2,99/5=2) pseudo=read geom=check guess=(rea
 d,tcheck) scf=(maxcycle=1)\\title\\0,1\C,0,2.59090187,-0.04968862,0.43
 961338\H,0,1.93323189,0.27193926,-0.33858357\C,0,3.30609004,-0.4175117
 1,1.32580727\H,0,3.94715573,-0.74121457,2.10714096\H,0,0.40806019,-1.6
 9149499,-0.47797148\H,0,-1.06659996,-1.73832799,-1.45345247\H,0,-1.314
 45157,-1.99787214,1.19920089\H,0,-1.62965334,1.79801271,0.2764175\H,0,
 -2.41148875,-0.89741548,0.3671261\H,0,0.08219918,1.98865211,0.67066752

 Normal termination of Gaussian 16 at Wed Apr  9 19:35:34 2025.
