 Gaussian 16, Revision C.01,

 ----------------------------------------------------------------------
 #t hf aug-cc-pvdz symm=none int=(grid=ultrafine) guess=(read,tcheck) s
 table=(opt,rrhf)
 ----------------------------------------------------------------------
 -----
 title
 -----
 Symbolic Z-matrix:
 Charge =  0 Multiplicity = 1

 SCF Done:  E(RHF) =  -513.762216615     A.U. after   12 cycles
 Normal termination of Gaussian 16 at Wed Apr  9 19:37:45 2025.
 Gaussian 16:  ES64L-G16RevC.01  3-Jul-2019

 ----------------------------------------------------------------------
 #t hf aug-cc-pvdz iop(5/13=1,5/36=2,99/5=2) pseudo=read geom=check gue
 ss=(read,tcheck) scf=(maxcycle=1)
 ----------------------------------------------------------------------
 -----
 title
 -----
 Structure from the checkpoint file:  "HB300SPXx10_1161_4.21_0.80_water_methanethiol_dimer_mol1.chk"
 Charge =  0 Multiplicity = 1

                         Standard orientation:
 ---------------------------------------------------------------------
 Center     Atomic      Atomic             Coordinates (Angstroms)
 Number     Number       Type             X           Y           Z
 ---------------------------------------------------------------------
      1          8           0       -1.988833    0.131285    0.054934
      2          1           0       -1.185460   -0.389362   -0.088470
      3          1           0       -2.703730   -0.399100   -0.303052
      4          1           0       -0.083010    1.543970    0.493813
      5          1           0        0.823298    1.498042   -1.022278
      6          1           0        1.704805    1.478539    0.511763
      7          1           0        0.722908   -0.908305    1.238867
      8          6           0        0.802447    1.148927    0.006380
      9         16           0        0.738573   -0.672977   -0.081775
 ---------------------------------------------------------------------

 SCF Done:  E(RHF) =  -514.534576706     A.U. after    2 cycles

 The electronic state is 1-A.
 Alpha  occ. eigenvalues --  -75.69516 -21.06276 -13.15065 -13.10461 -13.08733
 Alpha  occ. eigenvalues --  -11.40013  -8.03616  -1.64099  -1.19655  -0.95229
 Alpha  occ. eigenvalues --   -0.64379  -0.60606  -0.57777  -0.50169  -0.45401
 Alpha  occ. eigenvalues --   -0.40190  -0.33098  -0.23954
 Alpha virt. eigenvalues --    0.03039   0.04059   0.04897   0.06073   0.07681
 Alpha virt. eigenvalues --    0.09617   0.10792   0.11909   0.14688   0.14930
 Alpha virt. eigenvalues --    0.16059   0.16666   0.18853   0.20363   0.23210

 Mulliken charges:
               1
     1  O   -2.092054
     2  H    2.285182
     3  H    0.797427
     4  H    1.265630
     5  H    1.413108
     6  H    1.327504
     7  H    1.169269
     8  C   -4.408790
     9  S   -1.757275
 Sum of Mulliken charges =  -0.00000

 Dipole moment (field-independent basis, Debye):
    X=              0.3771    Y=             -0.4080    Z=             -1.2021  Tot=              1.3243

 Test job not archived.
 1\1\GINC-SE100\SP\RHF\Aug-CC-pVDZ\C1H6O1S1\OHZDE\09-Apr-2025\0\\#t hf
 aug-cc-pvdz iop(5/13=1,5/36=2,99/5=2) pseudo=read geom=check guess=(re
 ad,tcheck) scf=(maxcycle=1)\\title\\0,1\O,0,-0.58582535,-1.65985485,-1
 .57348405\H,0,-0.07487288,-1.34797585,-0.81275631\H,0,-0.15829821,-2.4
 72369,-1.85201796\H,0,-1.27793922,0.59586339,-1.07032767\H,0,0.2217879
 4,1.52325106,-1.18349823\H,0,-0.94045503,1.91306705,0.09241267\H,0,-0.
 6407693,-0.45178123,1.32022005\C,0,-0.51209127,1.10899507,-0.4977387\S
 ,0,0.39819496,-0.06125881,0.56671815\\Version=ES64L-G16RevC.01\State=1

 Normal termination of Gaussian 16 at Wed Apr  9 19:37:48 2025.
