 Gaussian 16, Revision C.01,

 ----------------------------------------------------------------------
 #t hf aug-cc-pvdz symm=none int=(grid=ultrafine) guess=(read,tcheck) s
 table=(opt,rrhf)
 ----------------------------------------------------------------------
 -----
 title
 -----
 Symbolic Z-matrix:
 Charge =  0 Multiplicity = 1

 SCF Done:  E(RHF) =  -875.460965471     A.U. after   12 cycles
 Normal termination of Gaussian 16 at Wed Apr  9 19:38:51 2025.
 Gaussian 16:  ES64L-G16RevC.01  3-Jul-2019

 ----------------------------------------------------------------------
 #t hf aug-cc-pvdz iop(5/13=1,5/36=2,99/5=2) pseudo=read geom=check gue
 ss=(read,tcheck) scf=(maxcycle=1)
 ----------------------------------------------------------------------
 -----
 title
 -----
 Structure from the checkpoint file:  "HB300SPXx10_1197_4.24_1.10_methanethiol_methanethiol_dimer_mol1.chk"
 Charge =  0 Multiplicity = 1

                         Standard orientation:
 ---------------------------------------------------------------------
 Center     Atomic      Atomic             Coordinates (Angstroms)
 Number     Number       Type             X           Y           Z
 ---------------------------------------------------------------------
      1          1           0       -1.090029    0.910819    1.332083
      2          1           0       -2.851915    0.988595    1.235005
      3          1           0       -1.876480    1.843426    0.034475
      4          1           0       -0.859042   -0.377877   -1.005508
      5          6           0       -1.936228    0.951230    0.650961
      6         16           0       -2.034304   -0.550591   -0.374853
      7          1           0        2.406330   -0.474872    1.736927
      8          1           0        2.314839   -1.729832    0.496502
      9          1           0        0.821812   -0.992014    1.085230
     10          1           0        1.518235    1.453387    0.135116
     11          6           0        1.867245   -0.806604    0.854822
     12         16           0        2.036188    0.395004   -0.505431
 ---------------------------------------------------------------------

 SCF Done:  E(RHF) =  -876.353469887     A.U. after    2 cycles

 The electronic state is 1-A.
 Alpha  occ. eigenvalues --  -75.69037 -75.68123 -13.12360 -13.11417 -13.07768
 Alpha  occ. eigenvalues --  -13.07169 -13.04262 -13.01520 -11.40058 -11.39755
 Alpha  occ. eigenvalues --   -8.02917  -8.02006  -1.19108  -1.18041  -0.94522
 Alpha  occ. eigenvalues --   -0.93949  -0.60644  -0.60074  -0.59359  -0.58614
 Alpha  occ. eigenvalues --   -0.49795  -0.48863  -0.39761  -0.39233  -0.24315
 Alpha  occ. eigenvalues --   -0.23464
 Alpha virt. eigenvalues --    0.02141   0.03061   0.04310   0.04780   0.06793
 Alpha virt. eigenvalues --    0.07014   0.07555   0.09301   0.10553   0.11106
 Alpha virt. eigenvalues --    0.12243   0.13007   0.14827   0.14954   0.15447

 Mulliken charges:
               1
     1  H    1.489359
     2  H    1.373310
     3  H    1.326292
     4  H    1.003701
     5  C   -4.669302
     6  S   -0.507161
     7  H    1.344096
     8  H    1.381124
     9  H    1.494473
    10  H    1.025966
    11  C   -4.617692
    12  S   -0.644167
 Sum of Mulliken charges =   0.00000

 Dipole moment (field-independent basis, Debye):
    X=             -0.2054    Y=             -0.8151    Z=              0.0424  Tot=              0.8417

 Test job not archived.
 1\1\GINC-SE018\SP\RHF\Aug-CC-pVDZ\C2H8S2\OHZDE\09-Apr-2025\0\\#t hf au
 g-cc-pvdz iop(5/13=1,5/36=2,99/5=2) pseudo=read geom=check guess=(read
 ,tcheck) scf=(maxcycle=1)\\title\\0,1\H,0,1.48841111,-0.83932977,-0.94
 699875\H,0,2.60301323,-1.84400864,-0.01533608\H,0,2.55978836,-0.100175
 65,0.26866848\H,0,0.07877426,-0.11956038,1.21477831\C,0,1.95766928,-0.
 9705586,0.02469451\S,0,0.71991769,-1.29709475,1.32035013\H,0,-1.673162
 47,0.35657659,-2.64488769\H,0,-2.74306172,0.28891424,-1.24036396\H,0,-
 1.195403,-0.56062437,-1.18429499\H,0,0.21318668,1.75038464,-1.39122134

 Normal termination of Gaussian 16 at Wed Apr  9 19:38:55 2025.
