 Gaussian 16, Revision C.01,

 ----------------------------------------------------------------------
 #t hf aug-cc-pvdz symm=none int=(grid=ultrafine) guess=(read,tcheck) s
 table=(opt,rrhf)
 ----------------------------------------------------------------------
 -----
 title
 -----
 Symbolic Z-matrix:
 Charge =  0 Multiplicity = 1

 SCF Done:  E(RHF) =  -1334.39720024     A.U. after   13 cycles
 Normal termination of Gaussian 16 at Wed Apr  9 04:10:31 2025.
 Gaussian 16:  ES64L-G16RevC.01  3-Jul-2019

 ----------------------------------------------------------------------
 #t hf aug-cc-pvdz iop(5/13=1,5/36=2,99/5=2) pseudo=read geom=check gue
 ss=(read,tcheck) scf=(maxcycle=1)
 ----------------------------------------------------------------------
 -----
 title
 -----
 Structure from the checkpoint file:  "HB300SPXx10_1316_4.36_1.05_hydrogenchloride_dimethyldisulfide_dimer_mol1.chk"
 Charge =  0 Multiplicity = 1

                         Standard orientation:
 ---------------------------------------------------------------------
 Center     Atomic      Atomic             Coordinates (Angstroms)
 Number     Number       Type             X           Y           Z
 ---------------------------------------------------------------------
      1          1           0       -1.870776   -0.198484    0.373949
      2         17           0       -3.050738   -0.513815   -0.087644
      3          1           0        3.539291   -1.329594   -0.550532
      4          1           0        3.317769   -0.334023    0.904034
      5          1           0        3.200913    0.402437   -0.717846
      6          1           0       -0.528448    1.402217   -1.410132
      7          1           0        1.031617    2.185677   -1.028263
      8          1           0       -0.450549    2.698393   -0.196293
      9          6           0        3.000952   -0.484609   -0.123547
     10         16           0        1.238298   -0.932877   -0.188445
     11         16           0        0.333312    0.664744    0.728131
     12          6           0        0.078542    1.851004   -0.629777
 ---------------------------------------------------------------------

 SCF Done:  E(RHF) =  -1335.53170528     A.U. after    2 cycles

 The electronic state is 1-A.
 Alpha  occ. eigenvalues --  -99.88646 -75.71537 -75.70963 -13.15729 -13.12889
 Alpha  occ. eigenvalues --  -13.12005 -13.10494 -13.08652 -13.04525 -11.40951
 Alpha  occ. eigenvalues --  -11.40762 -10.45738  -9.65846  -9.65002  -9.64983
 Alpha  occ. eigenvalues --   -8.05560  -8.05013  -1.28630  -1.27290  -1.13824
 Alpha  occ. eigenvalues --   -0.99335  -0.88042  -0.67575  -0.61380  -0.60517
 Alpha  occ. eigenvalues --   -0.60344  -0.59585  -0.50741  -0.50719  -0.48271
 Alpha  occ. eigenvalues --   -0.44307  -0.35103  -0.27006  -0.24984
 Alpha virt. eigenvalues --    0.02212   0.03128   0.04491   0.04898   0.06821
 Alpha virt. eigenvalues --    0.07438   0.08259   0.08626   0.09435   0.11057
 Alpha virt. eigenvalues --    0.12118   0.12336   0.14179   0.14542   0.15062

 Mulliken charges:
               1
     1  H    0.790438
     2  Cl  -0.655776
     3  H    1.338077
     4  H    1.502440
     5  H    1.521054
     6  H    1.390674
     7  H    1.542804
     8  H    1.389351
     9  C   -4.745319
    10  S    0.532154
    11  S   -0.264808
    12  C   -4.341089
 Sum of Mulliken charges =  -0.00000

 Dipole moment (field-independent basis, Debye):
    X=              2.3149    Y=              0.2403    Z=              0.4781  Tot=              2.3760

 Test job not archived.
 1\1\GINC-SE059\SP\RHF\Aug-CC-pVDZ\C2H7Cl1S2\OHZDE\09-Apr-2025\0\\#t hf
  aug-cc-pvdz iop(5/13=1,5/36=2,99/5=2) pseudo=read geom=check guess=(r
 ead,tcheck) scf=(maxcycle=1)\\title\\0,1\H,0,-0.26068265,0.62653872,-1
 .61580209\Cl,0,0.10581098,1.51670262,-2.49790267\H,0,1.77684502,-2.080
 47676,2.84776656\H,0,0.17850643,-2.69907263,2.3801681\H,0,0.32371985,-
 1.15241643,3.25953779\H,0,-0.61939836,1.79228333,0.84578137\H,0,-1.308
 84836,0.91729804,2.24309906\H,0,-2.32602041,1.29536858,0.83800383\C,0,
 0.77678832,-1.80339584,2.51725675\S,0,0.99842182,-0.93565186,0.9329578

 Normal termination of Gaussian 16 at Wed Apr  9 04:10:35 2025.
