 Gaussian 16, Revision C.01,

 ----------------------------------------------------------------------
 #t hf aug-cc-pvdz symm=none int=(grid=ultrafine) guess=(read,tcheck) s
 table=(opt,rrhf)
 ----------------------------------------------------------------------
 -----
 title
 -----
 Symbolic Z-matrix:
 Charge =  0 Multiplicity = 1

 SCF Done:  E(RHF) =  -800.714003199     A.U. after   14 cycles
 Normal termination of Gaussian 16 at Wed Apr  9 19:39:24 2025.
 Gaussian 16:  ES64L-G16RevC.01  3-Jul-2019

 ----------------------------------------------------------------------
 #t hf aug-cc-pvdz iop(5/13=1,5/36=2,99/5=2) pseudo=read geom=check gue
 ss=(read,tcheck) scf=(maxcycle=1)
 ----------------------------------------------------------------------
 -----
 title
 -----
 Structure from the checkpoint file:  "HB300SPXx10_1102_4.14_0.85_Nmethylacetamide_tetrahydrothiophene_dimer_mol1.chk"
 Charge =  0 Multiplicity = 1

                         Standard orientation:
 ---------------------------------------------------------------------
 Center     Atomic      Atomic             Coordinates (Angstroms)
 Number     Number       Type             X           Y           Z
 ---------------------------------------------------------------------
      1          6           0       -2.237286   -1.631224   -0.147039
      2          1           0       -2.174766   -2.119061    0.824388
      3          1           0       -1.404360   -1.950905   -0.769873
      4          1           0       -3.170151   -1.947876   -0.609572
      5          6           0       -2.289144   -0.130994    0.063022
      6          8           0       -3.174974    0.395089    0.716921
      7          7           0       -1.295451    0.573767   -0.535361
      8          1           0       -0.533859    0.070454   -0.968620
      9          6           0       -1.192911    2.011363   -0.403863
     10          1           0       -2.190036    2.427934   -0.294954
     11          1           0       -0.609038    2.305050    0.472555
     12          1           0       -0.723592    2.426879   -1.293197
     13          1           0        1.393739    1.625561   -0.842286
     14          1           0        3.003442    1.020148   -1.239784
     15          1           0        2.508631    1.786389    1.290889
     16          1           0        1.965307   -2.044431    0.922388
     17          1           0        3.409647    0.299610    1.012336
     18          1           0        0.222833   -1.782058    0.797709
     19          1           0        1.581454   -0.292613    2.557927
     20          1           0        0.405226    0.505633    1.519341
     21         16           0        1.403515   -0.789512   -1.068985
     22          6           0        2.122970    0.847742   -0.627253
     23          6           0        2.443866    0.785033    0.865533
     24          6           0        1.344425   -0.047668    1.522738
     25          6           0        1.195952   -1.313517    0.682972
 ---------------------------------------------------------------------

 SCF Done:  E(RHF) =  -802.905766750     A.U. after    2 cycles

 The electronic state is 1-A.
 Alpha  occ. eigenvalues --  -75.68102 -21.00292 -15.73719 -13.15047 -13.14275
 Alpha  occ. eigenvalues --  -13.11860 -11.48671 -11.45654 -11.44437 -11.40596
 Alpha  occ. eigenvalues --  -11.39437 -11.38312 -11.37631  -8.02272  -1.68725
 Alpha  occ. eigenvalues --   -1.38156  -1.33617  -1.10583  -1.09059  -1.08564
 Alpha  occ. eigenvalues --   -0.98407  -0.86314  -0.84418  -0.78323  -0.68115
 Alpha  occ. eigenvalues --   -0.67220  -0.66719  -0.62896  -0.61890  -0.60871
 Alpha  occ. eigenvalues --   -0.57959  -0.55319  -0.54640  -0.51453  -0.50000
 Alpha  occ. eigenvalues --   -0.48000  -0.46822  -0.46287  -0.45171  -0.43549
 Alpha  occ. eigenvalues --   -0.36460  -0.29608  -0.27140  -0.23441
 Alpha virt. eigenvalues --    0.03324   0.03827   0.04553   0.05026   0.05101
 Alpha virt. eigenvalues --    0.05502   0.06086   0.06251   0.07018   0.07163
 Alpha virt. eigenvalues --    0.08256   0.08616   0.09288   0.09830   0.10629

 Mulliken charges:
               1
     1  C   -4.898744
     2  H    1.318024
     3  H    1.612561
     4  H    1.071503
     5  C    5.659276
     6  O   -3.535402
     7  N   -2.802427
     8  H    1.826873
     9  C   -4.048209
    10  H    1.362219
    11  H    1.686662
    12  H    1.461153
    13  H    2.010644
    14  H    1.340911
    15  H    1.306330
    16  H    1.304295
    17  H    1.496984
    18  H    2.126970
    19  H    1.290171
    20  H    2.240741
    21  S   -0.116287
    22  C   -3.655970
    23  C   -3.070907
    24  C   -3.159242
    25  C   -3.828130
 Sum of Mulliken charges =   0.00000

 Dipole moment (field-independent basis, Debye):
    X=              3.0226    Y=             -0.2661    Z=             -1.0030  Tot=              3.1957

 Test job not archived.
 1\1\GINC-SE035\SP\RHF\Aug-CC-pVDZ\C7H15N1O1S1\OHZDE\09-Apr-2025\0\\#t
 hf aug-cc-pvdz iop(5/13=1,5/36=2,99/5=2) pseudo=read geom=check guess=
 (read,tcheck) scf=(maxcycle=1)\\title\\0,1\C,0,-2.35790997,-0.53076315
 ,1.51380969\H,0,-2.45888814,0.43106478,2.01406411\H,0,-1.4356415,-1.01
 232631,1.83224394\H,0,-3.20368729,-1.14467685,1.81747472\C,0,-2.435185
 38,-0.3119418,0.01592702\O,0,-3.41358688,0.19433185,-0.50891479\N,0,-1
 .3525984,-0.72916607,-0.68842032\H,0,-0.53292762,-1.03795931,-0.184588
 74\C,0,-1.26500492,-0.56327277,-2.12344447\H,0,-2.26409386,-0.61429593

 Normal termination of Gaussian 16 at Wed Apr  9 19:39:42 2025.
