 Gaussian 16, Revision C.01,

 ----------------------------------------------------------------------
 #t hf aug-cc-pvdz symm=none int=(grid=ultrafine) guess=(read,tcheck) s
 table=(opt,rrhf)
 ----------------------------------------------------------------------
 -----
 title
 -----
 Symbolic Z-matrix:
 Charge =  0 Multiplicity = 1

 SCF Done:  E(RHF) =  -875.444656447     A.U. after   12 cycles
 Normal termination of Gaussian 16 at Wed Apr  9 19:37:56 2025.
 Gaussian 16:  ES64L-G16RevC.01  3-Jul-2019

 ----------------------------------------------------------------------
 #t hf aug-cc-pvdz iop(5/13=1,5/36=2,99/5=2) pseudo=read geom=check gue
 ss=(read,tcheck) scf=(maxcycle=1)
 ----------------------------------------------------------------------
 -----
 title
 -----
 Structure from the checkpoint file:  "HB300SPXx10_1191_4.24_0.80_methanethiol_methanethiol_dimer_mol1.chk"
 Charge =  0 Multiplicity = 1

                         Standard orientation:
 ---------------------------------------------------------------------
 Center     Atomic      Atomic             Coordinates (Angstroms)
 Number     Number       Type             X           Y           Z
 ---------------------------------------------------------------------
      1          1           0       -0.848886    0.920540    1.381592
      2          1           0       -2.603558    0.861214    1.188411
      3          1           0       -1.637032    1.822067    0.063214
      4          1           0       -0.389828   -0.283418   -0.967488
      5          6           0       -1.657809    0.911913    0.655519
      6         16           0       -1.579535   -0.565237   -0.407157
      7          1           0        1.959210   -0.463322    1.764779
      8          1           0        2.035696   -1.688261    0.493708
      9          1           0        0.458707   -1.086754    1.014670
     10          1           0        1.006120    1.430407    0.159132
     11          6           0        1.496690   -0.813167    0.846928
     12         16           0        1.641178    0.433677   -0.474887
 ---------------------------------------------------------------------

 SCF Done:  E(RHF) =  -876.348004631     A.U. after    2 cycles

 The electronic state is 1-A.
 Alpha  occ. eigenvalues --  -75.69294 -75.66885 -13.13762 -13.11371 -13.09668
 Alpha  occ. eigenvalues --  -13.08947 -13.06595 -13.03751 -11.40099 -11.39781
 Alpha  occ. eigenvalues --   -8.03263  -8.00900  -1.21106  -1.16588  -0.94990
 Alpha  occ. eigenvalues --   -0.93999  -0.62167  -0.60395  -0.59522  -0.57878
 Alpha  occ. eigenvalues --   -0.50589  -0.49015  -0.40214  -0.39781  -0.23576
 Alpha  occ. eigenvalues --   -0.22765
 Alpha virt. eigenvalues --    0.02495   0.03070   0.04333   0.05013   0.07141
 Alpha virt. eigenvalues --    0.07355   0.07700   0.08660   0.10602   0.11497
 Alpha virt. eigenvalues --    0.12668   0.13320   0.14891   0.14999   0.15692

 Mulliken charges:
               1
     1  H    1.638329
     2  H    1.318315
     3  H    1.310713
     4  H    1.353765
     5  C   -4.672383
     6  S   -0.798366
     7  H    1.330663
     8  H    1.324207
     9  H    1.704584
    10  H    1.017081
    11  C   -4.445047
    12  S   -1.081863
 Sum of Mulliken charges =   0.00000

 Dipole moment (field-independent basis, Debye):
    X=             -0.0646    Y=             -0.9621    Z=             -0.2420  Tot=              0.9941

 Test job not archived.
 1\1\GINC-SE118\SP\RHF\Aug-CC-pVDZ\C2H8S2\OHZDE\09-Apr-2025\0\\#t hf au
 g-cc-pvdz iop(5/13=1,5/36=2,99/5=2) pseudo=read geom=check guess=(read
 ,tcheck) scf=(maxcycle=1)\\title\\0,1\H,0,1.48841111,-0.83932977,-0.94
 699875\H,0,2.60301323,-1.84400864,-0.01533608\H,0,2.55978836,-0.100175
 65,0.26866848\H,0,0.07877426,-0.11956038,1.21477831\C,0,1.95766928,-0.
 9705586,0.02469451\S,0,0.71991769,-1.29709475,1.32035013\H,0,-1.377691
 29,-0.17833774,-2.08535597\H,0,-2.44759054,-0.24600009,-0.68083224\H,0
 ,-0.89993182,-1.09553869,-0.62476327\H,0,0.50865787,1.21547032,-0.8316

 Normal termination of Gaussian 16 at Wed Apr  9 19:38:00 2025.
