 Gaussian 16, Revision C.01,

 ----------------------------------------------------------------------
 #t hf aug-cc-pvdz symm=none int=(grid=ultrafine) guess=(read,tcheck) s
 table=(opt,rrhf)
 ----------------------------------------------------------------------
 -----
 title
 -----
 Symbolic Z-matrix:
 Charge =  0 Multiplicity = 1

 SCF Done:  E(RHF) =  -742.486190349     A.U. after   14 cycles
 Normal termination of Gaussian 16 at Wed Apr  9 19:37:41 2025.
 Gaussian 16:  ES64L-G16RevC.01  3-Jul-2019

 ----------------------------------------------------------------------
 #t hf aug-cc-pvdz iop(5/13=1,5/36=2,99/5=2) pseudo=read geom=check gue
 ss=(read,tcheck) scf=(maxcycle=1)
 ----------------------------------------------------------------------
 -----
 title
 -----
 Structure from the checkpoint file:  "HB300SPXx10_1136_4.17_1.05_aceticacid_thioacetone_dimer_mol1.chk"
 Charge =  0 Multiplicity = 1

                         Standard orientation:
 ---------------------------------------------------------------------
 Center     Atomic      Atomic             Coordinates (Angstroms)
 Number     Number       Type             X           Y           Z
 ---------------------------------------------------------------------
      1          6           0       -1.871271    1.716928    0.000000
      2          8           0       -2.217849    0.559481    0.000000
      3          8           0       -0.590234    2.105146    0.000000
      4          1           0        0.000000    1.317516    0.000000
      5          6           0       -2.811493    2.891038    0.000000
      6          1           0       -3.837653    2.540816    0.000000
      7          1           0       -2.627300    3.510191    0.876954
      8          1           0       -2.627300    3.510191   -0.876954
      9          1           0        3.417518   -2.509243    0.000000
     10          1           0        2.227288   -3.499418    0.874412
     11          1           0        2.227288   -3.499418   -0.874412
     12          1           0       -0.713758   -1.305010    0.000000
     13          1           0       -0.228230   -2.776886   -0.872921
     14          6           0        2.393011   -2.865226    0.000000
     15          6           0        1.404919   -1.739735    0.000000
     16         16           0        1.897157   -0.184893    0.000000
     17          6           0       -0.031744   -2.148105    0.000000
     18          1           0       -0.228230   -2.776886    0.872921
 ---------------------------------------------------------------------

 SCF Done:  E(RHF) =  -744.281789633     A.U. after    2 cycles

 The electronic state is 1-A'.
 Alpha  occ. eigenvalues --  -75.66974 -21.09881 -21.03942 -13.16436 -13.06818
 Alpha  occ. eigenvalues --  -12.98373 -11.51307 -11.48535 -11.40541 -11.38934
 Alpha  occ. eigenvalues --  -11.38790  -8.01242  -1.81208  -1.63934  -1.28995
 Alpha  occ. eigenvalues --   -1.10347  -1.05116  -1.03790  -0.79193  -0.75569
 Alpha  occ. eigenvalues --   -0.63459  -0.61778  -0.61083  -0.61047  -0.60227
 Alpha  occ. eigenvalues --   -0.59372  -0.55419  -0.53543  -0.50676  -0.48869
 Alpha  occ. eigenvalues --   -0.44426  -0.41921  -0.32924  -0.32155  -0.28889
 Alpha  occ. eigenvalues --   -0.23038
 Alpha virt. eigenvalues --    0.02649   0.04281   0.05351   0.05767   0.06622
 Alpha virt. eigenvalues --    0.06646   0.06850   0.07432   0.07554   0.08157
 Alpha virt. eigenvalues --    0.08474   0.09138   0.12128   0.12813   0.13567

 Mulliken charges:
               1
     1  C    5.837093
     2  O   -3.269332
     3  O   -3.482118
     4  H    1.593305
     5  C   -4.421558
     6  H    1.307156
     7  H    1.240131
     8  H    1.240131
     9  H    1.455499
    10  H    1.201409
    11  H    1.201409
    12  H    1.886822
    13  H    1.125950
    14  C   -4.464972
    15  C    0.445135
    16  S    0.799811
    17  C   -4.821821
    18  H    1.125950
 Sum of Mulliken charges =  -0.00000

 Dipole moment (field-independent basis, Debye):
    X=              1.1326    Y=              0.3683    Z=              0.0000  Tot=              1.1910

 Test job not archived.
 1\1\GINC-SE145\SP\RHF\Aug-CC-pVDZ\C5H10O2S1\OHZDE\09-Apr-2025\0\\#t hf
  aug-cc-pvdz iop(5/13=1,5/36=2,99/5=2) pseudo=read geom=check guess=(r
 ead,tcheck) scf=(maxcycle=1)\\title\\0,1\C,0,0.15920132,2.45664609,0.\
 O,0,1.21885316,1.87618237,0.\O,0,-1.02533188,1.83322707,0.\H,0,-0.8922
 641,0.85801947,0.\C,0,0.00380934,3.95277518,0.\H,0,0.98023034,4.424223
 4,0.\H,0,-0.56217465,4.2641268,-0.87695442\H,0,-0.56217465,4.2641268,0
 .87695442\H,0,-0.63711584,-4.26627736,0.\H,0,0.90557428,-4.13512053,-0
 .87441231\H,0,0.90557428,-4.13512053,0.87441231\H,0,1.45777554,-0.5074

 Normal termination of Gaussian 16 at Wed Apr  9 19:37:47 2025.
