 Gaussian 16, Revision C.01,

 ----------------------------------------------------------------------
 #t hf aug-cc-pvdz symm=none int=(grid=ultrafine) guess=(read,tcheck) s
 table=(opt,rrhf)
 ----------------------------------------------------------------------
 -----
 title
 -----
 Symbolic Z-matrix:
 Charge =  0 Multiplicity = 1

 SCF Done:  E(RHF) =  -1054.87855838     A.U. after   15 cycles
 Normal termination of Gaussian 16 at Wed Apr  9 19:46:18 2025.
 Gaussian 16:  ES64L-G16RevC.01  3-Jul-2019

 ----------------------------------------------------------------------
 #t hf aug-cc-pvdz iop(5/13=1,5/36=2,99/5=2) pseudo=read geom=check gue
 ss=(read,tcheck) scf=(maxcycle=1)
 ----------------------------------------------------------------------
 -----
 title
 -----
 Structure from the checkpoint file:  "HB300SPXx10_1481_5.11_0.80_thioacetone_phosphineF2_dimer_mol1.chk"
 Charge =  0 Multiplicity = 1

                         Standard orientation:
 ---------------------------------------------------------------------
 Center     Atomic      Atomic             Coordinates (Angstroms)
 Number     Number       Type             X           Y           Z
 ---------------------------------------------------------------------
      1          1           0        0.381308    1.613180   -0.164081
      2          1           0        1.596401    1.914018    1.095439
      3          1           0        2.025681    2.139083   -0.584507
      4          1           0        3.654221   -1.135921    0.252583
      5          1           0        3.944991    0.458628   -0.475678
      6          6           0        1.429996    1.518823    0.089564
      7          6           0        1.906207    0.101348    0.030371
      8         16           0        0.916585   -1.154419   -0.273160
      9          6           0        3.371506   -0.089175    0.276378
     10          1           0        3.643714    0.340735    1.243653
     11         15           0       -1.720380   -0.226814    0.293639
     12          9           0       -3.325431   -0.114647    0.276460
     13          9           0       -1.419784    1.063099   -0.611409
     14          1           0       -1.645302   -1.178864   -0.764769
 ---------------------------------------------------------------------

 SCF Done:  E(RHF) =  -1056.57615782     A.U. after    2 cycles

 The electronic state is 1-A.
 Alpha  occ. eigenvalues -- -105.27616 -75.67364 -29.27740 -29.26269 -13.17036
 Alpha  occ. eigenvalues --  -13.07034 -12.99450 -11.49065 -11.40966 -11.39308
 Alpha  occ. eigenvalues --   -8.01824  -2.86699  -1.61256  -1.58047  -1.51128
 Alpha  occ. eigenvalues --   -1.29677  -1.06304  -1.04611  -0.89100  -0.76402
 Alpha  occ. eigenvalues --   -0.63981  -0.62430  -0.61419  -0.56248  -0.55569
 Alpha  occ. eigenvalues --   -0.51047  -0.46304  -0.42790  -0.38338  -0.34955
 Alpha  occ. eigenvalues --   -0.33663  -0.32813  -0.28033  -0.24922  -0.21797
 Alpha  occ. eigenvalues --   -0.18229   0.00035
 Alpha virt. eigenvalues --    0.02994   0.05294   0.05557   0.06183   0.06827
 Alpha virt. eigenvalues --    0.06913   0.08330   0.08825   0.09843   0.10742
 Alpha virt. eigenvalues --    0.11730   0.12543   0.13684   0.13934   0.14690

 Mulliken charges:
               1
     1  H    1.342335
     2  H    0.801029
     3  H    1.077786
     4  H    1.329762
     5  H    1.167154
     6  C   -5.122691
     7  C    0.271987
     8  S    0.872461
     9  C   -3.667302
    10  H    1.091611
    11  P    2.144126
    12  F   -0.121217
    13  F   -0.176734
    14  H   -1.010306
 Sum of Mulliken charges =  -0.00000

 Dipole moment (field-independent basis, Debye):
    X=             -9.5458    Y=              1.3461    Z=             -2.7285  Tot=             10.0189

 Test job not archived.
 1\1\GINC-SE054\SP\RHF\Aug-CC-pVDZ\C3H7F2P1S1\OHZDE\09-Apr-2025\0\\#t h
 f aug-cc-pvdz iop(5/13=1,5/36=2,99/5=2) pseudo=read geom=check guess=(
 read,tcheck) scf=(maxcycle=1)\\title\\0,1\H,0,-0.82524406,-0.11851319,
 -2.18150719\H,0,-1.6981931,1.21808686,-2.95919937\H,0,-0.71897066,0.14
 764096,-3.93512177\H,0,1.41759528,3.22175764,-3.68330427\H,0,0.7352472
 6,2.04678605,-4.82844268\C,0,-0.77357806,0.63435768,-2.9583614\C,0,0.3
 925438,1.55581911,-2.78347778\S,0,1.39271927,1.4865874,-1.50157001\C,0
 ,0.57891903,2.56210758,-3.87735604\H,0,-0.33203334,3.15446018,-3.99493

 Normal termination of Gaussian 16 at Wed Apr  9 19:46:23 2025.
