 Gaussian 16, Revision C.01,

 ----------------------------------------------------------------------
 #t hf aug-cc-pvdz symm=none int=(grid=ultrafine) guess=(read,tcheck) s
 table=(opt,rrhf)
 ----------------------------------------------------------------------
 -----
 title
 -----
 Symbolic Z-matrix:
 Charge =  0 Multiplicity = 1

 SCF Done:  E(RHF) =  -552.790535262     A.U. after   12 cycles
 Normal termination of Gaussian 16 at Wed Apr  9 19:37:49 2025.
 Gaussian 16:  ES64L-G16RevC.01  3-Jul-2019

 ----------------------------------------------------------------------
 #t hf aug-cc-pvdz iop(5/13=1,5/36=2,99/5=2) pseudo=read geom=check gue
 ss=(read,tcheck) scf=(maxcycle=1)
 ----------------------------------------------------------------------
 -----
 title
 -----
 Structure from the checkpoint file:  "HB300SPXx10_1153_4.20_0.90_methanol_methanethiol_dimer_mol1.chk"
 Charge =  0 Multiplicity = 1

                         Standard orientation:
 ---------------------------------------------------------------------
 Center     Atomic      Atomic             Coordinates (Angstroms)
 Number     Number       Type             X           Y           Z
 ---------------------------------------------------------------------
      1          8           0       -1.571076   -0.291475    0.704579
      2          1           0       -0.732157   -0.663627    0.401583
      3          6           0       -2.295115    0.149199   -0.430885
      4          1           0       -3.219452    0.597010   -0.072228
      5          1           0       -1.746338    0.905740   -1.001488
      6          1           0       -2.549169   -0.675502   -1.103109
      7          1           0        0.432784    1.382916    0.837165
      8          1           0        0.971344    1.657923   -0.826073
      9          1           0        2.171050    1.595780    0.470476
     10          1           0        1.720482   -0.977803    1.018507
     11          6           0        1.226223    1.191083    0.121557
     12         16           0        1.370839   -0.595770   -0.219094
 ---------------------------------------------------------------------

 SCF Done:  E(RHF) =  -553.759359422     A.U. after    2 cycles

 The electronic state is 1-A.
 Alpha  occ. eigenvalues --  -75.69774 -21.04394 -13.15153 -13.10280 -13.08842
 Alpha  occ. eigenvalues --  -11.40532 -11.38938  -8.03730  -1.68589  -1.19688
 Alpha  occ. eigenvalues --   -0.96510  -0.95282  -0.63385  -0.60940  -0.59784
 Alpha  occ. eigenvalues --   -0.58343  -0.52969  -0.50435  -0.41161  -0.39837
 Alpha  occ. eigenvalues --   -0.30360  -0.24828
 Alpha virt. eigenvalues --    0.02759   0.04092   0.04351   0.05829   0.06869
 Alpha virt. eigenvalues --    0.07228   0.08228   0.10003   0.10078   0.11218
 Alpha virt. eigenvalues --    0.13378   0.14985   0.15206   0.15581   0.16314

 Mulliken charges:
               1
     1  O   -2.529557
     2  H    1.765631
     3  C   -2.542331
     4  H    1.245623
     5  H    1.343423
     6  H    1.272496
     7  H    1.358515
     8  H    1.544308
     9  H    1.293387
    10  H    1.135893
    11  C   -4.557970
    12  S   -1.329419
 Sum of Mulliken charges =  -0.00000

 Dipole moment (field-independent basis, Debye):
    X=              0.4858    Y=              0.3893    Z=             -1.4181  Tot=              1.5488

 Test job not archived.
 1\1\GINC-SE026\SP\RHF\Aug-CC-pVDZ\C2H8O1S1\OHZDE\09-Apr-2025\0\\#t hf
 aug-cc-pvdz iop(5/13=1,5/36=2,99/5=2) pseudo=read geom=check guess=(re
 ad,tcheck) scf=(maxcycle=1)\\title\\0,1\O,0,-1.11765515,0.11430785,-1.
 55067005\H,0,-0.42321658,-0.33845143,-1.05382579\C,0,-0.58571066,1.330
 64039,-2.0459227\H,0,-1.38742324,1.84483596,-2.57168664\H,0,-0.2297527
 6,1.98264255,-1.24138273\H,0,0.23685112,1.16511886,-2.74774471\H,0,-1.
 2413902,0.50962929,1.03100259\H,0,0.23343014,1.37897358,1.47953431\H,0
 ,-0.42960862,0.17398474,2.58974928\H,0,0.01735031,-1.87157809,0.933675

 Normal termination of Gaussian 16 at Wed Apr  9 19:37:52 2025.
