 Gaussian 16, Revision C.01,

 ----------------------------------------------------------------------
 #t hf aug-cc-pvdz symm=none int=(grid=ultrafine) guess=(read,tcheck) s
 table=(opt,rrhf)
 ----------------------------------------------------------------------
 -----
 title
 -----
 Symbolic Z-matrix:
 Charge =  0 Multiplicity = 1

 SCF Done:  E(RHF) =  -858.788851011     A.U. after   11 cycles

 1\1\GINC-SE220\Stability\RHF\Aug-CC-pVDZ\Cl1H3S1\OHZDE\09-Apr-2025\0\\
 #t hf aug-cc-pvdz symm=none int=(grid=ultrafine) guess=(read,tcheck) s
 table=(opt,rrhf)\\title\\0,1\H,0,-0.07574771,0.51696812,0.\Cl,0,0.0020
 5903,1.81286821,0.\H,0,0.86840242,-1.69143939,0.97032462\H,0,0.8684024
 2,-1.69143939,-0.97032462\S,0,-0.05684469,-1.63792396,0.\\Version=ES64
 L-G16RevC.01\HF=-858.788851\RMSD=4.143e-09\Dipole=0.4299321,-0.975532,
 0.\Quadrupole=0.6463381,-2.2432581,1.59692,-1.6494842,0.,0.\PG=Unknown
 \\@

 Normal termination of Gaussian 16 at Wed Apr  9 19:38:50 2025.
 Gaussian 16:  ES64L-G16RevC.01  3-Jul-2019

 ----------------------------------------------------------------------
 #t hf aug-cc-pvdz iop(5/13=1,5/36=2,99/5=2) pseudo=read geom=check gue
 ss=(read,tcheck) scf=(maxcycle=1)
 ----------------------------------------------------------------------
 -----
 title
 -----
 Structure from the checkpoint file:  "HB300SPXx10_1353_4.40_0.90_hydrogenchloride_sulfane_dimer_mol1.chk"
 Charge =  0 Multiplicity = 1

                         Standard orientation:
 ---------------------------------------------------------------------
 Center     Atomic      Atomic             Coordinates (Angstroms)
 Number     Number       Type             X           Y           Z
 ---------------------------------------------------------------------
      1          1           0       -0.105577    0.466732    0.000000
      2         17           0       -0.049899    1.763772    0.000000
      3          1           0        0.876126   -1.725240    0.970325
      4          1           0        0.876126   -1.725240   -0.970325
      5         16           0       -0.049899   -1.687523   -0.000000
 ---------------------------------------------------------------------

 SCF Done:  E(RHF) =  -859.284440569     A.U. after    2 cycles

 The electronic state is 1-A'.
 Alpha  occ. eigenvalues --  -99.88034 -75.72902 -13.17823 -13.14952 -13.10309
 Alpha  occ. eigenvalues --  -10.45228  -9.65368  -9.64434  -9.64432  -8.06728
 Alpha  occ. eigenvalues --   -1.28166  -1.14503  -0.68079  -0.57648  -0.50522
 Alpha  occ. eigenvalues --   -0.50482  -0.46406  -0.29801
 Alpha virt. eigenvalues --    0.01343   0.05616   0.06069   0.09628   0.10049
 Alpha virt. eigenvalues --    0.10485   0.13601   0.15158   0.15229   0.15934
 Alpha virt. eigenvalues --    0.21509   0.22204   0.23355   0.23796   0.24255

 Mulliken charges:
               1
     1  H    1.080295
     2  Cl  -0.764423
     3  H    1.098630
     4  H    1.098630
     5  S   -2.513133
 Sum of Mulliken charges =   0.00000

 Dipole moment (field-independent basis, Debye):
    X=             -1.0786    Y=             -2.6998    Z=             -0.0000  Tot=              2.9073

 Test job not archived.
 1\1\GINC-SE220\SP\RHF\Aug-CC-pVDZ\Cl1H3S1\OHZDE\09-Apr-2025\0\\#t hf a
 ug-cc-pvdz iop(5/13=1,5/36=2,99/5=2) pseudo=read geom=check guess=(rea
 d,tcheck) scf=(maxcycle=1)\\title\\0,1\H,0,-0.07574771,0.51696812,0.\C
 l,0,0.00205903,1.81286821,0.\H,0,0.86840242,-1.69143939,0.97032462\H,0
 ,0.86840242,-1.69143939,-0.97032462\S,0,-0.05684469,-1.63792396,0.\\Ve
 rsion=ES64L-G16RevC.01\State=1-A'\HF=-859.2844406\RMSD=1.061e-01\Dipol
 e=-0.4424257,-1.0547955,0.\Quadrupole=0.0592755,-1.1137144,1.0544389,1
 .1595689,0.,0.\PG=CS [SG(Cl1H1S1),X(H2)]\\@

 Normal termination of Gaussian 16 at Wed Apr  9 19:38:52 2025.
