 Gaussian 16, Revision C.01,

 ----------------------------------------------------------------------
 #t hf aug-cc-pvdz symm=none int=(grid=ultrafine) guess=(read,tcheck) s
 table=(opt,rrhf)
 ----------------------------------------------------------------------
 -----
 title
 -----
 Symbolic Z-matrix:
 Charge =  0 Multiplicity = 1

 SCF Done:  E(RHF) =  -1017.02070479     A.U. after   12 cycles
 Normal termination of Gaussian 16 at Wed Apr  9 19:40:05 2025.
 Gaussian 16:  ES64L-G16RevC.01  3-Jul-2019

 ----------------------------------------------------------------------
 #t hf aug-cc-pvdz iop(5/13=1,5/36=2,99/5=2) pseudo=read geom=check gue
 ss=(read,tcheck) scf=(maxcycle=1)
 ----------------------------------------------------------------------
 -----
 title
 -----
 Structure from the checkpoint file:  "HB300SPXx10_1382_5.01_0.85_dimethylsulfide_phosphineF2_dimer_mol1.chk"
 Charge =  0 Multiplicity = 1

                         Standard orientation:
 ---------------------------------------------------------------------
 Center     Atomic      Atomic             Coordinates (Angstroms)
 Number     Number       Type             X           Y           Z
 ---------------------------------------------------------------------
      1          1           0       -0.532443    0.877344    1.437117
      2          1           0       -2.270855    1.271061    1.420215
      3          1           0       -1.118389    2.267335    0.513952
      4          1           0       -2.007286   -2.072693   -0.710719
      5          1           0       -2.767016   -1.337578    0.708522
      6          1           0       -1.015773   -1.664808    0.701130
      7          6           0       -1.354065    1.255597    0.833675
      8         16           0       -1.564731    0.258033   -0.662879
      9          6           0       -1.866845   -1.358140    0.096825
     10         15           0        1.934354   -0.304762   -0.333132
     11          9           0        1.133778   -0.972031    0.883167
     12          9           0        1.548351    1.223130   -0.077099
     13          1           0        0.918448   -0.542396   -1.304771
 ---------------------------------------------------------------------

 SCF Done:  E(RHF) =  -1018.54479101     A.U. after    2 cycles

 The electronic state is 1-A.
 Alpha  occ. eigenvalues -- -105.29043 -75.66700 -29.29300 -29.29112 -13.09343
 Alpha  occ. eigenvalues --  -13.06787 -13.04233 -11.38697 -11.38441  -8.00840
 Alpha  occ. eigenvalues --   -2.88547  -1.63545  -1.59096  -1.53288  -1.21908
 Alpha  occ. eigenvalues --   -1.02769  -0.90551  -0.87810  -0.60885  -0.59667
 Alpha  occ. eigenvalues --   -0.58133  -0.57612  -0.55221  -0.46668  -0.44030
 Alpha  occ. eigenvalues --   -0.40657  -0.37696  -0.35597  -0.34840  -0.29363
 Alpha  occ. eigenvalues --   -0.26891  -0.19921  -0.19010  -0.00473
 Alpha virt. eigenvalues --    0.04008   0.04453   0.05779   0.07254   0.07502
 Alpha virt. eigenvalues --    0.07790   0.08316   0.09600   0.10350   0.10831
 Alpha virt. eigenvalues --    0.13015   0.14499   0.15515   0.15693   0.16497

 Mulliken charges:
               1
     1  H    1.536056
     2  H    1.402880
     3  H    1.335030
     4  H    1.394905
     5  H    1.373222
     6  H    1.401322
     7  C   -4.531821
     8  S    0.861519
     9  C   -4.620865
    10  P    2.338559
    11  F   -0.702757
    12  F   -0.498740
    13  H   -1.289311
 Sum of Mulliken charges =  -0.00000

 Dipole moment (field-independent basis, Debye):
    X=             -4.2152    Y=              2.8647    Z=              3.3044  Tot=              6.0740

 Test job not archived.
 1\1\GINC-SE159\SP\RHF\Aug-CC-pVDZ\C2H7F2P1S1\OHZDE\09-Apr-2025\0\\#t h
 f aug-cc-pvdz iop(5/13=1,5/36=2,99/5=2) pseudo=read geom=check guess=(
 read,tcheck) scf=(maxcycle=1)\\title\\0,1\H,0,0.35324965,2.18742239,-0
 .72380577\H,0,0.23256961,2.54349189,-2.46622469\H,0,1.47961489,1.43776
 879,-1.86264863\H,0,-2.97879656,0.33269977,-1.6977403\H,0,-2.43534977,
 1.89515642,-2.32640837\H,0,-2.24831697,1.5140911,-0.59615001\C,0,0.456
 3691,1.7777672,-1.72571744\S,0,-0.61885679,0.337269,-1.94490696\C,0,-2
 .22218849,1.10820804,-1.60517522\P,0,-0.14420876,-0.08535661,1.5572580

 Normal termination of Gaussian 16 at Wed Apr  9 19:40:09 2025.
