 Gaussian 16, Revision C.01,

 ----------------------------------------------------------------------
 #t hf aug-cc-pvdz symm=none int=(grid=ultrafine) guess=(read,tcheck) s
 table=(opt,rrhf)
 ----------------------------------------------------------------------
 -----
 title
 -----
 Symbolic Z-matrix:
 Charge =  0 Multiplicity = 1

 SCF Done:  E(RHF) =  -576.788096478     A.U. after   12 cycles
 Normal termination of Gaussian 16 at Wed Apr  9 19:42:50 2025.
 Gaussian 16:  ES64L-G16RevC.01  3-Jul-2019

 ----------------------------------------------------------------------
 #t hf aug-cc-pvdz iop(5/13=1,5/36=2,99/5=2) pseudo=read geom=check gue
 ss=(read,tcheck) scf=(maxcycle=1)
 ----------------------------------------------------------------------
 -----
 title
 -----
 Structure from the checkpoint file:  "HB300SPXx10_1434_5.06_0.95_methanethiol_methylfluoride_dimer_mol1.chk"
 Charge =  0 Multiplicity = 1

                         Standard orientation:
 ---------------------------------------------------------------------
 Center     Atomic      Atomic             Coordinates (Angstroms)
 Number     Number       Type             X           Y           Z
 ---------------------------------------------------------------------
      1          1           0        1.815523    1.700856   -0.536743
      2          1           0        1.792431    1.331344    1.192614
      3          1           0        0.266230    1.416508    0.293443
      4          1           0        0.731617   -0.710007   -1.167551
      5          6           0        1.311796    1.131179    0.238614
      6         16           0        1.476924   -0.660933   -0.053701
      7          1           0       -1.268639   -0.841449    0.861459
      8          1           0       -2.717535    0.153226    1.208386
      9          1           0       -2.810400   -1.175128    0.018358
     10          6           0       -2.173953   -0.403021    0.446790
     11          9           0       -1.807452    0.481181   -0.569242
 ---------------------------------------------------------------------

 SCF Done:  E(RHF) =  -577.784922284     A.U. after    2 cycles

 The electronic state is 1-A.
 Alpha  occ. eigenvalues --  -75.67940 -29.25182 -13.11468 -13.06720 -13.03623
 Alpha  occ. eigenvalues --  -11.42975 -11.39024  -8.01839  -1.17913  -1.14308
 Alpha  occ. eigenvalues --   -0.93670  -0.66202  -0.62917  -0.62584  -0.59314
 Alpha  occ. eigenvalues --   -0.58031  -0.48753  -0.38893  -0.37396  -0.25324
 Alpha  occ. eigenvalues --   -0.24915  -0.23296
 Alpha virt. eigenvalues --    0.03459   0.03932   0.04976   0.05664   0.06456
 Alpha virt. eigenvalues --    0.08396   0.08801   0.11005   0.12369   0.13844
 Alpha virt. eigenvalues --    0.14324   0.15178   0.15765   0.16652   0.17432

 Mulliken charges:
               1
     1  H    1.352441
     2  H    1.408666
     3  H    1.383405
     4  H    1.055753
     5  C   -4.557364
     6  S   -0.708580
     7  H    1.412412
     8  H    1.441882
     9  H    1.425447
    10  C   -4.268919
    11  F    0.054857
 Sum of Mulliken charges =   0.00000

 Dipole moment (field-independent basis, Debye):
    X=              0.4029    Y=              0.6712    Z=              0.0738  Tot=              0.7863

 Test job not archived.
 1\1\GINC-SE054\SP\RHF\Aug-CC-pVDZ\C2H7F1S1\OHZDE\09-Apr-2025\0\\#t hf
 aug-cc-pvdz iop(5/13=1,5/36=2,99/5=2) pseudo=read geom=check guess=(re
 ad,tcheck) scf=(maxcycle=1)\\title\\0,1\H,0,2.08229041,-1.4254109,-0.5
 8197167\H,0,2.56243491,-0.07269824,0.45116733\H,0,1.30281242,0.1638302
 2,-0.77457926\H,0,-0.45614858,-1.39442223,0.38777169\C,0,1.72720839,-0
 .53887394,-0.06484534\S,0,0.50833702,-0.97408013,1.21941614\H,0,-0.895
 5653,1.42374838,0.39014312\H,0,-0.96822252,2.64529069,-0.91813542\H,0,
 -2.4198384,1.68968423,-0.50710717\C,0,-1.33337245,1.67986035,-0.572402

 Normal termination of Gaussian 16 at Wed Apr  9 19:42:53 2025.
