 Gaussian 16, Revision C.01,

 ----------------------------------------------------------------------
 #t hf aug-cc-pvdz symm=none int=(grid=ultrafine) guess=(read,tcheck) s
 table=(opt,rrhf)
 ----------------------------------------------------------------------
 -----
 title
 -----
 Symbolic Z-matrix:
 Charge =  0 Multiplicity = 1

 SCF Done:  E(RHF) =  -571.989900040     A.U. after   12 cycles
 Normal termination of Gaussian 16 at Wed Apr  9 19:39:13 2025.
 Gaussian 16:  ES64L-G16RevC.01  3-Jul-2019

 ----------------------------------------------------------------------
 #t hf aug-cc-pvdz iop(5/13=1,5/36=2,99/5=2) pseudo=read geom=check gue
 ss=(read,tcheck) scf=(maxcycle=1)
 ----------------------------------------------------------------------
 -----
 title
 -----
 Structure from the checkpoint file:  "HB300SPXx10_135_1.14_1.00_sulfane_trimethylamine_dimer_mol1.chk"
 Charge =  0 Multiplicity = 1

                         Standard orientation:
 ---------------------------------------------------------------------
 Center     Atomic      Atomic             Coordinates (Angstroms)
 Number     Number       Type             X           Y           Z
 ---------------------------------------------------------------------
      1          1           0       -1.068524    0.042560    0.000000
      2          1           0       -2.693795   -1.066906    0.000000
      3         16           0       -2.424119    0.246300    0.000000
      4          1           0        2.405761   -0.830501    1.303193
      5          1           0        0.910880   -0.270451    2.080506
      6          1           0        0.922331   -1.798323    1.197590
      7          1           0        0.922331   -1.798323   -1.197590
      8          1           0        2.405761   -0.830501   -1.303193
      9          1           0        0.910880   -0.270451   -2.080506
     10          1           0        2.405549    1.414548    0.000000
     11          1           0        0.916757    1.806758   -0.882789
     12          6           0        1.310570   -0.780987    1.205875
     13          7           0        0.891565   -0.086508    0.000000
     14          6           0        1.310570   -0.780987   -1.205875
     15          6           0        1.310570    1.305239    0.000000
     16          1           0        0.916757    1.806758    0.882789
 ---------------------------------------------------------------------

 SCF Done:  E(RHF) =  -573.124670943     A.U. after    2 cycles

 The electronic state is 1-A'.
 Alpha  occ. eigenvalues --  -75.67203 -15.71607 -13.13614 -13.07809 -12.99488
 Alpha  occ. eigenvalues --  -11.39043 -11.39038 -11.37980  -8.00928  -1.43603
 Alpha  occ. eigenvalues --   -1.08476  -1.04102  -1.04094  -0.84683  -0.66753
 Alpha  occ. eigenvalues --   -0.63705  -0.63691  -0.55410  -0.55407  -0.52588
 Alpha  occ. eigenvalues --   -0.52163  -0.48785  -0.48774  -0.42374  -0.29703
 Alpha  occ. eigenvalues --   -0.23804
 Alpha virt. eigenvalues --    0.03075   0.04729   0.05327   0.05430   0.06032
 Alpha virt. eigenvalues --    0.06251   0.06541   0.06991   0.07038   0.08987
 Alpha virt. eigenvalues --    0.09577   0.12132   0.13110   0.13797   0.14166

 Mulliken charges:
               1
     1  H    1.294866
     2  H    0.951861
     3  S   -2.598493
     4  H    1.281157
     5  H    1.303219
     6  H    1.324639
     7  H    1.324639
     8  H    1.281157
     9  H    1.303219
    10  H    1.255369
    11  H    1.284356
    12  C   -3.604072
    13  N   -0.399157
    14  C   -3.604072
    15  C   -3.683046
    16  H    1.284356
 Sum of Mulliken charges =   0.00000

 Dipole moment (field-independent basis, Debye):
    X=              1.1072    Y=              0.8674    Z=              0.0000  Tot=              1.4065

 Test job not archived.
 1\1\GINC-SE118\SP\RHF\Aug-CC-pVDZ\C3H11N1S1\OHZDE\09-Apr-2025\0\\#t hf
  aug-cc-pvdz iop(5/13=1,5/36=2,99/5=2) pseudo=read geom=check guess=(r
 ead,tcheck) scf=(maxcycle=1)\\title\\0,1\H,0,0.06719299,0.97177334,0.\
 H,0,1.32304535,2.48678341,0.\S,0,-0.00955285,2.34044335,0.\H,0,0.61325
 896,-2.56866514,-1.30319342\H,0,0.19470503,-1.02816621,-2.08050641\H,0
 ,1.71488628,-1.18170313,-1.19759028\H,0,1.71488628,-1.18170313,1.19759
 028\H,0,0.61325896,-2.56866514,1.30319342\H,0,0.19470503,-1.02816621,2
 .08050641\H,0,-1.62203451,-2.35959871,0.\H,0,-1.87404255,-0.84077635,0

 Normal termination of Gaussian 16 at Wed Apr  9 19:39:16 2025.
