 Gaussian 16, Revision C.01,

 ----------------------------------------------------------------------
 #t hf aug-cc-pvdz symm=none int=(grid=ultrafine) guess=(read,tcheck) s
 table=(opt,rrhf)
 ----------------------------------------------------------------------
 -----
 title
 -----
 Symbolic Z-matrix:
 Charge =  0 Multiplicity = 1

 SCF Done:  E(RHF) =  -1017.01610768     A.U. after   13 cycles
 Normal termination of Gaussian 16 at Wed Apr  9 19:40:06 2025.
 Gaussian 16:  ES64L-G16RevC.01  3-Jul-2019

 ----------------------------------------------------------------------
 #t hf aug-cc-pvdz iop(5/13=1,5/36=2,99/5=2) pseudo=read geom=check gue
 ss=(read,tcheck) scf=(maxcycle=1)
 ----------------------------------------------------------------------
 -----
 title
 -----
 Structure from the checkpoint file:  "HB300SPXx10_1381_5.01_0.80_dimethylsulfide_phosphineF2_dimer_mol1.chk"
 Charge =  0 Multiplicity = 1

                         Standard orientation:
 ---------------------------------------------------------------------
 Center     Atomic      Atomic             Coordinates (Angstroms)
 Number     Number       Type             X           Y           Z
 ---------------------------------------------------------------------
      1          1           0       -0.491087    0.889270    1.440424
      2          1           0       -2.235714    1.253985    1.415205
      3          1           0       -1.095630    2.269636    0.514809
      4          1           0       -1.906170   -2.084164   -0.715337
      5          1           0       -2.684901   -1.362305    0.700406
      6          1           0       -0.928435   -1.660319    0.701412
      7          6           0       -1.315964    1.253999    0.833111
      8         16           0       -1.502737    0.253593   -0.664718
      9          6           0       -1.781563   -1.367655    0.093073
     10         15           0        1.877905   -0.293808   -0.329503
     11          9           0        1.082676   -0.974747    0.882721
     12          9           0        1.465270    1.227353   -0.074927
     13          1           0        0.870814   -0.547987   -1.306119
 ---------------------------------------------------------------------

 SCF Done:  E(RHF) =  -1018.54045954     A.U. after    2 cycles

 The electronic state is 1-A.
 Alpha  occ. eigenvalues -- -105.28950 -75.66607 -29.29260 -29.29033 -13.09497
 Alpha  occ. eigenvalues --  -13.06819 -13.04757 -11.38625 -11.38368  -8.00772
 Alpha  occ. eigenvalues --   -2.88468  -1.63501  -1.59100  -1.53387  -1.21889
 Alpha  occ. eigenvalues --   -1.02824  -0.90607  -0.87904  -0.61587  -0.59789
 Alpha  occ. eigenvalues --   -0.58573  -0.57655  -0.54794  -0.46578  -0.44054
 Alpha  occ. eigenvalues --   -0.40581  -0.37952  -0.35481  -0.34746  -0.29407
 Alpha  occ. eigenvalues --   -0.27035  -0.19795  -0.18625  -0.00456
 Alpha virt. eigenvalues --    0.04064   0.04474   0.05782   0.07245   0.07495
 Alpha virt. eigenvalues --    0.07791   0.08304   0.09601   0.10383   0.10872
 Alpha virt. eigenvalues --    0.13062   0.14495   0.15632   0.15638   0.16518

 Mulliken charges:
               1
     1  H    1.538903
     2  H    1.405407
     3  H    1.328916
     4  H    1.386855
     5  H    1.371059
     6  H    1.405270
     7  C   -4.502918
     8  S    0.799479
     9  C   -4.573301
    10  P    2.398193
    11  F   -0.726710
    12  F   -0.489721
    13  H   -1.341431
 Sum of Mulliken charges =   0.00000

 Dipole moment (field-independent basis, Debye):
    X=             -4.1402    Y=              2.7735    Z=              3.2466  Tot=              5.9476

 Test job not archived.
 1\1\GINC-SE145\SP\RHF\Aug-CC-pVDZ\C2H7F2P1S1\OHZDE\09-Apr-2025\0\\#t h
 f aug-cc-pvdz iop(5/13=1,5/36=2,99/5=2) pseudo=read geom=check guess=(
 read,tcheck) scf=(maxcycle=1)\\title\\0,1\H,0,0.35324965,2.18742239,-0
 .72380577\H,0,0.23256961,2.54349189,-2.46622469\H,0,1.47961489,1.43776
 879,-1.86264863\H,0,-2.97879656,0.33269977,-1.6977403\H,0,-2.43534977,
 1.89515642,-2.32640837\H,0,-2.24831697,1.5140911,-0.59615001\C,0,0.456
 3691,1.7777672,-1.72571744\S,0,-0.61885679,0.337269,-1.94490696\C,0,-2
 .22218849,1.10820804,-1.60517522\P,0,-0.219801,-0.07022691,1.44853647\

 Normal termination of Gaussian 16 at Wed Apr  9 19:40:10 2025.
