 Gaussian 16, Revision C.01,

 ----------------------------------------------------------------------
 #t hf aug-cc-pvdz symm=none int=(grid=ultrafine) guess=(read,tcheck) s
 table=(opt,rrhf)
 ----------------------------------------------------------------------
 -----
 title
 -----
 Symbolic Z-matrix:
 Charge =  0 Multiplicity = 1

 SCF Done:  E(RHF) =  -437.697083661     A.U. after   11 cycles
 Normal termination of Gaussian 16 at Wed Apr  9 04:10:24 2025.
 Gaussian 16:  ES64L-G16RevC.01  3-Jul-2019

 ----------------------------------------------------------------------
 #t hf aug-cc-pvdz iop(5/13=1,5/36=2,99/5=2) pseudo=read geom=check gue
 ss=(read,tcheck) scf=(maxcycle=1)
 ----------------------------------------------------------------------
 -----
 title
 -----
 Structure from the checkpoint file:  "HB300SPXx10_12_1.02_0.85_phosphine_methylamine_dimer_mol1.chk"
 Charge =  0 Multiplicity = 1

                         Standard orientation:
 ---------------------------------------------------------------------
 Center     Atomic      Atomic             Coordinates (Angstroms)
 Number     Number       Type             X           Y           Z
 ---------------------------------------------------------------------
      1         15           0        1.703362    0.031751   -0.109841
      2          1           0        0.572329   -0.785050    0.134989
      3          1           0        2.631112   -0.905960    0.409109
      4          1           0        1.586598    0.729812    1.118564
      5          7           0       -1.680739   -0.730458    0.033812
      6          1           0       -2.259376   -1.030284    0.806682
      7          1           0       -2.096740   -1.102472   -0.809227
      8          6           0       -1.596526    0.728636   -0.023526
      9          1           0       -0.954541    1.018739   -0.854477
     10          1           0       -2.556393    1.243558   -0.142643
     11          1           0       -1.129086    1.096791    0.889100
 ---------------------------------------------------------------------

 SCF Done:  E(RHF) =  -438.392042824     A.U. after    2 cycles

 The electronic state is 1-A.
 Alpha  occ. eigenvalues -- -105.16380 -15.73217 -11.38230  -2.72819  -1.43108
 Alpha  occ. eigenvalues --   -1.41815  -1.40511  -1.32123  -0.95627  -0.73332
 Alpha  occ. eigenvalues --   -0.66354  -0.60075  -0.53957  -0.51297  -0.37450
 Alpha  occ. eigenvalues --   -0.24143  -0.20477  -0.02521
 Alpha virt. eigenvalues --    0.03857   0.05365   0.05809   0.06098   0.07237
 Alpha virt. eigenvalues --    0.08302   0.09056   0.10544   0.10960   0.12410
 Alpha virt. eigenvalues --    0.12999   0.15481   0.16579   0.18447   0.18706

 Mulliken charges:
               1
     1  P    1.924865
     2  H   -0.782041
     3  H   -0.608429
     4  H   -0.649124
     5  N   -2.001058
     6  H    0.640519
     7  H    0.637349
     8  C   -3.134257
     9  H    1.349120
    10  H    1.238189
    11  H    1.384867
 Sum of Mulliken charges =  -0.00000

 Dipole moment (field-independent basis, Debye):
    X=             -1.2529    Y=              1.6588    Z=             -3.8466  Tot=              4.3723

 Test job not archived.
 1\1\GINC-SE103\SP\RHF\Aug-CC-pVDZ\C1H8N1P1\OHZDE\09-Apr-2025\0\\#t hf
 aug-cc-pvdz iop(5/13=1,5/36=2,99/5=2) pseudo=read geom=check guess=(re
 ad,tcheck) scf=(maxcycle=1)\\title\\0,1\P,0,1.60554835,-0.39061782,-0.
 727406\H,0,0.88263451,-0.28817357,0.48636549\H,0,2.87161411,-0.472756,
 -0.09521777\H,0,1.68852005,1.01288402,-0.9096172\N,0,-1.21027686,0.061
 08571,1.25270202\H,0,-1.4107753,0.74187447,1.9726825\H,0,-1.74762744,-
 0.76715491,1.47050315\C,0,-1.55855348,0.57843229,-0.0703211\H,0,-1.315
 95548,-0.17012264,-0.82370991\H,0,-2.61102238,0.85595273,-0.19669317\H

 Normal termination of Gaussian 16 at Wed Apr  9 04:10:27 2025.
