 Gaussian 16, Revision C.01,

 ----------------------------------------------------------------------
 #t hf aug-cc-pvdz symm=none int=(grid=ultrafine) guess=(read,tcheck) s
 table=(opt,rrhf)
 ----------------------------------------------------------------------
 -----
 title
 -----
 Symbolic Z-matrix:
 Charge =  0 Multiplicity = 1

 SCF Done:  E(RHF) =  -704.621686228     A.U. after   13 cycles
 Normal termination of Gaussian 16 at Wed Apr  9 19:37:22 2025.
 Gaussian 16:  ES64L-G16RevC.01  3-Jul-2019

 ----------------------------------------------------------------------
 #t hf aug-cc-pvdz iop(5/13=1,5/36=2,99/5=2) pseudo=read geom=check gue
 ss=(read,tcheck) scf=(maxcycle=1)
 ----------------------------------------------------------------------
 -----
 title
 -----
 Structure from the checkpoint file:  "HB300SPXx10_1126_4.16_1.05_aceticacid_dimethylsulfide_dimer_mol1.chk"
 Charge =  0 Multiplicity = 1

                         Standard orientation:
 ---------------------------------------------------------------------
 Center     Atomic      Atomic             Coordinates (Angstroms)
 Number     Number       Type             X           Y           Z
 ---------------------------------------------------------------------
      1          6           0        0.264643    1.899832    0.000000
      2          8           0       -0.865590    1.469123    0.000000
      3          8           0        1.351063    1.119220    0.000000
      4          1           0        1.073504    0.169390    0.000000
      5          6           0        0.621185    3.360899    0.000000
      6          1           0       -0.282112    3.960661    0.000000
      7          1           0        1.224409    3.592638    0.876781
      8          1           0        1.224409    3.592638   -0.876781
      9          1           0       -1.645005   -2.512486    1.379195
     10          1           0       -1.300931   -0.759823    1.315483
     11          1           0       -0.287953   -1.841852    2.299403
     12          1           0       -0.287953   -1.841852   -2.299403
     13          1           0       -1.300931   -0.759823   -1.315483
     14          1           0       -1.645005   -2.512486   -1.379195
     15          6           0       -0.865590   -1.753699    1.382643
     16         16           0        0.275993   -2.019609   -0.000000
     17          6           0       -0.865590   -1.753699   -1.382643
 ---------------------------------------------------------------------

 SCF Done:  E(RHF) =  -706.255500289     A.U. after    2 cycles

 The electronic state is 1-A'.
 Alpha  occ. eigenvalues --  -75.67960 -21.10181 -21.04289 -13.11621 -13.10839
 Alpha  occ. eigenvalues --  -13.08182 -11.51690 -11.39166 -11.39138 -11.39004
 Alpha  occ. eigenvalues --   -8.02054  -1.81645  -1.64280  -1.22903  -1.10718
 Alpha  occ. eigenvalues --   -1.02992  -0.88260  -0.79418  -0.63457  -0.61518
 Alpha  occ. eigenvalues --   -0.60239  -0.59915  -0.59774  -0.57816  -0.56847
 Alpha  occ. eigenvalues --   -0.53915  -0.49300  -0.44676  -0.44407  -0.36795
 Alpha  occ. eigenvalues --   -0.32877  -0.29249  -0.23183
 Alpha virt. eigenvalues --    0.03354   0.03817   0.04411   0.05786   0.06142
 Alpha virt. eigenvalues --    0.06292   0.07166   0.07601   0.08092   0.08851
 Alpha virt. eigenvalues --    0.10553   0.11768   0.12149   0.12783   0.14282

 Mulliken charges:
               1
     1  C    5.637271
     2  O   -3.048933
     3  O   -3.366904
     4  H    1.819288
     5  C   -4.379794
     6  H    1.301587
     7  H    1.243635
     8  H    1.243635
     9  H    1.377133
    10  H    1.508931
    11  H    1.463284
    12  H    1.463284
    13  H    1.508931
    14  H    1.377133
    15  C   -4.732315
    16  S    0.316149
    17  C   -4.732315
 Sum of Mulliken charges =   0.00000

 Dipole moment (field-independent basis, Debye):
    X=              0.9575    Y=             -0.4406    Z=              0.0000  Tot=              1.0540

 Test job not archived.
 1\1\GINC-SE048\SP\RHF\Aug-CC-pVDZ\C4H10O2S1\OHZDE\09-Apr-2025\0\\#t hf
  aug-cc-pvdz iop(5/13=1,5/36=2,99/5=2) pseudo=read geom=check guess=(r
 ead,tcheck) scf=(maxcycle=1)\\title\\0,1\C,0,0.08152563,1.86646531,0.\
 O,0,1.12794826,1.25988757,0.\O,0,-1.11612638,1.27040068,0.\H,0,-0.9946
 6015,0.28833063,0.\C,0,-0.03582077,3.36582142,0.\H,0,0.95204799,3.8127
 8193,0.\H,0,-0.5940149,3.69140047,-0.87678098\H,0,-0.5940149,3.6914004
 7,0.87678098\H,0,1.25801788,-2.795205,-1.37919498\H,0,1.19979132,-1.01
 0037,-1.31548339\H,0,0.02623738,-1.91540035,-2.29940307\H,0,0.02623738

 Normal termination of Gaussian 16 at Wed Apr  9 19:37:27 2025.
