 Gaussian 16, Revision C.01,

 ----------------------------------------------------------------------
 #t hf aug-cc-pvdz symm=none int=(grid=ultrafine) guess=(read,tcheck) s
 table=(opt,rrhf)
 ----------------------------------------------------------------------
 -----
 title
 -----
 Symbolic Z-matrix:
 Charge =  0 Multiplicity = 1

 SCF Done:  E(RHF) =  -1054.89383407     A.U. after   14 cycles
 Normal termination of Gaussian 16 at Wed Apr  9 19:47:15 2025.
 Gaussian 16:  ES64L-G16RevC.01  3-Jul-2019

 ----------------------------------------------------------------------
 #t hf aug-cc-pvdz iop(5/13=1,5/36=2,99/5=2) pseudo=read geom=check gue
 ss=(read,tcheck) scf=(maxcycle=1)
 ----------------------------------------------------------------------
 -----
 title
 -----
 Structure from the checkpoint file:  "HB300SPXx10_1486_5.11_1.05_thioacetone_phosphineF2_dimer_mol1.chk"
 Charge =  0 Multiplicity = 1

                         Standard orientation:
 ---------------------------------------------------------------------
 Center     Atomic      Atomic             Coordinates (Angstroms)
 Number     Number       Type             X           Y           Z
 ---------------------------------------------------------------------
      1          1           0        0.691829    1.671683   -0.098576
      2          1           0        1.949602    1.918048    1.130512
      3          1           0        2.340545    2.149185   -0.557947
      4          1           0        3.883393   -1.186478    0.198023
      5          1           0        4.206268    0.406435   -0.520224
      6          6           0        1.743339    1.540480    0.125250
      7          6           0        2.171302    0.109171    0.037380
      8         16           0        1.133431   -1.110260   -0.252865
      9          6           0        3.635708   -0.131505    0.241119
     10          1           0        3.947771    0.277801    1.205290
     11         15           0       -2.027352   -0.256756    0.269785
     12          9           0       -3.627772   -0.092609    0.297728
     13          9           0       -1.709360    1.033496   -0.628811
     14          1           0       -2.011925   -1.198021   -0.800750
 ---------------------------------------------------------------------

 SCF Done:  E(RHF) =  -1056.58462425     A.U. after    2 cycles

 The electronic state is 1-A.
 Alpha  occ. eigenvalues -- -105.28242 -75.67089 -29.28008 -29.27360 -13.16573
 Alpha  occ. eigenvalues --  -13.04392 -12.98590 -11.48632 -11.40945 -11.39299
 Alpha  occ. eigenvalues --   -8.01378  -2.87430  -1.61520  -1.58428  -1.51611
 Alpha  occ. eigenvalues --   -1.29253  -1.05428  -1.04336  -0.88995  -0.76054
 Alpha  occ. eigenvalues --   -0.62268  -0.61980  -0.60913  -0.56068  -0.55423
 Alpha  occ. eigenvalues --   -0.51182  -0.46007  -0.42615  -0.39477  -0.35073
 Alpha  occ. eigenvalues --   -0.33386  -0.33027  -0.27824  -0.24861  -0.22464
 Alpha  occ. eigenvalues --   -0.18411   0.00385
 Alpha virt. eigenvalues --    0.02846   0.05335   0.05492   0.06209   0.06850
 Alpha virt. eigenvalues --    0.06996   0.08447   0.08966   0.09623   0.10589
 Alpha virt. eigenvalues --    0.11878   0.12561   0.13694   0.13938   0.14781

 Mulliken charges:
               1
     1  H    1.177704
     2  H    0.926600
     3  H    1.125216
     4  H    1.336236
     5  H    1.133407
     6  C   -4.717956
     7  C    0.000036
     8  S    1.000142
     9  C   -3.636725
    10  H    1.093409
    11  P    2.056427
    12  F   -0.120271
    13  F   -0.335435
    14  H   -1.038789
 Sum of Mulliken charges =  -0.00000

 Dipole moment (field-independent basis, Debye):
    X=             -9.4455    Y=              1.6249    Z=             -3.1229  Tot=             10.0802

 Test job not archived.
 1\1\GINC-SE104\SP\RHF\Aug-CC-pVDZ\C3H7F2P1S1\OHZDE\09-Apr-2025\0\\#t h
 f aug-cc-pvdz iop(5/13=1,5/36=2,99/5=2) pseudo=read geom=check guess=(
 read,tcheck) scf=(maxcycle=1)\\title\\0,1\H,0,-0.82524406,-0.11851319,
 -2.18150719\H,0,-1.6981931,1.21808686,-2.95919937\H,0,-0.71897066,0.14
 764096,-3.93512177\H,0,1.41759528,3.22175764,-3.68330427\H,0,0.7352472
 6,2.04678605,-4.82844268\C,0,-0.77357806,0.63435768,-2.9583614\C,0,0.3
 925438,1.55581911,-2.78347778\S,0,1.39271927,1.4865874,-1.50157001\C,0
 ,0.57891903,2.56210758,-3.87735604\H,0,-0.33203334,3.15446018,-3.99493

 Normal termination of Gaussian 16 at Wed Apr  9 19:47:20 2025.
