 Gaussian 16, Revision C.01,

 ----------------------------------------------------------------------
 #t hf aug-cc-pvdz symm=none int=(grid=ultrafine) guess=(read,tcheck) s
 table=(opt,rrhf)
 ----------------------------------------------------------------------
 -----
 title
 -----
 Symbolic Z-matrix:
 Charge =  0 Multiplicity = 1

 SCF Done:  E(RHF) =  -800.705451265     A.U. after   14 cycles
 Normal termination of Gaussian 16 at Wed Apr  9 19:39:24 2025.
 Gaussian 16:  ES64L-G16RevC.01  3-Jul-2019

 ----------------------------------------------------------------------
 #t hf aug-cc-pvdz iop(5/13=1,5/36=2,99/5=2) pseudo=read geom=check gue
 ss=(read,tcheck) scf=(maxcycle=1)
 ----------------------------------------------------------------------
 -----
 title
 -----
 Structure from the checkpoint file:  "HB300SPXx10_1101_4.14_0.80_Nmethylacetamide_tetrahydrothiophene_dimer_mol1.chk"
 Charge =  0 Multiplicity = 1

                         Standard orientation:
 ---------------------------------------------------------------------
 Center     Atomic      Atomic             Coordinates (Angstroms)
 Number     Number       Type             X           Y           Z
 ---------------------------------------------------------------------
      1          6           0       -2.215843   -1.604472   -0.145348
      2          1           0       -2.165309   -2.091014    0.827425
      3          1           0       -1.391275   -1.946553   -0.767402
      4          1           0       -3.156408   -1.899047   -0.606872
      5          6           0       -2.230232   -0.102836    0.060544
      6          8           0       -3.102535    0.446987    0.713095
      7          7           0       -1.219396    0.575260   -0.539933
      8          1           0       -0.470680    0.051909   -0.971892
      9          6           0       -1.081013    2.010211   -0.412451
     10          1           0       -2.067418    2.451819   -0.304568
     11          1           0       -0.489820    2.291682    0.463067
     12          1           0       -0.601660    2.411422   -1.303001
     13          1           0        1.382458    1.612239   -0.844369
     14          1           0        2.976482    0.965771   -1.240397
     15          1           0        2.501449    1.751143    1.288200
     16          1           0        1.862692   -2.065947    0.930437
     17          1           0        3.365053    0.241589    1.013665
     18          1           0        0.127278   -1.760550    0.805262
     19          1           0        1.522976   -0.300562    2.561145
     20          1           0        0.366808    0.523877    1.520500
     21         16           0        1.331961   -0.802948   -1.064346
     22          6           0        2.092110    0.817077   -0.627270
     23          6           0        2.411647    0.750535    0.865642
     24          6           0        1.291918   -0.052661    1.525310
     25          6           0        1.111754   -1.316743    0.689091
 ---------------------------------------------------------------------

 SCF Done:  E(RHF) =  -802.900971336     A.U. after    2 cycles

 The electronic state is 1-A.
 Alpha  occ. eigenvalues --  -75.68111 -21.00188 -15.73236 -13.15883 -13.14861
 Alpha  occ. eigenvalues --  -13.12097 -11.48626 -11.45763 -11.44572 -11.40688
 Alpha  occ. eigenvalues --  -11.39415 -11.38277 -11.37691  -8.02352  -1.68630
 Alpha  occ. eigenvalues --   -1.38337  -1.33498  -1.10714  -1.09322  -1.08588
 Alpha  occ. eigenvalues --   -0.98444  -0.86529  -0.84485  -0.78459  -0.68376
 Alpha  occ. eigenvalues --   -0.67239  -0.66785  -0.63043  -0.61823  -0.60807
 Alpha  occ. eigenvalues --   -0.58089  -0.55234  -0.54709  -0.51454  -0.49958
 Alpha  occ. eigenvalues --   -0.47928  -0.46865  -0.46287  -0.45070  -0.43642
 Alpha  occ. eigenvalues --   -0.36587  -0.29490  -0.27058  -0.23059
 Alpha virt. eigenvalues --    0.03354   0.03817   0.04566   0.05023   0.05103
 Alpha virt. eigenvalues --    0.05481   0.06102   0.06265   0.07051   0.07191
 Alpha virt. eigenvalues --    0.08274   0.08629   0.09322   0.09892   0.10629

 Mulliken charges:
               1
     1  C   -4.895423
     2  H    1.287508
     3  H    1.582495
     4  H    1.074375
     5  C    5.722321
     6  O   -3.544398
     7  N   -2.835711
     8  H    2.100070
     9  C   -4.070169
    10  H    1.359338
    11  H    1.671440
    12  H    1.432572
    13  H    2.050676
    14  H    1.341188
    15  H    1.309015
    16  H    1.301677
    17  H    1.489614
    18  H    2.223810
    19  H    1.290050
    20  H    2.299588
    21  S   -0.345467
    22  C   -3.680405
    23  C   -3.058011
    24  C   -3.192224
    25  C   -3.913930
 Sum of Mulliken charges =   0.00000

 Dipole moment (field-independent basis, Debye):
    X=              2.9215    Y=             -0.2858    Z=             -0.9907  Tot=              3.0981

 Test job not archived.
 1\1\GINC-SE232\SP\RHF\Aug-CC-pVDZ\C7H15N1O1S1\OHZDE\09-Apr-2025\0\\#t
 hf aug-cc-pvdz iop(5/13=1,5/36=2,99/5=2) pseudo=read geom=check guess=
 (read,tcheck) scf=(maxcycle=1)\\title\\0,1\C,0,-2.35790997,-0.53076315
 ,1.51380969\H,0,-2.45888814,0.43106478,2.01406411\H,0,-1.4356415,-1.01
 232631,1.83224394\H,0,-3.20368729,-1.14467685,1.81747472\C,0,-2.435185
 38,-0.3119418,0.01592702\O,0,-3.41358688,0.19433185,-0.50891479\N,0,-1
 .3525984,-0.72916607,-0.68842032\H,0,-0.53292762,-1.03795931,-0.184588
 74\C,0,-1.26500492,-0.56327277,-2.12344447\H,0,-2.26409386,-0.61429593

 Normal termination of Gaussian 16 at Wed Apr  9 19:39:42 2025.
