 Gaussian 16, Revision C.01,

 ----------------------------------------------------------------------
 #t hf aug-cc-pvdz symm=none int=(grid=ultrafine) guess=(read,tcheck) s
 table=(opt,rrhf)
 ----------------------------------------------------------------------
 -----
 title
 -----
 Symbolic Z-matrix:
 Charge =  0 Multiplicity = 1

 SCF Done:  E(RHF) =  -571.992500766     A.U. after   12 cycles
 Normal termination of Gaussian 16 at Wed Apr  9 19:36:08 2025.
 Gaussian 16:  ES64L-G16RevC.01  3-Jul-2019

 ----------------------------------------------------------------------
 #t hf aug-cc-pvdz iop(5/13=1,5/36=2,99/5=2) pseudo=read geom=check gue
 ss=(read,tcheck) scf=(maxcycle=1)
 ----------------------------------------------------------------------
 -----
 title
 -----
 Structure from the checkpoint file:  "HB300SPXx10_1073_4.11_0.90_methylamine_dimethylsulfide_dimer_mol1.chk"
 Charge =  0 Multiplicity = 1

                         Standard orientation:
 ---------------------------------------------------------------------
 Center     Atomic      Atomic             Coordinates (Angstroms)
 Number     Number       Type             X           Y           Z
 ---------------------------------------------------------------------
      1          7           0       -1.715903   -0.786752    0.150887
      2          1           0       -2.083392   -1.718559    0.013171
      3          1           0       -0.944401   -0.667504   -0.496385
      4          6           0       -2.748770    0.218374   -0.096483
      5          1           0       -2.327359    1.211047    0.059964
      6          1           0       -3.182659    0.196433   -1.102929
      7          1           0       -3.558765    0.093867    0.621661
      8          1           0        1.438955    1.649111    1.296855
      9          1           0       -0.199100    0.963117    1.124927
     10          1           0        0.337949    2.282403    0.063163
     11          1           0        1.990411   -1.999325   -0.172570
     12          1           0        0.739027   -1.496189    0.983377
     13          1           0        2.415444   -0.916263    1.162121
     14          6           0        0.650848    1.386350    0.593658
     15         16           0        1.260060    0.211104   -0.643848
     16          6           0        1.635296   -1.182814    0.451492
 ---------------------------------------------------------------------

 SCF Done:  E(RHF) =  -573.137035644     A.U. after    2 cycles

 The electronic state is 1-A.
 Alpha  occ. eigenvalues --  -75.66948 -15.71428 -13.10483 -13.08628 -13.07037
 Alpha  occ. eigenvalues --  -11.38920 -11.38675 -11.37289  -8.01067  -1.31028
 Alpha  occ. eigenvalues --   -1.22051  -1.02663  -0.94451  -0.87752  -0.65965
 Alpha  occ. eigenvalues --   -0.59757  -0.59302  -0.59022  -0.57392  -0.56190
 Alpha  occ. eigenvalues --   -0.52619  -0.50403  -0.43881  -0.36386  -0.34583
 Alpha  occ. eigenvalues --   -0.22054
 Alpha virt. eigenvalues --    0.03643   0.03759   0.04467   0.05514   0.06603
 Alpha virt. eigenvalues --    0.06817   0.07067   0.07663   0.08602   0.08949
 Alpha virt. eigenvalues --    0.09811   0.11437   0.12539   0.13502   0.14765

 Mulliken charges:
               1
     1  N   -2.176911
     2  H    0.581139
     3  H    1.257200
     4  C   -3.313002
     5  H    1.517249
     6  H    1.312872
     7  H    1.257771
     8  H    1.317533
     9  H    1.696722
    10  H    1.429250
    11  H    1.435443
    12  H    1.368172
    13  H    1.396847
    14  C   -4.838292
    15  S    0.418735
    16  C   -4.660728
 Sum of Mulliken charges =  -0.00000

 Dipole moment (field-independent basis, Debye):
    X=             -0.1336    Y=             -0.2064    Z=             -0.9795  Tot=              1.0099

 Test job not archived.
 1\1\GINC-SE162\SP\RHF\Aug-CC-pVDZ\C3H11N1S1\OHZDE\09-Apr-2025\0\\#t hf
  aug-cc-pvdz iop(5/13=1,5/36=2,99/5=2) pseudo=read geom=check guess=(r
 ead,tcheck) scf=(maxcycle=1)\\title\\0,1\N,0,-1.19251098,0.46771599,1.
 69699571\H,0,-2.17204653,0.34511648,1.91553075\H,0,-1.12099987,0.60068
 208,0.69419832\C,0,-0.64549649,1.62445241,2.40482331\H,0,0.40921091,1.
 73255139,2.15309408\H,0,-1.13947726,2.57752576,2.18276464\H,0,-0.70604
 436,1.45678733,3.47978713\H,0,2.21468986,-0.91558921,-0.22062026\H,0,1
 .11715318,-0.25233783,1.01989628\H,0,2.05509767,0.83689842,-0.02418537

 Normal termination of Gaussian 16 at Wed Apr  9 19:36:13 2025.
