 Gaussian 16, Revision C.01,

 ----------------------------------------------------------------------
 #t hf aug-cc-pvdz symm=none int=(grid=ultrafine) guess=(read,tcheck) s
 table=(opt,rrhf)
 ----------------------------------------------------------------------
 -----
 title
 -----
 Symbolic Z-matrix:
 Charge =  0 Multiplicity = 1

 SCF Done:  E(RHF) =  -475.527060853     A.U. after   11 cycles
 Normal termination of Gaussian 16 at Wed Apr  9 19:33:46 2025.
 Gaussian 16:  ES64L-G16RevC.01  3-Jul-2019

 ----------------------------------------------------------------------
 #t hf aug-cc-pvdz iop(5/13=1,5/36=2,99/5=2) pseudo=read geom=check gue
 ss=(read,tcheck) scf=(maxcycle=1)
 ----------------------------------------------------------------------
 -----
 title
 -----
 Structure from the checkpoint file:  "HB300SPXx10_1000_4.03_2.00_ethyne_sulfane_dimer_mol1.chk"
 Charge =  0 Multiplicity = 1

                         Standard orientation:
 ---------------------------------------------------------------------
 Center     Atomic      Atomic             Coordinates (Angstroms)
 Number     Number       Type             X           Y           Z
 ---------------------------------------------------------------------
      1          6           0       -0.267456    3.504345   -0.000000
      2          1           0        0.000000    2.473583   -0.000000
      3          6           0       -0.572633    4.660996   -0.000000
      4          1           0       -0.841443    5.687562   -0.000000
      5          1           0       -0.493547   -3.254822    0.969418
      6          1           0       -0.493547   -3.254822   -0.969418
      7         16           0        0.429317   -3.165222    0.000000
 ---------------------------------------------------------------------

 SCF Done:  E(RHF) =  -476.134141424     A.U. after    2 cycles

 The electronic state is 1-A'.
 Alpha  occ. eigenvalues --  -75.70529 -13.15145 -13.08649 -13.01727 -11.41159
 Alpha  occ. eigenvalues --  -11.41096  -8.04261  -1.11754  -1.09683  -0.78649
 Alpha  occ. eigenvalues --   -0.65907  -0.55280  -0.43862  -0.38876  -0.38876
 Alpha  occ. eigenvalues --   -0.26101
 Alpha virt. eigenvalues --    0.01898   0.03677   0.05657   0.05680   0.09879
 Alpha virt. eigenvalues --    0.10947   0.11321   0.11593   0.11859   0.14601
 Alpha virt. eigenvalues --    0.14605   0.14719   0.15084   0.16686   0.18010

 Mulliken charges:
               1
     1  C   -0.416753
     2  H    0.636430
     3  C   -0.779594
     4  H    0.556220
     5  H    0.977023
     6  H    0.977023
     7  S   -1.950348
 Sum of Mulliken charges =  -0.00000

 Dipole moment (field-independent basis, Debye):
    X=              1.1411    Y=             -0.0045    Z=             -0.0000  Tot=              1.1411

 Test job not archived.
 1\1\GINC-SE036\SP\RHF\Aug-CC-pVDZ\C2H4S1\OHZDE\09-Apr-2025\0\\#t hf au
 g-cc-pvdz iop(5/13=1,5/36=2,99/5=2) pseudo=read geom=check guess=(read
 ,tcheck) scf=(maxcycle=1)\\title\\0,1\C,0,0.08831703,1.93916188,0.\H,0
 ,0.21328325,0.88162322,0.\C,0,-0.05692045,3.12654494,0.\H,0,-0.1837980
 6,4.18011045,0.\H,0,-1.05379313,-4.7266495,0.96941829\H,0,-1.05379313,
 -4.7266495,-0.96941829\S,0,-0.12731176,-4.76323485,0.\\Version=ES64L-G
 16RevC.01\State=1-A'\HF=-476.1341414\RMSD=8.792e-01\Dipole=0.444537,-0
 .0627255,0.\Quadrupole=-1.2229167,1.4001887,-0.177272,-3.4200747,0.,0.

 Normal termination of Gaussian 16 at Wed Apr  9 19:33:47 2025.
