 Gaussian 16, Revision C.01,

 ----------------------------------------------------------------------
 #t hf aug-cc-pvdz symm=none int=(grid=ultrafine) guess=(read,tcheck) s
 table=(opt,rrhf)
 ----------------------------------------------------------------------
 -----
 title
 -----
 Symbolic Z-matrix:
 Charge =  0 Multiplicity = 1

 SCF Done:  E(RHF) =  -747.046001864     A.U. after   14 cycles
 Normal termination of Gaussian 16 at Wed Apr  9 19:45:00 2025.
 Gaussian 16:  ES64L-G16RevC.01  3-Jul-2019

 ----------------------------------------------------------------------
 #t hf aug-cc-pvdz iop(5/13=1,5/36=2,99/5=2) pseudo=read geom=check gue
 ss=(read,tcheck) scf=(maxcycle=1)
 ----------------------------------------------------------------------
 -----
 title
 -----
 Structure from the checkpoint file:  "HB300SPXx10_1454_5.08_0.95_methylcyanate_phosphineF2_dimer_mol1.chk"
 Charge =  0 Multiplicity = 1

                         Standard orientation:
 ---------------------------------------------------------------------
 Center     Atomic      Atomic             Coordinates (Angstroms)
 Number     Number       Type             X           Y           Z
 ---------------------------------------------------------------------
      1          1           0       -2.734148   -1.062724    1.320534
      2          1           0       -3.322352   -1.785381   -0.204680
      3          1           0       -1.563106   -1.665092    0.106584
      4          6           0       -2.534696   -1.207520    0.262265
      5          8           0       -2.569493    0.090237   -0.413212
      6          6           0       -1.682019    0.931932   -0.040869
      7          7           0       -0.886977    1.710792    0.268788
      8         15           0        1.648349    0.339482   -0.160957
      9          9           0        0.684927   -0.951573   -0.084993
     10          9           0        3.037256   -0.421552    0.095465
     11          1           0        1.459789    0.735177    1.193463
 ---------------------------------------------------------------------

 SCF Done:  E(RHF) =  -748.809153565     A.U. after    2 cycles

 The electronic state is 1-A.
 Alpha  occ. eigenvalues -- -105.28538 -29.28637 -29.27864 -21.16075 -15.76244
 Alpha  occ. eigenvalues --  -11.49861 -11.46029  -2.87679  -1.85935  -1.61936
 Alpha  occ. eigenvalues --   -1.58511  -1.51978  -1.30627  -1.05803  -0.89342
 Alpha  occ. eigenvalues --   -0.74491  -0.67466  -0.65934  -0.56965  -0.56184
 Alpha  occ. eigenvalues --   -0.55321  -0.52784  -0.46283  -0.42542  -0.39685
 Alpha  occ. eigenvalues --   -0.35972  -0.35330  -0.33911  -0.27636  -0.24890
 Alpha  occ. eigenvalues --   -0.19368   0.00969
 Alpha virt. eigenvalues --    0.03078   0.05308   0.06903   0.07184   0.08311
 Alpha virt. eigenvalues --    0.10277   0.11078   0.12259   0.12461   0.12994
 Alpha virt. eigenvalues --    0.13122   0.14426   0.15196   0.16044   0.16642

 Mulliken charges:
               1
     1  H    1.306742
     2  H    1.110773
     3  H    1.139874
     4  C   -2.744223
     5  O   -2.672164
     6  C    4.193464
     7  N   -2.454339
     8  P    1.630646
     9  F   -0.283651
    10  F   -0.223545
    11  H   -1.003578
 Sum of Mulliken charges =   0.00000

 Dipole moment (field-independent basis, Debye):
    X=              0.7793    Y=             -6.1122    Z=              1.7066  Tot=              6.3936

 Test job not archived.
 1\1\GINC-SE014\SP\RHF\Aug-CC-pVDZ\C2H4F2N1O1P1\OHZDE\09-Apr-2025\0\\#t
  hf aug-cc-pvdz iop(5/13=1,5/36=2,99/5=2) pseudo=read geom=check guess
 =(read,tcheck) scf=(maxcycle=1)\\title\\0,1\H,0,-2.89287834,1.38344137
 ,-2.41875402\H,0,-2.88368966,0.15494314,-3.71690786\H,0,-2.33807438,-0
 .28314113,-2.0686702\C,0,-2.39546429,0.50243917,-2.8151059\O,0,-1.0419
 8507,0.86597867,-3.23651367\C,0,-0.26338211,1.27221362,-2.30729377\N,0
 ,0.4658792,1.6354549,-1.48824768\P,0,0.48837486,-0.53984982,0.45097735
 \F,0,-0.89922739,-0.89209147,-0.29149206\F,0,0.24111472,-1.40773338,1.

 Normal termination of Gaussian 16 at Wed Apr  9 19:45:04 2025.
