 Gaussian 16, Revision C.01,

 ----------------------------------------------------------------------
 #t hf aug-cc-pvdz symm=none int=(grid=ultrafine) guess=(read,tcheck) s
 table=(opt,rrhf)
 ----------------------------------------------------------------------
 -----
 title
 -----
 Symbolic Z-matrix:
 Charge =  0 Multiplicity = 1

 SCF Done:  E(RHF) =  -742.474910658     A.U. after   14 cycles
 Normal termination of Gaussian 16 at Wed Apr  9 19:37:48 2025.
 Gaussian 16:  ES64L-G16RevC.01  3-Jul-2019

 ----------------------------------------------------------------------
 #t hf aug-cc-pvdz iop(5/13=1,5/36=2,99/5=2) pseudo=read geom=check gue
 ss=(read,tcheck) scf=(maxcycle=1)
 ----------------------------------------------------------------------
 -----
 title
 -----
 Structure from the checkpoint file:  "HB300SPXx10_1132_4.17_0.85_aceticacid_thioacetone_dimer_mol1.chk"
 Charge =  0 Multiplicity = 1

                         Standard orientation:
 ---------------------------------------------------------------------
 Center     Atomic      Atomic             Coordinates (Angstroms)
 Number     Number       Type             X           Y           Z
 ---------------------------------------------------------------------
      1          6           0       -1.911990    1.249840    0.000000
      2          8           0       -2.055854    0.050214    0.000000
      3          8           0       -0.716048    1.851084    0.000000
      4          1           0        0.000000    1.175797    0.000000
      5          6           0       -3.038874    2.246174    0.000000
      6          1           0       -3.990169    1.725887    0.000000
      7          1           0       -2.963101    2.887685    0.876954
      8          1           0       -2.963101    2.887685   -0.876954
      9          1           0        3.615803   -1.790986    0.000000
     10          1           0        2.612114   -2.969843    0.874412
     11          1           0        2.612114   -2.969843   -0.874412
     12          1           0       -0.660422   -1.309817    0.000000
     13          1           0        0.069287   -2.677180   -0.872921
     14          6           0        2.667121   -2.316667    0.000000
     15          6           0        1.501370   -1.376412    0.000000
     16         16           0        1.720904    0.239644    0.000000
     17          6           0        0.155529   -2.024083    0.000000
     18          1           0        0.069287   -2.677180    0.872921
 ---------------------------------------------------------------------

 SCF Done:  E(RHF) =  -744.271070835     A.U. after    2 cycles

 The electronic state is 1-A'.
 Alpha  occ. eigenvalues --  -75.66962 -21.08103 -21.03417 -13.16837 -13.08653
 Alpha  occ. eigenvalues --  -12.98809 -11.51128 -11.48884 -11.40430 -11.38551
 Alpha  occ. eigenvalues --  -11.38464  -8.01472  -1.80710  -1.63794  -1.29207
 Alpha  occ. eigenvalues --   -1.10044  -1.05780  -1.03647  -0.79667  -0.75209
 Alpha  occ. eigenvalues --   -0.64819  -0.61706  -0.60859  -0.60694  -0.59795
 Alpha  occ. eigenvalues --   -0.58937  -0.55214  -0.53754  -0.50413  -0.48422
 Alpha  occ. eigenvalues --   -0.44818  -0.41155  -0.33393  -0.31435  -0.28408
 Alpha  occ. eigenvalues --   -0.22490
 Alpha virt. eigenvalues --    0.02746   0.04417   0.05324   0.05790   0.06605
 Alpha virt. eigenvalues --    0.06668   0.06834   0.07493   0.07555   0.08139
 Alpha virt. eigenvalues --    0.08446   0.09161   0.12407   0.12839   0.13587

 Mulliken charges:
               1
     1  C    5.940963
     2  O   -3.550874
     3  O   -3.673975
     4  H    2.243083
     5  C   -4.458754
     6  H    1.342626
     7  H    1.236020
     8  H    1.236020
     9  H    1.467510
    10  H    1.200366
    11  H    1.200366
    12  H    2.335819
    13  H    1.061640
    14  C   -4.645452
    15  C    0.414416
    16  S    0.457908
    17  C   -4.869320
    18  H    1.061640
 Sum of Mulliken charges =  -0.00000

 Dipole moment (field-independent basis, Debye):
    X=              0.9896    Y=              0.5873    Z=              0.0000  Tot=              1.1508

 Test job not archived.
 1\1\GINC-SE125\SP\RHF\Aug-CC-pVDZ\C5H10O2S1\OHZDE\09-Apr-2025\0\\#t hf
  aug-cc-pvdz iop(5/13=1,5/36=2,99/5=2) pseudo=read geom=check guess=(r
 ead,tcheck) scf=(maxcycle=1)\\title\\0,1\C,0,0.15920132,2.45664609,0.\
 O,0,1.21885316,1.87618237,0.\O,0,-1.02533188,1.83322707,0.\H,0,-0.8922
 641,0.85801947,0.\C,0,0.00380934,3.95277518,0.\H,0,0.98023034,4.424223
 4,0.\H,0,-0.56217465,4.2641268,-0.87695442\H,0,-0.56217465,4.2641268,0
 .87695442\H,0,-0.58089055,-3.80876538,0.\H,0,0.96179958,-3.67760855,-0
 .87441231\H,0,0.96179958,-3.67760855,0.87441231\H,0,1.51400083,-0.0499

 Normal termination of Gaussian 16 at Wed Apr  9 19:37:56 2025.
