 Gaussian 16, Revision C.01,

 ----------------------------------------------------------------------
 #t hf aug-cc-pvdz symm=none int=(grid=ultrafine) guess=(read,tcheck) s
 table=(opt,rrhf)
 ----------------------------------------------------------------------
 -----
 title
 -----
 Symbolic Z-matrix:
 Charge =  0 Multiplicity = 1

 SCF Done:  E(RHF) =  -875.447343655     A.U. after   12 cycles
 Normal termination of Gaussian 16 at Wed Apr  9 19:38:59 2025.
 Gaussian 16:  ES64L-G16RevC.01  3-Jul-2019

 ----------------------------------------------------------------------
 #t hf aug-cc-pvdz iop(5/13=1,5/36=2,99/5=2) pseudo=read geom=check gue
 ss=(read,tcheck) scf=(maxcycle=1)
 ----------------------------------------------------------------------
 -----
 title
 -----
 Structure from the checkpoint file:  "HB300SPXx10_1211_4.26_0.80_sulfane_dimethylsulfide_dimer_mol1.chk"
 Charge =  0 Multiplicity = 1

                         Standard orientation:
 ---------------------------------------------------------------------
 Center     Atomic      Atomic             Coordinates (Angstroms)
 Number     Number       Type             X           Y           Z
 ---------------------------------------------------------------------
      1          1           0        0.882411   -0.018930   -0.574209
      2          1           0        2.408637    1.173634   -0.349845
      3         16           0        2.091408   -0.071815    0.031991
      4          1           0       -1.896356   -1.395112    1.165180
      5          1           0       -0.118133   -1.352509    1.085307
      6          1           0       -1.042405   -2.296725   -0.097857
      7          1           0       -1.104977    2.298693   -0.019748
      8          1           0       -0.138842    1.341479    1.118474
      9          1           0       -1.919538    1.330347    1.219125
     10          6           0       -1.035407   -1.388714    0.499808
     11         16           0       -1.120771    0.010605   -0.646208
     12          6           0       -1.064757    1.371795    0.547032
 ---------------------------------------------------------------------

 SCF Done:  E(RHF) =  -876.350090755     A.U. after    2 cycles

 The electronic state is 1-A.
 Alpha  occ. eigenvalues --  -75.68509 -75.67273 -13.14206 -13.12935 -13.12115
 Alpha  occ. eigenvalues --  -13.09865 -13.07092 -13.01363 -11.40082 -11.39889
 Alpha  occ. eigenvalues --   -8.02737  -8.01168  -1.24687  -1.09374  -1.03891
 Alpha  occ. eigenvalues --   -0.89385  -0.62679  -0.60967  -0.58740  -0.57909
 Alpha  occ. eigenvalues --   -0.53656  -0.45344  -0.43480  -0.37742  -0.24724
 Alpha  occ. eigenvalues --   -0.20900
 Alpha virt. eigenvalues --    0.02804   0.03193   0.04393   0.05268   0.07051
 Alpha virt. eigenvalues --    0.07324   0.07841   0.08886   0.10881   0.11619
 Alpha virt. eigenvalues --    0.12168   0.13460   0.15063   0.15656   0.16197

 Mulliken charges:
               1
     1  H    1.843885
     2  H    0.950329
     3  S   -2.413439
     4  H    1.407761
     5  H    1.342416
     6  H    1.402112
     7  H    1.409380
     8  H    1.380928
     9  H    1.390420
    10  C   -4.366203
    11  S    0.052076
    12  C   -4.399666
 Sum of Mulliken charges =  -0.00000

 Dipole moment (field-independent basis, Debye):
    X=             -0.5492    Y=             -0.8271    Z=              0.0889  Tot=              0.9968

 Test job not archived.
 1\1\GINC-SE125\SP\RHF\Aug-CC-pVDZ\C2H8S2\OHZDE\09-Apr-2025\0\\#t hf au
 g-cc-pvdz iop(5/13=1,5/36=2,99/5=2) pseudo=read geom=check guess=(read
 ,tcheck) scf=(maxcycle=1)\\title\\0,1\H,0,0.94021613,0.77457481,-0.419
 26695\H,0,0.91265107,2.63108631,-1.01468344\S,0,1.34625135,1.9701562,0
 .06824785\H,0,-0.62352684,-1.48247964,1.83934066\H,0,0.39235717,-0.024
 74407,1.72420092\H,0,1.08854293,-1.62511104,1.40821317\H,0,-1.96697221
 ,0.33526111,-1.41112128\H,0,-1.38342722,1.13309875,0.06134528\H,0,-2.4
 3174101,-0.30555079,0.17297457\C,0,0.19800613,-1.01037895,1.3043657\S,

 Normal termination of Gaussian 16 at Wed Apr  9 19:39:03 2025.
