 Gaussian 16, Revision C.01,

 ----------------------------------------------------------------------
 #t hf aug-cc-pvdz symm=none int=(grid=ultrafine) guess=(read,tcheck) s
 table=(opt,rrhf)
 ----------------------------------------------------------------------
 -----
 title
 -----
 Symbolic Z-matrix:
 Charge =  0 Multiplicity = 1

 SCF Done:  E(RHF) =  -991.409487443     A.U. after   12 cycles

 1\1\GINC-SE054\Stability\RHF\Aug-CC-pVDZ\C5H12S2\OHZDE\09-Apr-2025\0\\
 #t hf aug-cc-pvdz symm=none int=(grid=ultrafine) guess=(read,tcheck) s
 table=(opt,rrhf)\\title\\0,1\H,0,2.75511322,-2.75302781,-0.03281769\H,
 0,2.23328443,-3.6609344,1.39160682\H,0,2.88304587,-2.02859561,1.588775
 53\H,0,0.87227038,-0.86572365,0.25189781\C,0,2.28978938,-2.67174858,0.
 94522466\S,0,0.57786237,-2.06107277,0.80693494\H,0,-0.6554573,-0.50941
 007,-1.66424575\H,0,-0.75037053,0.96111159,-2.64360084\H,0,-2.89296385
 ,0.29515687,-1.18298167\H,0,-0.60648518,2.66395538,0.94982236\H,0,-2.3

 Normal termination of Gaussian 16 at Wed Apr  9 19:39:40 2025.
 Gaussian 16:  ES64L-G16RevC.01  3-Jul-2019

 ----------------------------------------------------------------------
 #t hf aug-cc-pvdz iop(5/13=1,5/36=2,99/5=2) pseudo=read geom=check gue
 ss=(read,tcheck) scf=(maxcycle=1)
 ----------------------------------------------------------------------
 -----
 title
 -----
 Structure from the checkpoint file:  "HB300SPXx10_1204_4.25_0.95_methanethiol_tetrahydrothiophene_dimer_mol1.chk"
 Charge =  0 Multiplicity = 1

                         Standard orientation:
 ---------------------------------------------------------------------
 Center     Atomic      Atomic             Coordinates (Angstroms)
 Number     Number       Type             X           Y           Z
 ---------------------------------------------------------------------
      1          1           0        3.589777    1.117284   -0.810412
      2          1           0        4.429971   -0.244486   -0.058586
      3          1           0        3.577153    0.922467    0.959509
      4          1           0        1.163142    0.294876   -0.021006
      5          6           0        3.558881    0.401985    0.006346
      6         16           0        2.095297   -0.676833   -0.123331
      7          1           0       -0.527369   -0.070237   -1.793401
      8          1           0       -2.014897    0.864509   -2.003376
      9          1           0       -2.249093   -1.728518   -1.379698
     10          1           0       -2.196033    0.361333    1.939602
     11          1           0       -3.244187   -0.569398   -0.500639
     12          1           0       -0.466459    0.012679    2.068223
     13          1           0       -2.112806   -1.939560    1.214395
     14          1           0       -0.563499   -1.707484    0.416112
     15         16           0       -0.960565    1.358109    0.114341
     16          6           0       -1.431291    0.279773   -1.297600
     17          6           0       -2.216828   -0.881529   -0.694154
     18          6           0       -1.526074   -1.238251    0.621121
     19          6           0       -1.308255    0.069040    1.383139
 ---------------------------------------------------------------------

 SCF Done:  E(RHF) =  -992.896656906     A.U. after    2 cycles

 The electronic state is 1-A.
 Alpha  occ. eigenvalues --  -75.67098 -75.66722 -13.13141 -13.10977 -13.10073
 Alpha  occ. eigenvalues --  -13.08666 -13.06886 -13.00181 -11.43777 -11.42773
 Alpha  occ. eigenvalues --  -11.39034 -11.38961 -11.36268  -8.01000  -8.00798
 Alpha  occ. eigenvalues --   -1.32868  -1.17255  -1.07320  -1.07110  -0.93176
 Alpha  occ. eigenvalues --   -0.84605  -0.83146  -0.66663  -0.65513  -0.60872
 Alpha  occ. eigenvalues --   -0.59214  -0.57919  -0.54590  -0.49243  -0.48658
 Alpha  occ. eigenvalues --   -0.46562  -0.45510  -0.42118  -0.38650  -0.34906
 Alpha  occ. eigenvalues --   -0.22884  -0.21389
 Alpha virt. eigenvalues --    0.02948   0.03601   0.04500   0.05371   0.05800
 Alpha virt. eigenvalues --    0.06093   0.06374   0.06443   0.07462   0.07883
 Alpha virt. eigenvalues --    0.08631   0.09433   0.11119   0.12613   0.13123

 Mulliken charges:
               1
     1  H    1.363255
     2  H    1.327060
     3  H    1.407430
     4  H    1.964355
     5  C   -5.197744
     6  S   -0.522818
     7  H    1.400685
     8  H    1.391761
     9  H    1.295052
    10  H    1.406966
    11  H    1.409760
    12  H    1.427824
    13  H    1.309673
    14  H    1.690807
    15  S    0.317222
    16  C   -3.145368
    17  C   -2.738707
    18  C   -2.802290
    19  C   -3.304924
 Sum of Mulliken charges =   0.00000

 Dipole moment (field-independent basis, Debye):
    X=              0.1579    Y=             -0.5503    Z=             -0.0195  Tot=              0.5729

 Test job not archived.
 1\1\GINC-SE054\SP\RHF\Aug-CC-pVDZ\C5H12S2\OHZDE\09-Apr-2025\0\\#t hf a
 ug-cc-pvdz iop(5/13=1,5/36=2,99/5=2) pseudo=read geom=check guess=(rea
 d,tcheck) scf=(maxcycle=1)\\title\\0,1\H,0,2.75511322,-2.75302781,-0.0
 3281769\H,0,2.23328443,-3.6609344,1.39160682\H,0,2.88304587,-2.0285956
 1,1.58877553\H,0,0.87227038,-0.86572365,0.25189781\C,0,2.28978938,-2.6
 7174858,0.94522466\S,0,0.57786237,-2.06107277,0.80693494\H,0,-0.655457
 3,-0.50941007,-1.66424575\H,0,-0.75037053,0.96111159,-2.64360084\H,0,-
 2.89296385,0.29515687,-1.18298167\H,0,-0.60648518,2.66395538,0.9498223

 Normal termination of Gaussian 16 at Wed Apr  9 19:39:49 2025.
