 Gaussian 16, Revision C.01,

 ----------------------------------------------------------------------
 #t hf aug-cc-pvdz symm=none int=(grid=ultrafine) guess=(read,tcheck) s
 table=(opt,rrhf)
 ----------------------------------------------------------------------
 -----
 title
 -----
 Symbolic Z-matrix:
 Charge =  0 Multiplicity = 1

 SCF Done:  E(RHF) =  -952.361967094     A.U. after   14 cycles

 1\1\GINC-SE036\Stability\RHF\Aug-CC-pVDZ\C4H10S2\OHZDE\09-Apr-2025\0\\
 #t hf aug-cc-pvdz symm=none int=(grid=ultrafine) guess=(read,tcheck) s
 table=(opt,rrhf)\\title\\0,1\H,0,1.94048627,-0.28311522,0.30003006\H,0
 ,2.70886397,-1.74966836,-0.33633756\H,0,2.5169729,-1.54996222,1.410513
 58\H,0,-0.19256655,-1.5118813,1.21090974\C,0,2.06439688,-1.35234501,0.
 4434425\S,0,0.46794236,-2.21627191,0.2804649\H,0,-3.18976057,1.1018623
 4,0.47638368\H,0,-3.24772505,1.55833798,-1.2397855\H,0,-2.60585386,-0.
 00834516,-0.78631237\H,0,0.45586078,2.03401585,-1.57890331\H,0,-0.3206

 Normal termination of Gaussian 16 at Wed Apr  9 19:35:18 2025.
 Gaussian 16:  ES64L-G16RevC.01  3-Jul-2019

 ----------------------------------------------------------------------
 #t hf aug-cc-pvdz iop(5/13=1,5/36=2,99/5=2) pseudo=read geom=check gue
 ss=(read,tcheck) scf=(maxcycle=1)
 ----------------------------------------------------------------------
 -----
 title
 -----
 Structure from the checkpoint file:  "HB300SPXx10_1028_4.06_1.25_methanethiol_thioacetone_dimer_mol1.chk"
 Charge =  0 Multiplicity = 1

                         Standard orientation:
 ---------------------------------------------------------------------
 Center     Atomic      Atomic             Coordinates (Angstroms)
 Number     Number       Type             X           Y           Z
 ---------------------------------------------------------------------
      1          1           0        1.752850   -1.358452    0.772175
      2          1           0        3.324299   -0.783588    1.360585
      3          1           0        3.236124   -1.690881   -0.155080
      4          1           0        1.696823    0.217629   -1.325994
      5          6           0        2.722690   -0.970812    0.474992
      6         16           0        2.546159    0.631892   -0.374584
      7          1           0       -2.192598    1.286369   -1.616770
      8          1           0       -2.782570    2.009138   -0.104650
      9          1           0       -1.083466    2.137608   -0.515349
     10          1           0       -1.180282   -0.542630    2.126711
     11          1           0       -0.335576    0.944733    1.643267
     12          6           0       -1.952015    1.477924   -0.576677
     13          6           0       -1.669446    0.212686    0.172499
     14         16           0       -1.753265   -1.255963   -0.523463
     15          6           0       -1.284608    0.403449    1.606609
     16          1           0       -2.021638    1.025727    2.119308
 ---------------------------------------------------------------------

 SCF Done:  E(RHF) =  -953.628629582     A.U. after    2 cycles

 The electronic state is 1-A.
 Alpha  occ. eigenvalues --  -75.68545 -75.66059 -13.15358 -13.11904 -13.07285
 Alpha  occ. eigenvalues --  -13.02815 -13.01414 -12.98387 -11.47833 -11.40241
 Alpha  occ. eigenvalues --  -11.39665 -11.38445  -8.02432  -8.00300  -1.28495
 Alpha  occ. eigenvalues --   -1.18402  -1.04356  -1.03566  -0.94056  -0.75154
 Alpha  occ. eigenvalues --   -0.61649  -0.60992  -0.60111  -0.60009  -0.58718
 Alpha  occ. eigenvalues --   -0.55392  -0.50422  -0.49248  -0.41652  -0.39296
 Alpha  occ. eigenvalues --   -0.32154  -0.23931  -0.21705
 Alpha virt. eigenvalues --    0.02394   0.03266   0.04621   0.05429   0.05993
 Alpha virt. eigenvalues --    0.06480   0.06807   0.07555   0.07972   0.08294
 Alpha virt. eigenvalues --    0.09045   0.10452   0.10964   0.11978   0.12361

 Mulliken charges:
               1
     1  H    1.402416
     2  H    1.449651
     3  H    1.378604
     4  H    0.986258
     5  C   -4.724627
     6  S   -0.610137
     7  H    1.512740
     8  H    1.179292
     9  H    1.173252
    10  H    1.508219
    11  H    1.146047
    12  C   -4.577951
    13  C    0.629158
    14  S    0.727322
    15  C   -4.420126
    16  H    1.239881
 Sum of Mulliken charges =   0.00000

 Dipole moment (field-independent basis, Debye):
    X=              0.6887    Y=              0.1685    Z=              0.6427  Tot=              0.9569

 Test job not archived.
 1\1\GINC-SE036\SP\RHF\Aug-CC-pVDZ\C4H10S2\OHZDE\09-Apr-2025\0\\#t hf a
 ug-cc-pvdz iop(5/13=1,5/36=2,99/5=2) pseudo=read geom=check guess=(rea
 d,tcheck) scf=(maxcycle=1)\\title\\0,1\H,0,1.94048627,-0.28311522,0.30
 003006\H,0,2.70886397,-1.74966836,-0.33633756\H,0,2.5169729,-1.5499622
 2,1.41051358\H,0,-0.19256655,-1.5118813,1.21090974\C,0,2.06439688,-1.3
 5234501,0.4434425\S,0,0.46794236,-2.21627191,0.2804649\H,0,-3.18976057
 ,1.10186234,0.47638368\H,0,-3.24772505,1.55833798,-1.2397855\H,0,-2.60
 585386,-0.00834516,-0.78631237\H,0,0.45586078,2.03401585,-1.57890331\H

 Normal termination of Gaussian 16 at Wed Apr  9 19:35:23 2025.
