 Gaussian 16, Revision C.01,

 ----------------------------------------------------------------------
 #t hf aug-cc-pvdz symm=none int=(grid=ultrafine) guess=(read,tcheck) s
 table=(opt,rrhf)
 ----------------------------------------------------------------------
 -----
 title
 -----
 Symbolic Z-matrix:
 Charge =  0 Multiplicity = 1

 SCF Done:  E(RHF) =  -855.910487924     A.U. after   14 cycles
 Normal termination of Gaussian 16 at Wed Apr  9 19:34:56 2025.
 Gaussian 16:  ES64L-G16RevC.01  3-Jul-2019

 ----------------------------------------------------------------------
 #t hf aug-cc-pvdz iop(5/13=1,5/36=2,99/5=2) pseudo=read geom=check gue
 ss=(read,tcheck) scf=(maxcycle=1)
 ----------------------------------------------------------------------
 -----
 title
 -----
 Structure from the checkpoint file:  "HB300SPXx10_1036_4.07_1.05_phosphaalkyne_methanethiol_dimer_mol1.chk"
 Charge =  0 Multiplicity = 1

                         Standard orientation:
 ---------------------------------------------------------------------
 Center     Atomic      Atomic             Coordinates (Angstroms)
 Number     Number       Type             X           Y           Z
 ---------------------------------------------------------------------
      1          1           0       -1.605620    2.130537    1.251833
      2          1           0       -1.857518    2.441583   -0.468099
      3          1           0       -0.262647    1.946531    0.111086
      4         15           0       -2.041265   -1.077334   -0.170062
      5          6           0       -1.686909    0.406256    0.044891
      6          6           0       -1.337114    1.801249    0.246388
      7          1           0        0.981544   -0.219356    1.508223
      8          1           0        2.745587   -0.283916    1.663822
      9          1           0        1.871420   -1.670842    0.998441
     10          1           0        1.014342   -0.295473   -1.139355
     11          6           0        1.897398   -0.586713    1.055547
     12         16           0        2.155726    0.149137   -0.590999
 ---------------------------------------------------------------------

 SCF Done:  E(RHF) =  -856.936291967     A.U. after    2 cycles

 The electronic state is 1-A.
 Alpha  occ. eigenvalues -- -105.17036 -75.68102 -13.11565 -13.07104 -13.03047
 Alpha  occ. eigenvalues --  -11.45368 -11.40510 -11.39410  -8.01994  -2.75346
 Alpha  occ. eigenvalues --   -1.56885  -1.35543  -1.34844  -1.18038  -1.14223
 Alpha  occ. eigenvalues --   -0.93859  -0.78280  -0.60127  -0.59773  -0.59174
 Alpha  occ. eigenvalues --   -0.59082  -0.58230  -0.48881  -0.39090  -0.23682
 Alpha  occ. eigenvalues --   -0.16476  -0.16318  -0.06817
 Alpha virt. eigenvalues --    0.02855   0.04062   0.05700   0.05868   0.06528
 Alpha virt. eigenvalues --    0.07644   0.08178   0.08655   0.08727   0.09842
 Alpha virt. eigenvalues --    0.11479   0.12660   0.13019   0.14531   0.14675

 Mulliken charges:
               1
     1  H    1.240773
     2  H    1.153949
     3  H    1.360866
     4  P    4.973887
     5  C   -4.028236
     6  C   -4.617271
     7  H    1.470030
     8  H    1.424973
     9  H    1.335837
    10  H    0.971902
    11  C   -4.648417
    12  S   -0.638295
 Sum of Mulliken charges =  -0.00000

 Dipole moment (field-independent basis, Debye):
    X=             -2.1033    Y=             -9.9902    Z=             -1.1029  Tot=             10.2687

 Test job not archived.
 1\1\GINC-SE232\SP\RHF\Aug-CC-pVDZ\C3H7P1S1\OHZDE\09-Apr-2025\0\\#t hf
 aug-cc-pvdz iop(5/13=1,5/36=2,99/5=2) pseudo=read geom=check guess=(re
 ad,tcheck) scf=(maxcycle=1)\\title\\0,1\H,0,0.38933231,2.34404549,-1.6
 8180664\H,0,-1.19987448,1.75919838,-2.18254684\H,0,0.10218747,0.605834
 91,-1.86864837\P,0,-1.17058474,1.34195856,1.32892267\C,0,-0.7484701,1.
 45533882,-0.14816129\C,0,-0.34350289,1.5476729,-1.53972175\H,0,1.86014
 182,-0.18559907,0.24660631\H,0,2.90356793,-1.6050051,0.05484057\H,0,1.
 83098502,-1.48663345,1.4569885\H,0,-0.38915797,-1.55337269,-0.04730584

 Normal termination of Gaussian 16 at Wed Apr  9 19:35:00 2025.
