 Gaussian 16, Revision C.01,

 ----------------------------------------------------------------------
 #t hf aug-cc-pvdz symm=none int=(grid=ultrafine) guess=(read,tcheck) s
 table=(opt,rrhf)
 ----------------------------------------------------------------------
 -----
 title
 -----
 Symbolic Z-matrix:
 Charge =  0 Multiplicity = 1

 SCF Done:  E(RHF) =  -977.993866105     A.U. after   13 cycles
 Normal termination of Gaussian 16 at Wed Apr  9 19:43:51 2025.
 Gaussian 16:  ES64L-G16RevC.01  3-Jul-2019

 ----------------------------------------------------------------------
 #t hf aug-cc-pvdz iop(5/13=1,5/36=2,99/5=2) pseudo=read geom=check gue
 ss=(read,tcheck) scf=(maxcycle=1)
 ----------------------------------------------------------------------
 -----
 title
 -----
 Structure from the checkpoint file:  "HB300SPXx10_1445_5.07_1.00_methanethiol_phosphineF2_dimer_mol1.chk"
 Charge =  0 Multiplicity = 1

                         Standard orientation:
 ---------------------------------------------------------------------
 Center     Atomic      Atomic             Coordinates (Angstroms)
 Number     Number       Type             X           Y           Z
 ---------------------------------------------------------------------
      1          1           0        1.509635    1.661117   -0.078746
      2          1           0        2.118535    0.918153   -1.564209
      3          1           0        3.246338    1.281176   -0.248784
      4          1           0        2.019733   -0.449579    1.437978
      5          6           0        2.235440    0.963859   -0.484970
      6         16           0        1.922904   -0.722851    0.128185
      7         15           0       -1.224179   -0.242101   -0.275606
      8          9           0       -0.904136    0.943903    0.756543
      9          9           0       -2.826537   -0.132355   -0.226348
     10          1           0       -1.134594   -1.300838    0.674961
 ---------------------------------------------------------------------

 SCF Done:  E(RHF) =  -979.313038897     A.U. after    2 cycles

 The electronic state is 1-A.
 Alpha  occ. eigenvalues -- -105.28737 -75.69765 -29.28527 -29.27855 -13.13764
 Alpha  occ. eigenvalues --  -13.08643 -13.06952 -11.40507  -8.03682  -2.87958
 Alpha  occ. eigenvalues --   -1.62198  -1.58821  -1.52102  -1.19555  -0.95299
 Alpha  occ. eigenvalues --   -0.89590  -0.61143  -0.60098  -0.55611  -0.50399
 Alpha  occ. eigenvalues --   -0.46370  -0.40725  -0.39856  -0.35647  -0.33914
 Alpha  occ. eigenvalues --   -0.28960  -0.25525  -0.24318  -0.18877  -0.00423
 Alpha virt. eigenvalues --    0.03803   0.04312   0.06118   0.06911   0.08025
 Alpha virt. eigenvalues --    0.09619   0.10638   0.12006   0.12858   0.14903
 Alpha virt. eigenvalues --    0.15075   0.15493   0.16414   0.16827   0.19475

 Mulliken charges:
               1
     1  H    1.041727
     2  H    0.657814
     3  H    1.170256
     4  H    1.146780
     5  C   -3.868925
     6  S   -0.832663
     7  P    2.195513
     8  F   -0.337817
     9  F   -0.105678
    10  H   -1.067007
 Sum of Mulliken charges =  -0.00000

 Dipole moment (field-independent basis, Debye):
    X=             -8.2326    Y=              0.0088    Z=              3.1709  Tot=              8.8222

 Test job not archived.
 1\1\GINC-SE041\SP\RHF\Aug-CC-pVDZ\C1H5F2P1S1\OHZDE\09-Apr-2025\0\\#t h
 f aug-cc-pvdz iop(5/13=1,5/36=2,99/5=2) pseudo=read geom=check guess=(
 read,tcheck) scf=(maxcycle=1)\\title\\0,1\H,0,-1.72434823,-0.02735536,
 -1.47402619\H,0,-1.29643549,-1.41515971,-2.4840979\H,0,-1.57230153,0.1
 6002765,-3.24353895\H,0,0.52779021,1.28305094,-1.94983564\C,0,-1.18500
 823,-0.34129171,-2.36202164\S,0,0.60124692,-0.03772908,-2.17289215\P,0
 ,0.41786823,-1.09063299,0.85300708\F,0,-0.61973631,0.13057973,0.932897
 8\F,0,0.49698927,-1.39816901,2.4281843\H,0,1.59591396,-0.28856669,0.81

 Normal termination of Gaussian 16 at Wed Apr  9 19:43:54 2025.
