 Gaussian 16, Revision C.01,

 ----------------------------------------------------------------------
 #t hf aug-cc-pvdz symm=none int=(grid=ultrafine) guess=(read,tcheck) s
 table=(opt,rrhf)
 ----------------------------------------------------------------------
 -----
 title
 -----
 Symbolic Z-matrix:
 Charge =  0 Multiplicity = 1

 SCF Done:  E(RHF) =  -398.672248317     A.U. after   11 cycles
 Normal termination of Gaussian 16 at Wed Apr  9 19:46:47 2025.
 Gaussian 16:  ES64L-G16RevC.01  3-Jul-2019

 ----------------------------------------------------------------------
 #t hf aug-cc-pvdz iop(5/13=1,5/36=2,99/5=2) pseudo=read geom=check gue
 ss=(read,tcheck) scf=(maxcycle=1)
 ----------------------------------------------------------------------
 -----
 title
 -----
 Structure from the checkpoint file:  "HB300SPXx10_1_1.01_0.80_phosphine_ammonia_dimer_mol1.chk"
 Charge =  0 Multiplicity = 1

                         Standard orientation:
 ---------------------------------------------------------------------
 Center     Atomic      Atomic             Coordinates (Angstroms)
 Number     Number       Type             X           Y           Z
 ---------------------------------------------------------------------
      1         15           0        1.339150    0.000073   -0.118965
      2          1           0       -0.070716    0.001495    0.027919
      3          1           0        1.538471   -1.032418    0.832338
      4          1           0        1.540346    1.032659    0.831820
      5          7           0       -2.197894    0.000775    0.004590
      6          1           0       -2.597656   -0.522580   -0.764042
      7          1           0       -2.530803   -0.422115    0.861791
      8          1           0       -2.581630    0.936436   -0.037482
 ---------------------------------------------------------------------

 SCF Done:  E(RHF) =  -399.166132930     A.U. after    2 cycles

 The electronic state is 1-A.
 Alpha  occ. eigenvalues -- -105.15631 -15.75319  -2.72124  -1.41975  -1.40862
 Alpha  occ. eigenvalues --   -1.39827  -1.26208  -0.72638  -0.62288  -0.62281
 Alpha  occ. eigenvalues --   -0.42444  -0.23488  -0.18776  -0.01734
 Alpha virt. eigenvalues --    0.03517   0.05843   0.05940   0.06371   0.09276
 Alpha virt. eigenvalues --    0.09438   0.11328   0.12231   0.16996   0.17587
 Alpha virt. eigenvalues --    0.18746   0.19512   0.21528   0.24898   0.26385

 Mulliken charges:
               1
     1  P    2.116869
     2  H   -1.060347
     3  H   -0.488475
     4  H   -0.498817
     5  N   -1.702440
     6  H    0.623116
     7  H    0.448878
     8  H    0.561216
 Sum of Mulliken charges =  -0.00000

 Dipole moment (field-independent basis, Debye):
    X=              0.3857    Y=              0.0116    Z=             -3.9372  Tot=              3.9560

 Test job not archived.
 1\1\GINC-SE125\SP\RHF\Aug-CC-pVDZ\H6N1P1\OHZDE\09-Apr-2025\0\\#t hf au
 g-cc-pvdz iop(5/13=1,5/36=2,99/5=2) pseudo=read geom=check guess=(read
 ,tcheck) scf=(maxcycle=1)\\title\\0,1\P,0,1.20126953,-0.204174,-0.6935
 9914\H,0,0.00711135,-0.04100571,0.05249812\H,0,1.148472,-1.62079109,-0
 .65962828\H,0,2.04295792,-0.12244727,0.44463924\N,0,-1.85248427,0.3655
 1797,1.00227424\H,0,-2.60491212,0.56904157,0.35656891\H,0,-2.12729056,
 -0.44842203,1.53747494\H,0,-1.79205306,1.14293671,1.64760695\\Version=
 ES64L-G16RevC.01\State=1-A\HF=-399.1661329\RMSD=2.684e-01\Dipole=-0.22

 Normal termination of Gaussian 16 at Wed Apr  9 19:46:50 2025.
