 Gaussian 16, Revision C.01,

 ----------------------------------------------------------------------
 #t hf aug-cc-pvdz symm=none int=(grid=ultrafine) guess=(read,tcheck) s
 table=(opt,rrhf)
 ----------------------------------------------------------------------
 -----
 title
 -----
 Symbolic Z-matrix:
 Charge =  0 Multiplicity = 1

 SCF Done:  E(RHF) =  -783.971655224     A.U. after   15 cycles
 Normal termination of Gaussian 16 at Wed Apr  9 19:44:59 2025.
 Gaussian 16:  ES64L-G16RevC.01  3-Jul-2019

 ----------------------------------------------------------------------
 #t hf aug-cc-pvdz iop(5/13=1,5/36=2,99/5=2) pseudo=read geom=check gue
 ss=(read,tcheck) scf=(maxcycle=1)
 ----------------------------------------------------------------------
 -----
 title
 -----
 Structure from the checkpoint file:  "HB300SPXx10_1466_5.09_1.05_nitromethane_phosphineF2_dimer_mol1.chk"
 Charge =  0 Multiplicity = 1

                         Standard orientation:
 ---------------------------------------------------------------------
 Center     Atomic      Atomic             Coordinates (Angstroms)
 Number     Number       Type             X           Y           Z
 ---------------------------------------------------------------------
      1          1           0       -1.702555    1.763849    0.065264
      2          1           0       -2.919318    1.179291   -1.094917
      3          1           0       -3.267013    1.147590    0.677263
      4          6           0       -2.515392    1.060963   -0.096619
      5          7           0       -1.904801   -0.299075   -0.006845
      6          8           0       -2.003835   -0.897960    1.045204
      7          8           0       -1.309344   -0.703387   -0.994759
      8         15           0        1.713552   -0.213466   -0.392996
      9          9           0        3.086236   -0.034841    0.408741
     10          9           0        0.907715    1.018359    0.257067
     11          1           0        1.171447   -1.201881    0.479130
 ---------------------------------------------------------------------

 SCF Done:  E(RHF) =  -785.886367893     A.U. after    2 cycles

 The electronic state is 1-A.
 Alpha  occ. eigenvalues -- -105.29029 -29.29063 -29.28718 -21.11241 -21.10288
 Alpha  occ. eigenvalues --  -16.00769 -11.45449  -2.88397  -2.01133  -1.70440
 Alpha  occ. eigenvalues --   -1.62894  -1.58856  -1.52501  -1.20670  -0.89905
 Alpha  occ. eigenvalues --   -0.87910  -0.71918  -0.70151  -0.67916  -0.57776
 Alpha  occ. eigenvalues --   -0.57640  -0.56416  -0.46785  -0.40811  -0.37357
 Alpha  occ. eigenvalues --   -0.35995  -0.34566  -0.33343  -0.32232  -0.28116
 Alpha  occ. eigenvalues --   -0.25208  -0.19466   0.00247
 Alpha virt. eigenvalues --    0.03311   0.05589   0.06502   0.07636   0.09516
 Alpha virt. eigenvalues --    0.10689   0.11700   0.12694   0.13490   0.14099
 Alpha virt. eigenvalues --    0.14855   0.15657   0.17249   0.17936   0.21306

 Mulliken charges:
               1
     1  H    1.204484
     2  H    1.449459
     3  H    1.325392
     4  C   -3.183121
     5  N    5.063293
     6  O   -2.829376
     7  O   -2.818527
     8  P    1.601053
     9  F   -0.198112
    10  F   -0.435858
    11  H   -1.178686
 Sum of Mulliken charges =  -0.00000

 Dipole moment (field-independent basis, Debye):
    X=             -0.5747    Y=              4.4381    Z=              4.2929  Tot=              6.2013

 Test job not archived.
 1\1\GINC-SE056\SP\RHF\Aug-CC-pVDZ\C1H4F2N1O2P1\OHZDE\09-Apr-2025\0\\#t
  hf aug-cc-pvdz iop(5/13=1,5/36=2,99/5=2) pseudo=read geom=check guess
 =(read,tcheck) scf=(maxcycle=1)\\title\\0,1\H,0,0.49481138,0.55069733,
 -2.50359179\H,0,-1.08891031,0.71291216,-3.29967626\H,0,-0.00441746,2.1
 4812453,-3.13671373\C,0,-0.34098337,1.21704881,-2.69950341\N,0,-0.9468
 7558,1.51662809,-1.36768821\O,0,-0.63929751,2.55888018,-0.82511637\O,0
 ,-1.68734525,0.66720154,-0.89420145\P,0,0.05746193,-0.88630121,1.17517
 523\F,0,1.18593472,-1.20894768,2.26209605\F,0,1.0254755,-0.50758677,-0

 Normal termination of Gaussian 16 at Wed Apr  9 19:45:03 2025.
