 Gaussian 16, Revision C.01,

 ----------------------------------------------------------------------
 #t hf aug-cc-pvdz symm=none int=(grid=ultrafine) guess=(read,tcheck) s
 table=(opt,rrhf)
 ----------------------------------------------------------------------
 -----
 title
 -----
 Symbolic Z-matrix:
 Charge =  0 Multiplicity = 1

 SCF Done:  E(RHF) =  -591.454130272     A.U. after   14 cycles
 Normal termination of Gaussian 16 at Wed Apr  9 19:35:05 2025.
 Gaussian 16:  ES64L-G16RevC.01  3-Jul-2019

 ----------------------------------------------------------------------
 #t hf aug-cc-pvdz iop(5/13=1,5/36=2,99/5=2) pseudo=read geom=check gue
 ss=(read,tcheck) scf=(maxcycle=1)
 ----------------------------------------------------------------------
 -----
 title
 -----
 Structure from the checkpoint file:  "HB300SPXx10_1012_4.05_0.85_ethyne_thioacetone_dimer_mol1.chk"
 Charge =  0 Multiplicity = 1

                         Standard orientation:
 ---------------------------------------------------------------------
 Center     Atomic      Atomic             Coordinates (Angstroms)
 Number     Number       Type             X           Y           Z
 ---------------------------------------------------------------------
      1          6           0        0.212474   -2.675948    0.000000
      2          1           0       -0.467758   -1.853711    0.000000
      3          6           0        0.992253   -3.583716    0.000000
      4          1           0        1.678224   -4.393338    0.000000
      5          1           0       -1.089976    3.092510    0.000000
      6          1           0        0.457225    3.127709    0.874719
      7          1           0        0.457225    3.127709   -0.874719
      8          1           0        1.388548   -0.417504    0.000000
      9          1           0        1.932203    1.028609   -0.874314
     10          6           0       -0.066562    2.733674    0.000000
     11          6           0       -0.000000    1.236504    0.000000
     12         16           0       -1.339260    0.312378    0.000000
     13          6           0        1.385212    0.666381    0.000000
     14          1           0        1.932203    1.028609    0.874314
 ---------------------------------------------------------------------

 SCF Done:  E(RHF) =  -592.649036646     A.U. after    2 cycles

 The electronic state is 1-A'.
 Alpha  occ. eigenvalues --  -75.66613 -13.16200 -13.07518 -12.98359 -11.48433
 Alpha  occ. eigenvalues --  -11.40784 -11.39854 -11.39337 -11.39116  -8.00961
 Alpha  occ. eigenvalues --   -1.29063  -1.08458  -1.05211  -1.04014  -0.77885
 Alpha  occ. eigenvalues --   -0.75430  -0.64821  -0.61998  -0.61597  -0.60439
 Alpha  occ. eigenvalues --   -0.55774  -0.51041  -0.42296  -0.37684  -0.37554
 Alpha  occ. eigenvalues --   -0.32816  -0.22676
 Alpha virt. eigenvalues --    0.02498   0.04189   0.05346   0.05769   0.06399
 Alpha virt. eigenvalues --    0.06640   0.07247   0.08086   0.08422   0.09331
 Alpha virt. eigenvalues --    0.10461   0.12646   0.12672   0.13803   0.14240

 Mulliken charges:
               1
     1  C   -0.470235
     2  H    1.219504
     3  C   -1.060421
     4  H    0.596228
     5  H    1.454131
     6  H    1.203721
     7  H    1.203721
     8  H    1.671814
     9  H    1.144210
    10  C   -4.565791
    11  C    0.587096
    12  S    0.578975
    13  C   -4.707164
    14  H    1.144210
 Sum of Mulliken charges =   0.00000

 Dipole moment (field-independent basis, Debye):
    X=             -0.0037    Y=              0.6626    Z=              0.0000  Tot=              0.6626

 Test job not archived.
 1\1\GINC-SE159\SP\RHF\Aug-CC-pVDZ\C5H8S1\OHZDE\09-Apr-2025\0\\#t hf au
 g-cc-pvdz iop(5/13=1,5/36=2,99/5=2) pseudo=read geom=check guess=(read
 ,tcheck) scf=(maxcycle=1)\\title\\0,1\C,0,-0.20751211,-2.93011645,0.\H
 ,0,-0.70775465,-1.98748922,0.\C,0,0.37296237,-3.97660953,0.\H,0,0.8813
 7254,-4.90804053,0.\H,0,-0.31866903,2.98250784,0.\H,0,1.20378407,2.704
 6487,0.87471889\H,0,1.20378407,2.7046487,-0.87471889\H,0,1.40026195,-0
 .9555825,0.\H,0,2.22465095,0.35101114,-0.87431367\C,0,0.61123726,2.424
 46348,0.\C,0,0.37419514,0.94467907,0.\S,0,-1.12404559,0.30993494,0.\C,

 Normal termination of Gaussian 16 at Wed Apr  9 19:35:09 2025.
