 Gaussian 16, Revision C.01,

 ----------------------------------------------------------------------
 #t hf aug-cc-pvdz symm=none int=(grid=ultrafine) guess=(read,tcheck) s
 table=(opt,rrhf)
 ----------------------------------------------------------------------
 -----
 title
 -----
 Symbolic Z-matrix:
 Charge =  0 Multiplicity = 1

 SCF Done:  E(RHF) =  -437.701223860     A.U. after   11 cycles
 Normal termination of Gaussian 16 at Wed Apr  9 19:46:49 2025.
 Gaussian 16:  ES64L-G16RevC.01  3-Jul-2019

 ----------------------------------------------------------------------
 #t hf aug-cc-pvdz iop(5/13=1,5/36=2,99/5=2) pseudo=read geom=check gue
 ss=(read,tcheck) scf=(maxcycle=1)
 ----------------------------------------------------------------------
 -----
 title
 -----
 Structure from the checkpoint file:  "HB300SPXx10_14_1.02_0.95_phosphine_methylamine_dimer_mol1.chk"
 Charge =  0 Multiplicity = 1

                         Standard orientation:
 ---------------------------------------------------------------------
 Center     Atomic      Atomic             Coordinates (Angstroms)
 Number     Number       Type             X           Y           Z
 ---------------------------------------------------------------------
      1         15           0        1.835443    0.034336   -0.109952
      2          1           0        0.707787   -0.786124    0.138198
      3          1           0        2.767835   -0.900730    0.405439
      4          1           0        1.720566    0.731406    1.119194
      5          7           0       -1.810887   -0.732931    0.033487
      6          1           0       -2.386021   -1.034958    0.808113
      7          1           0       -2.228512   -1.105817   -0.808363
      8          6           0       -1.731428    0.726448   -0.023375
      9          1           0       -1.093109    1.018981   -0.856296
     10          1           0       -2.693289    1.238425   -0.139047
     11          1           0       -1.262121    1.095602    0.887889
 ---------------------------------------------------------------------

 SCF Done:  E(RHF) =  -438.393655079     A.U. after    2 cycles

 The electronic state is 1-A.
 Alpha  occ. eigenvalues -- -105.16874 -15.73077 -11.38046  -2.73320  -1.43037
 Alpha  occ. eigenvalues --   -1.42148  -1.40795  -1.31791  -0.95345  -0.73500
 Alpha  occ. eigenvalues --   -0.66101  -0.59773  -0.53759  -0.51064  -0.36322
 Alpha  occ. eigenvalues --   -0.24260  -0.21954  -0.02859
 Alpha virt. eigenvalues --    0.03853   0.05392   0.05697   0.06117   0.07185
 Alpha virt. eigenvalues --    0.08345   0.09054   0.10541   0.10961   0.12283
 Alpha virt. eigenvalues --    0.12954   0.15385   0.16473   0.18214   0.18827

 Mulliken charges:
               1
     1  P    1.890918
     2  H   -0.693394
     3  H   -0.644676
     4  H   -0.605577
     5  N   -2.134874
     6  H    0.651504
     7  H    0.640100
     8  C   -3.068982
     9  H    1.338453
    10  H    1.267643
    11  H    1.358885
 Sum of Mulliken charges =  -0.00000

 Dipole moment (field-independent basis, Debye):
    X=             -1.0477    Y=              1.8121    Z=             -3.9741  Tot=              4.4917

 Test job not archived.
 1\1\GINC-SE108\SP\RHF\Aug-CC-pVDZ\C1H8N1P1\OHZDE\09-Apr-2025\0\\#t hf
 aug-cc-pvdz iop(5/13=1,5/36=2,99/5=2) pseudo=read geom=check guess=(re
 ad,tcheck) scf=(maxcycle=1)\\title\\0,1\P,0,1.60554835,-0.39061782,-0.
 727406\H,0,0.88263451,-0.28817357,0.48636549\H,0,2.87161411,-0.472756,
 -0.09521777\H,0,1.68852005,1.01288402,-0.9096172\N,0,-1.45650172,0.102
 17504,1.34285926\H,0,-1.65700017,0.7829638,2.06283974\H,0,-1.99385231,
 -0.72606558,1.56066039\C,0,-1.80477835,0.61952162,0.01983614\H,0,-1.56
 218035,-0.12903331,-0.73355267\H,0,-2.85724725,0.89704206,-0.10653593\

 Normal termination of Gaussian 16 at Wed Apr  9 19:46:51 2025.
