 Gaussian 16, Revision C.01,

 ----------------------------------------------------------------------
 #t hf aug-cc-pvdz symm=none int=(grid=ultrafine) guess=(read,tcheck) s
 table=(opt,rrhf)
 ----------------------------------------------------------------------
 -----
 title
 -----
 Symbolic Z-matrix:
 Charge =  0 Multiplicity = 1

 SCF Done:  E(RHF) =  -969.534484313     A.U. after   13 cycles
 Normal termination of Gaussian 16 at Wed Apr  9 19:36:23 2025.
 Gaussian 16:  ES64L-G16RevC.01  3-Jul-2019

 ----------------------------------------------------------------------
 #t hf aug-cc-pvdz iop(5/13=1,5/36=2,99/5=2) pseudo=read geom=check gue
 ss=(read,tcheck) scf=(maxcycle=1)
 ----------------------------------------------------------------------
 -----
 title
 -----
 Structure from the checkpoint file:  "HB300SPXx10_1066_4.10_1.05_methylamine_dimethyldisulfide_dimer_mol1.chk"
 Charge =  0 Multiplicity = 1

                         Standard orientation:
 ---------------------------------------------------------------------
 Center     Atomic      Atomic             Coordinates (Angstroms)
 Number     Number       Type             X           Y           Z
 ---------------------------------------------------------------------
      1          7           0        2.364796    0.900081   -0.000718
      2          1           0        2.603942    1.836635   -0.298160
      3          1           0        1.636658    0.568517   -0.622149
      4          6           0        3.534354    0.023623   -0.061365
      5          1           0        3.252273   -0.974022    0.273504
      6          1           0        3.987375   -0.072729   -1.054509
      7          1           0        4.298387    0.390219    0.623143
      8          1           0       -1.713827    2.632715    0.648935
      9          1           0       -0.734467    2.204573   -0.768782
     10          1           0       -0.207200    1.712285    0.862234
     11          1           0       -0.692812   -2.029479    1.558314
     12          1           0        0.654674   -0.876202    1.311885
     13          1           0        0.692063   -2.476007    0.539282
     14          6           0       -1.062464    1.875865    0.213640
     15         16           0       -2.074601    0.367931    0.075429
     16         16           0       -0.766547   -1.035183   -0.646509
     17          6           0        0.049400   -1.656328    0.859160
 ---------------------------------------------------------------------

 SCF Done:  E(RHF) =  -970.894868266     A.U. after    2 cycles

 The electronic state is 1-A.
 Alpha  occ. eigenvalues --  -75.69702 -75.69462 -15.72790 -13.13384 -13.11347
 Alpha  occ. eigenvalues --  -13.08919 -13.08095 -13.06809 -13.03163 -11.39586
 Alpha  occ. eigenvalues --  -11.39380 -11.38019  -8.03699  -8.03527  -1.31699
 Alpha  occ. eigenvalues --   -1.26105  -1.12384  -0.97815  -0.95151  -0.86373
 Alpha  occ. eigenvalues --   -0.66077  -0.59923  -0.59688  -0.59002  -0.58924
 Alpha  occ. eigenvalues --   -0.58208  -0.53577  -0.51013  -0.46738  -0.42698
 Alpha  occ. eigenvalues --   -0.35450  -0.33359  -0.24880  -0.23304
 Alpha virt. eigenvalues --    0.03212   0.03335   0.04018   0.05195   0.06380
 Alpha virt. eigenvalues --    0.06543   0.06762   0.07444   0.07698   0.09154
 Alpha virt. eigenvalues --    0.09676   0.09838   0.11331   0.12673   0.13777

 Mulliken charges:
               1
     1  N   -2.179641
     2  H    0.625840
     3  H    0.866684
     4  C   -3.226360
     5  H    1.480813
     6  H    1.326082
     7  H    1.275950
     8  H    1.363088
     9  H    1.522704
    10  H    1.636650
    11  H    1.428654
    12  H    1.751070
    13  H    1.452194
    14  C   -4.792197
    15  S    0.286666
    16  S   -0.047314
    17  C   -4.770883
 Sum of Mulliken charges =   0.00000

 Dipole moment (field-independent basis, Debye):
    X=             -0.0549    Y=             -0.0216    Z=             -1.0608  Tot=              1.0624

 Test job not archived.
 1\1\GINC-SE131\SP\RHF\Aug-CC-pVDZ\C3H11N1S2\OHZDE\09-Apr-2025\0\\#t hf
  aug-cc-pvdz iop(5/13=1,5/36=2,99/5=2) pseudo=read geom=check guess=(r
 ead,tcheck) scf=(maxcycle=1)\\title\\0,1\N,0,-0.790217,0.77789413,2.28
 472778\H,0,-1.73224372,0.61681804,2.6155392\H,0,-0.85550262,0.99181266
 ,1.29666237\C,0,-0.16836631,1.8838218,3.01270443\H,0,0.84688345,2.0289
 6517,2.64500493\H,0,-0.69345824,2.84224623,2.93178871\H,0,-0.0959132,1
 .62767695,4.06903376\H,0,-1.6315283,-2.68707298,-0.42551748\H,0,-2.160
 71003,-0.99455098,-0.33772126\H,0,-0.82792688,-1.56820235,0.69919011\H

 Normal termination of Gaussian 16 at Wed Apr  9 19:36:29 2025.
