 Gaussian 16, Revision C.01,

 ----------------------------------------------------------------------
 #t hf aug-cc-pvdz symm=none int=(grid=ultrafine) guess=(read,tcheck) s
 table=(opt,rrhf)
 ----------------------------------------------------------------------
 -----
 title
 -----
 Symbolic Z-matrix:
 Charge =  0 Multiplicity = 1

 SCF Done:  E(RHF) =  -742.485361670     A.U. after   14 cycles
 Normal termination of Gaussian 16 at Wed Apr  9 19:37:42 2025.
 Gaussian 16:  ES64L-G16RevC.01  3-Jul-2019

 ----------------------------------------------------------------------
 #t hf aug-cc-pvdz iop(5/13=1,5/36=2,99/5=2) pseudo=read geom=check gue
 ss=(read,tcheck) scf=(maxcycle=1)
 ----------------------------------------------------------------------
 -----
 title
 -----
 Structure from the checkpoint file:  "HB300SPXx10_1135_4.17_1.00_aceticacid_thioacetone_dimer_mol1.chk"
 Charge =  0 Multiplicity = 1

                         Standard orientation:
 ---------------------------------------------------------------------
 Center     Atomic      Atomic             Coordinates (Angstroms)
 Number     Number       Type             X           Y           Z
 ---------------------------------------------------------------------
      1          6           0       -1.885506    1.604415    0.000000
      2          8           0       -2.186388    0.434257    0.000000
      3          8           0       -0.620692    2.042613    0.000000
      4          1           0        0.000000    1.278755    0.000000
      5          6           0       -2.871085    2.740717    0.000000
      6          1           0       -3.882709    2.350490    0.000000
      7          1           0       -2.711335    3.366623    0.876954
      8          1           0       -2.711335    3.366623   -0.876954
      9          1           0        3.472001   -2.342980    0.000000
     10          1           0        2.321550   -3.379107    0.874412
     11          1           0        2.321550   -3.379107   -0.874412
     12          1           0       -0.703357   -1.301822    0.000000
     13          1           0       -0.160434   -2.753507   -0.872921
     14          6           0        2.462254   -2.738899    0.000000
     15          6           0        1.430750   -1.653056    0.000000
     16         16           0        1.861584   -0.080093    0.000000
     17          6           0        0.011222   -2.117499    0.000000
     18          1           0       -0.160434   -2.753507    0.872921
 ---------------------------------------------------------------------

 SCF Done:  E(RHF) =  -744.280982768     A.U. after    2 cycles

 The electronic state is 1-A'.
 Alpha  occ. eigenvalues --  -75.67005 -21.09538 -21.03831 -13.16545 -13.07422
 Alpha  occ. eigenvalues --  -12.98506 -11.51254 -11.48616 -11.40521 -11.38890
 Alpha  occ. eigenvalues --  -11.38740  -8.01307  -1.81075  -1.63870  -1.29042
 Alpha  occ. eigenvalues --   -1.10271  -1.05236  -1.03769  -0.79178  -0.75550
 Alpha  occ. eigenvalues --   -0.63653  -0.61770  -0.60994  -0.60987  -0.60171
 Alpha  occ. eigenvalues --   -0.59265  -0.55387  -0.53540  -0.50621  -0.48762
 Alpha  occ. eigenvalues --   -0.44518  -0.41797  -0.33001  -0.32014  -0.28813
 Alpha  occ. eigenvalues --   -0.23040
 Alpha virt. eigenvalues --    0.02669   0.04314   0.05343   0.05772   0.06635
 Alpha virt. eigenvalues --    0.06639   0.06851   0.07454   0.07556   0.08151
 Alpha virt. eigenvalues --    0.08462   0.09145   0.12204   0.12818   0.13582

 Mulliken charges:
               1
     1  C    5.880245
     2  O   -3.328779
     3  O   -3.528758
     4  H    1.707730
     5  C   -4.433894
     6  H    1.315376
     7  H    1.238930
     8  H    1.238930
     9  H    1.455656
    10  H    1.201996
    11  H    1.201996
    12  H    1.960760
    13  H    1.110552
    14  C   -4.502878
    15  C    0.481065
    16  S    0.723136
    17  C   -4.832614
    18  H    1.110552
 Sum of Mulliken charges =   0.00000

 Dipole moment (field-independent basis, Debye):
    X=              1.1216    Y=              0.4003    Z=              0.0000  Tot=              1.1909

 Test job not archived.
 1\1\GINC-SE138\SP\RHF\Aug-CC-pVDZ\C5H10O2S1\OHZDE\09-Apr-2025\0\\#t hf
  aug-cc-pvdz iop(5/13=1,5/36=2,99/5=2) pseudo=read geom=check guess=(r
 ead,tcheck) scf=(maxcycle=1)\\title\\0,1\C,0,0.15920132,2.45664609,0.\
 O,0,1.21885316,1.87618237,0.\O,0,-1.02533188,1.83322707,0.\H,0,-0.8922
 641,0.85801947,0.\C,0,0.00380934,3.95277518,0.\H,0,0.98023034,4.424223
 4,0.\H,0,-0.56217465,4.2641268,-0.87695442\H,0,-0.56217465,4.2641268,0
 .87695442\H,0,-0.62305952,-4.15189936,0.\H,0,0.9196306,-4.02074254,-0.
 87441231\H,0,0.9196306,-4.02074254,0.87441231\H,0,1.47183186,-0.393036

 Normal termination of Gaussian 16 at Wed Apr  9 19:37:48 2025.
