 Gaussian 16, Revision C.01,

 ----------------------------------------------------------------------
 #t hf aug-cc-pvdz symm=none int=(grid=ultrafine) guess=(read,tcheck) s
 table=(opt,rrhf)
 ----------------------------------------------------------------------
 -----
 title
 -----
 Symbolic Z-matrix:
 Charge =  0 Multiplicity = 1

 SCF Done:  E(RHF) =  -1334.38143839     A.U. after   13 cycles
 Normal termination of Gaussian 16 at Wed Apr  9 04:10:32 2025.
 Gaussian 16:  ES64L-G16RevC.01  3-Jul-2019

 ----------------------------------------------------------------------
 #t hf aug-cc-pvdz iop(5/13=1,5/36=2,99/5=2) pseudo=read geom=check gue
 ss=(read,tcheck) scf=(maxcycle=1)
 ----------------------------------------------------------------------
 -----
 title
 -----
 Structure from the checkpoint file:  "HB300SPXx10_1311_4.36_0.80_hydrogenchloride_dimethyldisulfide_dimer_mol1.chk"
 Charge =  0 Multiplicity = 1

                         Standard orientation:
 ---------------------------------------------------------------------
 Center     Atomic      Atomic             Coordinates (Angstroms)
 Number     Number       Type             X           Y           Z
 ---------------------------------------------------------------------
      1          1           0       -1.484257   -0.185541    0.399754
      2         17           0       -2.622680   -0.588103   -0.096982
      3          1           0        3.518151   -1.072888   -0.526981
      4          1           0        3.181045   -0.138855    0.946090
      5          1           0        3.035767    0.627754   -0.659440
      6          1           0       -0.750194    1.323473   -1.414043
      7          1           0        0.728292    2.226863   -0.976546
      8          1           0       -0.809786    2.588868   -0.167140
      9          6           0        2.900228   -0.288597   -0.092029
     10         16           0        1.184408   -0.883855   -0.209223
     11         16           0        0.126189    0.605747    0.724995
     12          6           0       -0.200730    1.801566   -0.608862
 ---------------------------------------------------------------------

 SCF Done:  E(RHF) =  -1335.52095526     A.U. after    2 cycles

 The electronic state is 1-A.
 Alpha  occ. eigenvalues --  -99.85517 -75.72399 -75.71705 -13.18029 -13.16169
 Alpha  occ. eigenvalues --  -13.13485 -13.11874 -13.09718 -13.05267 -11.41531
 Alpha  occ. eigenvalues --  -11.41373 -10.42854  -9.63035  -9.62158  -9.62098
 Alpha  occ. eigenvalues --   -8.06666  -8.05748  -1.30265  -1.25562  -1.14636
 Alpha  occ. eigenvalues --   -1.00174  -0.89324  -0.68946  -0.61916  -0.60924
 Alpha  occ. eigenvalues --   -0.60658  -0.60056  -0.49752  -0.48925  -0.48223
 Alpha  occ. eigenvalues --   -0.44922  -0.35753  -0.27816  -0.25639
 Alpha virt. eigenvalues --    0.02009   0.03106   0.04304   0.05238   0.06894
 Alpha virt. eigenvalues --    0.07302   0.08118   0.08507   0.09690   0.11487
 Alpha virt. eigenvalues --    0.12123   0.12471   0.14257   0.14575   0.14743

 Mulliken charges:
               1
     1  H    1.540011
     2  Cl  -0.879593
     3  H    1.331105
     4  H    1.513782
     5  H    1.520643
     6  H    1.330419
     7  H    1.538817
     8  H    1.345388
     9  C   -4.755699
    10  S    0.700612
    11  S   -1.064466
    12  C   -4.121019
 Sum of Mulliken charges =  -0.00000

 Dipole moment (field-independent basis, Debye):
    X=              3.5199    Y=              0.6843    Z=              0.6288  Tot=              3.6405

 Test job not archived.
 1\1\GINC-SE116\SP\RHF\Aug-CC-pVDZ\C2H7Cl1S2\OHZDE\09-Apr-2025\0\\#t hf
  aug-cc-pvdz iop(5/13=1,5/36=2,99/5=2) pseudo=read geom=check guess=(r
 ead,tcheck) scf=(maxcycle=1)\\title\\0,1\H,0,-0.26068265,0.62653872,-1
 .61580209\Cl,0,0.10581098,1.51670262,-2.49790267\H,0,1.93699099,-1.798
 77285,2.37899437\H,0,0.3386524,-2.41736872,1.91139591\H,0,0.48386582,-
 0.87071252,2.7907656\H,0,-0.45925239,2.07398723,0.37700918\H,0,-1.1487
 0239,1.19900195,1.77432687\H,0,-2.16587444,1.57707249,0.36923164\C,0,0
 .93693428,-1.52169194,2.04848456\S,0,1.15856779,-0.65394795,0.46418564

 Normal termination of Gaussian 16 at Wed Apr  9 04:10:37 2025.
