 Gaussian 16, Revision C.01,

 ----------------------------------------------------------------------
 #t hf aug-cc-pvdz symm=none int=(grid=ultrafine) guess=(read,tcheck) s
 table=(opt,rrhf)
 ----------------------------------------------------------------------
 -----
 title
 -----
 Symbolic Z-matrix:
 Charge =  0 Multiplicity = 1

 SCF Done:  E(RHF) =  -800.719633341     A.U. after   14 cycles
 Normal termination of Gaussian 16 at Wed Apr  9 19:39:21 2025.
 Gaussian 16:  ES64L-G16RevC.01  3-Jul-2019

 ----------------------------------------------------------------------
 #t hf aug-cc-pvdz iop(5/13=1,5/36=2,99/5=2) pseudo=read geom=check gue
 ss=(read,tcheck) scf=(maxcycle=1)
 ----------------------------------------------------------------------
 -----
 title
 -----
 Structure from the checkpoint file:  "HB300SPXx10_1103_4.14_0.90_Nmethylacetamide_tetrahydrothiophene_dimer_mol1.chk"
 Charge =  0 Multiplicity = 1

                         Standard orientation:
 ---------------------------------------------------------------------
 Center     Atomic      Atomic             Coordinates (Angstroms)
 Number     Number       Type             X           Y           Z
 ---------------------------------------------------------------------
      1          6           0       -2.262946   -1.654332   -0.148460
      2          1           0       -2.189778   -2.143024    0.821793
      3          1           0       -1.422912   -1.953767   -0.771810
      4          1           0       -3.188370   -1.990647   -0.612059
      5          6           0       -2.348420   -0.156156    0.065248
      6          8           0       -3.245972    0.348368    0.720150
      7          7           0       -1.370592    0.572128   -0.531099
      8          1           0       -0.597814    0.087047   -0.965346
      9          6           0       -1.300284    2.011332   -0.396059
     10          1           0       -2.306511    2.405217   -0.286448
     11          1           0       -0.723359    2.315866    0.481258
     12          1           0       -0.840150    2.439424   -1.284227
     13          1           0        1.409534    1.636579   -0.840597
     14          1           0        3.032486    1.068315   -1.239065
     15          1           0        2.519992    1.817093    1.293315
     16          1           0        2.062631   -2.024013    0.915290
     17          1           0        3.454127    0.351536    1.011417
     18          1           0        0.314754   -1.800394    0.790702
     19          1           0        1.639242   -0.285232    2.554981
     20          1           0        0.445717    0.489031    1.517976
     21         16           0        1.473414   -0.777108   -1.073190
     22          6           0        2.155934    0.874750   -0.627235
     23          6           0        2.477763    0.815583    0.865496
     24          6           0        1.397062   -0.043120    1.520318
     25          6           0        1.277174   -1.309915    0.677417
 ---------------------------------------------------------------------

 SCF Done:  E(RHF) =  -802.908430667     A.U. after    2 cycles

 The electronic state is 1-A.
 Alpha  occ. eigenvalues --  -75.68068 -21.00385 -15.74111 -13.14200 -13.13546
 Alpha  occ. eigenvalues --  -13.11621 -11.48714 -11.45536 -11.44307 -11.40510
 Alpha  occ. eigenvalues --  -11.39445 -11.38339 -11.37585  -8.02188  -1.68812
 Alpha  occ. eigenvalues --   -1.38086  -1.33673  -1.10513  -1.08855  -1.08519
 Alpha  occ. eigenvalues --   -0.98397  -0.86146  -0.84361  -0.78243  -0.67915
 Alpha  occ. eigenvalues --   -0.67230  -0.66662  -0.62761  -0.61951  -0.60917
 Alpha  occ. eigenvalues --   -0.57862  -0.55361  -0.54596  -0.51466  -0.50018
 Alpha  occ. eigenvalues --   -0.48042  -0.46777  -0.46298  -0.45262  -0.43463
 Alpha  occ. eigenvalues --   -0.36347  -0.29703  -0.27213  -0.23655
 Alpha virt. eigenvalues --    0.03294   0.03839   0.04539   0.05031   0.05101
 Alpha virt. eigenvalues --    0.05516   0.06072   0.06237   0.06981   0.07134
 Alpha virt. eigenvalues --    0.08236   0.08600   0.09255   0.09762   0.10625

 Mulliken charges:
               1
     1  C   -4.887447
     2  H    1.336069
     3  H    1.629249
     4  H    1.073565
     5  C    5.593070
     6  O   -3.523431
     7  N   -2.776022
     8  H    1.598822
     9  C   -4.008735
    10  H    1.364762
    11  H    1.684495
    12  H    1.478149
    13  H    1.975082
    14  H    1.340835
    15  H    1.307131
    16  H    1.308134
    17  H    1.502542
    18  H    2.046620
    19  H    1.288596
    20  H    2.187540
    21  S    0.094817
    22  C   -3.637039
    23  C   -3.084993
    24  C   -3.133426
    25  C   -3.758385
 Sum of Mulliken charges =   0.00000

 Dipole moment (field-independent basis, Debye):
    X=              3.0916    Y=             -0.2350    Z=             -1.0105  Tot=              3.2610

 Test job not archived.
 1\1\GINC-SE036\SP\RHF\Aug-CC-pVDZ\C7H15N1O1S1\OHZDE\09-Apr-2025\0\\#t
 hf aug-cc-pvdz iop(5/13=1,5/36=2,99/5=2) pseudo=read geom=check guess=
 (read,tcheck) scf=(maxcycle=1)\\title\\0,1\C,0,-2.35790997,-0.53076315
 ,1.51380969\H,0,-2.45888814,0.43106478,2.01406411\H,0,-1.4356415,-1.01
 232631,1.83224394\H,0,-3.20368729,-1.14467685,1.81747472\C,0,-2.435185
 38,-0.3119418,0.01592702\O,0,-3.41358688,0.19433185,-0.50891479\N,0,-1
 .3525984,-0.72916607,-0.68842032\H,0,-0.53292762,-1.03795931,-0.184588
 74\C,0,-1.26500492,-0.56327277,-2.12344447\H,0,-2.26409386,-0.61429593

 Normal termination of Gaussian 16 at Wed Apr  9 19:39:39 2025.
