 Gaussian 16, Revision C.01,

 ----------------------------------------------------------------------
 #t hf aug-cc-pvdz symm=none int=(grid=ultrafine) guess=(read,tcheck) s
 table=(opt,rrhf)
 ----------------------------------------------------------------------
 -----
 title
 -----
 Symbolic Z-matrix:
 Charge =  0 Multiplicity = 1

 SCF Done:  E(RHF) =  -855.907877813     A.U. after   14 cycles
 Normal termination of Gaussian 16 at Wed Apr  9 19:34:56 2025.
 Gaussian 16:  ES64L-G16RevC.01  3-Jul-2019

 ----------------------------------------------------------------------
 #t hf aug-cc-pvdz iop(5/13=1,5/36=2,99/5=2) pseudo=read geom=check gue
 ss=(read,tcheck) scf=(maxcycle=1)
 ----------------------------------------------------------------------
 -----
 title
 -----
 Structure from the checkpoint file:  "HB300SPXx10_1034_4.07_0.95_phosphaalkyne_methanethiol_dimer_mol1.chk"
 Charge =  0 Multiplicity = 1

                         Standard orientation:
 ---------------------------------------------------------------------
 Center     Atomic      Atomic             Coordinates (Angstroms)
 Number     Number       Type             X           Y           Z
 ---------------------------------------------------------------------
      1          1           0       -1.318788    2.142833    1.269763
      2          1           0       -1.582514    2.488728   -0.441719
      3          1           0       -0.016674    1.872545    0.099215
      4         15           0       -2.017693   -1.010135   -0.169797
      5          6           0       -1.551131    0.441325    0.050194
      6          6           0       -1.095891    1.804899    0.256075
      7          1           0        0.878058   -0.205585    1.524320
      8          1           0        2.635440   -0.400572    1.641848
      9          1           0        1.648404   -1.713084    0.983414
     10          1           0        0.850726   -0.257306   -1.123909
     11          6           0        1.754997   -0.634388    1.049177
     12         16           0        2.032681    0.097091   -0.596166
 ---------------------------------------------------------------------

 SCF Done:  E(RHF) =  -856.937037595     A.U. after    2 cycles

 The electronic state is 1-A.
 Alpha  occ. eigenvalues -- -105.17109 -75.68011 -13.11845 -13.07268 -13.04435
 Alpha  occ. eigenvalues --  -11.45410 -11.40445 -11.39460  -8.01919  -2.75395
 Alpha  occ. eigenvalues --   -1.56965  -1.35854  -1.34986  -1.18175  -1.14115
 Alpha  occ. eigenvalues --   -0.93932  -0.78355  -0.60412  -0.59916  -0.59221
 Alpha  occ. eigenvalues --   -0.59049  -0.57940  -0.48927  -0.39162  -0.23823
 Alpha  occ. eigenvalues --   -0.16535  -0.16358  -0.06856
 Alpha virt. eigenvalues --    0.02951   0.04142   0.05801   0.05912   0.06553
 Alpha virt. eigenvalues --    0.07605   0.08122   0.08574   0.08680   0.09926
 Alpha virt. eigenvalues --    0.11507   0.12859   0.13196   0.14606   0.14767

 Mulliken charges:
               1
     1  H    1.243992
     2  H    1.128228
     3  H    1.521505
     4  P    4.872552
     5  C   -3.969150
     6  C   -4.654967
     7  H    1.579726
     8  H    1.417168
     9  H    1.306506
    10  H    0.939678
    11  C   -4.663494
    12  S   -0.721744
 Sum of Mulliken charges =  -0.00000

 Dipole moment (field-independent basis, Debye):
    X=             -2.8727    Y=             -9.8206    Z=             -1.1528  Tot=             10.2968

 Test job not archived.
 1\1\GINC-SE220\SP\RHF\Aug-CC-pVDZ\C3H7P1S1\OHZDE\09-Apr-2025\0\\#t hf
 aug-cc-pvdz iop(5/13=1,5/36=2,99/5=2) pseudo=read geom=check guess=(re
 ad,tcheck) scf=(maxcycle=1)\\title\\0,1\H,0,0.38933231,2.34404549,-1.6
 8180664\H,0,-1.19987448,1.75919838,-2.18254684\H,0,0.10218747,0.605834
 91,-1.86864837\P,0,-1.17058474,1.34195856,1.32892267\C,0,-0.7484701,1.
 45533882,-0.14816129\C,0,-0.34350289,1.5476729,-1.53972175\H,0,1.80447
 195,0.0766849,0.12441975\H,0,2.84789807,-1.34272113,-0.06734599\H,0,1.
 77531515,-1.22434948,1.33480193\H,0,-0.44482784,-1.29108872,-0.1694924

 Normal termination of Gaussian 16 at Wed Apr  9 19:34:59 2025.
