 Gaussian 16, Revision C.01,

 ----------------------------------------------------------------------
 #t hf aug-cc-pvdz symm=none int=(grid=ultrafine) guess=(read,tcheck) s
 table=(opt,rrhf)
 ----------------------------------------------------------------------
 -----
 title
 -----
 Symbolic Z-matrix:
 Charge =  0 Multiplicity = 1

 SCF Done:  E(RHF) =  -858.791021812     A.U. after   11 cycles

 1\1\GINC-SE115\Stability\RHF\Aug-CC-pVDZ\Cl1H3S1\OHZDE\09-Apr-2025\0\\
 #t hf aug-cc-pvdz symm=none int=(grid=ultrafine) guess=(read,tcheck) s
 table=(opt,rrhf)\\title\\0,1\H,0,-0.07574771,0.51696812,0.\Cl,0,0.0020
 5903,1.81286821,0.\H,0,0.86945259,-1.81115562,0.97032462\H,0,0.8694525
 9,-1.81115562,-0.97032462\S,0,-0.05579452,-1.75764019,0.\\Version=ES64
 L-G16RevC.01\HF=-858.7910218\RMSD=3.722e-09\Dipole=0.4287412,-0.916658
 3,0.\Quadrupole=0.5708178,-2.0925338,1.5217161,-1.7364232,0.,0.\PG=Unk
 nown\\@

 Normal termination of Gaussian 16 at Wed Apr  9 19:38:50 2025.
 Gaussian 16:  ES64L-G16RevC.01  3-Jul-2019

 ----------------------------------------------------------------------
 #t hf aug-cc-pvdz iop(5/13=1,5/36=2,99/5=2) pseudo=read geom=check gue
 ss=(read,tcheck) scf=(maxcycle=1)
 ----------------------------------------------------------------------
 -----
 title
 -----
 Structure from the checkpoint file:  "HB300SPXx10_1354_4.40_0.95_hydrogenchloride_sulfane_dimer_mol1.chk"
 Charge =  0 Multiplicity = 1

                         Standard orientation:
 ---------------------------------------------------------------------
 Center     Atomic      Atomic             Coordinates (Angstroms)
 Number     Number       Type             X           Y           Z
 ---------------------------------------------------------------------
      1          1           0       -0.106668    0.526665   -0.000000
      2         17           0       -0.049866    1.823656   -0.000000
      3          1           0        0.876126   -1.785840    0.970325
      4          1           0        0.876126   -1.785840   -0.970325
      5         16           0       -0.049866   -1.747321    0.000000
 ---------------------------------------------------------------------

 SCF Done:  E(RHF) =  -859.285620919     A.U. after    2 cycles

 The electronic state is 1-A'.
 Alpha  occ. eigenvalues --  -99.88521 -75.72727 -13.17563 -13.14154 -13.09919
 Alpha  occ. eigenvalues --  -10.45680  -9.65805  -9.64881  -9.64880  -8.06508
 Alpha  occ. eigenvalues --   -1.28377  -1.14172  -0.67964  -0.57396  -0.50800
 Alpha  occ. eigenvalues --   -0.50782  -0.46160  -0.29557
 Alpha virt. eigenvalues --    0.01338   0.05626   0.06043   0.09656   0.10128
 Alpha virt. eigenvalues --    0.10523   0.13518   0.15023   0.15118   0.15742
 Alpha virt. eigenvalues --    0.20958   0.22470   0.23418   0.23850   0.24158

 Mulliken charges:
               1
     1  H    0.953962
     2  Cl  -0.705921
     3  H    1.086265
     4  H    1.086265
     5  S   -2.420572
 Sum of Mulliken charges =   0.00000

 Dipole moment (field-independent basis, Debye):
    X=             -1.0842    Y=             -2.5169    Z=             -0.0000  Tot=              2.7405

 Test job not archived.
 1\1\GINC-SE115\SP\RHF\Aug-CC-pVDZ\Cl1H3S1\OHZDE\09-Apr-2025\0\\#t hf a
 ug-cc-pvdz iop(5/13=1,5/36=2,99/5=2) pseudo=read geom=check guess=(rea
 d,tcheck) scf=(maxcycle=1)\\title\\0,1\H,0,-0.07574771,0.51696812,0.\C
 l,0,0.00205903,1.81286821,0.\H,0,0.86945259,-1.81115562,0.97032462\H,0
 ,0.86945259,-1.81115562,-0.97032462\S,0,-0.05579452,-1.75764019,0.\\Ve
 rsion=ES64L-G16RevC.01\State=1-A'\HF=-859.2856209\RMSD=1.022e-01\Dipol
 e=-0.4425498,-0.983173,0.\Quadrupole=0.0130847,-1.0229022,1.0098175,1.
 2225035,0.,0.\PG=CS [SG(Cl1H1S1),X(H2)]\\@

 Normal termination of Gaussian 16 at Wed Apr  9 19:38:52 2025.
