 Gaussian 16, Revision C.01,

 ----------------------------------------------------------------------
 #t hf aug-cc-pvdz symm=none int=(grid=ultrafine) guess=(read,tcheck) s
 table=(opt,rrhf)
 ----------------------------------------------------------------------
 -----
 title
 -----
 Symbolic Z-matrix:
 Charge =  0 Multiplicity = 1

 SCF Done:  E(RHF) =  -1017.02800497     A.U. after   12 cycles
 Normal termination of Gaussian 16 at Wed Apr  9 19:41:04 2025.
 Gaussian 16:  ES64L-G16RevC.01  3-Jul-2019

 ----------------------------------------------------------------------
 #t hf aug-cc-pvdz iop(5/13=1,5/36=2,99/5=2) pseudo=read geom=check gue
 ss=(read,tcheck) scf=(maxcycle=1)
 ----------------------------------------------------------------------
 -----
 title
 -----
 Structure from the checkpoint file:  "HB300SPXx10_1387_5.01_1.10_dimethylsulfide_phosphineF2_dimer_mol1.chk"
 Charge =  0 Multiplicity = 1

                         Standard orientation:
 ---------------------------------------------------------------------
 Center     Atomic      Atomic             Coordinates (Angstroms)
 Number     Number       Type             X           Y           Z
 ---------------------------------------------------------------------
      1          1           0       -0.776637    0.823137    1.424692
      2          1           0       -2.489167    1.317527    1.438482
      3          1           0       -1.296927    2.245231    0.511132
      4          1           0       -2.458975   -2.035192   -0.694452
      5          1           0       -3.149146   -1.257516    0.737579
      6          1           0       -1.420365   -1.686271    0.699223
      7          6           0       -1.585438    1.248843    0.835716
      8         16           0       -1.880535    0.265758   -0.656146
      9          6           0       -2.262751   -1.330310    0.109958
     10         15           0        2.228993   -0.333620   -0.346259
     11          9           0        1.412691   -0.953494    0.884578
     12          9           0        1.937331    1.214090   -0.084467
     13          1           0        1.183807   -0.511304   -1.299480
 ---------------------------------------------------------------------

 SCF Done:  E(RHF) =  -1018.55194246     A.U. after    2 cycles

 The electronic state is 1-A.
 Alpha  occ. eigenvalues -- -105.29434 -75.66869 -29.29445 -29.29399 -13.08968
 Alpha  occ. eigenvalues --  -13.06532 -13.01980 -11.38859 -11.38588  -8.00968
 Alpha  occ. eigenvalues --   -2.88925  -1.63835  -1.59234  -1.53168  -1.22062
 Alpha  occ. eigenvalues --   -1.02673  -0.90532  -0.87646  -0.59799  -0.59596
 Alpha  occ. eigenvalues --   -0.57577  -0.56848  -0.56315  -0.46767  -0.44025
 Alpha  occ. eigenvalues --   -0.40826  -0.36927  -0.35897  -0.35046  -0.29288
 Alpha  occ. eigenvalues --   -0.26209  -0.20980  -0.19477  -0.00598
 Alpha virt. eigenvalues --    0.03790   0.04350   0.05742   0.07204   0.07540
 Alpha virt. eigenvalues --    0.07765   0.08397   0.09572   0.10160   0.10628
 Alpha virt. eigenvalues --    0.12883   0.14097   0.15250   0.16071   0.16566

 Mulliken charges:
               1
     1  H    1.485653
     2  H    1.389369
     3  H    1.390031
     4  H    1.411805
     5  H    1.371881
     6  H    1.392166
     7  C   -4.640884
     8  S    1.040342
     9  C   -4.752641
    10  P    2.039282
    11  F   -0.539005
    12  F   -0.453060
    13  H   -1.134940
 Sum of Mulliken charges =   0.00000

 Dipole moment (field-independent basis, Debye):
    X=             -4.2929    Y=              3.0919    Z=              3.4729  Tot=              6.3285

 Test job not archived.
 1\1\GINC-SE026\SP\RHF\Aug-CC-pVDZ\C2H7F2P1S1\OHZDE\09-Apr-2025\0\\#t h
 f aug-cc-pvdz iop(5/13=1,5/36=2,99/5=2) pseudo=read geom=check guess=(
 read,tcheck) scf=(maxcycle=1)\\title\\0,1\H,0,0.35324965,2.18742239,-0
 .72380577\H,0,0.23256961,2.54349189,-2.46622469\H,0,1.47961489,1.43776
 879,-1.86264863\H,0,-2.97879656,0.33269977,-1.6977403\H,0,-2.43534977,
 1.89515642,-2.32640837\H,0,-2.24831697,1.5140911,-0.59615001\C,0,0.456
 3691,1.7777672,-1.72571744\S,0,-0.61885679,0.337269,-1.94490696\C,0,-2
 .22218849,1.10820804,-1.60517522\P,0,0.23375241,-0.16100516,2.10086604

 Normal termination of Gaussian 16 at Wed Apr  9 19:41:08 2025.
