 Gaussian 16, Revision C.01,

 ----------------------------------------------------------------------
 #t hf aug-cc-pvdz symm=none int=(grid=ultrafine) guess=(read,tcheck) s
 table=(opt,rrhf)
 ----------------------------------------------------------------------
 -----
 title
 -----
 Symbolic Z-matrix:
 Charge =  0 Multiplicity = 1

 SCF Done:  E(RHF) =  -591.459801099     A.U. after   13 cycles
 Normal termination of Gaussian 16 at Wed Apr  9 19:35:07 2025.
 Gaussian 16:  ES64L-G16RevC.01  3-Jul-2019

 ----------------------------------------------------------------------
 #t hf aug-cc-pvdz iop(5/13=1,5/36=2,99/5=2) pseudo=read geom=check gue
 ss=(read,tcheck) scf=(maxcycle=1)
 ----------------------------------------------------------------------
 -----
 title
 -----
 Structure from the checkpoint file:  "HB300SPXx10_1015_4.05_1.00_ethyne_thioacetone_dimer_mol1.chk"
 Charge =  0 Multiplicity = 1

                         Standard orientation:
 ---------------------------------------------------------------------
 Center     Atomic      Atomic             Coordinates (Angstroms)
 Number     Number       Type             X           Y           Z
 ---------------------------------------------------------------------
      1          6           0        0.237950   -2.967519    0.000000
      2          1           0       -0.417443   -2.125350    0.000000
      3          6           0        0.990294   -3.898151    0.000000
      4          1           0        1.651800   -4.727883    0.000000
      5          1           0       -1.034107    3.223906    0.000000
      6          1           0        0.513455    3.212920    0.874719
      7          1           0        0.513455    3.212920   -0.874719
      8          1           0        1.338574   -0.358505    0.000000
      9          1           0        1.925139    1.070742   -0.874314
     10          6           0       -0.021856    2.834691    0.000000
     11          6           0       -0.000000    1.336201    0.000000
     12         16           0       -1.366239    0.452450    0.000000
     13          6           0        1.367583    0.724997    0.000000
     14          1           0        1.925139    1.070742    0.874314
 ---------------------------------------------------------------------

 SCF Done:  E(RHF) =  -592.651780481     A.U. after    2 cycles

 The electronic state is 1-A'.
 Alpha  occ. eigenvalues --  -75.66635 -13.16102 -13.05646 -12.98051 -11.48226
 Alpha  occ. eigenvalues --  -11.40749 -11.40373 -11.40134 -11.39053  -8.00894
 Alpha  occ. eigenvalues --   -1.28871  -1.08779  -1.04953  -1.03973  -0.77709
 Alpha  occ. eigenvalues --   -0.75588  -0.64904  -0.61943  -0.61445  -0.60482
 Alpha  occ. eigenvalues --   -0.55743  -0.50913  -0.42191  -0.38069  -0.37957
 Alpha  occ. eigenvalues --   -0.32616  -0.22604
 Alpha virt. eigenvalues --    0.02452   0.04096   0.05362   0.05736   0.06377
 Alpha virt. eigenvalues --    0.06628   0.07274   0.08151   0.08375   0.09347
 Alpha virt. eigenvalues --    0.10326   0.12410   0.12429   0.13750   0.13952

 Mulliken charges:
               1
     1  C   -0.214182
     2  H    0.777523
     3  C   -0.997749
     4  H    0.581974
     5  H    1.456517
     6  H    1.203393
     7  H    1.203393
     8  H    1.632377
     9  H    1.151730
    10  C   -4.455115
    11  C    0.404172
    12  S    0.778064
    13  C   -4.673826
    14  H    1.151730
 Sum of Mulliken charges =   0.00000

 Dipole moment (field-independent basis, Debye):
    X=             -0.0406    Y=              0.6403    Z=              0.0000  Tot=              0.6416

 Test job not archived.
 1\1\GINC-SE207\SP\RHF\Aug-CC-pVDZ\C5H8S1\OHZDE\09-Apr-2025\0\\#t hf au
 g-cc-pvdz iop(5/13=1,5/36=2,99/5=2) pseudo=read geom=check guess=(read
 ,tcheck) scf=(maxcycle=1)\\title\\0,1\C,0,-0.20751211,-2.93011645,0.\H
 ,0,-0.70775465,-1.98748922,0.\C,0,0.37296237,-3.97660953,0.\H,0,0.8813
 7254,-4.90804053,0.\H,0,-0.39213214,3.38793563,0.\H,0,1.13032096,3.110
 0765,0.87471889\H,0,1.13032096,3.1100765,-0.87471889\H,0,1.32679884,-0
 .55015471,0.\H,0,2.15118785,0.75643893,-0.87431367\C,0,0.53777415,2.82
 989128,0.\C,0,0.30073203,1.35010686,0.\S,0,-1.1975087,0.71536274,0.\C,

 Normal termination of Gaussian 16 at Wed Apr  9 19:35:10 2025.
