 Gaussian 16, Revision C.01,

 ----------------------------------------------------------------------
 #t hf aug-cc-pvdz symm=none int=(grid=ultrafine) guess=(read,tcheck) s
 table=(opt,rrhf)
 ----------------------------------------------------------------------
 -----
 title
 -----
 Symbolic Z-matrix:
 Charge =  0 Multiplicity = 1

 SCF Done:  E(RHF) =  -552.792417186     A.U. after   12 cycles
 Normal termination of Gaussian 16 at Wed Apr  9 19:37:49 2025.
 Gaussian 16:  ES64L-G16RevC.01  3-Jul-2019

 ----------------------------------------------------------------------
 #t hf aug-cc-pvdz iop(5/13=1,5/36=2,99/5=2) pseudo=read geom=check gue
 ss=(read,tcheck) scf=(maxcycle=1)
 ----------------------------------------------------------------------
 -----
 title
 -----
 Structure from the checkpoint file:  "HB300SPXx10_1160_4.20_2.00_methanol_methanethiol_dimer_mol1.chk"
 Charge =  0 Multiplicity = 1

                         Standard orientation:
 ---------------------------------------------------------------------
 Center     Atomic      Atomic             Coordinates (Angstroms)
 Number     Number       Type             X           Y           Z
 ---------------------------------------------------------------------
      1          8           0       -3.228169   -0.290175    0.698015
      2          1           0       -2.364495   -0.675829    0.499448
      3          6           0       -3.775286    0.213676   -0.508013
      4          1           0       -4.729441    0.675404   -0.263139
      5          1           0       -3.133732    0.974023   -0.965592
      6          1           0       -3.952971   -0.577621   -1.242067
      7          1           0        1.430295    1.351298    0.785073
      8          1           0        2.202732    1.671367   -0.774713
      9          1           0        3.207448    1.525413    0.672160
     10          1           0        2.621736   -1.052025    1.046910
     11          6           0        2.311068    1.162379    0.179279
     12         16           0        2.458068   -0.614185   -0.210612
 ---------------------------------------------------------------------

 SCF Done:  E(RHF) =  -553.760394358     A.U. after    2 cycles

 The electronic state is 1-A.
 Alpha  occ. eigenvalues --  -75.68745 -21.06603 -13.11707 -13.06855 -13.00914
 Alpha  occ. eigenvalues --  -11.40027 -11.39597  -8.02632  -1.69765  -1.18671
 Alpha  occ. eigenvalues --   -0.97218  -0.94405  -0.63555  -0.60375  -0.59499
 Alpha  occ. eigenvalues --   -0.59322  -0.53803  -0.49566  -0.41245  -0.39465
 Alpha  occ. eigenvalues --   -0.31616  -0.23953
 Alpha virt. eigenvalues --    0.02274   0.03854   0.03891   0.05604   0.06450
 Alpha virt. eigenvalues --    0.06576   0.07523   0.08753   0.10236   0.11278
 Alpha virt. eigenvalues --    0.12338   0.13782   0.14007   0.15652   0.16229

 Mulliken charges:
               1
     1  O   -2.298469
     2  H    0.868706
     3  C   -2.267709
     4  H    1.267572
     5  H    1.216477
     6  H    1.208412
     7  H    1.371698
     8  H    1.344593
     9  H    1.350540
    10  H    0.980187
    11  C   -4.565741
    12  S   -0.476264
 Sum of Mulliken charges =  -0.00000

 Dipole moment (field-independent basis, Debye):
    X=              0.3981    Y=              0.4660    Z=             -1.4766  Tot=              1.5987

 Test job not archived.
 1\1\GINC-SE056\SP\RHF\Aug-CC-pVDZ\C2H8O1S1\OHZDE\09-Apr-2025\0\\#t hf
 aug-cc-pvdz iop(5/13=1,5/36=2,99/5=2) pseudo=read geom=check guess=(re
 ad,tcheck) scf=(maxcycle=1)\\title\\0,1\O,0,-1.11765515,0.11430785,-1.
 55067005\H,0,-0.42321658,-0.33845143,-1.05382579\C,0,-0.58571066,1.330
 64039,-2.0459227\H,0,-1.38742324,1.84483596,-2.57168664\H,0,-0.2297527
 6,1.98264255,-1.24138273\H,0,0.23685112,1.16511886,-2.74774471\H,0,0.2
 3760359,-0.04706002,3.19701675\H,0,1.71242392,0.82228426,3.64554846\H,
 0,1.04938517,-0.38270457,4.75576344\H,0,1.49634409,-2.42826741,3.09968

 Normal termination of Gaussian 16 at Wed Apr  9 19:37:51 2025.
