 Gaussian 16, Revision C.01,

 ----------------------------------------------------------------------
 #t hf aug-cc-pvdz symm=none int=(grid=ultrafine) guess=(read,tcheck) s
 table=(opt,rrhf)
 ----------------------------------------------------------------------
 -----
 title
 -----
 Symbolic Z-matrix:
 Charge =  0 Multiplicity = 1

 SCF Done:  E(RHF) =  -1166.70580851     A.U. after   13 cycles
 Normal termination of Gaussian 16 at Wed Apr  9 19:41:26 2025.
 Gaussian 16:  ES64L-G16RevC.01  3-Jul-2019

 ----------------------------------------------------------------------
 #t hf aug-cc-pvdz iop(5/13=1,5/36=2,99/5=2) pseudo=read geom=check gue
 ss=(read,tcheck) scf=(maxcycle=1)
 ----------------------------------------------------------------------
 -----
 title
 -----
 Structure from the checkpoint file:  "HB300SPXx10_1395_5.02_1.00_dimethylsulfone_phosphineF2_dimer_mol1.chk"
 Charge =  0 Multiplicity = 1

                         Standard orientation:
 ---------------------------------------------------------------------
 Center     Atomic      Atomic             Coordinates (Angstroms)
 Number     Number       Type             X           Y           Z
 ---------------------------------------------------------------------
      1          1           0        2.230702    0.506378    2.088517
      2          1           0        1.410112   -1.075311    2.026276
      3          1           0        0.452595    0.419921    1.844255
      4          1           0        0.612526    1.919855   -0.435507
      5          1           0        1.732428    1.466423   -1.750042
      6          1           0        2.390578    2.074551   -0.209675
      7          8           0        2.988342   -0.687230   -0.345347
      8         16           0        1.662110   -0.180876   -0.108349
      9          8           0        0.528245   -0.884871   -0.670430
     10          6           0        1.409818   -0.054748    1.651772
     11          6           0        1.588379    1.507711   -0.673194
     12         15           0       -2.154025   -0.458196   -0.033290
     13          9           0       -3.700149   -0.030611   -0.087030
     14          9           0       -1.555294    0.992347    0.348934
     15          1           0       -1.935224   -0.341449   -1.433283
 ---------------------------------------------------------------------

 SCF Done:  E(RHF) =  -1168.88901556     A.U. after    2 cycles

 The electronic state is 1-A.
 Alpha  occ. eigenvalues -- -105.28860 -75.88738 -29.28955 -29.28049 -21.04796
 Alpha  occ. eigenvalues --  -21.04590 -13.51777 -13.41521 -13.34098 -11.43905
 Alpha  occ. eigenvalues --  -11.42368  -8.24167  -2.87956  -1.84236  -1.65771
 Alpha  occ. eigenvalues --   -1.61876  -1.58771  -1.52489  -1.20080  -1.09720
 Alpha  occ. eigenvalues --   -0.89974  -0.87809  -0.66013  -0.65684  -0.65370
 Alpha  occ. eigenvalues --   -0.62652  -0.56370  -0.56111  -0.55498  -0.46827
 Alpha  occ. eigenvalues --   -0.44147  -0.41572  -0.40136  -0.38787  -0.37603
 Alpha  occ. eigenvalues --   -0.36604  -0.35515  -0.34072  -0.27691  -0.25129
 Alpha  occ. eigenvalues --   -0.19619   0.00391
 Alpha virt. eigenvalues --    0.02906   0.04530   0.05278   0.06451   0.06825
 Alpha virt. eigenvalues --    0.07147   0.07904   0.09899   0.10838   0.12520
 Alpha virt. eigenvalues --    0.13043   0.13562   0.14348   0.14659   0.15139

 Mulliken charges:
               1
     1  H    1.272147
     2  H    0.922659
     3  H    1.105611
     4  H    1.305071
     5  H    1.405408
     6  H    1.245675
     7  O   -2.440973
     8  S    6.157845
     9  O   -2.348637
    10  C   -4.335711
    11  C   -4.420271
    12  P    2.008631
    13  F   -0.116929
    14  F   -0.668618
    15  H   -1.091908
 Sum of Mulliken charges =  -0.00000

 Dipole moment (field-independent basis, Debye):
    X=             -3.6022    Y=              5.7373    Z=             -2.0234  Tot=              7.0701

 Test job not archived.
 1\1\GINC-SE100\SP\RHF\Aug-CC-pVDZ\C2H7F2O2P1S1\OHZDE\09-Apr-2025\0\\#t
  hf aug-cc-pvdz iop(5/13=1,5/36=2,99/5=2) pseudo=read geom=check guess
 =(read,tcheck) scf=(maxcycle=1)\\title\\0,1\H,0,1.82037896,-1.1252997,
 2.45423408\H,0,2.45327614,-0.04590354,1.18406648\H,0,1.26048817,-1.302
 78481,0.75605091\H,0,-1.35656486,-1.06874241,1.510339\H,0,-1.8999986,0
 .31018714,2.5058364\H,0,-0.84910966,-0.93302114,3.2309401\O,0,0.704774
 22,1.412934,2.93921594\S,0,0.30796869,0.58975017,1.82729483\O,0,-0.016
 49706,1.22000253,0.56448154\C,0,1.58998555,-0.61149627,1.52558836\C,0,

 Normal termination of Gaussian 16 at Wed Apr  9 19:41:32 2025.
