 Gaussian 16, Revision C.01,

 ----------------------------------------------------------------------
 #t hf aug-cc-pvdz symm=none int=(grid=ultrafine) guess=(read,tcheck) s
 table=(opt,rrhf)
 ----------------------------------------------------------------------
 -----
 title
 -----
 Symbolic Z-matrix:
 Charge =  0 Multiplicity = 1

 SCF Done:  E(RHF) =  -977.985190666     A.U. after   13 cycles
 Normal termination of Gaussian 16 at Wed Apr  9 19:43:51 2025.
 Gaussian 16:  ES64L-G16RevC.01  3-Jul-2019

 ----------------------------------------------------------------------
 #t hf aug-cc-pvdz iop(5/13=1,5/36=2,99/5=2) pseudo=read geom=check gue
 ss=(read,tcheck) scf=(maxcycle=1)
 ----------------------------------------------------------------------
 -----
 title
 -----
 Structure from the checkpoint file:  "HB300SPXx10_1442_5.07_0.85_methanethiol_phosphineF2_dimer_mol1.chk"
 Charge =  0 Multiplicity = 1

                         Standard orientation:
 ---------------------------------------------------------------------
 Center     Atomic      Atomic             Coordinates (Angstroms)
 Number     Number       Type             X           Y           Z
 ---------------------------------------------------------------------
      1          1           0        1.255817    1.638096   -0.041794
      2          1           0        1.827221    0.927517   -1.557687
      3          1           0        2.994843    1.311385   -0.283571
      4          1           0        1.886710   -0.470753    1.431440
      5          6           0        1.985137    0.966500   -0.483418
      6         16           0        1.746420   -0.734427    0.123616
      7         15           0       -1.073274   -0.223897   -0.289993
      8          9           0       -0.747649    0.961295    0.741343
      9          9           0       -2.674973   -0.162134   -0.177003
     10          1           0       -0.915427   -1.288420    0.645102
 ---------------------------------------------------------------------

 SCF Done:  E(RHF) =  -979.310109590     A.U. after    2 cycles

 The electronic state is 1-A.
 Alpha  occ. eigenvalues -- -105.28363 -75.70062 -29.28245 -29.27205 -13.15168
 Alpha  occ. eigenvalues --  -13.09412 -13.08521 -11.40583  -8.04076  -2.87526
 Alpha  occ. eigenvalues --   -1.62096  -1.58589  -1.51827  -1.20182  -0.95886
 Alpha  occ. eigenvalues --   -0.89513  -0.62121  -0.60915  -0.54911  -0.50865
 Alpha  occ. eigenvalues --   -0.46530  -0.41349  -0.39187  -0.35686  -0.33673
 Alpha  occ. eigenvalues --   -0.29066  -0.25615  -0.23598  -0.18734  -0.00746
 Alpha virt. eigenvalues --    0.03984   0.04303   0.06217   0.07013   0.08085
 Alpha virt. eigenvalues --    0.09521   0.10613   0.12022   0.12935   0.14710
 Alpha virt. eigenvalues --    0.15276   0.15722   0.16426   0.16772   0.19615

 Mulliken charges:
               1
     1  H    1.090599
     2  H    0.752117
     3  H    1.086006
     4  H    1.220094
     5  C   -3.828641
     6  S   -1.118818
     7  P    2.263403
     8  F   -0.344531
     9  F   -0.041916
    10  H   -1.078313
 Sum of Mulliken charges =   0.00000

 Dipole moment (field-independent basis, Debye):
    X=             -8.0225    Y=             -0.0080    Z=              2.7936  Tot=              8.4950

 Test job not archived.
 1\1\GINC-SE016\SP\RHF\Aug-CC-pVDZ\C1H5F2P1S1\OHZDE\09-Apr-2025\0\\#t h
 f aug-cc-pvdz iop(5/13=1,5/36=2,99/5=2) pseudo=read geom=check guess=(
 read,tcheck) scf=(maxcycle=1)\\title\\0,1\H,0,-1.72434823,-0.02735536,
 -1.47402619\H,0,-1.29643549,-1.41515971,-2.4840979\H,0,-1.57230153,0.1
 6002765,-3.24353895\H,0,0.52779021,1.28305094,-1.94983564\C,0,-1.18500
 823,-0.34129171,-2.36202164\S,0,0.60124692,-0.03772908,-2.17289215\P,0
 ,0.25217644,-1.11432326,0.49196849\F,0,-0.7854281,0.10688946,0.5718592
 \F,0,0.33129749,-1.42185927,2.0671457\H,0,1.43022217,-0.31225696,0.454

 Normal termination of Gaussian 16 at Wed Apr  9 19:43:54 2025.
