 Gaussian 16, Revision C.01,

 ----------------------------------------------------------------------
 #t hf aug-cc-pvdz symm=none int=(grid=ultrafine) guess=(read,tcheck) s
 table=(opt,rrhf)
 ----------------------------------------------------------------------
 -----
 title
 -----
 Symbolic Z-matrix:
 Charge =  0 Multiplicity = 1

 SCF Done:  E(RHF) =  -875.457684191     A.U. after   12 cycles
 Normal termination of Gaussian 16 at Wed Apr  9 19:37:56 2025.
 Gaussian 16:  ES64L-G16RevC.01  3-Jul-2019

 ----------------------------------------------------------------------
 #t hf aug-cc-pvdz iop(5/13=1,5/36=2,99/5=2) pseudo=read geom=check gue
 ss=(read,tcheck) scf=(maxcycle=1)
 ----------------------------------------------------------------------
 -----
 title
 -----
 Structure from the checkpoint file:  "HB300SPXx10_1194_4.24_0.95_methanethiol_methanethiol_dimer_mol1.chk"
 Charge =  0 Multiplicity = 1

                         Standard orientation:
 ---------------------------------------------------------------------
 Center     Atomic      Atomic             Coordinates (Angstroms)
 Number     Number       Type             X           Y           Z
 ---------------------------------------------------------------------
      1          1           0       -0.956411    0.920830    1.352384
      2          1           0       -2.717224    0.939237    1.214855
      3          1           0       -1.744307    1.837046    0.044021
      4          1           0       -0.627533   -0.339305   -0.989053
      5          6           0       -1.787582    0.938121    0.652049
      6         16           0       -1.810391   -0.557395   -0.387321
      7          1           0        2.185918   -0.466316    1.749753
      8          1           0        2.166159   -1.713073    0.497892
      9          1           0        0.635519   -1.031686    1.057321
     10          1           0        1.269298    1.444054    0.142585
     11          6           0        1.679003   -0.808744    0.852787
     12         16           0        1.837894    0.409455   -0.493852
 ---------------------------------------------------------------------

 SCF Done:  E(RHF) =  -876.353425775     A.U. after    2 cycles

 The electronic state is 1-A.
 Alpha  occ. eigenvalues --  -75.69156 -75.67765 -13.12866 -13.11577 -13.08135
 Alpha  occ. eigenvalues --  -13.07534 -13.06430 -13.02699 -11.40092 -11.39782
 Alpha  occ. eigenvalues --   -8.03046  -8.01676  -1.19705  -1.17553  -0.94645
 Alpha  occ. eigenvalues --   -0.93941  -0.61137  -0.60133  -0.59411  -0.58312
 Alpha  occ. eigenvalues --   -0.49989  -0.48855  -0.39938  -0.39318  -0.24294
 Alpha  occ. eigenvalues --   -0.23388
 Alpha virt. eigenvalues --    0.02293   0.03076   0.04331   0.04886   0.06947
 Alpha virt. eigenvalues --    0.07167   0.07625   0.09017   0.10575   0.11255
 Alpha virt. eigenvalues --    0.12460   0.13194   0.14947   0.15171   0.15414

 Mulliken charges:
               1
     1  H    1.569822
     2  H    1.354376
     3  H    1.298930
     4  H    1.119025
     5  C   -4.674552
     6  S   -0.618324
     7  H    1.326777
     8  H    1.363712
     9  H    1.600652
    10  H    1.015763
    11  C   -4.565781
    12  S   -0.790399
 Sum of Mulliken charges =  -0.00000

 Dipole moment (field-independent basis, Debye):
    X=             -0.1508    Y=             -0.8581    Z=             -0.0741  Tot=              0.8744

 Test job not archived.
 1\1\GINC-SE454\SP\RHF\Aug-CC-pVDZ\C2H8S2\OHZDE\09-Apr-2025\0\\#t hf au
 g-cc-pvdz iop(5/13=1,5/36=2,99/5=2) pseudo=read geom=check guess=(read
 ,tcheck) scf=(maxcycle=1)\\title\\0,1\H,0,1.48841111,-0.83932977,-0.94
 699875\H,0,2.60301323,-1.84400864,-0.01533608\H,0,2.55978836,-0.100175
 65,0.26866848\H,0,0.07877426,-0.11956038,1.21477831\C,0,1.95766928,-0.
 9705586,0.02469451\S,0,0.71991769,-1.29709475,1.32035013\H,0,-1.525426
 88,0.08911942,-2.36512183\H,0,-2.59532613,0.02145707,-0.9605981\H,0,-1
 .04766741,-0.82808153,-0.90452913\H,0,0.36092228,1.48292748,-1.1114554

 Normal termination of Gaussian 16 at Wed Apr  9 19:38:04 2025.
