 Gaussian 16, Revision C.01,

 ----------------------------------------------------------------------
 #t hf aug-cc-pvdz symm=none int=(grid=ultrafine) guess=(read,tcheck) s
 table=(opt,rrhf)
 ----------------------------------------------------------------------
 -----
 title
 -----
 Symbolic Z-matrix:
 Charge =  0 Multiplicity = 1

 SCF Done:  E(RHF) =  -532.965577367     A.U. after   13 cycles
 Normal termination of Gaussian 16 at Wed Apr  9 19:34:57 2025.
 Gaussian 16:  ES64L-G16RevC.01  3-Jul-2019

 ----------------------------------------------------------------------
 #t hf aug-cc-pvdz iop(5/13=1,5/36=2,99/5=2) pseudo=read geom=check gue
 ss=(read,tcheck) scf=(maxcycle=1)
 ----------------------------------------------------------------------
 -----
 title
 -----
 Structure from the checkpoint file:  "HB300SPXx10_1042_4.08_0.85_ammonia_dimethylsulfide_dimer_mol1.chk"
 Charge =  0 Multiplicity = 1

                         Standard orientation:
 ---------------------------------------------------------------------
 Center     Atomic      Atomic             Coordinates (Angstroms)
 Number     Number       Type             X           Y           Z
 ---------------------------------------------------------------------
      1          7           0        2.645104   -0.290778    0.146549
      2          1           0        3.253553   -0.356010    0.952630
      3          1           0        1.767461   -0.736887    0.389651
      4          1           0        3.065168   -0.842976   -0.590388
      5          1           0       -0.136438    1.623146    1.035137
      6          1           0       -0.614987    2.030683   -0.631700
      7          1           0        1.044133    1.488035   -0.275343
      8          1           0       -2.492933   -1.404115    0.199605
      9          1           0       -2.754827    0.287656   -0.251063
     10          1           0       -2.147074   -0.121548    1.371250
     11          6           0       -0.004878    1.372372   -0.016147
     12         16           0       -0.422181   -0.364270   -0.314239
     13          6           0       -2.119270   -0.389742    0.316515
 ---------------------------------------------------------------------

 SCF Done:  E(RHF) =  -533.907835644     A.U. after    2 cycles

 The electronic state is 1-A.
 Alpha  occ. eigenvalues --  -75.66621 -15.72997 -13.11178 -13.07417 -13.01627
 Alpha  occ. eigenvalues --  -11.38932 -11.37760  -8.00804  -1.24742  -1.21458
 Alpha  occ. eigenvalues --   -1.02325  -0.87610  -0.62200  -0.60198  -0.59486
 Alpha  occ. eigenvalues --   -0.58816  -0.56610  -0.56103  -0.43714  -0.37938
 Alpha  occ. eigenvalues --   -0.36120  -0.21823
 Alpha virt. eigenvalues --    0.03238   0.04075   0.04572   0.05358   0.06980
 Alpha virt. eigenvalues --    0.07334   0.08022   0.08080   0.09235   0.11241
 Alpha virt. eigenvalues --    0.13215   0.13957   0.15632   0.15975   0.17374

 Mulliken charges:
               1
     1  N   -1.947823
     2  H    0.642415
     3  H    0.923405
     4  H    0.574869
     5  H    1.438253
     6  H    1.366826
     7  H    1.435130
     8  H    1.388407
     9  H    1.392896
    10  H    1.411986
    11  C   -4.677015
    12  S    0.840160
    13  C   -4.789509
 Sum of Mulliken charges =  -0.00000

 Dipole moment (field-independent basis, Debye):
    X=              0.2956    Y=             -1.1109    Z=              0.1782  Tot=              1.1633

 Test job not archived.
 1\1\GINC-SE116\SP\RHF\Aug-CC-pVDZ\C2H9N1S1\OHZDE\09-Apr-2025\0\\#t hf
 aug-cc-pvdz iop(5/13=1,5/36=2,99/5=2) pseudo=read geom=check guess=(re
 ad,tcheck) scf=(maxcycle=1)\\title\\0,1\N,0,-1.73355141,-2.37393966,0.
 81983189\H,0,-2.47172211,-2.47256241,1.50511242\H,0,-1.77953232,-1.428
 67287,0.45551723\H,0,-1.951459,-2.99867579,0.05388488\H,0,0.48035844,0
 .07744163,1.9507608\H,0,1.8474285,-0.42758685,0.92630738\H,0,0.5098026
 2,-1.55392222,1.26727992\H,0,-0.21345427,2.20104278,-1.27792819\H,0,1.
 36706724,1.8896612,-0.54391557\H,0,-0.03774423,2.26336689,0.48348866\C

 Normal termination of Gaussian 16 at Wed Apr  9 19:35:00 2025.
