 Gaussian 16, Revision C.01,

 ----------------------------------------------------------------------
 #t hf aug-cc-pvdz symm=none int=(grid=ultrafine) guess=(read,tcheck) s
 table=(opt,rrhf)
 ----------------------------------------------------------------------
 -----
 title
 -----
 Symbolic Z-matrix:
 Charge =  0 Multiplicity = 1

 SCF Done:  E(RHF) =  -747.045678500     A.U. after   14 cycles
 Normal termination of Gaussian 16 at Wed Apr  9 19:45:01 2025.
 Gaussian 16:  ES64L-G16RevC.01  3-Jul-2019

 ----------------------------------------------------------------------
 #t hf aug-cc-pvdz iop(5/13=1,5/36=2,99/5=2) pseudo=read geom=check gue
 ss=(read,tcheck) scf=(maxcycle=1)
 ----------------------------------------------------------------------
 -----
 title
 -----
 Structure from the checkpoint file:  "HB300SPXx10_1459_5.08_1.50_methylcyanate_phosphineF2_dimer_mol1.chk"
 Charge =  0 Multiplicity = 1

                         Standard orientation:
 ---------------------------------------------------------------------
 Center     Atomic      Atomic             Coordinates (Angstroms)
 Number     Number       Type             X           Y           Z
 ---------------------------------------------------------------------
      1          1           0       -3.529910   -1.062066    1.301207
      2          1           0       -4.125801   -1.753052   -0.235655
      3          1           0       -2.370277   -1.740663    0.116884
      4          6           0       -3.315020   -1.223191    0.248334
      5          8           0       -3.253428    0.071501   -0.431100
      6          6           0       -2.324473    0.858126   -0.039997
      7          7           0       -1.490168    1.587508    0.286408
      8         15           0        2.291506    0.391406   -0.160756
      9          9           0        1.248384   -0.837207   -0.104327
     10          9           0        3.624158   -0.453122    0.130442
     11          1           0        2.096084    0.803465    1.187798
 ---------------------------------------------------------------------

 SCF Done:  E(RHF) =  -748.806866932     A.U. after    2 cycles

 The electronic state is 1-A.
 Alpha  occ. eigenvalues -- -105.29023 -29.28581 -29.28422 -21.15587 -15.75623
 Alpha  occ. eigenvalues --  -11.48629 -11.46153  -2.88356  -1.85474  -1.62229
 Alpha  occ. eigenvalues --   -1.58766  -1.52350  -1.29257  -1.05722  -0.89604
 Alpha  occ. eigenvalues --   -0.74049  -0.67065  -0.65611  -0.56118  -0.55962
 Alpha  occ. eigenvalues --   -0.54230  -0.51515  -0.46307  -0.40926  -0.39916
 Alpha  occ. eigenvalues --   -0.35648  -0.34724  -0.33995  -0.27792  -0.25231
 Alpha  occ. eigenvalues --   -0.19087   0.00261
 Alpha virt. eigenvalues --    0.02665   0.05380   0.06569   0.07026   0.08125
 Alpha virt. eigenvalues --    0.09989   0.11004   0.12185   0.12345   0.12404
 Alpha virt. eigenvalues --    0.13193   0.14413   0.15073   0.15848   0.16334

 Mulliken charges:
               1
     1  H    1.361366
     2  H    1.259735
     3  H    1.326833
     4  C   -2.825296
     5  O   -2.582388
     6  C    4.023456
     7  N   -2.587688
     8  P    1.642560
     9  F   -0.292043
    10  F   -0.228026
    11  H   -1.098510
 Sum of Mulliken charges =  -0.00000

 Dipole moment (field-independent basis, Debye):
    X=             -1.7803    Y=             -7.9362    Z=              1.7625  Tot=              8.3222

 Test job not archived.
 1\1\GINC-SE018\SP\RHF\Aug-CC-pVDZ\C2H4F2N1O1P1\OHZDE\09-Apr-2025\0\\#t
  hf aug-cc-pvdz iop(5/13=1,5/36=2,99/5=2) pseudo=read geom=check guess
 =(read,tcheck) scf=(maxcycle=1)\\title\\0,1\H,0,-2.89287834,1.38344137
 ,-2.41875402\H,0,-2.88368966,0.15494314,-3.71690786\H,0,-2.33807438,-0
 .28314113,-2.0686702\C,0,-2.39546429,0.50243917,-2.8151059\O,0,-1.0419
 8507,0.86597867,-3.23651367\C,0,-0.26338211,1.27221362,-2.30729377\N,0
 ,0.4658792,1.6354549,-1.48824768\P,0,1.32139154,-0.89240002,1.47986996
 \F,0,-0.0662107,-1.24464167,0.73740054\F,0,1.07413141,-1.76028358,2.80

 Normal termination of Gaussian 16 at Wed Apr  9 19:45:06 2025.
