 Gaussian 16, Revision C.01,

 ----------------------------------------------------------------------
 #t hf aug-cc-pvdz symm=none int=(grid=ultrafine) guess=(read,tcheck) s
 table=(opt,rrhf)
 ----------------------------------------------------------------------
 -----
 title
 -----
 Symbolic Z-matrix:
 Charge =  0 Multiplicity = 1

 SCF Done:  E(RHF) =  -914.484514442     A.U. after   12 cycles

 1\1\GINC-SE174\Stability\RHF\Aug-CC-pVDZ\C3H10S2\OHZDE\09-Apr-2025\0\\
 #t hf aug-cc-pvdz symm=none int=(grid=ultrafine) guess=(read,tcheck) s
 table=(opt,rrhf)\\title\\0,1\H,0,2.306559,-2.0578968,-0.64952301\H,0,3
 .32031438,-1.47471252,0.67641305\H,0,2.52307119,-0.31083024,-0.3888258
 5\H,0,0.07002633,-1.01993654,0.36023035\C,0,2.42249764,-1.27751778,0.0
 9684023\S,0,1.02865784,-1.2837739,1.27093846\H,0,0.87794009,1.27149409
 ,0.24584747\H,0,-0.03486865,2.55013518,-0.59747342\H,0,0.97999641,1.43
 050329,-1.51981124\H,0,-2.82776494,0.02969453,0.63808768\H,0,-2.303831

 Normal termination of Gaussian 16 at Wed Apr  9 19:38:12 2025.
 Gaussian 16:  ES64L-G16RevC.01  3-Jul-2019

 ----------------------------------------------------------------------
 #t hf aug-cc-pvdz iop(5/13=1,5/36=2,99/5=2) pseudo=read geom=check gue
 ss=(read,tcheck) scf=(maxcycle=1)
 ----------------------------------------------------------------------
 -----
 title
 -----
 Structure from the checkpoint file:  "HB300SPXx10_1182_4.23_0.85_methanethiol_dimethylsulfide_dimer_mol1.chk"
 Charge =  0 Multiplicity = 1

                         Standard orientation:
 ---------------------------------------------------------------------
 Center     Atomic      Atomic             Coordinates (Angstroms)
 Number     Number       Type             X           Y           Z
 ---------------------------------------------------------------------
      1          1           0        2.580316    0.912339   -1.283163
      2          1           0        3.419576    0.763758    0.265861
      3          1           0        1.858584    1.590381    0.195500
      4          1           0        0.520348   -0.595508   -0.520293
      5          6           0        2.444956    0.772818   -0.214658
      6         16           0        1.670009   -0.837827    0.141171
      7          1           0       -0.137754    0.908998    1.274095
      8          1           0       -1.792587    1.561790    1.395434
      9          1           0       -0.626745    2.302447    0.287972
     10          1           0       -2.267006   -1.934456   -0.401978
     11          1           0       -2.776610   -0.951462    0.980601
     12          1           0       -1.103703   -1.554079    0.881811
     13          6           0       -0.959698    1.363594    0.723670
     14         16           0       -1.475467    0.290124   -0.640500
     15          6           0       -1.949775   -1.176573    0.309893
 ---------------------------------------------------------------------

 SCF Done:  E(RHF) =  -915.596576347     A.U. after    2 cycles

 The electronic state is 1-A.
 Alpha  occ. eigenvalues --  -75.67999 -75.66592 -13.12046 -13.11468 -13.10430
 Alpha  occ. eigenvalues --  -13.08704 -13.06353 -13.02378 -11.39894 -11.39647
 Alpha  occ. eigenvalues --  -11.39076  -8.02142  -8.00568  -1.24044  -1.16978
 Alpha  occ. eigenvalues --   -1.03502  -0.93363  -0.88727  -0.62224  -0.60640
 Alpha  occ. eigenvalues --   -0.58740  -0.58644  -0.58313  -0.56768  -0.48833
 Alpha  occ. eigenvalues --   -0.44923  -0.39251  -0.37276  -0.23024  -0.21251
 Alpha virt. eigenvalues --    0.02513   0.03322   0.04413   0.04948   0.06633
 Alpha virt. eigenvalues --    0.06944   0.07360   0.07747   0.08780   0.09693
 Alpha virt. eigenvalues --    0.10081   0.11863   0.12957   0.13535   0.14305

 Mulliken charges:
               1
     1  H    1.354195
     2  H    1.352402
     3  H    1.472783
     4  H    1.486547
     5  C   -4.781977
     6  S   -0.726752
     7  H    1.740519
     8  H    1.303987
     9  H    1.527402
    10  H    1.417637
    11  H    1.399443
    12  H    1.335703
    13  C   -4.654681
    14  S    0.319354
    15  C   -4.546562
 Sum of Mulliken charges =  -0.00000

 Dipole moment (field-independent basis, Debye):
    X=              0.2685    Y=              0.0149    Z=             -0.0243  Tot=              0.2700

 Test job not archived.
 1\1\GINC-SE174\SP\RHF\Aug-CC-pVDZ\C3H10S2\OHZDE\09-Apr-2025\0\\#t hf a
 ug-cc-pvdz iop(5/13=1,5/36=2,99/5=2) pseudo=read geom=check guess=(rea
 d,tcheck) scf=(maxcycle=1)\\title\\0,1\H,0,2.306559,-2.0578968,-0.6495
 2301\H,0,3.32031438,-1.47471252,0.67641305\H,0,2.52307119,-0.31083024,
 -0.38882585\H,0,0.07002633,-1.01993654,0.36023035\C,0,2.42249764,-1.27
 751778,0.09684023\S,0,1.02865784,-1.2837739,1.27093846\H,0,0.87794009,
 1.27149409,0.24584747\H,0,-0.03486865,2.55013518,-0.59747342\H,0,0.979
 99641,1.43050329,-1.51981124\H,0,-2.82776494,0.02969453,0.63808768\H,0

 Normal termination of Gaussian 16 at Wed Apr  9 19:38:17 2025.
