 Gaussian 16, Revision C.01,

 ----------------------------------------------------------------------
 #t hf aug-cc-pvdz symm=none int=(grid=ultrafine) guess=(read,tcheck) s
 table=(opt,rrhf)
 ----------------------------------------------------------------------
 -----
 title
 -----
 Symbolic Z-matrix:
 Charge =  0 Multiplicity = 1

 SCF Done:  E(RHF) =  -648.904360402     A.U. after   13 cycles
 Normal termination of Gaussian 16 at Wed Apr  9 19:36:48 2025.
 Gaussian 16:  ES64L-G16RevC.01  3-Jul-2019

 ----------------------------------------------------------------------
 #t hf aug-cc-pvdz iop(5/13=1,5/36=2,99/5=2) pseudo=read geom=check gue
 ss=(read,tcheck) scf=(maxcycle=1)
 ----------------------------------------------------------------------
 -----
 title
 -----
 Structure from the checkpoint file:  "HB300SPXx10_1082_4.12_0.85_methylamine_tetrahydrothiophene_dimer_mol1.chk"
 Charge =  0 Multiplicity = 1

                         Standard orientation:
 ---------------------------------------------------------------------
 Center     Atomic      Atomic             Coordinates (Angstroms)
 Number     Number       Type             X           Y           Z
 ---------------------------------------------------------------------
      1          7           0       -1.973250   -0.286666   -0.848907
      2          1           0       -1.295471   -0.884928   -0.388209
      3          1           0       -2.498721   -0.867345   -1.488623
      4          6           0       -2.861774    0.328524    0.135626
      5          1           0       -3.596331    0.951223   -0.374137
      6          1           0       -3.403597   -0.378298    0.774984
      7          1           0       -2.281126    0.983938    0.784901
      8          1           0        1.279317    0.591180    2.060458
      9          1           0       -0.467803    0.492361    1.822621
     10          1           0        0.868545    2.450399    0.563350
     11          1           0        0.519063   -0.611225   -1.787695
     12          1           0       -0.342281    1.536528   -0.342891
     13          1           0        2.162170   -1.128576   -1.371783
     14          1           0        1.705237    1.491322   -1.707316
     15          1           0        2.656967    0.981334   -0.313621
     16         16           0        0.697099   -1.210761    0.552349
     17          6           0        0.494735    0.450719    1.319585
     18          6           0        0.610358    1.462590    0.180837
     19          6           0        1.670980    0.923055   -0.777704
     20          6           0        1.311234   -0.536400   -1.046224
 ---------------------------------------------------------------------

 SCF Done:  E(RHF) =  -650.431479103     A.U. after    2 cycles

 The electronic state is 1-A.
 Alpha  occ. eigenvalues --  -75.66180 -15.70809 -13.11252 -13.10883 -13.09596
 Alpha  occ. eigenvalues --  -11.43420 -11.42288 -11.38754 -11.37527 -11.35747
 Alpha  occ. eigenvalues --   -8.00324  -1.32864  -1.29865  -1.07082  -1.06866
 Alpha  occ. eigenvalues --   -0.94367  -0.84324  -0.82630  -0.67232  -0.65214
 Alpha  occ. eigenvalues --   -0.64027  -0.60828  -0.58587  -0.54271  -0.52036
 Alpha  occ. eigenvalues --   -0.50602  -0.48189  -0.46434  -0.44913  -0.41690
 Alpha  occ. eigenvalues --   -0.35059  -0.33574  -0.21675
 Alpha virt. eigenvalues --    0.03925   0.04460   0.04844   0.05584   0.05844
 Alpha virt. eigenvalues --    0.05982   0.06182   0.06517   0.07000   0.08384
 Alpha virt. eigenvalues --    0.08946   0.09347   0.09937   0.11556   0.12832

 Mulliken charges:
               1
     1  N   -2.150840
     2  H    1.718791
     3  H    0.477750
     4  C   -3.528488
     5  H    1.249657
     6  H    1.219471
     7  H    1.800592
     8  H    1.352156
     9  H    1.733490
    10  H    1.235794
    11  H    1.594395
    12  H    2.073854
    13  H    1.358984
    14  H    1.312022
    15  H    1.424306
    16  S    0.148688
    17  C   -3.530699
    18  C   -3.207957
    19  C   -2.689764
    20  C   -3.592202
 Sum of Mulliken charges =  -0.00000

 Dipole moment (field-independent basis, Debye):
    X=             -0.2851    Y=             -0.4490    Z=              0.1558  Tot=              0.5542

 Test job not archived.
 1\1\GINC-SE224\SP\RHF\Aug-CC-pVDZ\C5H13N1S1\OHZDE\09-Apr-2025\0\\#t hf
  aug-cc-pvdz iop(5/13=1,5/36=2,99/5=2) pseudo=read geom=check guess=(r
 ead,tcheck) scf=(maxcycle=1)\\title\\0,1\N,0,-0.48023551,2.04199658,1.
 33183501\H,0,-0.98136805,1.22913012,0.98881982\H,0,-1.14375731,2.80345
 765,1.38144373\C,0,0.08991425,1.76981847,2.65020044\H,0,0.60698078,2.6
 5693888,3.01468146\H,0,-0.63523497,1.46399211,3.41346792\H,0,0.8338340
 5,0.97768014,2.5643137\H,0,0.87465781,-2.06752869,0.28767257\H,0,0.584
 83575,-0.92491904,1.60266577\H,0,2.60288754,-0.41345964,-0.09184874\H,

 Normal termination of Gaussian 16 at Wed Apr  9 19:36:56 2025.
