 Gaussian 16, Revision C.01,

 ----------------------------------------------------------------------
 #t hf aug-cc-pvdz symm=none int=(grid=ultrafine) guess=(read,tcheck) s
 table=(opt,rrhf)
 ----------------------------------------------------------------------
 -----
 title
 -----
 Symbolic Z-matrix:
 Charge =  0 Multiplicity = 1

 SCF Done:  E(RHF) =  -800.727652531     A.U. after   13 cycles
 Normal termination of Gaussian 16 at Wed Apr  9 19:39:05 2025.
 Gaussian 16:  ES64L-G16RevC.01  3-Jul-2019

 ----------------------------------------------------------------------
 #t hf aug-cc-pvdz iop(5/13=1,5/36=2,99/5=2) pseudo=read geom=check gue
 ss=(read,tcheck) scf=(maxcycle=1)
 ----------------------------------------------------------------------
 -----
 title
 -----
 Structure from the checkpoint file:  "HB300SPXx10_1107_4.14_1.10_Nmethylacetamide_tetrahydrothiophene_dimer_mol1.chk"
 Charge =  0 Multiplicity = 1

                         Standard orientation:
 ---------------------------------------------------------------------
 Center     Atomic      Atomic             Coordinates (Angstroms)
 Number     Number       Type             X           Y           Z
 ---------------------------------------------------------------------
      1          6           0       -2.399430   -1.720261   -0.152302
      2          1           0       -2.293905   -2.209958    0.814459
      3          1           0       -1.539517   -1.955606   -0.776036
      4          1           0       -3.298348   -2.116861   -0.620380
      5          6           0       -2.589667   -0.233364    0.072317
      6          8           0       -3.521332    0.202309    0.728998
      7          7           0       -1.664107    0.565891   -0.516501
      8          1           0       -0.858631    0.139236   -0.952659
      9          6           0       -1.694695    2.005432   -0.370648
     10          1           0       -2.726150    2.327264   -0.260297
     11          1           0       -1.141884    2.342875    0.510146
     12          1           0       -1.264124    2.471292   -1.254623
     13          1           0        1.508001    1.664907   -0.836485
     14          1           0        3.167325    1.214363   -1.235643
     15          1           0        2.599642    1.906408    1.301103
     16          1           0        2.412251   -1.954295    0.893636
     17          1           0        3.634301    0.511816    1.010372
     18          1           0        0.653233   -1.852322    0.766929
     19          1           0        1.865786   -0.261736    2.545247
     20          1           0        0.622807    0.435109    1.511431
     21         16           0        1.740659   -0.736607   -1.086819
     22          6           0        2.305428    0.955461   -0.627160
     23          6           0        2.628156    0.907649    0.865783
     24          6           0        1.608986   -0.029325    1.511886
     25          6           0        1.579235   -1.295005    0.659363
 ---------------------------------------------------------------------

 SCF Done:  E(RHF) =  -802.910720408     A.U. after    2 cycles

 The electronic state is 1-A.
 Alpha  occ. eigenvalues --  -75.67766 -21.00657 -15.75071 -13.12328 -13.10950
 Alpha  occ. eigenvalues --  -13.08714 -11.48866 -11.44916 -11.43822 -11.40209
 Alpha  occ. eigenvalues --  -11.39405 -11.38328 -11.37437  -8.01826  -1.69075
 Alpha  occ. eigenvalues --   -1.38218  -1.33643  -1.10509  -1.08354  -1.08274
 Alpha  occ. eigenvalues --   -0.98472  -0.85718  -0.84184  -0.78274  -0.67527
 Alpha  occ. eigenvalues --   -0.67346  -0.66468  -0.62498  -0.61967  -0.61077
 Alpha  occ. eigenvalues --   -0.57710  -0.55267  -0.54594  -0.51582  -0.49962
 Alpha  occ. eigenvalues --   -0.48052  -0.46605  -0.46408  -0.45537  -0.43176
 Alpha  occ. eigenvalues --   -0.35987  -0.29969  -0.27438  -0.23560
 Alpha virt. eigenvalues --    0.03200   0.03886   0.04479   0.05066   0.05110
 Alpha virt. eigenvalues --    0.05532   0.06030   0.06188   0.06795   0.07022
 Alpha virt. eigenvalues --    0.08134   0.08522   0.09115   0.09454   0.10546

 Mulliken charges:
               1
     1  C   -4.765412
     2  H    1.322578
     3  H    1.605844
     4  H    1.126020
     5  C    5.365288
     6  O   -3.452119
     7  N   -2.753532
     8  H    1.041341
     9  C   -3.788401
    10  H    1.397306
    11  H    1.580494
    12  H    1.472224
    13  H    1.858792
    14  H    1.356450
    15  H    1.327441
    16  H    1.346835
    17  H    1.502465
    18  H    1.835592
    19  H    1.275211
    20  H    2.046082
    21  S    0.697313
    22  C   -3.614712
    23  C   -3.083191
    24  C   -3.109548
    25  C   -3.590359
 Sum of Mulliken charges =  -0.00000

 Dipole moment (field-independent basis, Debye):
    X=              3.1267    Y=             -0.0585    Z=             -1.0140  Tot=              3.2875

 Test job not archived.
 1\1\GINC-SE114\SP\RHF\Aug-CC-pVDZ\C7H15N1O1S1\OHZDE\09-Apr-2025\0\\#t
 hf aug-cc-pvdz iop(5/13=1,5/36=2,99/5=2) pseudo=read geom=check guess=
 (read,tcheck) scf=(maxcycle=1)\\title\\0,1\C,0,-2.35790997,-0.53076315
 ,1.51380969\H,0,-2.45888814,0.43106478,2.01406411\H,0,-1.4356415,-1.01
 232631,1.83224394\H,0,-3.20368729,-1.14467685,1.81747472\C,0,-2.435185
 38,-0.3119418,0.01592702\O,0,-3.41358688,0.19433185,-0.50891479\N,0,-1
 .3525984,-0.72916607,-0.68842032\H,0,-0.53292762,-1.03795931,-0.184588
 74\C,0,-1.26500492,-0.56327277,-2.12344447\H,0,-2.26409386,-0.61429593

 Normal termination of Gaussian 16 at Wed Apr  9 19:39:22 2025.
