 Gaussian 16, Revision C.01,

 ----------------------------------------------------------------------
 #t hf aug-cc-pvdz symm=none int=(grid=ultrafine) guess=(read,tcheck) s
 table=(opt,rrhf)
 ----------------------------------------------------------------------
 -----
 title
 -----
 Symbolic Z-matrix:
 Charge =  0 Multiplicity = 1

 SCF Done:  E(RHF) =  -952.359826322     A.U. after   15 cycles

 1\1\GINC-SE029\Stability\RHF\Aug-CC-pVDZ\C4H10S2\OHZDE\09-Apr-2025\0\\
 #t hf aug-cc-pvdz symm=none int=(grid=ultrafine) guess=(read,tcheck) s
 table=(opt,rrhf)\\title\\0,1\H,0,1.94048627,-0.28311522,0.30003006\H,0
 ,2.70886397,-1.74966836,-0.33633756\H,0,2.5169729,-1.54996222,1.410513
 58\H,0,-0.19256655,-1.5118813,1.21090974\C,0,2.06439688,-1.35234501,0.
 4434425\S,0,0.46794236,-2.21627191,0.2804649\H,0,-2.66239305,0.5885555
 3,0.34341573\H,0,-2.72035754,1.04503117,-1.37275345\H,0,-2.07848635,-0
 .52165196,-0.91928033\H,0,0.9832283,1.52070905,-1.71187127\H,0,0.20668

 Normal termination of Gaussian 16 at Wed Apr  9 19:35:22 2025.
 Gaussian 16:  ES64L-G16RevC.01  3-Jul-2019

 ----------------------------------------------------------------------
 #t hf aug-cc-pvdz iop(5/13=1,5/36=2,99/5=2) pseudo=read geom=check gue
 ss=(read,tcheck) scf=(maxcycle=1)
 ----------------------------------------------------------------------
 -----
 title
 -----
 Structure from the checkpoint file:  "HB300SPXx10_1025_4.06_1.00_methanethiol_thioacetone_dimer_mol1.chk"
 Charge =  0 Multiplicity = 1

                         Standard orientation:
 ---------------------------------------------------------------------
 Center     Atomic      Atomic             Coordinates (Angstroms)
 Number     Number       Type             X           Y           Z
 ---------------------------------------------------------------------
      1          1           0        1.268420   -1.360060    0.703387
      2          1           0        2.791466   -0.800519    1.419899
      3          1           0        2.818487   -1.691656   -0.107628
      4          1           0        1.385955    0.237800   -1.375678
      5          6           0        2.260617   -0.975093    0.487706
      6         16           0        2.159715    0.637265   -0.355928
      7          1           0       -1.784490    1.305032   -1.647191
      8          1           0       -2.488189    2.015681   -0.178603
      9          1           0       -0.761367    2.138375   -0.452759
     10          1           0       -1.079725   -0.568254    2.144613
     11          1           0       -0.192032    0.919007    1.745176
     12          6           0       -1.625697    1.484472   -0.589385
     13          6           0       -1.409467    0.209964    0.166135
     14         16           0       -1.445568   -1.250938   -0.549952
     15          6           0       -1.137941    0.383716    1.628067
     16          1           0       -1.909948    1.005014    2.087737
 ---------------------------------------------------------------------

 SCF Done:  E(RHF) =  -953.627664670     A.U. after    2 cycles

 The electronic state is 1-A.
 Alpha  occ. eigenvalues --  -75.68427 -75.66001 -13.15539 -13.12468 -13.07595
 Alpha  occ. eigenvalues --  -13.04598 -13.02824 -13.00117 -11.47996 -11.40467
 Alpha  occ. eigenvalues --  -11.39435 -11.38372  -8.02318  -8.00258  -1.28549
 Alpha  occ. eigenvalues --   -1.18292  -1.04405  -1.03533  -0.93970  -0.75155
 Alpha  occ. eigenvalues --   -0.61722  -0.60976  -0.60162  -0.59822  -0.58598
 Alpha  occ. eigenvalues --   -0.55331  -0.50410  -0.49104  -0.41667  -0.39296
 Alpha  occ. eigenvalues --   -0.32192  -0.24180  -0.21787
 Alpha virt. eigenvalues --    0.02564   0.03502   0.04695   0.05464   0.06030
 Alpha virt. eigenvalues --    0.06583   0.06865   0.07406   0.07915   0.08525
 Alpha virt. eigenvalues --    0.09168   0.10645   0.10933   0.12127   0.12801

 Mulliken charges:
               1
     1  H    1.612298
     2  H    1.468475
     3  H    1.345251
     4  H    0.985088
     5  C   -4.746474
     6  S   -0.783494
     7  H    1.463100
     8  H    1.175109
     9  H    1.265409
    10  H    1.509238
    11  H    1.324238
    12  C   -4.639874
    13  C    1.001572
    14  S    0.559934
    15  C   -4.708087
    16  H    1.168217
 Sum of Mulliken charges =   0.00000

 Dipole moment (field-independent basis, Debye):
    X=              0.6561    Y=              0.1897    Z=              0.6587  Tot=              0.9488

 Test job not archived.
 1\1\GINC-SE029\SP\RHF\Aug-CC-pVDZ\C4H10S2\OHZDE\09-Apr-2025\0\\#t hf a
 ug-cc-pvdz iop(5/13=1,5/36=2,99/5=2) pseudo=read geom=check guess=(rea
 d,tcheck) scf=(maxcycle=1)\\title\\0,1\H,0,1.94048627,-0.28311522,0.30
 003006\H,0,2.70886397,-1.74966836,-0.33633756\H,0,2.5169729,-1.5499622
 2,1.41051358\H,0,-0.19256655,-1.5118813,1.21090974\C,0,2.06439688,-1.3
 5234501,0.4434425\S,0,0.46794236,-2.21627191,0.2804649\H,0,-2.66239305
 ,0.58855553,0.34341573\H,0,-2.72035754,1.04503117,-1.37275345\H,0,-2.0
 7848635,-0.52165196,-0.91928033\H,0,0.9832283,1.52070905,-1.71187127\H

 Normal termination of Gaussian 16 at Wed Apr  9 19:35:27 2025.
