 Gaussian 16, Revision C.01,

 ----------------------------------------------------------------------
 #t hf aug-cc-pvdz symm=none int=(grid=ultrafine) guess=(read,tcheck) s
 table=(opt,rrhf)
 ----------------------------------------------------------------------
 -----
 title
 -----
 Symbolic Z-matrix:
 Charge =  0 Multiplicity = 1

 SCF Done:  E(RHF) =  -936.854755824     A.U. after   12 cycles
 Normal termination of Gaussian 16 at Wed Apr  9 19:38:56 2025.
 Gaussian 16:  ES64L-G16RevC.01  3-Jul-2019

 ----------------------------------------------------------------------
 #t hf aug-cc-pvdz iop(5/13=1,5/36=2,99/5=2) pseudo=read geom=check gue
 ss=(read,tcheck) scf=(maxcycle=1)
 ----------------------------------------------------------------------
 -----
 title
 -----
 Structure from the checkpoint file:  "HB300SPXx10_1323_4.37_0.90_hydrogenchloride_dimethylsulfide_dimer_mol1.chk"
 Charge =  0 Multiplicity = 1

                         Standard orientation:
 ---------------------------------------------------------------------
 Center     Atomic      Atomic             Coordinates (Angstroms)
 Number     Number       Type             X           Y           Z
 ---------------------------------------------------------------------
      1          1           0       -0.907363   -0.000003   -0.446416
      2         17           0       -2.137790   -0.000002    0.043172
      3          1           0        0.357439   -1.354202    1.232725
      4          1           0        2.126575   -1.365703    0.994825
      5          1           0        1.074768   -2.299390   -0.083821
      6          1           0        1.074758    2.299393   -0.083823
      7          1           0        2.126565    1.365710    0.994828
      8          1           0        0.357427    1.354203    1.232722
      9          6           0        1.159308   -1.385386    0.498105
     10         16           0        1.013789    0.000001   -0.659514
     11          6           0        1.159300    1.385388    0.498105
 ---------------------------------------------------------------------

 SCF Done:  E(RHF) =  -937.772821909     A.U. after    2 cycles

 The electronic state is 1-A.
 Alpha  occ. eigenvalues --  -99.86302 -75.69879 -13.14833 -13.13598 -13.10333
 Alpha  occ. eigenvalues --  -11.40977 -11.40803 -10.43501  -9.63622  -9.62826
 Alpha  occ. eigenvalues --   -9.62807  -8.04133  -1.27874  -1.23920  -1.04890
 Alpha  occ. eigenvalues --   -0.90557  -0.68226  -0.61821  -0.60999  -0.59595
 Alpha  occ. eigenvalues --   -0.58730  -0.49325  -0.49313  -0.46199  -0.38878
 Alpha  occ. eigenvalues --   -0.25952
 Alpha virt. eigenvalues --    0.02747   0.03497   0.05084   0.05910   0.07058
 Alpha virt. eigenvalues --    0.07501   0.08355   0.09049   0.10991   0.11614
 Alpha virt. eigenvalues --    0.13004   0.15135   0.15521   0.16101   0.16298

 Mulliken charges:
               1
     1  H    1.178337
     2  Cl  -0.830819
     3  H    1.283801
     4  H    1.421107
     5  H    1.373408
     6  H    1.373407
     7  H    1.421105
     8  H    1.283801
     9  C   -4.301540
    10  S    0.098930
    11  C   -4.301537
 Sum of Mulliken charges =   0.00000

 Dipole moment (field-independent basis, Debye):
    X=              3.8321    Y=              0.0000    Z=             -0.7218  Tot=              3.8994

 Test job not archived.
 1\1\GINC-SE224\SP\RHF\Aug-CC-pVDZ\C2H7Cl1S1\OHZDE\09-Apr-2025\0\\#t hf
  aug-cc-pvdz iop(5/13=1,5/36=2,99/5=2) pseudo=read geom=check guess=(r
 ead,tcheck) scf=(maxcycle=1)\\title\\0,1\H,0,-0.09169332,-0.01707414,-
 1.03147385\Cl,0,0.64323048,-0.44620369,-2.04605842\H,0,1.62854305,0.73
 998916,0.61799217\H,0,0.97657969,1.1764448,2.22143264\H,0,0.73787337,2
 .25661631,0.83658821\H,0,-1.31480825,-1.85100688,1.08705795\H,0,-0.242
 59102,-1.26325006,2.3701951\H,0,0.41963726,-1.67915243,0.76549837\C,0,
 0.80720674,1.21766099,1.14796307\S,0,-0.76646062,0.42720063,0.72452854

 Normal termination of Gaussian 16 at Wed Apr  9 19:38:59 2025.
