 Gaussian 16, Revision C.01,

 ----------------------------------------------------------------------
 #t hf aug-cc-pvdz symm=none int=(grid=ultrafine) guess=(read,tcheck) s
 table=(opt,rrhf)
 ----------------------------------------------------------------------
 -----
 title
 -----
 Symbolic Z-matrix:
 Charge =  0 Multiplicity = 1

 SCF Done:  E(RHF) =  -630.504351740     A.U. after   14 cycles

 1\1\GINC-SE014\Stability\RHF\Aug-CC-pVDZ\C6H10S1\OHZDE\09-Apr-2025\0\\
 #t hf aug-cc-pvdz symm=none int=(grid=ultrafine) guess=(read,tcheck) s
 table=(opt,rrhf)\\title\\0,1\C,0,2.59090187,-0.04968862,0.43961338\H,0
 ,1.93323189,0.27193926,-0.33858357\C,0,3.30609004,-0.41751171,1.325807
 27\H,0,3.94715573,-0.74121457,2.10714096\H,0,0.52860003,-1.70531399,-0
 .4282398\H,0,-0.94606012,-1.75214698,-1.4037208\H,0,-1.19391173,-2.011
 69113,1.24893256\H,0,-1.5091135,1.78419372,0.32614917\H,0,-2.2909489,-
 0.91123447,0.41685778\H,0,0.20273902,1.97483312,0.72039919\H,0,-1.3022

 Normal termination of Gaussian 16 at Wed Apr  9 19:35:29 2025.
 Gaussian 16:  ES64L-G16RevC.01  3-Jul-2019

 ----------------------------------------------------------------------
 #t hf aug-cc-pvdz iop(5/13=1,5/36=2,99/5=2) pseudo=read geom=check gue
 ss=(read,tcheck) scf=(maxcycle=1)
 ----------------------------------------------------------------------
 -----
 title
 -----
 Structure from the checkpoint file:  "HB300SPXx10_1002_4.04_0.85_ethyne_tetrahydrothiophene_dimer_mol1.chk"
 Charge =  0 Multiplicity = 1

                         Standard orientation:
 ---------------------------------------------------------------------
 Center     Atomic      Atomic             Coordinates (Angstroms)
 Number     Number       Type             X           Y           Z
 ---------------------------------------------------------------------
      1          6           0       -2.317667   -0.404275   -0.060938
      2          1           0       -1.453047   -1.030064   -0.012089
      3          6           0       -3.270014    0.318344   -0.115554
      4          1           0       -4.119709    0.952309   -0.163920
      5          1           0       -0.164647    0.041548   -1.767718
      6          1           0        1.523226   -0.389110   -2.074307
      7          1           0        0.995513    2.114736   -1.288407
      8          1           0        1.718132   -0.068864    1.884814
      9          1           0        2.328769    1.264362   -0.509859
     10          1           0       -0.025656   -0.271102    2.086107
     11          1           0        0.905897    2.133431    1.315349
     12          1           0       -0.531091    1.477715    0.535985
     13         16           0        0.759880   -1.294772    0.032244
     14          6           0        0.822448   -0.048201   -1.317091
     15          6           0        1.247888    1.261471   -0.658495
     16          6           0        0.535843    1.319217    0.692129
     17          6           0        0.758925   -0.031324    1.372972
 ---------------------------------------------------------------------

 SCF Done:  E(RHF) =  -631.919037103     A.U. after    2 cycles

 The electronic state is 1-A.
 Alpha  occ. eigenvalues --  -75.66787 -13.12350 -13.11860 -13.09912 -11.43837
 Alpha  occ. eigenvalues --  -11.42984 -11.40555 -11.40010 -11.39150 -11.36264
 Alpha  occ. eigenvalues --   -8.00928  -1.32798  -1.09074  -1.07486  -1.07323
 Alpha  occ. eigenvalues --   -0.84853  -0.83177  -0.78163  -0.67055  -0.65707
 Alpha  occ. eigenvalues --   -0.64620  -0.61060  -0.54095  -0.48961  -0.47209
 Alpha  occ. eigenvalues --   -0.45552  -0.42288  -0.38141  -0.38058  -0.35110
 Alpha  occ. eigenvalues --   -0.22578
 Alpha virt. eigenvalues --    0.03542   0.04527   0.04880   0.05436   0.05701
 Alpha virt. eigenvalues --    0.05963   0.06725   0.06954   0.07467   0.08602
 Alpha virt. eigenvalues --    0.10093   0.11319   0.12258   0.13393   0.14107

 Mulliken charges:
               1
     1  C   -0.020752
     2  H    1.545320
     3  C   -1.467087
     4  H    0.460839
     5  H    1.549326
     6  H    1.372895
     7  H    1.277273
     8  H    1.412728
     9  H    1.437266
    10  H    1.476760
    11  H    1.236942
    12  H    1.973097
    13  S    0.071062
    14  C   -3.297469
    15  C   -2.771365
    16  C   -2.870351
    17  C   -3.386483
 Sum of Mulliken charges =   0.00000

 Dipole moment (field-independent basis, Debye):
    X=              0.5232    Y=              0.4536    Z=              0.0238  Tot=              0.6928

 Test job not archived.
 1\1\GINC-SE014\SP\RHF\Aug-CC-pVDZ\C6H10S1\OHZDE\09-Apr-2025\0\\#t hf a
 ug-cc-pvdz iop(5/13=1,5/36=2,99/5=2) pseudo=read geom=check guess=(rea
 d,tcheck) scf=(maxcycle=1)\\title\\0,1\C,0,2.59090187,-0.04968862,0.43
 961338\H,0,1.93323189,0.27193926,-0.33858357\C,0,3.30609004,-0.4175117
 1,1.32580727\H,0,3.94715573,-0.74121457,2.10714096\H,0,0.52860003,-1.7
 0531399,-0.4282398\H,0,-0.94606012,-1.75214698,-1.4037208\H,0,-1.19391
 173,-2.01169113,1.24893256\H,0,-1.5091135,1.78419372,0.32614917\H,0,-2
 .2909489,-0.91123447,0.41685778\H,0,0.20273902,1.97483312,0.72039919\H

 Normal termination of Gaussian 16 at Wed Apr  9 19:35:36 2025.
