 Gaussian 16, Revision C.01,

 ----------------------------------------------------------------------
 #t hf aug-cc-pvdz symm=none int=(grid=ultrafine) guess=(read,tcheck) s
 table=(opt,rrhf)
 ----------------------------------------------------------------------
 -----
 title
 -----
 Symbolic Z-matrix:
 Charge =  0 Multiplicity = 1

 SCF Done:  E(RHF) =  -609.876341365     A.U. after   13 cycles
 Normal termination of Gaussian 16 at Wed Apr  9 19:36:19 2025.
 Gaussian 16:  ES64L-G16RevC.01  3-Jul-2019

 ----------------------------------------------------------------------
 #t hf aug-cc-pvdz iop(5/13=1,5/36=2,99/5=2) pseudo=read geom=check gue
 ss=(read,tcheck) scf=(maxcycle=1)
 ----------------------------------------------------------------------
 -----
 title
 -----
 Structure from the checkpoint file:  "HB300SPXx10_1051_4.09_0.80_ammonia_tetrahydrothiophene_dimer_mol1.chk"
 Charge =  0 Multiplicity = 1

                         Standard orientation:
 ---------------------------------------------------------------------
 Center     Atomic      Atomic             Coordinates (Angstroms)
 Number     Number       Type             X           Y           Z
 ---------------------------------------------------------------------
      1          7           0        2.293833   -0.756967   -0.369530
      2          1           0        1.846412    0.122242   -0.124298
      3          1           0        2.999049   -0.941458    0.332902
      4          1           0        2.782479   -0.612825   -1.244291
      5          1           0       -1.167783    0.193321    2.023430
      6          1           0        0.498557   -0.396023    2.016777
      7          1           0       -1.407482   -1.982682    0.988148
      8          1           0        0.240363    0.103819   -1.833576
      9          1           0        0.121886   -1.804376    0.120092
     10          1           0       -1.107213    1.250176   -1.784182
     11          1           0       -1.660486   -1.358827   -1.526847
     12          1           0       -2.437708   -0.228235   -0.420096
     13         16           0        0.136685    1.266499    0.290509
     14          6           0       -0.347142   -0.131989    1.387169
     15          6           0       -0.766104   -1.274405    0.462981
     16          6           0       -1.474838   -0.637040   -0.731140
     17          6           0       -0.570559    0.491710   -1.220593
 ---------------------------------------------------------------------

 SCF Done:  E(RHF) =  -611.201466079     A.U. after    2 cycles

 The electronic state is 1-A.
 Alpha  occ. eigenvalues --  -75.66091 -15.72013 -13.11491 -13.11144 -13.09339
 Alpha  occ. eigenvalues --  -11.43334 -11.42035 -11.38600 -11.35398  -8.00297
 Alpha  occ. eigenvalues --   -1.32346  -1.23550  -1.07020  -1.06755  -0.84361
 Alpha  occ. eigenvalues --   -0.82438  -0.66322  -0.64963  -0.61162  -0.61002
 Alpha  occ. eigenvalues --   -0.59095  -0.53194  -0.48245  -0.46580  -0.44807
 Alpha  occ. eigenvalues --   -0.41735  -0.37496  -0.34304  -0.21500
 Alpha virt. eigenvalues --    0.03897   0.04611   0.04885   0.05805   0.06038
 Alpha virt. eigenvalues --    0.06258   0.06470   0.06954   0.07461   0.08978
 Alpha virt. eigenvalues --    0.09385   0.11361   0.12891   0.14470   0.14689

 Mulliken charges:
               1
     1  N   -1.986961
     2  H    1.870947
     3  H    0.476036
     4  H    0.473784
     5  H    1.424989
     6  H    1.388808
     7  H    1.248164
     8  H    1.481152
     9  H    1.791760
    10  H    1.363184
    11  H    1.296570
    12  H    1.403332
    13  S    0.050217
    14  C   -3.398213
    15  C   -2.887716
    16  C   -2.562708
    17  C   -3.433342
 Sum of Mulliken charges =  -0.00000

 Dipole moment (field-independent basis, Debye):
    X=              0.5969    Y=              0.4024    Z=              0.0145  Tot=              0.7200

 Test job not archived.
 1\1\GINC-SE014\SP\RHF\Aug-CC-pVDZ\C4H11N1S1\OHZDE\09-Apr-2025\0\\#t hf
  aug-cc-pvdz iop(5/13=1,5/36=2,99/5=2) pseudo=read geom=check guess=(r
 ead,tcheck) scf=(maxcycle=1)\\title\\0,1\N,0,-1.82627315,2.2398073,0.1
 9813908\H,0,-1.3275361,1.71497926,-0.51540753\H,0,-2.80551666,2.240204
 76,-0.05849198\H,0,-1.50884454,3.19950412,0.14356214\H,0,-0.77703972,-
 1.92894197,-0.16618683\H,0,-2.07869074,-0.73331937,-0.18207229\H,0,-0.
 88135907,-1.2673105,2.16095971\H,0,0.78688597,1.810578,0.49525708\H,0,
 -1.21282532,0.414523,1.72986076\H,0,2.09593643,0.78422969,-0.10933597\

 Normal termination of Gaussian 16 at Wed Apr  9 19:36:25 2025.
