 Gaussian 16, Revision C.01,

 ----------------------------------------------------------------------
 #t hf aug-cc-pvdz symm=none int=(grid=ultrafine) guess=(read,tcheck) s
 table=(opt,rrhf)
 ----------------------------------------------------------------------
 -----
 title
 -----
 Symbolic Z-matrix:
 Charge =  0 Multiplicity = 1

 SCF Done:  E(RHF) =  -747.041171337     A.U. after   14 cycles
 Normal termination of Gaussian 16 at Wed Apr  9 19:44:00 2025.
 Gaussian 16:  ES64L-G16RevC.01  3-Jul-2019

 ----------------------------------------------------------------------
 #t hf aug-cc-pvdz iop(5/13=1,5/36=2,99/5=2) pseudo=read geom=check gue
 ss=(read,tcheck) scf=(maxcycle=1)
 ----------------------------------------------------------------------
 -----
 title
 -----
 Structure from the checkpoint file:  "HB300SPXx10_1452_5.08_0.85_methylcyanate_phosphineF2_dimer_mol1.chk"
 Charge =  0 Multiplicity = 1

                         Standard orientation:
 ---------------------------------------------------------------------
 Center     Atomic      Atomic             Coordinates (Angstroms)
 Number     Number       Type             X           Y           Z
 ---------------------------------------------------------------------
      1          1           0       -2.585385   -1.061949    1.324304
      2          1           0       -3.172218   -1.791470   -0.198169
      3          1           0       -1.413059   -1.645984    0.102658
      4          6           0       -2.390230   -1.202725    0.264693
      5          8           0       -2.447920    0.095096   -0.409089
      6          6           0       -1.570525    0.949194   -0.041129
      7          7           0       -0.785016    1.739187    0.264630
      8         15           0        1.531910    0.326718   -0.160391
      9          9           0        0.587795   -0.978264   -0.080107
     10          9           0        2.933231   -0.414344    0.086819
     11          1           0        1.345790    0.718215    1.195585
 ---------------------------------------------------------------------

 SCF Done:  E(RHF) =  -748.807336645     A.U. after    2 cycles

 The electronic state is 1-A.
 Alpha  occ. eigenvalues -- -105.28403 -29.28771 -29.27598 -21.16195 -15.76457
 Alpha  occ. eigenvalues --  -11.50234 -11.45827  -2.87528  -1.86059  -1.61927
 Alpha  occ. eigenvalues --   -1.58528  -1.51932  -1.31249  -1.05825  -0.89448
 Alpha  occ. eigenvalues --   -0.74769  -0.67982  -0.66022  -0.57443  -0.56518
 Alpha  occ. eigenvalues --   -0.55189  -0.53157  -0.46042  -0.42927  -0.39704
 Alpha  occ. eigenvalues --   -0.36296  -0.35527  -0.33846  -0.27729  -0.24847
 Alpha  occ. eigenvalues --   -0.19486   0.01163
 Alpha virt. eigenvalues --    0.03193   0.05303   0.06964   0.07193   0.08306
 Alpha virt. eigenvalues --    0.10319   0.11110   0.12235   0.12409   0.12941
 Alpha virt. eigenvalues --    0.13328   0.14427   0.15219   0.15956   0.16726

 Mulliken charges:
               1
     1  H    1.265311
     2  H    1.061857
     3  H    1.063280
     4  C   -2.722671
     5  O   -2.689009
     6  C    4.209689
     7  N   -2.400118
     8  P    1.584159
     9  F   -0.188241
    10  F   -0.206171
    11  H   -0.978087
 Sum of Mulliken charges =  -0.00000

 Dipole moment (field-independent basis, Debye):
    X=              1.5097    Y=             -5.6567    Z=              1.7297  Tot=              6.1048

 Test job not archived.
 1\1\GINC-SE056\SP\RHF\Aug-CC-pVDZ\C2H4F2N1O1P1\OHZDE\09-Apr-2025\0\\#t
  hf aug-cc-pvdz iop(5/13=1,5/36=2,99/5=2) pseudo=read geom=check guess
 =(read,tcheck) scf=(maxcycle=1)\\title\\0,1\H,0,-2.89287834,1.38344137
 ,-2.41875402\H,0,-2.88368966,0.15494314,-3.71690786\H,0,-2.33807438,-0
 .28314113,-2.0686702\C,0,-2.39546429,0.50243917,-2.8151059\O,0,-1.0419
 8507,0.86597867,-3.23651367\C,0,-0.26338211,1.27221362,-2.30729377\N,0
 ,0.4658792,1.6354549,-1.48824768\P,0,0.33691728,-0.47574979,0.26390597
 \F,0,-1.05068497,-0.82799143,-0.47856345\F,0,0.08965714,-1.34363334,1.

 Normal termination of Gaussian 16 at Wed Apr  9 19:44:04 2025.
