 Gaussian 16, Revision C.01,

 ----------------------------------------------------------------------
 #t hf aug-cc-pvdz symm=none int=(grid=ultrafine) guess=(read,tcheck) s
 table=(opt,rrhf)
 ----------------------------------------------------------------------
 -----
 title
 -----
 Symbolic Z-matrix:
 Charge =  0 Multiplicity = 1

 SCF Done:  E(RHF) =  -742.479750820     A.U. after   14 cycles
 Normal termination of Gaussian 16 at Wed Apr  9 19:37:30 2025.
 Gaussian 16:  ES64L-G16RevC.01  3-Jul-2019

 ----------------------------------------------------------------------
 #t hf aug-cc-pvdz iop(5/13=1,5/36=2,99/5=2) pseudo=read geom=check gue
 ss=(read,tcheck) scf=(maxcycle=1)
 ----------------------------------------------------------------------
 -----
 title
 -----
 Structure from the checkpoint file:  "HB300SPXx10_1140_4.17_2.00_aceticacid_thioacetone_dimer_mol1.chk"
 Charge =  0 Multiplicity = 1

                         Standard orientation:
 ---------------------------------------------------------------------
 Center     Atomic      Atomic             Coordinates (Angstroms)
 Number     Number       Type             X           Y           Z
 ---------------------------------------------------------------------
      1          6           0        2.760352   -2.543945    0.000000
      2          8           0        3.136584   -1.395795    0.000000
      3          8           0        1.469753   -2.899087    0.000000
      4          1           0        0.899972   -2.096536    0.000000
      5          6           0        3.670064   -3.741849    0.000000
      6          1           0        4.704893   -3.418136    0.000000
      7          1           0        3.470007   -4.356060    0.876954
      8          1           0        3.470007   -4.356060   -0.876954
      9          1           0       -4.098937    3.219876    0.000000
     10          1           0       -2.883633    4.179111    0.874412
     11          1           0       -2.883633    4.179111   -0.874412
     12          1           0        0.000000    1.909785    0.000000
     13          1           0       -0.447511    3.393662   -0.872921
     14          6           0       -3.065613    3.549391    0.000000
     15          6           0       -2.106795    2.398858    0.000000
     16         16           0       -2.638861    0.857191    0.000000
     17          6           0       -0.660104    2.770142    0.000000
     18          1           0       -0.447511    3.393662    0.872921
 ---------------------------------------------------------------------

 SCF Done:  E(RHF) =  -744.278031392     A.U. after    2 cycles

 The electronic state is 1-A'.
 Alpha  occ. eigenvalues --  -75.66137 -21.11949 -21.04725 -13.15200 -13.01320
 Alpha  occ. eigenvalues --  -12.97117 -11.51664 -11.47743 -11.40348 -11.39266
 Alpha  occ. eigenvalues --  -11.38635  -8.00356  -1.82446  -1.64739  -1.28523
 Alpha  occ. eigenvalues --   -1.11026  -1.04402  -1.03729  -0.80185  -0.75334
 Alpha  occ. eigenvalues --   -0.63517  -0.61828  -0.61700  -0.61121  -0.60343
 Alpha  occ. eigenvalues --   -0.60168  -0.55465  -0.54238  -0.50786  -0.49798
 Alpha  occ. eigenvalues --   -0.44950  -0.41637  -0.33579  -0.32038  -0.29412
 Alpha  occ. eigenvalues --   -0.21773
 Alpha virt. eigenvalues --    0.02428   0.03815   0.05474   0.05664   0.06404
 Alpha virt. eigenvalues --    0.06445   0.06736   0.06954   0.07406   0.08398
 Alpha virt. eigenvalues --    0.08938   0.09215   0.10461   0.12098   0.12412

 Mulliken charges:
               1
     1  C    5.198216
     2  O   -2.907035
     3  O   -2.921042
     4  H    0.962336
     5  C   -4.054085
     6  H    1.249690
     7  H    1.232188
     8  H    1.232188
     9  H    1.477929
    10  H    1.177630
    11  H    1.177630
    12  H    1.568814
    13  H    1.169173
    14  C   -4.239303
    15  C   -0.187560
    16  S    1.049869
    17  C   -4.355812
    18  H    1.169173
 Sum of Mulliken charges =  -0.00000

 Dipole moment (field-independent basis, Debye):
    X=             -0.7153    Y=             -0.9218    Z=              0.0000  Tot=              1.1668

 Test job not archived.
 1\1\GINC-SE168\SP\RHF\Aug-CC-pVDZ\C5H10O2S1\OHZDE\09-Apr-2025\0\\#t hf
  aug-cc-pvdz iop(5/13=1,5/36=2,99/5=2) pseudo=read geom=check guess=(r
 ead,tcheck) scf=(maxcycle=1)\\title\\0,1\C,0,0.15920132,2.45664609,0.\
 O,0,1.21885316,1.87618237,0.\O,0,-1.02533188,1.83322707,0.\H,0,-0.8922
 641,0.85801947,0.\C,0,0.00380934,3.95277518,0.\H,0,0.98023034,4.424223
 4,0.\H,0,-0.56217465,4.2641268,-0.87695442\H,0,-0.56217465,4.2641268,0
 .87695442\H,0,-0.90418599,-6.43945926,0.\H,0,0.63850413,-6.30830244,-0
 .87441231\H,0,0.63850413,-6.30830244,0.87441231\H,0,1.19070539,-2.6805

 Normal termination of Gaussian 16 at Wed Apr  9 19:37:35 2025.
