 Gaussian 16, Revision C.01,

 ----------------------------------------------------------------------
 #t hf aug-cc-pvdz symm=none int=(grid=ultrafine) guess=(read,tcheck) s
 table=(opt,rrhf)
 ----------------------------------------------------------------------
 -----
 title
 -----
 Symbolic Z-matrix:
 Charge =  0 Multiplicity = 1

 SCF Done:  E(RHF) =  -630.498507799     A.U. after   14 cycles

 1\1\GINC-SE037\Stability\RHF\Aug-CC-pVDZ\C6H10S1\OHZDE\09-Apr-2025\0\\
 #t hf aug-cc-pvdz symm=none int=(grid=ultrafine) guess=(read,tcheck) s
 table=(opt,rrhf)\\title\\0,1\C,0,2.59090187,-0.04968862,0.43961338\H,0
 ,1.93323189,0.27193926,-0.33858357\C,0,3.30609004,-0.41751171,1.325807
 27\H,0,3.94715573,-0.74121457,2.10714096\H,0,0.64913987,-1.71913298,-0
 .37850813\H,0,-0.82552028,-1.76596597,-1.35398912\H,0,-1.07337188,-2.0
 2551013,1.29866424\H,0,-1.38857366,1.77037472,0.37588085\H,0,-2.170409
 06,-0.92505347,0.46658945\H,0,0.32327887,1.96101412,0.77013087\H,0,-1.

 Normal termination of Gaussian 16 at Wed Apr  9 19:34:39 2025.
 Gaussian 16:  ES64L-G16RevC.01  3-Jul-2019

 ----------------------------------------------------------------------
 #t hf aug-cc-pvdz iop(5/13=1,5/36=2,99/5=2) pseudo=read geom=check gue
 ss=(read,tcheck) scf=(maxcycle=1)
 ----------------------------------------------------------------------
 -----
 title
 -----
 Structure from the checkpoint file:  "HB300SPXx10_1001_4.04_0.80_ethyne_tetrahydrothiophene_dimer_mol1.chk"
 Charge =  0 Multiplicity = 1

                         Standard orientation:
 ---------------------------------------------------------------------
 Center     Atomic      Atomic             Coordinates (Angstroms)
 Number     Number       Type             X           Y           Z
 ---------------------------------------------------------------------
      1          6           0       -2.219252   -0.402730   -0.064243
      2          1           0       -1.358636   -1.033778   -0.012449
      3          6           0       -3.166982    0.325682   -0.122141
      4          1           0       -4.012624    0.964815   -0.173422
      5          1           0       -0.189158    0.044281   -1.768856
      6          1           0        1.496821   -0.397111   -2.070565
      7          1           0        0.982508    2.110817   -1.288806
      8          1           0        1.683395   -0.073644    1.888695
      9          1           0        2.308467    1.253116   -0.505845
     10          1           0       -0.062124   -0.264909    2.085661
     11          1           0        0.886234    2.132976    1.314686
     12          1           0       -0.552736    1.485254    0.532299
     13         16           0        0.722428   -1.295696    0.034985
     14          6           0        0.796189   -0.051044   -1.315557
     15          6           0        1.227980    1.256718   -0.657297
     16          6           0        0.512791    1.320360    0.691400
     17          6           0        0.725773   -0.030767    1.374311
 ---------------------------------------------------------------------

 SCF Done:  E(RHF) =  -631.915342116     A.U. after    2 cycles

 The electronic state is 1-A.
 Alpha  occ. eigenvalues --  -75.66803 -13.13230 -13.12181 -13.10116 -11.43909
 Alpha  occ. eigenvalues --  -11.43061 -11.40304 -11.39610 -11.39220 -11.36278
 Alpha  occ. eigenvalues --   -8.01001  -1.32935  -1.09081  -1.07535  -1.07382
 Alpha  occ. eigenvalues --   -0.85008  -0.83213  -0.78236  -0.67271  -0.65752
 Alpha  occ. eigenvalues --   -0.64468  -0.61130  -0.54022  -0.48979  -0.47283
 Alpha  occ. eigenvalues --   -0.45569  -0.42372  -0.37965  -0.37840  -0.35186
 Alpha  occ. eigenvalues --   -0.22462
 Alpha virt. eigenvalues --    0.03576   0.04570   0.04874   0.05409   0.05679
 Alpha virt. eigenvalues --    0.05969   0.06734   0.06912   0.07484   0.08631
 Alpha virt. eigenvalues --    0.10121   0.11358   0.12405   0.13378   0.14115

 Mulliken charges:
               1
     1  C   -0.027248
     2  H    1.670800
     3  C   -1.486083
     4  H    0.450175
     5  H    1.559109
     6  H    1.377842
     7  H    1.277889
     8  H    1.423183
     9  H    1.441031
    10  H    1.484306
    11  H    1.226395
    12  H    2.021108
    13  S   -0.091631
    14  C   -3.294466
    15  C   -2.765203
    16  C   -2.868564
    17  C   -3.398645
 Sum of Mulliken charges =   0.00000

 Dipole moment (field-independent basis, Debye):
    X=              0.4971    Y=              0.4512    Z=              0.0329  Tot=              0.6722

 Test job not archived.
 1\1\GINC-SE037\SP\RHF\Aug-CC-pVDZ\C6H10S1\OHZDE\09-Apr-2025\0\\#t hf a
 ug-cc-pvdz iop(5/13=1,5/36=2,99/5=2) pseudo=read geom=check guess=(rea
 d,tcheck) scf=(maxcycle=1)\\title\\0,1\C,0,2.59090187,-0.04968862,0.43
 961338\H,0,1.93323189,0.27193926,-0.33858357\C,0,3.30609004,-0.4175117
 1,1.32580727\H,0,3.94715573,-0.74121457,2.10714096\H,0,0.64913987,-1.7
 1913298,-0.37850813\H,0,-0.82552028,-1.76596597,-1.35398912\H,0,-1.073
 37188,-2.02551013,1.29866424\H,0,-1.38857366,1.77037472,0.37588085\H,0
 ,-2.17040906,-0.92505347,0.46658945\H,0,0.32327887,1.96101412,0.770130

 Normal termination of Gaussian 16 at Wed Apr  9 19:34:46 2025.
