 Gaussian 16, Revision C.01,

 ----------------------------------------------------------------------
 #t hf aug-cc-pvdz symm=none int=(grid=ultrafine) guess=(read,tcheck) s
 table=(opt,rrhf)
 ----------------------------------------------------------------------
 -----
 title
 -----
 Symbolic Z-matrix:
 Charge =  0 Multiplicity = 1

 SCF Done:  E(RHF) =  -897.820686029     A.U. after   12 cycles
 Normal termination of Gaussian 16 at Wed Apr  9 19:38:52 2025.
 Gaussian 16:  ES64L-G16RevC.01  3-Jul-2019

 ----------------------------------------------------------------------
 #t hf aug-cc-pvdz iop(5/13=1,5/36=2,99/5=2) pseudo=read geom=check gue
 ss=(read,tcheck) scf=(maxcycle=1)
 ----------------------------------------------------------------------
 -----
 title
 -----
 Structure from the checkpoint file:  "HB300SPXx10_1333_4.38_0.90_hydrogenchloride_methanethiol_dimer_mol1.chk"
 Charge =  0 Multiplicity = 1

                         Standard orientation:
 ---------------------------------------------------------------------
 Center     Atomic      Atomic             Coordinates (Angstroms)
 Number     Number       Type             X           Y           Z
 ---------------------------------------------------------------------
      1          1           0       -0.768937   -0.402390   -0.090640
      2         17           0       -1.990708    0.059239    0.004338
      3          1           0        0.646040    1.587021    0.556252
      4          1           0        1.470938    1.489384   -1.005033
      5          1           0        2.418853    1.372138    0.484886
      6          1           0        1.267175   -0.933698    1.232097
      7          6           0        1.469729    1.126955    0.019123
      8         16           0        1.249350   -0.680078   -0.085378
 ---------------------------------------------------------------------

 SCF Done:  E(RHF) =  -898.527205149     A.U. after    2 cycles

 The electronic state is 1-A.
 Alpha  occ. eigenvalues --  -99.87253 -75.71096 -13.16384 -13.12739 -13.10031
 Alpha  occ. eigenvalues --  -11.41509 -10.44454  -9.64586  -9.63752  -9.63679
 Alpha  occ. eigenvalues --   -8.05113  -1.27791  -1.20723  -0.96550  -0.68097
 Alpha  occ. eigenvalues --   -0.61991  -0.60488  -0.51610  -0.49988  -0.49896
 Alpha  occ. eigenvalues --   -0.41636  -0.27637
 Alpha virt. eigenvalues --    0.02078   0.03865   0.05030   0.06136   0.07845
 Alpha virt. eigenvalues --    0.10053   0.10728   0.10903   0.13774   0.14477
 Alpha virt. eigenvalues --    0.14595   0.15997   0.17357   0.18435   0.18569

 Mulliken charges:
               1
     1  H    1.118351
     2  Cl  -0.800852
     3  H    1.218813
     4  H    1.368198
     5  H    1.352308
     6  H    1.197055
     7  C   -4.172167
     8  S   -1.281705
 Sum of Mulliken charges =  -0.00000

 Dipole moment (field-independent basis, Debye):
    X=              3.1986    Y=             -0.2028    Z=             -0.8637  Tot=              3.3194

 Test job not archived.
 1\1\GINC-SE231\SP\RHF\Aug-CC-pVDZ\C1H5Cl1S1\OHZDE\09-Apr-2025\0\\#t hf
  aug-cc-pvdz iop(5/13=1,5/36=2,99/5=2) pseudo=read geom=check guess=(r
 ead,tcheck) scf=(maxcycle=1)\\title\\0,1\H,0,-0.71323053,0.36081391,-0
 .38963987\Cl,0,-0.97574618,1.50432633,-0.9712843\H,0,1.63589532,0.6867
 3575,0.47855695\H,0,2.1610007,-0.71909448,-0.45712847\H,0,2.39325025,-
 0.70974569,1.29732939\H,0,-0.24038845,-0.6907244,1.81225903\C,0,1.7401
 4352,-0.39383358,0.49015012\S,0,0.11143945,-1.20286144,0.62300917\\Ver
 sion=ES64L-G16RevC.01\State=1-A\HF=-898.5272051\RMSD=8.892e-02\Dipole=

 Normal termination of Gaussian 16 at Wed Apr  9 19:38:54 2025.
