 Gaussian 16, Revision C.01,

 ----------------------------------------------------------------------
 #t hf aug-cc-pvdz symm=none int=(grid=ultrafine) guess=(read,tcheck) s
 table=(opt,rrhf)
 ----------------------------------------------------------------------
 -----
 title
 -----
 Symbolic Z-matrix:
 Charge =  0 Multiplicity = 1

 SCF Done:  E(RHF) =  -797.393607874     A.U. after   10 cycles
 Normal termination of Gaussian 16 at Wed Apr  9 19:38:50 2025.
 Gaussian 16:  ES64L-G16RevC.01  3-Jul-2019

 ----------------------------------------------------------------------
 #t hf aug-cc-pvdz iop(5/13=1,5/36=2,99/5=2) pseudo=read geom=check gue
 ss=(read,tcheck) scf=(maxcycle=1)
 ----------------------------------------------------------------------
 -----
 title
 -----
 Structure from the checkpoint file:  "HB300SPXx10_1223_4.27_0.90_sulfane_sulfane_dimer_mol1.chk"
 Charge =  0 Multiplicity = 1

                         Standard orientation:
 ---------------------------------------------------------------------
 Center     Atomic      Atomic             Coordinates (Angstroms)
 Number     Number       Type             X           Y           Z
 ---------------------------------------------------------------------
      1          1           0       -0.599627   -0.079972   -0.108603
      2          1           0       -1.991774    1.263093    0.082572
      3         16           0       -1.941069   -0.074191   -0.003196
      4          1           0        1.815544    0.374517    1.219221
      5          1           0        2.017238    1.133785   -0.554463
      6         16           0        1.863483   -0.094023   -0.036725
 ---------------------------------------------------------------------

 SCF Done:  E(RHF) =  -797.868155693     A.U. after    2 cycles

 The electronic state is 1-A.
 Alpha  occ. eigenvalues --  -75.71553 -75.68854 -13.16421 -13.14384 -13.12396
 Alpha  occ. eigenvalues --  -13.09063 -13.06786 -13.00336  -8.05300  -8.02612
 Alpha  occ. eigenvalues --   -1.13305  -1.10020  -0.56320  -0.54376  -0.45124
 Alpha  occ. eigenvalues --   -0.42910  -0.26760  -0.24824
 Alpha virt. eigenvalues --    0.01241   0.04388   0.05398   0.05916   0.10718
 Alpha virt. eigenvalues --    0.11271   0.12201   0.13760   0.15348   0.15507
 Alpha virt. eigenvalues --    0.15928   0.19322   0.23200   0.23877   0.24298

 Mulliken charges:
               1
     1  H    1.655526
     2  H    0.928497
     3  S   -2.279767
     4  H    1.039362
     5  H    1.077137
     6  S   -2.420755
 Sum of Mulliken charges =  -0.00000

 Dipole moment (field-independent basis, Debye):
    X=             -0.2013    Y=             -1.9401    Z=             -0.4817  Tot=              2.0091

 Test job not archived.
 1\1\GINC-SE168\SP\RHF\Aug-CC-pVDZ\H4S2\OHZDE\09-Apr-2025\0\\#t hf aug-
 cc-pvdz iop(5/13=1,5/36=2,99/5=2) pseudo=read geom=check guess=(read,t
 check) scf=(maxcycle=1)\\title\\0,1\H,0,0.53139832,0.64498716,-0.29055
 053\H,0,2.23879772,0.67266195,0.63813986\S,0,1.60273769,1.45777787,-0.
 24349168\H,0,-1.67772285,-0.33487896,1.11029634\H,0,-0.90975213,-1.850
 43805,0.17412163\S,0,-1.5242167,-0.70848961,-0.16879621\\Version=ES64L
 -G16RevC.01\State=1-A\HF=-797.8681557\RMSD=1.606e-01\Dipole=-0.2281265
 ,0.4371495,-0.6177637\Quadrupole=-0.2281821,0.65169,-0.4235078,-0.1315

 Normal termination of Gaussian 16 at Wed Apr  9 19:38:52 2025.
