 Gaussian 16, Revision C.01,

 ----------------------------------------------------------------------
 #t hf aug-cc-pvdz symm=none int=(grid=ultrafine) guess=(read,tcheck) s
 table=(opt,rrhf)
 ----------------------------------------------------------------------
 -----
 title
 -----
 Symbolic Z-matrix:
 Charge =  0 Multiplicity = 1

 SCF Done:  E(RHF) =  -875.463399204     A.U. after   11 cycles
 Normal termination of Gaussian 16 at Wed Apr  9 19:38:56 2025.
 Gaussian 16:  ES64L-G16RevC.01  3-Jul-2019

 ----------------------------------------------------------------------
 #t hf aug-cc-pvdz iop(5/13=1,5/36=2,99/5=2) pseudo=read geom=check gue
 ss=(read,tcheck) scf=(maxcycle=1)
 ----------------------------------------------------------------------
 -----
 title
 -----
 Structure from the checkpoint file:  "HB300SPXx10_1216_4.26_1.05_sulfane_dimethylsulfide_dimer_mol1.chk"
 Charge =  0 Multiplicity = 1

                         Standard orientation:
 ---------------------------------------------------------------------
 Center     Atomic      Atomic             Coordinates (Angstroms)
 Number     Number       Type             X           Y           Z
 ---------------------------------------------------------------------
      1          1           0        1.289111   -0.020970   -0.565634
      2          1           0        2.812616    1.176436   -0.348686
      3         16           0        2.501139   -0.069953    0.034815
      4          1           0       -2.103114   -1.398411    1.167610
      5          1           0       -0.325434   -1.350209    1.079272
      6          1           0       -1.252340   -2.297506   -0.099359
      7          1           0       -1.329041    2.297702   -0.021544
      8          1           0       -0.354486    1.343704    1.112192
      9          1           0       -2.134640    1.326969    1.221314
     10          6           0       -1.245364   -1.389392    0.498149
     11         16           0       -1.340595    0.009486   -0.647628
     12          6           0       -1.283200    1.371018    0.545157
 ---------------------------------------------------------------------

 SCF Done:  E(RHF) =  -876.357708059     A.U. after    2 cycles

 The electronic state is 1-A.
 Alpha  occ. eigenvalues --  -75.69364 -75.67762 -13.15315 -13.10038 -13.08889
 Alpha  occ. eigenvalues --  -13.07605 -13.06785 -13.01735 -11.39583 -11.39446
 Alpha  occ. eigenvalues --   -8.03076  -8.01856  -1.23165  -1.10529  -1.03331
 Alpha  occ. eigenvalues --   -0.88432  -0.60820  -0.60444  -0.58268  -0.57186
 Alpha  occ. eigenvalues --   -0.54152  -0.44772  -0.43108  -0.37134  -0.25363
 Alpha  occ. eigenvalues --   -0.22450
 Alpha virt. eigenvalues --    0.02543   0.03331   0.04106   0.05475   0.06939
 Alpha virt. eigenvalues --    0.07396   0.07727   0.08894   0.10705   0.11488
 Alpha virt. eigenvalues --    0.12308   0.12909   0.14445   0.15735   0.16458

 Mulliken charges:
               1
     1  H    1.261480
     2  H    1.023031
     3  S   -2.222929
     4  H    1.392227
     5  H    1.351620
     6  H    1.418055
     7  H    1.419789
     8  H    1.378151
     9  H    1.391257
    10  C   -4.554695
    11  S    0.739612
    12  C   -4.597597
 Sum of Mulliken charges =  -0.00000

 Dipole moment (field-independent basis, Debye):
    X=             -0.0362    Y=             -0.8252    Z=              0.3062  Tot=              0.8810

 Test job not archived.
 1\1\GINC-SE135\SP\RHF\Aug-CC-pVDZ\C2H8S2\OHZDE\09-Apr-2025\0\\#t hf au
 g-cc-pvdz iop(5/13=1,5/36=2,99/5=2) pseudo=read geom=check guess=(read
 ,tcheck) scf=(maxcycle=1)\\title\\0,1\H,0,0.94021613,0.77457481,-0.419
 26695\H,0,0.91265107,2.63108631,-1.01468344\S,0,1.34625135,1.9701562,0
 .06824785\H,0,-0.97098238,-2.00357152,1.82525731\H,0,0.04490163,-0.545
 83594,1.71011758\H,0,0.74108739,-2.14620291,1.39412982\H,0,-2.31442775
 ,-0.18583076,-1.42520463\H,0,-1.73088276,0.61200688,0.04726193\H,0,-2.
 77919655,-0.82664266,0.15889122\C,0,-0.14944941,-1.53147082,1.29028235

 Normal termination of Gaussian 16 at Wed Apr  9 19:38:59 2025.
