 Gaussian 16, Revision C.01,

 ----------------------------------------------------------------------
 #t hf aug-cc-pvdz symm=none int=(grid=ultrafine) guess=(read,tcheck) s
 table=(opt,rrhf)
 ----------------------------------------------------------------------
 -----
 title
 -----
 Symbolic Z-matrix:
 Charge =  0 Multiplicity = 1

 SCF Done:  E(RHF) =  -514.629393916     A.U. after   12 cycles
 Normal termination of Gaussian 16 at Wed Apr  9 19:34:46 2025.
 Gaussian 16:  ES64L-G16RevC.01  3-Jul-2019

 ----------------------------------------------------------------------
 #t hf aug-cc-pvdz iop(5/13=1,5/36=2,99/5=2) pseudo=read geom=check gue
 ss=(read,tcheck) scf=(maxcycle=1)
 ----------------------------------------------------------------------
 -----
 title
 -----
 Structure from the checkpoint file:  "HB300SPXx10_1011_4.05_0.80_ethyne_thioacetone_dimer_mol3.chk"
 Charge =  0 Multiplicity = 1

                         Standard orientation:
 ---------------------------------------------------------------------
 Center     Atomic      Atomic             Coordinates (Angstroms)
 Number     Number       Type             X           Y           Z
 ---------------------------------------------------------------------
      1          1           0       -2.148601    0.381717    0.000000
      2          1           0       -1.316530    1.686602    0.874719
      3          1           0       -1.316530    1.686602   -0.874719
      4          1           0        2.147009    0.486686    0.000000
      5          1           0        1.248341    1.743348   -0.874314
      6          6           0       -1.280784    1.032127    0.000000
      7          6           0        0.000000    0.253961    0.000000
      8         16           0        0.022137   -1.373041    0.000000
      9          6           0        1.244747    1.087303    0.000000
     10          1           0        1.248341    1.743348    0.874314
 ---------------------------------------------------------------------

 SCF Done:  E(RHF) =  -515.448947464     A.U. after    2 cycles

 The electronic state is 1-A'.
 Alpha  occ. eigenvalues --  -75.65956 -13.15134 -13.00985 -12.96930 -11.47365
 Alpha  occ. eigenvalues --  -11.40234 -11.38508  -8.00195  -1.28340  -1.04294
 Alpha  occ. eigenvalues --   -1.03625  -0.75205  -0.61608  -0.60965  -0.60094
 Alpha  occ. eigenvalues --   -0.55448  -0.50523  -0.41556  -0.32013  -0.21486
 Alpha virt. eigenvalues --    0.02363   0.05344   0.05484   0.06674   0.06769
 Alpha virt. eigenvalues --    0.07271   0.08150   0.08745   0.09891   0.13602
 Alpha virt. eigenvalues --    0.13709   0.15090   0.17090   0.17179   0.17281

 Mulliken charges:
               1
     1  H    1.490950
     2  H    1.161129
     3  H    1.161129
     4  H    1.488960
     5  H    1.164478
     6  C   -4.213811
     7  C   -0.214894
     8  S    1.017923
     9  C   -4.220342
    10  H    1.164478
 Sum of Mulliken charges =   0.00000

 Dipole moment (field-independent basis, Debye):
    X=             -0.0114    Y=              0.0468    Z=              0.0000  Tot=              0.0482

 Test job not archived.
 1\1\GINC-SE145\SP\RHF\Aug-CC-pVDZ\C3H6S1\OHZDE\09-Apr-2025\0\\#t hf au
 g-cc-pvdz iop(5/13=1,5/36=2,99/5=2) pseudo=read geom=check guess=(read
 ,tcheck) scf=(maxcycle=1)\\title\\0,1\H,0,-0.29418133,2.84736524,0.\H,
 0,1.22827177,2.56950611,0.87471889\H,0,1.22827177,2.56950611,-0.874718
 89\H,0,1.42474965,-1.0907251,0.\H,0,2.24913865,0.21586854,-0.87431367\
 C,0,0.63572496,2.28932088,0.\C,0,0.39868284,0.80953647,0.\S,0,-1.09955
 789,0.17479234,0.\C,0,1.64028628,-0.02848168,0.\H,0,2.24913865,0.21586
 854,0.87431367\\Version=ES64L-G16RevC.01\State=1-A'\HF=-515.4489475\RM

 Normal termination of Gaussian 16 at Wed Apr  9 19:34:49 2025.
