 Gaussian 16, Revision C.01,

 ----------------------------------------------------------------------
 #t hf aug-cc-pvdz symm=none int=(grid=ultrafine) guess=(read,tcheck) s
 table=(opt,rrhf)
 ----------------------------------------------------------------------
 -----
 title
 -----
 Symbolic Z-matrix:
 Charge =  0 Multiplicity = 1

 SCF Done:  E(RHF) =  -952.380602731     A.U. after   12 cycles

 1\1\GINC-SE212\Stability\RHF\Aug-CC-pVDZ\C4H10S2\OHZDE\09-Apr-2025\0\\
 #t hf aug-cc-pvdz symm=none int=(grid=ultrafine) guess=(read,tcheck) s
 table=(opt,rrhf)\\title\\0,1\H,0,1.25927999,1.11406487,-0.28265552\H,0
 ,2.28279017,2.73418341,-0.67577847\S,0,1.07110419,2.4516331,-0.1764195
 4\H,0,0.21518023,-0.15605707,1.79002032\H,0,0.12536147,-1.89927079,2.0
 7102902\H,0,-2.17762114,-0.54449181,1.88202139\H,0,-1.19503381,-1.8676
 6289,-1.67347666\H,0,-2.03024162,-2.06271768,0.99971482\H,0,-0.4907861
 2,-0.28186075,-2.01700045\H,0,-2.80306759,-0.38846877,-0.64316213\H,0,

 Normal termination of Gaussian 16 at Wed Apr  9 04:10:39 2025.
 Gaussian 16:  ES64L-G16RevC.01  3-Jul-2019

 ----------------------------------------------------------------------
 #t hf aug-cc-pvdz iop(5/13=1,5/36=2,99/5=2) pseudo=read geom=check gue
 ss=(read,tcheck) scf=(maxcycle=1)
 ----------------------------------------------------------------------
 -----
 title
 -----
 Structure from the checkpoint file:  "HB300SPXx10_1236_4.28_1.05_sulfane_tetrahydrothiophene_dimer_mol1.chk"
 Charge =  0 Multiplicity = 1

                         Standard orientation:
 ---------------------------------------------------------------------
 Center     Atomic      Atomic             Coordinates (Angstroms)
 Number     Number       Type             X           Y           Z
 ---------------------------------------------------------------------
      1          1           0       -1.726903   -0.576656   -0.010770
      2          1           0       -3.673789   -0.710842    0.125352
      3         16           0       -2.784611    0.264059   -0.111940
      4          1           0        0.131405    0.021269   -1.796412
      5          1           0        1.722341   -0.720414   -2.007729
      6          1           0        1.630816    1.885318   -1.394003
      7          1           0        1.872154   -0.186145    1.923921
      8          1           0        2.770091    0.863864   -0.520002
      9          1           0        0.114690   -0.056878    2.076731
     10          1           0        1.487439    2.086278    1.200440
     11          1           0       -0.026027    1.655964    0.415970
     12         16           0        0.745308   -1.332597    0.116415
     13          6           0        1.073371   -0.209915   -1.301563
     14          6           0        1.710231    1.043252   -0.706317
     15          6           0        0.990265    1.313870    0.613808
     16          6           0        0.947241   -0.008067    1.379890
 ---------------------------------------------------------------------

 SCF Done:  E(RHF) =  -953.654675037     A.U. after    2 cycles

 The electronic state is 1-A.
 Alpha  occ. eigenvalues --  -75.69183 -75.66807 -13.15780 -13.10953 -13.10037
 Alpha  occ. eigenvalues --  -13.08822 -13.07259 -13.01101 -11.43750 -11.42920
 Alpha  occ. eigenvalues --  -11.39206 -11.36465  -8.02896  -8.00887  -1.33012
 Alpha  occ. eigenvalues --   -1.10372  -1.07442  -1.07325  -0.84786  -0.83401
 Alpha  occ. eigenvalues --   -0.66809  -0.65747  -0.61050  -0.55283  -0.53606
 Alpha  occ. eigenvalues --   -0.49144  -0.47231  -0.45793  -0.42837  -0.42312
 Alpha  occ. eigenvalues --   -0.35089  -0.25174  -0.22069
 Alpha virt. eigenvalues --    0.03001   0.03865   0.04805   0.05553   0.06026
 Alpha virt. eigenvalues --    0.06342   0.06382   0.06947   0.07500   0.08726
 Alpha virt. eigenvalues --    0.11376   0.12260   0.12877   0.13518   0.14496

 Mulliken charges:
               1
     1  H    1.358502
     2  H    0.918915
     3  S   -2.217519
     4  H    1.401800
     5  H    1.389588
     6  H    1.276956
     7  H    1.420950
     8  H    1.404988
     9  H    1.338537
    10  H    1.303424
    11  H    1.470262
    12  S    0.565918
    13  C   -3.067069
    14  C   -2.866065
    15  C   -2.494680
    16  C   -3.204507
 Sum of Mulliken charges =   0.00000

 Dipole moment (field-independent basis, Debye):
    X=              0.6525    Y=              1.2003    Z=             -0.1835  Tot=              1.3785

 Test job not archived.
 1\1\GINC-SE212\SP\RHF\Aug-CC-pVDZ\C4H10S2\OHZDE\09-Apr-2025\0\\#t hf a
 ug-cc-pvdz iop(5/13=1,5/36=2,99/5=2) pseudo=read geom=check guess=(rea
 d,tcheck) scf=(maxcycle=1)\\title\\0,1\H,0,1.25927999,1.11406487,-0.28
 265552\H,0,2.28279017,2.73418341,-0.67577847\S,0,1.07110419,2.4516331,
 -0.17641954\H,0,0.21518023,-0.15605707,1.79002032\H,0,0.12536147,-1.89
 927079,2.07102902\H,0,-2.17762114,-0.54449181,1.88202139\H,0,-1.195033
 81,-1.86766289,-1.67347666\H,0,-2.03024162,-2.06271768,0.99971482\H,0,
 -0.49078612,-0.28186075,-2.01700045\H,0,-2.80306759,-0.38846877,-0.643

 Normal termination of Gaussian 16 at Wed Apr  9 04:10:45 2025.
