 Gaussian 16, Revision C.01,

 ----------------------------------------------------------------------
 #t hf aug-cc-pvdz symm=none int=(grid=ultrafine) guess=(read,tcheck) s
 table=(opt,rrhf)
 ----------------------------------------------------------------------
 -----
 title
 -----
 Symbolic Z-matrix:
 Charge =  0 Multiplicity = 1

 SCF Done:  E(RHF) =  -1121.34491121     A.U. after   13 cycles
 Normal termination of Gaussian 16 at Wed Apr  9 19:37:33 2025.
 Gaussian 16:  ES64L-G16RevC.01  3-Jul-2019

 ----------------------------------------------------------------------
 #t hf aug-cc-pvdz iop(5/13=1,5/36=2,99/5=2) pseudo=read geom=check gue
 ss=(read,tcheck) scf=(maxcycle=1)
 ----------------------------------------------------------------------
 -----
 title
 -----
 Structure from the checkpoint file:  "HB300SPXx10_1095_4.13_1.00_Nmethylacetamide_dimethyldisulfide_dimer_mol1.chk"
 Charge =  0 Multiplicity = 1

                         Standard orientation:
 ---------------------------------------------------------------------
 Center     Atomic      Atomic             Coordinates (Angstroms)
 Number     Number       Type             X           Y           Z
 ---------------------------------------------------------------------
      1          6           0       -1.786713    1.678998   -0.758462
      2          1           0       -1.124526    1.501713   -1.605954
      3          1           0       -1.212729    2.138726    0.043784
      4          1           0       -2.571956    2.356694   -1.082035
      5          6           0       -2.413442    0.358422   -0.355950
      6          8           0       -3.331486   -0.135520   -0.988452
      7          7           0       -1.870502   -0.224173    0.744975
      8          1           0       -1.035595    0.184288    1.131588
      9          6           0       -2.242129   -1.555403    1.177237
     10          1           0       -3.249447   -1.760646    0.828609
     11          1           0       -1.570943   -2.313138    0.767331
     12          1           0       -2.216892   -1.613495    2.263745
     13          1           0        2.772330   -2.188381   -1.748117
     14          1           0        3.361607   -1.936401   -0.090605
     15          1           0        3.550247   -0.654666   -1.317923
     16          1           0        1.233018    2.322394   -0.470213
     17          1           0        2.965386    1.915456   -0.352671
     18          1           0        2.157002    2.747395    0.988461
     19          6           0        2.912760   -1.455693   -0.954589
     20         16           0        1.250685   -0.836190   -0.546468
     21         16           0        1.603724    0.444044    1.016261
     22          6           0        2.032419    2.011635    0.195117
 ---------------------------------------------------------------------

 SCF Done:  E(RHF) =  -1123.36833101     A.U. after    2 cycles

 The electronic state is 1-A.
 Alpha  occ. eigenvalues --  -75.71449 -75.71073 -21.00127 -15.74272 -13.16537
 Alpha  occ. eigenvalues --  -13.13468 -13.11919 -13.10384 -13.09805 -13.05476
 Alpha  occ. eigenvalues --  -11.48274 -11.41391 -11.40843 -11.38238 -11.37993
 Alpha  occ. eigenvalues --   -8.05460  -8.05110  -1.68509  -1.37588  -1.27811
 Alpha  occ. eigenvalues --   -1.13978  -1.09913  -0.99530  -0.97663  -0.88118
 Alpha  occ. eigenvalues --   -0.77541  -0.66808  -0.61808  -0.61521  -0.61302
 Alpha  occ. eigenvalues --   -0.60416  -0.60099  -0.59636  -0.57072  -0.53671
 Alpha  occ. eigenvalues --   -0.50949  -0.48627  -0.45784  -0.45184  -0.44301
 Alpha  occ. eigenvalues --   -0.34966  -0.29298  -0.26961  -0.26714  -0.25015
 Alpha virt. eigenvalues --    0.02154   0.02582   0.03753   0.04138   0.06134
 Alpha virt. eigenvalues --    0.06352   0.06912   0.07410   0.07737   0.08110
 Alpha virt. eigenvalues --    0.08235   0.08423   0.08997   0.10213   0.10819

 Mulliken charges:
               1
     1  C   -4.709267
     2  H    1.405492
     3  H    1.577856
     4  H    1.158914
     5  C    5.050767
     6  O   -3.426287
     7  N   -2.425089
     8  H    1.079182
     9  C   -3.524069
    10  H    1.421409
    11  H    1.418294
    12  H    1.384970
    13  H    1.385285
    14  H    1.496270
    15  H    1.455577
    16  H    1.748584
    17  H    1.520897
    18  H    1.429848
    19  C   -5.538413
    20  S    1.179161
    21  S   -0.281696
    22  C   -4.807683
 Sum of Mulliken charges =  -0.00000

 Dipole moment (field-independent basis, Debye):
    X=              2.5627    Y=             -0.2867    Z=              1.5530  Tot=              3.0102

 Test job not archived.
 1\1\GINC-SE173\SP\RHF\Aug-CC-pVDZ\C5H13N1O1S2\OHZDE\09-Apr-2025\0\\#t
 hf aug-cc-pvdz iop(5/13=1,5/36=2,99/5=2) pseudo=read geom=check guess=
 (read,tcheck) scf=(maxcycle=1)\\title\\0,1\C,0,-1.31055971,-0.36190707
 ,2.17525478\H,0,-0.76310857,0.57466921,2.28149083\H,0,-0.59510431,-1.1
 7658722,2.08130356\H,0,-1.91110445,-0.50300543,3.06969011\C,0,-2.23351
 851,-0.24400233,0.97818704\O,0,-3.28055753,0.37845097,1.03390772\N,0,-
 1.80028089,-0.8717422,-0.1463058\H,0,-0.86873727,-1.25332097,-0.144399
 63\C,0,-2.47826303,-0.73306099,-1.41840567\H,0,-3.52176476,-0.50262299

 Normal termination of Gaussian 16 at Wed Apr  9 19:37:45 2025.
