 Gaussian 16, Revision C.01,

 ----------------------------------------------------------------------
 #t hf aug-cc-pvdz symm=none int=(grid=ultrafine) guess=(read,tcheck) s
 table=(opt,rrhf)
 ----------------------------------------------------------------------
 -----
 title
 -----
 Symbolic Z-matrix:
 Charge =  0 Multiplicity = 1

 SCF Done:  E(RHF) =  -1121.32593822     A.U. after   13 cycles
 Normal termination of Gaussian 16 at Wed Apr  9 19:37:38 2025.
 Gaussian 16:  ES64L-G16RevC.01  3-Jul-2019

 ----------------------------------------------------------------------
 #t hf aug-cc-pvdz iop(5/13=1,5/36=2,99/5=2) pseudo=read geom=check gue
 ss=(read,tcheck) scf=(maxcycle=1)
 ----------------------------------------------------------------------
 -----
 title
 -----
 Structure from the checkpoint file:  "HB300SPXx10_1091_4.13_0.80_Nmethylacetamide_dimethyldisulfide_dimer_mol1.chk"
 Charge =  0 Multiplicity = 1

                         Standard orientation:
 ---------------------------------------------------------------------
 Center     Atomic      Atomic             Coordinates (Angstroms)
 Number     Number       Type             X           Y           Z
 ---------------------------------------------------------------------
      1          6           0       -1.532279    1.678255   -0.760027
      2          1           0       -0.872908    1.514087   -1.612343
      3          1           0       -0.961626    2.149103    0.038137
      4          1           0       -2.333012    2.340422   -1.077738
      5          6           0       -2.130005    0.345587   -0.353278
      6          8           0       -3.042737   -0.166241   -0.979213
      7          7           0       -1.567745   -0.226322    0.743544
      8          1           0       -0.738238    0.198430    1.124180
      9          6           0       -1.910001   -1.564633    1.178189
     10          1           0       -2.915597   -1.789596    0.836834
     11          1           0       -1.227052   -2.309001    0.763250
     12          1           0       -1.875739   -1.622310    2.264472
     13          1           0        2.567992   -2.161039   -1.756742
     14          1           0        3.164226   -1.897672   -0.103493
     15          1           0        3.318733   -0.612375   -1.331857
     16          1           0        0.949683    2.318514   -0.466672
     17          1           0        2.690519    1.945679   -0.361799
     18          1           0        1.875708    2.761462    0.985354
     19          6           0        2.699760   -1.425802   -0.964088
     20         16           0        1.028843   -0.839106   -0.543773
     21         16           0        1.368001    0.447684    1.016644
     22          6           0        1.759845    2.023464    0.192768
 ---------------------------------------------------------------------

 SCF Done:  E(RHF) =  -1123.35906312     A.U. after    2 cycles

 The electronic state is 1-A.
 Alpha  occ. eigenvalues --  -75.71573 -75.71150 -20.99866 -15.73201 -13.20144
 Alpha  occ. eigenvalues --  -13.15711 -13.13217 -13.11744 -13.10594 -13.06752
 Alpha  occ. eigenvalues --  -11.48257 -11.41667 -11.40970 -11.38484 -11.37816
 Alpha  occ. eigenvalues --   -8.05703  -8.05213  -1.68275  -1.37739  -1.27968
 Alpha  occ. eigenvalues --   -1.14372  -1.09905  -1.00140  -0.97419  -0.88614
 Alpha  occ. eigenvalues --   -0.77861  -0.66999  -0.63046  -0.61804  -0.61693
 Alpha  occ. eigenvalues --   -0.60490  -0.59817  -0.58973  -0.57013  -0.53756
 Alpha  occ. eigenvalues --   -0.50710  -0.48793  -0.45945  -0.45318  -0.43815
 Alpha  occ. eigenvalues --   -0.35089  -0.29159  -0.27033  -0.26449  -0.24944
 Alpha virt. eigenvalues --    0.02167   0.02633   0.03782   0.04293   0.06074
 Alpha virt. eigenvalues --    0.06354   0.06894   0.07409   0.07717   0.08263
 Alpha virt. eigenvalues --    0.08338   0.08420   0.09044   0.10404   0.10975

 Mulliken charges:
               1
     1  C   -4.910643
     2  H    1.524879
     3  H    1.730438
     4  H    1.050267
     5  C    5.360184
     6  O   -3.524478
     7  N   -2.415996
     8  H    1.653067
     9  C   -3.651364
    10  H    1.419948
    11  H    1.529198
    12  H    1.360072
    13  H    1.399261
    14  H    1.488311
    15  H    1.447223
    16  H    1.825678
    17  H    1.495370
    18  H    1.434821
    19  C   -5.654259
    20  S    1.140502
    21  S   -0.935094
    22  C   -4.767384
 Sum of Mulliken charges =   0.00000

 Dipole moment (field-independent basis, Debye):
    X=              2.3461    Y=             -0.3314    Z=              1.4145  Tot=              2.7595

 Test job not archived.
 1\1\GINC-SE083\SP\RHF\Aug-CC-pVDZ\C5H13N1O1S2\OHZDE\09-Apr-2025\0\\#t
 hf aug-cc-pvdz iop(5/13=1,5/36=2,99/5=2) pseudo=read geom=check guess=
 (read,tcheck) scf=(maxcycle=1)\\title\\0,1\C,0,-1.31055971,-0.36190707
 ,2.17525478\H,0,-0.76310857,0.57466921,2.28149083\H,0,-0.59510431,-1.1
 7658722,2.08130356\H,0,-1.91110445,-0.50300543,3.06969011\C,0,-2.23351
 851,-0.24400233,0.97818704\O,0,-3.28055753,0.37845097,1.03390772\N,0,-
 1.80028089,-0.8717422,-0.1463058\H,0,-0.86873727,-1.25332097,-0.144399
 63\C,0,-2.47826303,-0.73306099,-1.41840567\H,0,-3.52176476,-0.50262299

 Normal termination of Gaussian 16 at Wed Apr  9 19:37:51 2025.
