 Gaussian 16, Revision C.01,

 ----------------------------------------------------------------------
 #t hf aug-cc-pvdz symm=none int=(grid=ultrafine) guess=(read,tcheck) s
 table=(opt,rrhf)
 ----------------------------------------------------------------------
 -----
 title
 -----
 Symbolic Z-matrix:
 Charge =  0 Multiplicity = 1

 SCF Done:  E(RHF) =  -605.478664785     A.U. after   13 cycles
 Normal termination of Gaussian 16 at Wed Apr  9 19:37:50 2025.
 Gaussian 16:  ES64L-G16RevC.01  3-Jul-2019

 ----------------------------------------------------------------------
 #t hf aug-cc-pvdz iop(5/13=1,5/36=2,99/5=2) pseudo=read geom=check gue
 ss=(read,tcheck) scf=(maxcycle=1)
 ----------------------------------------------------------------------
 -----
 title
 -----
 Structure from the checkpoint file:  "HB300SPXx10_114_1.12_0.95_sulfane_methylcyanate_dimer_mol1.chk"
 Charge =  0 Multiplicity = 1

                         Standard orientation:
 ---------------------------------------------------------------------
 Center     Atomic      Atomic             Coordinates (Angstroms)
 Number     Number       Type             X           Y           Z
 ---------------------------------------------------------------------
      1          1           0        1.456228    0.879912    0.023449
      2          1           0        2.510565   -0.273350    1.178924
      3         16           0        2.197545   -0.231666   -0.124469
      4          1           0       -1.734174   -1.325344    1.310988
      5          1           0       -2.017290   -2.194211   -0.224818
      6          1           0       -0.379779   -1.577572    0.164047
      7          6           0       -1.449002   -1.413845    0.265957
      8          8           0       -1.815857   -0.183519   -0.434854
      9          6           0       -1.199142    0.873649   -0.058257
     10          7           0       -0.654364    1.843792    0.253077
 ---------------------------------------------------------------------

 SCF Done:  E(RHF) =  -606.609609179     A.U. after    2 cycles

 The electronic state is 1-A.
 Alpha  occ. eigenvalues --  -75.69719 -21.15525 -15.75689 -13.15510 -13.09094
 Alpha  occ. eigenvalues --  -13.06104 -11.48993 -11.45539  -8.03484  -1.85373
 Alpha  occ. eigenvalues --   -1.29738  -1.11175  -1.05282  -0.73881  -0.66751
 Alpha  occ. eigenvalues --   -0.65412  -0.56284  -0.56089  -0.53337  -0.51278
 Alpha  occ. eigenvalues --   -0.43528  -0.40436  -0.34716  -0.26179
 Alpha virt. eigenvalues --    0.02232   0.04171   0.05392   0.06167   0.07312
 Alpha virt. eigenvalues --    0.09128   0.10867   0.11455   0.11605   0.12322
 Alpha virt. eigenvalues --    0.13609   0.13934   0.15037   0.15142   0.16263

 Mulliken charges:
               1
     1  H    1.188003
     2  H    1.075313
     3  S   -2.432039
     4  H    1.371980
     5  H    1.301262
     6  H    1.432836
     7  C   -2.802628
     8  O   -2.664101
     9  C    4.071717
    10  N   -2.542344
 Sum of Mulliken charges =  -0.00000

 Dipole moment (field-independent basis, Debye):
    X=             -0.8163    Y=             -4.4046    Z=             -1.0582  Tot=              4.6029

 Test job not archived.
 1\1\GINC-SE014\SP\RHF\Aug-CC-pVDZ\C2H5N1O1S1\OHZDE\09-Apr-2025\0\\#t h
 f aug-cc-pvdz iop(5/13=1,5/36=2,99/5=2) pseudo=read geom=check guess=(
 read,tcheck) scf=(maxcycle=1)\\title\\0,1\H,0,1.70020261,0.23216325,0.
 14198181\H,0,1.83071194,2.07603691,0.74186388\S,0,1.65222468,0.8789214
 7,1.31945248\H,0,-2.2236967,1.10930577,-0.58822602\H,0,-2.90393412,0.1
 4091048,0.75090542\H,0,-1.23291621,0.77866911,0.86865779\C,0,-2.005007
 38,0.39928499,0.20505241\O,0,-1.55196193,-0.85744693,-0.39059631\C,0,-
 0.44690925,-0.79861107,-1.0349285\N,0,0.5513787,-0.7803075,-1.61628412

 Normal termination of Gaussian 16 at Wed Apr  9 19:37:54 2025.
