 Gaussian 16, Revision C.01,

 ----------------------------------------------------------------------
 #t hf aug-cc-pvdz symm=none int=(grid=ultrafine) guess=(read,tcheck) s
 table=(opt,rrhf)
 ----------------------------------------------------------------------
 -----
 title
 -----
 Symbolic Z-matrix:
 Charge =  0 Multiplicity = 1

 SCF Done:  E(RHF) =  -609.887650416     A.U. after   13 cycles
 Normal termination of Gaussian 16 at Wed Apr  9 19:36:17 2025.
 Gaussian 16:  ES64L-G16RevC.01  3-Jul-2019

 ----------------------------------------------------------------------
 #t hf aug-cc-pvdz iop(5/13=1,5/36=2,99/5=2) pseudo=read geom=check gue
 ss=(read,tcheck) scf=(maxcycle=1)
 ----------------------------------------------------------------------
 -----
 title
 -----
 Structure from the checkpoint file:  "HB300SPXx10_1054_4.09_0.95_ammonia_tetrahydrothiophene_dimer_mol1.chk"
 Charge =  0 Multiplicity = 1

                         Standard orientation:
 ---------------------------------------------------------------------
 Center     Atomic      Atomic             Coordinates (Angstroms)
 Number     Number       Type             X           Y           Z
 ---------------------------------------------------------------------
      1          7           0       -2.695816    0.537207   -0.234012
      2          1           0       -2.100788   -0.275132   -0.094805
      3          1           0       -3.380436    0.539564    0.511688
      4          1           0       -3.204051    0.394127   -1.097715
      5          1           0        1.357653   -0.208803    1.952128
      6          1           0       -0.378986    0.097358    2.072186
      7          1           0        1.188315    2.061219    1.125948
      8          1           0       -0.263208   -0.004970   -1.815981
      9          1           0       -0.339812    1.713239    0.308625
     10          1           0        1.250476   -0.914449   -1.934915
     11          1           0        1.394481    1.716105   -1.446366
     12          1           0        2.403487    0.633436   -0.488794
     13         16           0        0.144779   -1.321165    0.177881
     14          6           0        0.460902    0.033360    1.385294
     15          6           0        0.639302    1.307465    0.560916
     16          6           0        1.371693    0.905035   -0.718192
     17          6           0        0.632621   -0.308110   -1.278021
 ---------------------------------------------------------------------

 SCF Done:  E(RHF) =  -611.208840030     A.U. after    2 cycles

 The electronic state is 1-A.
 Alpha  occ. eigenvalues --  -75.66094 -15.73207 -13.10411 -13.09297 -13.07974
 Alpha  occ. eigenvalues --  -11.43103 -11.42052 -11.38513 -11.35510  -8.00197
 Alpha  occ. eigenvalues --   -1.32125  -1.23993  -1.06769  -1.06683  -0.84145
 Alpha  occ. eigenvalues --   -0.82486  -0.65930  -0.64912  -0.60774  -0.60601
 Alpha  occ. eigenvalues --   -0.59900  -0.53543  -0.48330  -0.46457  -0.44877
 Alpha  occ. eigenvalues --   -0.41624  -0.37961  -0.34384  -0.21919
 Alpha virt. eigenvalues --    0.03814   0.04607   0.04776   0.05803   0.06058
 Alpha virt. eigenvalues --    0.06250   0.06440   0.07045   0.07491   0.08872
 Alpha virt. eigenvalues --    0.09273   0.11289   0.13039   0.14339   0.14758

 Mulliken charges:
               1
     1  N   -2.042087
     2  H    1.295425
     3  H    0.554092
     4  H    0.539797
     5  H    1.387255
     6  H    1.426443
     7  H    1.270837
     8  H    1.566292
     9  H    1.743607
    10  H    1.355587
    11  H    1.287057
    12  H    1.406165
    13  S    0.547748
    14  C   -3.377085
    15  C   -2.875194
    16  C   -2.658053
    17  C   -3.427887
 Sum of Mulliken charges =   0.00000

 Dipole moment (field-independent basis, Debye):
    X=             -0.3588    Y=             -0.5978    Z=              0.0056  Tot=              0.6972

 Test job not archived.
 1\1\GINC-SE026\SP\RHF\Aug-CC-pVDZ\C4H11N1S1\OHZDE\09-Apr-2025\0\\#t hf
  aug-cc-pvdz iop(5/13=1,5/36=2,99/5=2) pseudo=read geom=check guess=(r
 ead,tcheck) scf=(maxcycle=1)\\title\\0,1\N,0,-1.82627315,2.2398073,0.1
 9813908\H,0,-1.3275361,1.71497926,-0.51540753\H,0,-2.80551666,2.240204
 76,-0.05849198\H,0,-1.50884454,3.19950412,0.14356214\H,0,-0.53305589,-
 2.21774338,-0.27533523\H,0,-1.83470691,-1.02212079,-0.29122069\H,0,-0.
 63737524,-1.55611192,2.05181131\H,0,1.0308698,1.52177658,0.38610868\H,
 0,-0.96884149,0.12572158,1.62071236\H,0,2.33992026,0.49542827,-0.21848

 Normal termination of Gaussian 16 at Wed Apr  9 19:36:23 2025.
