 Gaussian 16, Revision C.01,

 ----------------------------------------------------------------------
 #t hf aug-cc-pvdz symm=none int=(grid=ultrafine) guess=(read,tcheck) s
 table=(opt,rrhf)
 ----------------------------------------------------------------------
 -----
 title
 -----
 Symbolic Z-matrix:
 Charge =  0 Multiplicity = 1

 SCF Done:  E(RHF) =  -571.988208735     A.U. after   12 cycles
 Normal termination of Gaussian 16 at Wed Apr  9 19:36:09 2025.
 Gaussian 16:  ES64L-G16RevC.01  3-Jul-2019

 ----------------------------------------------------------------------
 #t hf aug-cc-pvdz iop(5/13=1,5/36=2,99/5=2) pseudo=read geom=check gue
 ss=(read,tcheck) scf=(maxcycle=1)
 ----------------------------------------------------------------------
 -----
 title
 -----
 Structure from the checkpoint file:  "HB300SPXx10_1072_4.11_0.85_methylamine_dimethylsulfide_dimer_mol1.chk"
 Charge =  0 Multiplicity = 1

                         Standard orientation:
 ---------------------------------------------------------------------
 Center     Atomic      Atomic             Coordinates (Angstroms)
 Number     Number       Type             X           Y           Z
 ---------------------------------------------------------------------
      1          7           0       -1.615998   -0.795662    0.149534
      2          1           0       -1.960196   -1.736536    0.013294
      3          1           0       -0.849090   -0.657552   -0.499445
      4          6           0       -2.674354    0.182943   -0.096427
      5          1           0       -2.277746    1.186036    0.058384
      6          1           0       -3.109646    0.149272   -1.101944
      7          1           0       -3.479464    0.038664    0.623509
      8          1           0        1.357724    1.667906    1.295522
      9          1           0       -0.262894    0.940753    1.127552
     10          1           0        0.238560    2.272282    0.063666
     11          1           0        1.997805   -1.966677   -0.172298
     12          1           0        0.736556   -1.494270    0.985892
     13          1           0        2.398209   -0.872180    1.160679
     14          6           0        0.575022    1.384819    0.594180
     15         16           0        1.211056    0.224283   -0.643713
     16          6           0        1.623544   -1.158861    0.451890
 ---------------------------------------------------------------------

 SCF Done:  E(RHF) =  -573.135014123     A.U. after    2 cycles

 The electronic state is 1-A.
 Alpha  occ. eigenvalues --  -75.66944 -15.71088 -13.10921 -13.09311 -13.07466
 Alpha  occ. eigenvalues --  -11.38951 -11.38669 -11.37229  -8.01092  -1.31133
 Alpha  occ. eigenvalues --   -1.22007  -1.02702  -0.94450  -0.87829  -0.66335
 Alpha  occ. eigenvalues --   -0.59803  -0.59241  -0.59030  -0.57391  -0.56026
 Alpha  occ. eigenvalues --   -0.52459  -0.50442  -0.43882  -0.36428  -0.34521
 Alpha  occ. eigenvalues --   -0.21918
 Alpha virt. eigenvalues --    0.03654   0.03799   0.04492   0.05524   0.06643
 Alpha virt. eigenvalues --    0.06838   0.07055   0.07671   0.08587   0.08955
 Alpha virt. eigenvalues --    0.09829   0.11471   0.12543   0.13588   0.14822

 Mulliken charges:
               1
     1  N   -2.165383
     2  H    0.577593
     3  H    1.407652
     4  C   -3.345138
     5  H    1.529669
     6  H    1.306701
     7  H    1.256496
     8  H    1.298048
     9  H    1.728264
    10  H    1.434157
    11  H    1.433909
    12  H    1.326141
    13  H    1.400348
    14  C   -4.823395
    15  S    0.246671
    16  C   -4.611731
 Sum of Mulliken charges =   0.00000

 Dipole moment (field-independent basis, Debye):
    X=             -0.1790    Y=             -0.2409    Z=             -0.9574  Tot=              1.0034

 Test job not archived.
 1\1\GINC-SE159\SP\RHF\Aug-CC-pVDZ\C3H11N1S1\OHZDE\09-Apr-2025\0\\#t hf
  aug-cc-pvdz iop(5/13=1,5/36=2,99/5=2) pseudo=read geom=check guess=(r
 ead,tcheck) scf=(maxcycle=1)\\title\\0,1\N,0,-1.19251098,0.46771599,1.
 69699571\H,0,-2.17204653,0.34511648,1.91553075\H,0,-1.12099987,0.60068
 208,0.69419832\C,0,-0.64549649,1.62445241,2.40482331\H,0,0.40921091,1.
 73255139,2.15309408\H,0,-1.13947726,2.57752576,2.18276464\H,0,-0.70604
 436,1.45678733,3.47978713\H,0,2.14244315,-0.88038273,-0.11578933\H,0,1
 .04490646,-0.21713135,1.12472721\H,0,1.98285095,0.8721049,0.08064556\H

 Normal termination of Gaussian 16 at Wed Apr  9 19:36:13 2025.
