 Gaussian 16, Revision C.01,

 ----------------------------------------------------------------------
 #t hf aug-cc-pvdz symm=none int=(grid=ultrafine) guess=(read,tcheck) s
 table=(opt,rrhf)
 ----------------------------------------------------------------------
 -----
 title
 -----
 Symbolic Z-matrix:
 Charge =  0 Multiplicity = 1

 SCF Done:  E(RHF) =  -591.458775498     A.U. after   14 cycles
 Normal termination of Gaussian 16 at Wed Apr  9 19:35:08 2025.
 Gaussian 16:  ES64L-G16RevC.01  3-Jul-2019

 ----------------------------------------------------------------------
 #t hf aug-cc-pvdz iop(5/13=1,5/36=2,99/5=2) pseudo=read geom=check gue
 ss=(read,tcheck) scf=(maxcycle=1)
 ----------------------------------------------------------------------
 -----
 title
 -----
 Structure from the checkpoint file:  "HB300SPXx10_1014_4.05_0.95_ethyne_thioacetone_dimer_mol1.chk"
 Charge =  0 Multiplicity = 1

                         Standard orientation:
 ---------------------------------------------------------------------
 Center     Atomic      Atomic             Coordinates (Angstroms)
 Number     Number       Type             X           Y           Z
 ---------------------------------------------------------------------
      1          6           0        0.229913   -2.870002    0.000000
      2          1           0       -0.433401   -2.034058    0.000000
      3          6           0        0.991009   -3.793491    0.000000
      4          1           0        1.660319   -4.616941    0.000000
      5          1           0       -1.051881    3.180701    0.000000
      6          1           0        0.495715    3.184326    0.874719
      7          1           0        0.495715    3.184326   -0.874719
      8          1           0        1.354513   -0.379151    0.000000
      9          1           0        1.927559    1.055569   -0.874314
     10          6           0       -0.036002    2.801060    0.000000
     11          6           0        0.000000    1.302843    0.000000
     12         16           0       -1.357836    0.406234    0.000000
     13          6           0        1.373292    0.704576    0.000000
     14          1           0        1.927559    1.055569    0.874314
 ---------------------------------------------------------------------

 SCF Done:  E(RHF) =  -592.651592404     A.U. after    2 cycles

 The electronic state is 1-A'.
 Alpha  occ. eigenvalues --  -75.66646 -13.16142 -13.06351 -12.98169 -11.48284
 Alpha  occ. eigenvalues --  -11.40767 -11.40201 -11.39931 -11.39087  -8.00923
 Alpha  occ. eigenvalues --   -1.28919  -1.08679  -1.05022  -1.03987  -0.77703
 Alpha  occ. eigenvalues --   -0.75567  -0.64851  -0.61958  -0.61487  -0.60480
 Alpha  occ. eigenvalues --   -0.55752  -0.50945  -0.42229  -0.37966  -0.37842
 Alpha  occ. eigenvalues --   -0.32673  -0.22671
 Alpha virt. eigenvalues --    0.02466   0.04124   0.05358   0.05749   0.06390
 Alpha virt. eigenvalues --    0.06631   0.07268   0.08134   0.08392   0.09351
 Alpha virt. eigenvalues --    0.10363   0.12496   0.12503   0.13772   0.14043

 Mulliken charges:
               1
     1  C   -0.277318
     2  H    0.884891
     3  C   -1.007212
     4  H    0.588388
     5  H    1.455020
     6  H    1.203975
     7  H    1.203975
     8  H    1.638566
     9  H    1.149570
    10  C   -4.484715
    11  C    0.474934
    12  S    0.711664
    13  C   -4.691307
    14  H    1.149570
 Sum of Mulliken charges =   0.00000

 Dipole moment (field-independent basis, Debye):
    X=             -0.0349    Y=              0.6595    Z=              0.0000  Tot=              0.6604

 Test job not archived.
 1\1\GINC-SE168\SP\RHF\Aug-CC-pVDZ\C5H8S1\OHZDE\09-Apr-2025\0\\#t hf au
 g-cc-pvdz iop(5/13=1,5/36=2,99/5=2) pseudo=read geom=check guess=(read
 ,tcheck) scf=(maxcycle=1)\\title\\0,1\C,0,-0.20751211,-2.93011645,0.\H
 ,0,-0.70775465,-1.98748922,0.\C,0,0.37296237,-3.97660953,0.\H,0,0.8813
 7254,-4.90804053,0.\H,0,-0.36764444,3.25279303,0.\H,0,1.15480866,2.974
 9339,0.87471889\H,0,1.15480866,2.9749339,-0.87471889\H,0,1.35128654,-0
 .6852973,0.\H,0,2.17567555,0.62129634,-0.87431367\C,0,0.56226185,2.694
 74868,0.\C,0,0.32521974,1.21496426,0.\S,0,-1.173021,0.58022014,0.\C,0,

 Normal termination of Gaussian 16 at Wed Apr  9 19:35:12 2025.
