 Gaussian 16, Revision C.01,

 ----------------------------------------------------------------------
 #t hf aug-cc-pvdz symm=none int=(grid=ultrafine) guess=(read,tcheck) s
 table=(opt,rrhf)
 ----------------------------------------------------------------------
 -----
 title
 -----
 Symbolic Z-matrix:
 Charge =  0 Multiplicity = 1

 SCF Done:  E(RHF) =  -974.715597848     A.U. after   13 cycles
 Normal termination of Gaussian 16 at Wed Apr  9 19:39:53 2025.
 Gaussian 16:  ES64L-G16RevC.01  3-Jul-2019

 ----------------------------------------------------------------------
 #t hf aug-cc-pvdz iop(5/13=1,5/36=2,99/5=2) pseudo=read geom=check gue
 ss=(read,tcheck) scf=(maxcycle=1)
 ----------------------------------------------------------------------
 -----
 title
 -----
 Structure from the checkpoint file:  "HB300SPXx10_1372_4.42_0.85_hydrogenchloride_thioacetone_dimer_mol1.chk"
 Charge =  0 Multiplicity = 1

                         Standard orientation:
 ---------------------------------------------------------------------
 Center     Atomic      Atomic             Coordinates (Angstroms)
 Number     Number       Type             X           Y           Z
 ---------------------------------------------------------------------
      1          1           0        1.481127    0.034882    0.000000
      2         17           0        2.454061   -0.854094    0.000000
      3          1           0       -0.113823   -1.624971    0.000000
      4          1           0       -1.657180   -1.703405    0.874054
      5          1           0       -1.657180   -1.703405   -0.874054
      6          1           0       -2.717696    1.797178    0.000000
      7          1           0       -3.214467    0.331387   -0.874659
      8          6           0       -1.145368   -1.292848    0.000000
      9          6           0       -1.276761    0.196996    0.000000
     10         16           0        0.000000    1.209514    0.000000
     11          6           0       -2.682098    0.713239    0.000000
     12          1           0       -3.214467    0.331387    0.874659
 ---------------------------------------------------------------------

 SCF Done:  E(RHF) =  -975.798710853     A.U. after    2 cycles

 The electronic state is 1-A'.
 Alpha  occ. eigenvalues --  -99.85178 -75.68556 -13.18281 -13.09792 -13.00343
 Alpha  occ. eigenvalues --  -11.50213 -11.41908 -11.40313 -10.42452  -9.62621
 Alpha  occ. eigenvalues --   -9.61920  -9.61698  -8.03086  -1.31261  -1.25514
 Alpha  occ. eigenvalues --   -1.07416  -1.05403  -0.78105  -0.67187  -0.63288
 Alpha  occ. eigenvalues --   -0.62923  -0.61450  -0.56933  -0.52752  -0.48452
 Alpha  occ. eigenvalues --   -0.48176  -0.43765  -0.34451  -0.25574
 Alpha virt. eigenvalues --    0.01799   0.04869   0.04972   0.05982   0.06505
 Alpha virt. eigenvalues --    0.06912   0.07197   0.07328   0.09022   0.11025
 Alpha virt. eigenvalues --    0.12194   0.12684   0.14206   0.14959   0.15168

 Mulliken charges:
               1
     1  H    1.094054
     2  Cl  -0.962080
     3  H    1.405752
     4  H    1.146940
     5  H    1.146940
     6  H    1.459813
     7  H    1.184103
     8  C   -4.496210
     9  C    0.271670
    10  S    0.717718
    11  C   -4.152804
    12  H    1.184103
 Sum of Mulliken charges =  -0.00000

 Dipole moment (field-independent basis, Debye):
    X=             -3.5888    Y=              2.0180    Z=             -0.0000  Tot=              4.1172

 Test job not archived.
 1\1\GINC-SE026\SP\RHF\Aug-CC-pVDZ\C3H7Cl1S1\OHZDE\09-Apr-2025\0\\#t hf
  aug-cc-pvdz iop(5/13=1,5/36=2,99/5=2) pseudo=read geom=check guess=(r
 ead,tcheck) scf=(maxcycle=1)\\title\\0,1\H,0,-0.37830043,1.49279945,0.
 \Cl,0,0.15229845,2.69917624,0.\H,0,1.70489561,0.51337587,0.\H,0,2.2734
 2947,-0.92359042,0.87405369\H,0,2.27342947,-0.92359042,-0.87405369\H,0
 ,-0.70320157,-3.04925319,0.\H,0,0.84448193,-3.050473,-0.87465894\C,0,1
 .72059457,-0.57020333,0.\C,0,0.35128302,-1.17177077,0.\S,0,-1.01677378
 ,-0.28648424,0.\C,0,0.31225787,-2.66841892,0.\H,0,0.84448193,-3.050473

 Normal termination of Gaussian 16 at Wed Apr  9 19:39:57 2025.
