 Gaussian 16, Revision C.01,

 ----------------------------------------------------------------------
 #t hf aug-cc-pvdz symm=none int=(grid=ultrafine) guess=(read,tcheck) s
 table=(opt,rrhf)
 ----------------------------------------------------------------------
 -----
 title
 -----
 Symbolic Z-matrix:
 Charge =  0 Multiplicity = 1

 SCF Done:  E(RHF) =  -3015.76520325     A.U. after   14 cycles
 Normal termination of Gaussian 16 at Wed Apr  9 04:10:41 2025.
 Gaussian 16:  ES64L-G16RevC.01  3-Jul-2019

 ----------------------------------------------------------------------
 #t hf aug-cc-pvdz iop(5/13=1,5/36=2,99/5=2) pseudo=read geom=check gue
 ss=(read,tcheck) scf=(maxcycle=1)
 ----------------------------------------------------------------------
 -----
 title
 -----
 Structure from the checkpoint file:  "HB300SPXx10_1346_4.39_1.05_hydrogenchloride_P4S3_dimer_mol1.chk"
 Charge =  0 Multiplicity = 1

                         Standard orientation:
 ---------------------------------------------------------------------
 Center     Atomic      Atomic             Coordinates (Angstroms)
 Number     Number       Type             X           Y           Z
 ---------------------------------------------------------------------
      1          1           0       -2.719936   -0.477463   -0.490821
      2         17           0       -3.804237    0.005640    0.016022
      3         16           0       -0.362897   -0.720031   -1.572802
      4         15           0       -0.115207    1.322796   -1.084439
      5         16           0       -0.212750   -0.735940    1.657794
      6         16           0        2.506623   -0.654952   -0.100647
      7         15           0        1.884984    1.360667   -0.051640
      8         15           0       -0.011466    1.304268    1.163891
      9         15           0        0.674779   -1.710641    0.003449
 ---------------------------------------------------------------------

 SCF Done:  E(RHF) =  -3017.43066092     A.U. after    2 cycles

 The electronic state is 1-A.
 Alpha  occ. eigenvalues -- -105.26841-105.24043-105.23988-105.23156 -99.89946
 Alpha  occ. eigenvalues --  -75.73305 -75.72909 -75.72789 -13.17279 -13.16142
 Alpha  occ. eigenvalues --  -13.14568 -13.13983 -13.13595 -13.11199 -13.07849
 Alpha  occ. eigenvalues --  -13.07189 -13.05389 -10.47070  -9.67207  -9.66310
 Alpha  occ. eigenvalues --   -9.66276  -8.07473  -8.07164  -8.06953  -2.84966
 Alpha  occ. eigenvalues --   -2.82200  -2.81088  -2.81046  -1.64035  -1.54800
 Alpha  occ. eigenvalues --   -1.54668  -1.54160  -1.52122  -1.51869  -1.51262
 Alpha  occ. eigenvalues --   -1.48783  -1.48736  -1.36485  -1.36324  -1.35337
 Alpha  occ. eigenvalues --   -1.29429  -1.11400  -1.01656  -1.01178  -0.79419
 Alpha  occ. eigenvalues --   -0.68786  -0.62863  -0.52174  -0.52054  -0.51789
 Alpha  occ. eigenvalues --   -0.51651  -0.37301  -0.36400  -0.26130  -0.25526
 Alpha  occ. eigenvalues --   -0.22100  -0.21618  -0.11552  -0.11211  -0.03639
 Alpha  occ. eigenvalues --   -0.00000   0.03921   0.04870
 Alpha virt. eigenvalues --    0.05014   0.06880   0.07988   0.08079   0.08584
 Alpha virt. eigenvalues --    0.08787   0.09113   0.09970   0.10578   0.10803
 Alpha virt. eigenvalues --    0.11679   0.11861   0.13063   0.13588   0.14148

 Mulliken charges:
               1
     1  H   -1.270497
     2  Cl  -0.099341
     3  S   -3.449223
     4  P    2.251345
     5  S   -3.263722
     6  S   -2.975004
     7  P    2.503408
     8  P    2.258744
     9  P    4.044291
 Sum of Mulliken charges =  -0.00000

 Dipole moment (field-independent basis, Debye):
    X=              6.4487    Y=             25.4831    Z=              4.3314  Tot=             26.6409

 Test job not archived.
 1\1\GINC-SE368\SP\RHF\Aug-CC-pVDZ\Cl1H1P4S3\OHZDE\09-Apr-2025\0\\#t hf
  aug-cc-pvdz iop(5/13=1,5/36=2,99/5=2) pseudo=read geom=check guess=(r
 ead,tcheck) scf=(maxcycle=1)\\title\\0,1\H,0,-0.57388532,0.23171594,-0
 .00983813\Cl,0,-1.31085335,0.72448843,-0.94794305\S,0,0.97706615,-0.03
 407642,2.06598903\P,0,0.47004427,1.97492997,2.49002963\S,0,-2.150935,-
 0.2054706,2.86959269\S,0,0.12316104,-0.12803876,5.17527142\P,0,-0.1313
 6445,1.90164447,4.6583952\P,0,-1.706747,1.84822863,3.04825862\P,0,-0.3
 1279454,-1.12931569,3.36188966\\Version=ES64L-G16RevC.01\State=1-A\HF=

 Normal termination of Gaussian 16 at Wed Apr  9 04:10:46 2025.
