 Gaussian 16, Revision C.01,

 ----------------------------------------------------------------------
 #t hf aug-cc-pvdz symm=none int=(grid=ultrafine) guess=(read,tcheck) s
 table=(opt,rrhf)
 ----------------------------------------------------------------------
 -----
 title
 -----
 Symbolic Z-matrix:
 Charge =  0 Multiplicity = 1

 SCF Done:  E(RHF) =  -704.618725753     A.U. after   13 cycles
 Normal termination of Gaussian 16 at Wed Apr  9 19:37:23 2025.
 Gaussian 16:  ES64L-G16RevC.01  3-Jul-2019

 ----------------------------------------------------------------------
 #t hf aug-cc-pvdz iop(5/13=1,5/36=2,99/5=2) pseudo=read geom=check gue
 ss=(read,tcheck) scf=(maxcycle=1)
 ----------------------------------------------------------------------
 -----
 title
 -----
 Structure from the checkpoint file:  "HB300SPXx10_1124_4.16_0.95_aceticacid_dimethylsulfide_dimer_mol1.chk"
 Charge =  0 Multiplicity = 1

                         Standard orientation:
 ---------------------------------------------------------------------
 Center     Atomic      Atomic             Coordinates (Angstroms)
 Number     Number       Type             X           Y           Z
 ---------------------------------------------------------------------
      1          6           0        0.270594    1.786186   -0.000000
      2          8           0       -0.870129    1.384083    0.000000
      3          8           0        1.337006    0.978455   -0.000000
      4          1           0        1.035610    0.035918   -0.000000
      5          6           0        0.663826    3.237808   -0.000000
      6          1           0       -0.224076    3.860133   -0.000000
      7          1           0        1.272696    3.454279    0.876781
      8          1           0        1.272696    3.454279   -0.876781
      9          1           0       -1.668411   -2.370132    1.379195
     10          1           0       -1.280297   -0.626692    1.315483
     11          1           0       -0.294897   -1.733895    2.299403
     12          1           0       -0.294897   -1.733895   -2.299403
     13          1           0       -1.280297   -0.626692   -1.315483
     14          1           0       -1.668411   -2.370132   -1.379195
     15          6           0       -0.870129   -1.631219    1.382643
     16         16           0        0.264394   -1.925801    0.000000
     17          6           0       -0.870129   -1.631219   -1.382643
 ---------------------------------------------------------------------

 SCF Done:  E(RHF) =  -706.252948203     A.U. after    2 cycles

 The electronic state is 1-A'.
 Alpha  occ. eigenvalues --  -75.68081 -21.09364 -21.04024 -13.13483 -13.11592
 Alpha  occ. eigenvalues --  -13.08779 -11.51566 -11.39235 -11.39087 -11.38937
 Alpha  occ. eigenvalues --   -8.02256  -1.81374  -1.64160  -1.23147  -1.10546
 Alpha  occ. eigenvalues --   -1.03118  -0.88598  -0.79259  -0.63576  -0.61399
 Alpha  occ. eigenvalues --   -0.60429  -0.59807  -0.59551  -0.57877  -0.56948
 Alpha  occ. eigenvalues --   -0.53901  -0.49070  -0.44627  -0.44516  -0.36863
 Alpha  occ. eigenvalues --   -0.32581  -0.29052  -0.23024
 Alpha virt. eigenvalues --    0.03370   0.03839   0.04472   0.05825   0.06149
 Alpha virt. eigenvalues --    0.06287   0.07114   0.07556   0.08045   0.08870
 Alpha virt. eigenvalues --    0.10716   0.11835   0.12063   0.12827   0.14270

 Mulliken charges:
               1
     1  C    5.702644
     2  O   -3.048056
     3  O   -3.494277
     4  H    2.198382
     5  C   -4.434274
     6  H    1.309701
     7  H    1.241960
     8  H    1.241960
     9  H    1.381513
    10  H    1.541755
    11  H    1.457497
    12  H    1.457497
    13  H    1.541755
    14  H    1.381513
    15  C   -4.717384
    16  S   -0.044800
    17  C   -4.717384
 Sum of Mulliken charges =  -0.00000

 Dipole moment (field-independent basis, Debye):
    X=              0.9549    Y=             -0.4643    Z=             -0.0000  Tot=              1.0618

 Test job not archived.
 1\1\GINC-SE041\SP\RHF\Aug-CC-pVDZ\C4H10O2S1\OHZDE\09-Apr-2025\0\\#t hf
  aug-cc-pvdz iop(5/13=1,5/36=2,99/5=2) pseudo=read geom=check guess=(r
 ead,tcheck) scf=(maxcycle=1)\\title\\0,1\C,0,0.08152563,1.86646531,0.\
 O,0,1.12794826,1.25988757,0.\O,0,-1.11612638,1.27040068,0.\H,0,-0.9946
 6015,0.28833063,0.\C,0,-0.03582077,3.36582142,0.\H,0,0.95204799,3.8127
 8193,0.\H,0,-0.5940149,3.69140047,-0.87678098\H,0,-0.5940149,3.6914004
 7,0.87678098\H,0,1.21651999,-2.57723913,-1.37919498\H,0,1.15829343,-0.
 79207113,-1.31548339\H,0,-0.01526051,-1.69743449,-2.29940307\H,0,-0.01

 Normal termination of Gaussian 16 at Wed Apr  9 19:37:27 2025.
