 Gaussian 16, Revision C.01,

 ----------------------------------------------------------------------
 #t hf aug-cc-pvdz symm=none int=(grid=ultrafine) guess=(read,tcheck) s
 table=(opt,rrhf)
 ----------------------------------------------------------------------
 -----
 title
 -----
 Symbolic Z-matrix:
 Charge =  0 Multiplicity = 1

 SCF Done:  E(RHF) =  -601.597215427     A.U. after   14 cycles
 Normal termination of Gaussian 16 at Wed Apr  9 19:35:48 2025.
 Gaussian 16:  ES64L-G16RevC.01  3-Jul-2019

 ----------------------------------------------------------------------
 #t hf aug-cc-pvdz iop(5/13=1,5/36=2,99/5=2) pseudo=read geom=check gue
 ss=(read,tcheck) scf=(maxcycle=1)
 ----------------------------------------------------------------------
 -----
 title
 -----
 Structure from the checkpoint file:  "HB300SPXx10_105_1.11_1.00_sulfane_methylazide_dimer_mol1.chk"
 Charge =  0 Multiplicity = 1

                         Standard orientation:
 ---------------------------------------------------------------------
 Center     Atomic      Atomic             Coordinates (Angstroms)
 Number     Number       Type             X           Y           Z
 ---------------------------------------------------------------------
      1          1           0       -1.350135   -0.533165   -0.012753
      2          1           0       -2.834379   -0.420773    1.239530
      3         16           0       -2.670554   -0.283679   -0.084295
      4          1           0        1.276389    1.944844   -0.910117
      5          1           0        1.324450    1.981650    0.869575
      6          1           0       -0.228660    1.857476    0.022655
      7          6           0        0.814615    1.562427    0.001111
      8          7           0        0.831658    0.090420    0.031408
      9          7           0        1.936512   -0.439273    0.004136
     10          7           0        2.896618   -1.031965   -0.016520
 ---------------------------------------------------------------------

 SCF Done:  E(RHF) =  -602.776365089     A.U. after    2 cycles

 The electronic state is 1-A.
 Alpha  occ. eigenvalues --  -75.68977 -15.97089 -15.85668 -15.77809 -13.14746
 Alpha  occ. eigenvalues --  -13.08216 -13.01646 -11.41770  -8.02734  -1.68641
 Alpha  occ. eigenvalues --   -1.38345  -1.10352  -1.05855  -0.74580  -0.69372
 Alpha  occ. eigenvalues --   -0.68994  -0.64169  -0.59042  -0.56408  -0.53935
 Alpha  occ. eigenvalues --   -0.43844  -0.39816  -0.35181  -0.25171
 Alpha virt. eigenvalues --    0.02784   0.04323   0.05722   0.06826   0.07388
 Alpha virt. eigenvalues --    0.09958   0.10582   0.11316   0.12129   0.13292
 Alpha virt. eigenvalues --    0.14087   0.14235   0.15737   0.16594   0.16840

 Mulliken charges:
               1
     1  H    1.118967
     2  H    1.024976
     3  S   -2.265150
     4  H    1.329195
     5  H    1.346498
     6  H    1.400939
     7  C   -3.199595
     8  N   -2.118168
     9  N    2.919502
    10  N   -1.557163
 Sum of Mulliken charges =  -0.00000

 Dipole moment (field-independent basis, Debye):
    X=             -0.6374    Y=              1.9413    Z=             -0.8840  Tot=              2.2263

 Test job not archived.
 1\1\GINC-SE048\SP\RHF\Aug-CC-pVDZ\C1H5N3S1\OHZDE\09-Apr-2025\0\\#t hf
 aug-cc-pvdz iop(5/13=1,5/36=2,99/5=2) pseudo=read geom=check guess=(re
 ad,tcheck) scf=(maxcycle=1)\\title\\0,1\H,0,1.21774303,0.78814331,-0.0
 7896573\H,0,1.90622629,2.11329938,-1.32547278\S,0,1.84165876,1.9773473
 1,0.00700442\H,0,-2.23552508,0.16786644,1.15983038\H,0,-2.48636659,0.2
 7397993,-0.59993825\H,0,-1.34356073,1.36562933,0.20451209\C,0,-1.75153
 504,0.36089654,0.20154635\N,0,-0.6147675,-0.54936555,-0.01569769\N,0,-
 0.87655535,-1.74635868,-0.04207559\N,0,-1.00089592,-2.86717166,-0.0848

 Normal termination of Gaussian 16 at Wed Apr  9 19:35:51 2025.
