 Gaussian 16, Revision C.01,

 ----------------------------------------------------------------------
 #t hf aug-cc-pvdz symm=none int=(grid=ultrafine) guess=(read,tcheck) s
 table=(opt,rrhf)
 ----------------------------------------------------------------------
 -----
 title
 -----
 Symbolic Z-matrix:
 Charge =  0 Multiplicity = 1

 SCF Done:  E(RHF) =  -969.533589778     A.U. after   13 cycles
 Normal termination of Gaussian 16 at Wed Apr  9 19:36:27 2025.
 Gaussian 16:  ES64L-G16RevC.01  3-Jul-2019

 ----------------------------------------------------------------------
 #t hf aug-cc-pvdz iop(5/13=1,5/36=2,99/5=2) pseudo=read geom=check gue
 ss=(read,tcheck) scf=(maxcycle=1)
 ----------------------------------------------------------------------
 -----
 title
 -----
 Structure from the checkpoint file:  "HB300SPXx10_1065_4.10_1.00_methylamine_dimethyldisulfide_dimer_mol1.chk"
 Charge =  0 Multiplicity = 1

                         Standard orientation:
 ---------------------------------------------------------------------
 Center     Atomic      Atomic             Coordinates (Angstroms)
 Number     Number       Type             X           Y           Z
 ---------------------------------------------------------------------
      1          7           0        2.252712    0.915891   -0.003934
      2          1           0        2.461876    1.859126   -0.302857
      3          1           0        1.535185    0.560469   -0.624520
      4          6           0        3.449474    0.076909   -0.063890
      5          1           0        3.199353   -0.928693    0.272571
      6          1           0        3.904876   -0.006474   -1.057118
      7          1           0        4.201795    0.468577    0.619704
      8          1           0       -1.766601    2.599107    0.646222
      9          1           0       -0.774785    2.200184   -0.771358
     10          1           0       -0.231421    1.727277    0.860109
     11          1           0       -0.597704   -2.026989    1.561871
     12          1           0        0.712384   -0.831886    1.313094
     13          1           0        0.800186   -2.430831    0.542800
     14          6           0       -1.091740    1.862675    0.211704
     15         16           0       -2.055565    0.323172    0.076190
     16         16           0       -0.703958   -1.038774   -0.644359
     17          6           0        0.131974   -1.631495    0.861806
 ---------------------------------------------------------------------

 SCF Done:  E(RHF) =  -970.894756080     A.U. after    2 cycles

 The electronic state is 1-A.
 Alpha  occ. eigenvalues --  -75.69714 -75.69464 -15.72680 -13.13668 -13.11742
 Alpha  occ. eigenvalues --  -13.09012 -13.08324 -13.07309 -13.03195 -11.39615
 Alpha  occ. eigenvalues --  -11.39354 -11.38023  -8.03710  -8.03530  -1.31730
 Alpha  occ. eigenvalues --   -1.26066  -1.12393  -0.97814  -0.95165  -0.86378
 Alpha  occ. eigenvalues --   -0.66173  -0.59906  -0.59752  -0.58935  -0.58887
 Alpha  occ. eigenvalues --   -0.58177  -0.53529  -0.51053  -0.46719  -0.42704
 Alpha  occ. eigenvalues --   -0.35461  -0.33353  -0.24891  -0.23314
 Alpha virt. eigenvalues --    0.03225   0.03345   0.04027   0.05224   0.06412
 Alpha virt. eigenvalues --    0.06574   0.06780   0.07456   0.07693   0.09143
 Alpha virt. eigenvalues --    0.09711   0.09844   0.11361   0.12715   0.13816

 Mulliken charges:
               1
     1  N   -2.182122
     2  H    0.625483
     3  H    0.936001
     4  C   -3.250621
     5  H    1.507231
     6  H    1.327453
     7  H    1.278521
     8  H    1.352478
     9  H    1.518249
    10  H    1.660196
    11  H    1.411469
    12  H    1.784351
    13  H    1.462217
    14  C   -4.821658
    15  S    0.310757
    16  S   -0.130179
    17  C   -4.789826
 Sum of Mulliken charges =  -0.00000

 Dipole moment (field-independent basis, Debye):
    X=             -0.0574    Y=             -0.0127    Z=             -1.0405  Tot=              1.0422

 Test job not archived.
 1\1\GINC-SE125\SP\RHF\Aug-CC-pVDZ\C3H11N1S2\OHZDE\09-Apr-2025\0\\#t hf
  aug-cc-pvdz iop(5/13=1,5/36=2,99/5=2) pseudo=read geom=check guess=(r
 ead,tcheck) scf=(maxcycle=1)\\title\\0,1\N,0,-0.790217,0.77789413,2.28
 472778\H,0,-1.73224372,0.61681804,2.6155392\H,0,-0.85550262,0.99181266
 ,1.29666237\C,0,-0.16836631,1.8838218,3.01270443\H,0,0.84688345,2.0289
 6517,2.64500493\H,0,-0.69345824,2.84224623,2.93178871\H,0,-0.0959132,1
 .62767695,4.06903376\H,0,-1.69754833,-2.66796822,-0.30632981\H,0,-2.22
 673006,-0.97544622,-0.21853358\H,0,-0.89394691,-1.54909758,0.81837778\

 Normal termination of Gaussian 16 at Wed Apr  9 19:36:38 2025.
