 Gaussian 16, Revision C.01,

 ----------------------------------------------------------------------
 #t hf aug-cc-pvdz symm=none int=(grid=ultrafine) guess=(read,tcheck) s
 table=(opt,rrhf)
 ----------------------------------------------------------------------
 -----
 title
 -----
 Symbolic Z-matrix:
 Charge =  0 Multiplicity = 1

 SCF Done:  E(RHF) =  -991.395657461     A.U. after   13 cycles

 1\1\GINC-SE041\Stability\RHF\Aug-CC-pVDZ\C5H12S2\OHZDE\09-Apr-2025\0\\
 #t hf aug-cc-pvdz symm=none int=(grid=ultrafine) guess=(read,tcheck) s
 table=(opt,rrhf)\\title\\0,1\H,0,2.75511322,-2.75302781,-0.03281769\H,
 0,2.23328443,-3.6609344,1.39160682\H,0,2.88304587,-2.02859561,1.588775
 53\H,0,0.87227038,-0.86572365,0.25189781\C,0,2.28978938,-2.67174858,0.
 94522466\S,0,0.57786237,-2.06107277,0.80693494\H,0,-0.61050803,-0.8532
 6693,-1.51994408\H,0,-0.70542126,0.61725474,-2.49929917\H,0,-2.8480145
 8,-0.04869998,-1.03868\H,0,-0.56153591,2.32009852,1.09412403\H,0,-2.30

 Normal termination of Gaussian 16 at Wed Apr  9 19:39:42 2025.
 Gaussian 16:  ES64L-G16RevC.01  3-Jul-2019

 ----------------------------------------------------------------------
 #t hf aug-cc-pvdz iop(5/13=1,5/36=2,99/5=2) pseudo=read geom=check gue
 ss=(read,tcheck) scf=(maxcycle=1)
 ----------------------------------------------------------------------
 -----
 title
 -----
 Structure from the checkpoint file:  "HB300SPXx10_1201_4.25_0.80_methanethiol_tetrahydrothiophene_dimer_mol1.chk"
 Charge =  0 Multiplicity = 1

                         Standard orientation:
 ---------------------------------------------------------------------
 Center     Atomic      Atomic             Coordinates (Angstroms)
 Number     Number       Type             X           Y           Z
 ---------------------------------------------------------------------
      1          1           0        3.435900    1.037380   -0.792874
      2          1           0        4.194819   -0.399366   -0.096175
      3          1           0        3.426922    0.783856    0.969619
      4          1           0        0.969229    0.343345   -0.004253
      5          6           0        3.367088    0.298176   -0.000068
      6         16           0        1.836941   -0.681183   -0.149230
      7          1           0       -0.433156   -0.042009   -1.799533
      8          1           0       -1.860263    0.991260   -1.961700
      9          1           0       -2.252747   -1.601488   -1.422047
     10          1           0       -2.037348    0.367125    1.964133
     11          1           0       -3.164379   -0.412393   -0.493878
     12          1           0       -0.332268   -0.094062    2.061793
     13          1           0       -2.106711   -1.908527    1.161910
     14          1           0       -0.553074   -1.747682    0.354563
     15         16           0       -0.757692    1.345313    0.159376
     16          6           0       -1.308558    0.347295   -1.282316
     17          6           0       -2.160663   -0.781948   -0.709111
     18          6           0       -1.482075   -1.225904    0.585787
     19          6           0       -1.174945    0.038463    1.388391
 ---------------------------------------------------------------------

 SCF Done:  E(RHF) =  -992.888171679     A.U. after    2 cycles

 The electronic state is 1-A.
 Alpha  occ. eigenvalues --  -75.67215 -75.65648 -13.14669 -13.12076 -13.11066
 Alpha  occ. eigenvalues --  -13.10243 -13.06330 -12.99734 -11.44087 -11.43084
 Alpha  occ. eigenvalues --  -11.39283 -11.38486 -11.36441  -8.01397  -7.99690
 Alpha  occ. eigenvalues --   -1.33491  -1.16656  -1.07934  -1.07387  -0.92845
 Alpha  occ. eigenvalues --   -0.85029  -0.83344  -0.67127  -0.65803  -0.61208
 Alpha  occ. eigenvalues --   -0.59046  -0.57399  -0.55348  -0.49525  -0.48665
 Alpha  occ. eigenvalues --   -0.46743  -0.45659  -0.42460  -0.38527  -0.35241
 Alpha  occ. eigenvalues --   -0.22447  -0.19840
 Alpha virt. eigenvalues --    0.03096   0.03631   0.04400   0.05305   0.05804
 Alpha virt. eigenvalues --    0.06080   0.06383   0.06486   0.07423   0.08128
 Alpha virt. eigenvalues --    0.08681   0.09555   0.11417   0.12388   0.13176

 Mulliken charges:
               1
     1  H    1.318486
     2  H    1.310274
     3  H    1.376689
     4  H    2.665783
     5  C   -5.271441
     6  S   -0.618468
     7  H    1.395761
     8  H    1.399477
     9  H    1.304700
    10  H    1.419704
    11  H    1.410392
    12  H    1.464895
    13  H    1.304837
    14  H    1.840868
    15  S   -0.133549
    16  C   -3.220483
    17  C   -2.602178
    18  C   -2.912171
    19  C   -3.453577
 Sum of Mulliken charges =  -0.00000

 Dipole moment (field-independent basis, Debye):
    X=             -0.0039    Y=             -0.4164    Z=              0.0018  Tot=              0.4164

 Test job not archived.
 1\1\GINC-SE041\SP\RHF\Aug-CC-pVDZ\C5H12S2\OHZDE\09-Apr-2025\0\\#t hf a
 ug-cc-pvdz iop(5/13=1,5/36=2,99/5=2) pseudo=read geom=check guess=(rea
 d,tcheck) scf=(maxcycle=1)\\title\\0,1\H,0,2.75511322,-2.75302781,-0.0
 3281769\H,0,2.23328443,-3.6609344,1.39160682\H,0,2.88304587,-2.0285956
 1,1.58877553\H,0,0.87227038,-0.86572365,0.25189781\C,0,2.28978938,-2.6
 7174858,0.94522466\S,0,0.57786237,-2.06107277,0.80693494\H,0,-0.610508
 03,-0.85326693,-1.51994408\H,0,-0.70542126,0.61725474,-2.49929917\H,0,
 -2.84801458,-0.04869998,-1.03868\H,0,-0.56153591,2.32009852,1.09412403

 Normal termination of Gaussian 16 at Wed Apr  9 19:39:51 2025.
