 Gaussian 16, Revision C.01,

 ----------------------------------------------------------------------
 #t hf aug-cc-pvdz symm=none int=(grid=ultrafine) guess=(read,tcheck) s
 table=(opt,rrhf)
 ----------------------------------------------------------------------
 -----
 title
 -----
 Symbolic Z-matrix:
 Charge =  0 Multiplicity = 1

 SCF Done:  E(RHF) =  -704.618030635     A.U. after   13 cycles
 Normal termination of Gaussian 16 at Wed Apr  9 19:37:20 2025.
 Gaussian 16:  ES64L-G16RevC.01  3-Jul-2019

 ----------------------------------------------------------------------
 #t hf aug-cc-pvdz iop(5/13=1,5/36=2,99/5=2) pseudo=read geom=check gue
 ss=(read,tcheck) scf=(maxcycle=1)
 ----------------------------------------------------------------------
 -----
 title
 -----
 Structure from the checkpoint file:  "HB300SPXx10_1129_4.16_1.50_aceticacid_dimethylsulfide_dimer_mol1.chk"
 Charge =  0 Multiplicity = 1

                         Standard orientation:
 ---------------------------------------------------------------------
 Center     Atomic      Atomic             Coordinates (Angstroms)
 Number     Number       Type             X           Y           Z
 ---------------------------------------------------------------------
      1          6           0        0.244140    2.411198   -0.000000
      2          8           0       -0.847038    1.889406   -0.000000
      3          8           0        1.390819    1.722147   -0.000000
      4          1           0        1.191951    0.752783   -0.000000
      5          6           0        0.479873    3.896549   -0.000000
      6          1           0       -0.469491    4.420349   -0.000000
      7          1           0        1.062100    4.176895    0.876781
      8          1           0        1.062100    4.176895   -0.876781
      9          1           0       -1.561718   -3.105619    1.379195
     10          1           0       -1.362283   -1.330671    1.315483
     11          1           0       -0.264124   -2.326140    2.299403
     12          1           0       -0.264124   -2.326140   -2.299403
     13          1           0       -1.362283   -1.330671   -1.315483
     14          1           0       -1.561718   -3.105619   -1.379195
     15          6           0       -0.847038   -2.285572    1.382643
     16         16           0        0.312482   -2.457132    0.000000
     17          6           0       -0.847038   -2.285572   -1.382643
 ---------------------------------------------------------------------

 SCF Done:  E(RHF) =  -706.251275245     A.U. after    2 cycles

 The electronic state is 1-A'.
 Alpha  occ. eigenvalues --  -75.67218 -21.11766 -21.04800 -13.09153 -13.06872
 Alpha  occ. eigenvalues --  -13.02488 -11.51948 -11.39413 -11.38968 -11.38833
 Alpha  occ. eigenvalues --   -8.01297  -1.82404  -1.64712  -1.22421  -1.11114
 Alpha  occ. eigenvalues --   -1.02743  -0.87731  -0.80059  -0.63546  -0.61901
 Alpha  occ. eigenvalues --   -0.60438  -0.60096  -0.59843  -0.57678  -0.56647
 Alpha  occ. eigenvalues --   -0.54240  -0.49839  -0.44988  -0.44148  -0.36447
 Alpha  occ. eigenvalues --   -0.33566  -0.29549  -0.22172
 Alpha virt. eigenvalues --    0.03266   0.03708   0.04164   0.05622   0.06139
 Alpha virt. eigenvalues --    0.06346   0.07282   0.07700   0.08230   0.08749
 Alpha virt. eigenvalues --    0.09893   0.11360   0.12325   0.12513   0.14110

 Mulliken charges:
               1
     1  C    5.501998
     2  O   -3.032767
     3  O   -3.068332
     4  H    1.087013
     5  C   -4.297474
     6  H    1.283464
     7  H    1.253580
     8  H    1.253580
     9  H    1.383320
    10  H    1.464006
    11  H    1.441919
    12  H    1.441919
    13  H    1.464006
    14  H    1.383320
    15  C   -4.784194
    16  S    1.008837
    17  C   -4.784194
 Sum of Mulliken charges =  -0.00000

 Dipole moment (field-independent basis, Debye):
    X=              1.1388    Y=             -0.0185    Z=             -0.0000  Tot=              1.1390

 Test job not archived.
 1\1\GINC-SE054\SP\RHF\Aug-CC-pVDZ\C4H10O2S1\OHZDE\09-Apr-2025\0\\#t hf
  aug-cc-pvdz iop(5/13=1,5/36=2,99/5=2) pseudo=read geom=check guess=(r
 ead,tcheck) scf=(maxcycle=1)\\title\\0,1\C,0,0.08152563,1.86646531,0.\
 O,0,1.12794826,1.25988757,0.\O,0,-1.11612638,1.27040068,0.\H,0,-0.9946
 6015,0.28833063,0.\C,0,-0.03582077,3.36582142,0.\H,0,0.95204799,3.8127
 8193,0.\H,0,-0.5940149,3.69140047,-0.87678098\H,0,-0.5940149,3.6914004
 7,0.87678098\H,0,1.4447584,-3.77605139,-1.37919498\H,0,1.38653184,-1.9
 908834,-1.31548339\H,0,0.21297789,-2.89624675,-2.29940307\H,0,0.212977

 Normal termination of Gaussian 16 at Wed Apr  9 19:37:25 2025.
