 Gaussian 16, Revision C.01,

 ----------------------------------------------------------------------
 #t hf aug-cc-pvdz symm=none int=(grid=ultrafine) guess=(read,tcheck) s
 table=(opt,rrhf)
 ----------------------------------------------------------------------
 -----
 title
 -----
 Symbolic Z-matrix:
 Charge =  0 Multiplicity = 1

 SCF Done:  E(RHF) =  -989.366455932     A.U. after   13 cycles
 Normal termination of Gaussian 16 at Wed Apr  9 19:37:16 2025.
 Gaussian 16:  ES64L-G16RevC.01  3-Jul-2019

 ----------------------------------------------------------------------
 #t hf aug-cc-pvdz iop(5/13=1,5/36=2,99/5=2) pseudo=read geom=check gue
 ss=(read,tcheck) scf=(maxcycle=1)
 ----------------------------------------------------------------------
 -----
 title
 -----
 Structure from the checkpoint file:  "HB300SPXx10_1146_4.19_1.05_methanol_dimethyldisulfide_dimer_mol1.chk"
 Charge =  0 Multiplicity = 1

                         Standard orientation:
 ---------------------------------------------------------------------
 Center     Atomic      Atomic             Coordinates (Angstroms)
 Number     Number       Type             X           Y           Z
 ---------------------------------------------------------------------
      1          8           0        2.890863    0.231579   -0.142064
      2          1           0        2.060754    0.390943   -0.607340
      3          6           0        2.927300   -1.133299    0.244938
      4          1           0        3.852480   -1.286808    0.796238
      5          1           0        2.088109   -1.398021    0.894583
      6          1           0        2.924127   -1.804571   -0.618600
      7          1           0       -3.155413   -1.773992    0.581036
      8          1           0       -3.311954   -0.503832   -0.652029
      9          1           0       -3.008259   -0.071063    1.052342
     10          1           0        0.642572    1.381569    1.383442
     11          1           0       -1.068643    1.907653    1.424889
     12          1           0        0.131318    2.836517    0.504786
     13          6           0       -2.806605   -0.791805    0.264921
     14         16           0       -1.017177   -0.961364   -0.021985
     15         16           0       -0.483057    0.898097   -0.704394
     16          6           0       -0.167069    1.838645    0.823346
 ---------------------------------------------------------------------

 SCF Done:  E(RHF) =  -990.765357180     A.U. after    2 cycles

 The electronic state is 1-A.
 Alpha  occ. eigenvalues --  -75.70845 -75.70554 -21.05098 -13.14837 -13.11685
 Alpha  occ. eigenvalues --  -13.10658 -13.09970 -13.08532 -13.04380 -11.40510
 Alpha  occ. eigenvalues --  -11.40270 -11.38676  -8.04837  -8.04612  -1.68571
 Alpha  occ. eigenvalues --   -1.27274  -1.13293  -0.98822  -0.96226  -0.87448
 Alpha  occ. eigenvalues --   -0.62735  -0.60885  -0.60053  -0.59807  -0.59084
 Alpha  occ. eigenvalues --   -0.58429  -0.52742  -0.47769  -0.43797  -0.40359
 Alpha  occ. eigenvalues --   -0.34452  -0.30532  -0.25894  -0.24394
 Alpha virt. eigenvalues --    0.02433   0.03383   0.03972   0.04617   0.06446
 Alpha virt. eigenvalues --    0.06979   0.07654   0.08158   0.08416   0.08814
 Alpha virt. eigenvalues --    0.09694   0.10705   0.12600   0.12760   0.14016

 Mulliken charges:
               1
     1  O   -2.455405
     2  H    1.338602
     3  C   -2.542114
     4  H    1.254954
     5  H    1.295951
     6  H    1.323354
     7  H    1.374987
     8  H    1.501783
     9  H    1.499618
    10  H    1.496871
    11  H    1.514241
    12  H    1.428063
    13  C   -5.018346
    14  S    0.766942
    15  S   -0.260235
    16  C   -4.519266
 Sum of Mulliken charges =   0.00000

 Dipole moment (field-independent basis, Debye):
    X=             -0.9972    Y=             -0.6192    Z=             -0.3423  Tot=              1.2227

 Test job not archived.
 1\1\GINC-SE454\SP\RHF\Aug-CC-pVDZ\C3H10O1S2\OHZDE\09-Apr-2025\0\\#t hf
  aug-cc-pvdz iop(5/13=1,5/36=2,99/5=2) pseudo=read geom=check guess=(r
 ead,tcheck) scf=(maxcycle=1)\\title\\0,1\O,0,-0.42925951,1.22968046,-2
 .50380826\H,0,-0.36156068,1.36890772,-1.5514469\C,0,-1.37991091,0.2017
 0921,-2.7351714\H,0,-1.41855104,0.0350798,-3.80950666\H,0,-1.09677682,
 -0.73598734,-2.24842974\H,0,-2.37984798,0.48334645,-2.39294418\H,0,-0.
 48702319,-2.59557321,2.64077566\H,0,-0.02159056,-1.02479272,3.32945825
 \H,0,1.14524493,-1.96319263,2.3587364\H,0,1.77299733,-0.09980445,-1.05

 Normal termination of Gaussian 16 at Wed Apr  9 19:37:21 2025.
