 Gaussian 16, Revision C.01,

 ----------------------------------------------------------------------
 #t hf aug-cc-pvdz symm=none int=(grid=ultrafine) guess=(read,tcheck) s
 table=(opt,rrhf)
 ----------------------------------------------------------------------
 -----
 title
 -----
 Symbolic Z-matrix:
 Charge =  0 Multiplicity = 1

 SCF Done:  E(RHF) =  -591.460336325     A.U. after   13 cycles
 Normal termination of Gaussian 16 at Wed Apr  9 19:35:07 2025.
 Gaussian 16:  ES64L-G16RevC.01  3-Jul-2019

 ----------------------------------------------------------------------
 #t hf aug-cc-pvdz iop(5/13=1,5/36=2,99/5=2) pseudo=read geom=check gue
 ss=(read,tcheck) scf=(maxcycle=1)
 ----------------------------------------------------------------------
 -----
 title
 -----
 Structure from the checkpoint file:  "HB300SPXx10_1016_4.05_1.05_ethyne_thioacetone_dimer_mol1.chk"
 Charge =  0 Multiplicity = 1

                         Standard orientation:
 ---------------------------------------------------------------------
 Center     Atomic      Atomic             Coordinates (Angstroms)
 Number     Number       Type             X           Y           Z
 ---------------------------------------------------------------------
      1          6           0        2.909914    0.994436    0.000000
      2          1           0        2.247986    0.157394    0.000000
      3          6           0        3.634682    1.946702    0.000000
      4          1           0        4.283074    2.786721    0.000000
      5          1           0       -2.914555   -1.791782    0.000000
      6          1           0       -3.272308   -0.286099    0.874719
      7          1           0       -3.272308   -0.286099   -0.874719
      8          1           0        0.000000    1.365536    0.000000
      9          1           0       -1.527796    1.594980   -0.874314
     10          6           0       -2.777514   -0.715975    0.000000
     11          6           0       -1.327310   -0.338006    0.000000
     12         16           0       -0.143712   -1.454573    0.000000
     13          6           0       -1.059256    1.135765    0.000000
     14          1           0       -1.527796    1.594980    0.874314
 ---------------------------------------------------------------------

 SCF Done:  E(RHF) =  -592.651679772     A.U. after    2 cycles

 The electronic state is 1-A'.
 Alpha  occ. eigenvalues --  -75.66614 -13.16055 -13.04893 -12.97930 -11.48175
 Alpha  occ. eigenvalues --  -11.40731 -11.40529 -11.40284 -11.39019  -8.00862
 Alpha  occ. eigenvalues --   -1.28832  -1.08870  -1.04896  -1.03960  -0.77748
 Alpha  occ. eigenvalues --   -0.75591  -0.64969  -0.61929  -0.61410  -0.60476
 Alpha  occ. eigenvalues --   -0.55734  -0.50887  -0.42151  -0.38156  -0.38057
 Alpha  occ. eigenvalues --   -0.32566  -0.22519
 Alpha virt. eigenvalues --    0.02438   0.04070   0.05366   0.05722   0.06359
 Alpha virt. eigenvalues --    0.06627   0.07278   0.08165   0.08355   0.09336
 Alpha virt. eigenvalues --    0.10294   0.12327   0.12354   0.13724   0.13867

 Mulliken charges:
               1
     1  C   -0.168572
     2  H    0.706169
     3  C   -1.000353
     4  H    0.575243
     5  H    1.458251
     6  H    1.202420
     7  H    1.202420
     8  H    1.629275
     9  H    1.153748
    10  C   -4.431392
    11  C    0.329953
    12  S    0.838476
    13  C   -4.649387
    14  H    1.153748
 Sum of Mulliken charges =  -0.00000

 Dipole moment (field-independent basis, Debye):
    X=             -0.5828    Y=             -0.1913    Z=             -0.0000  Tot=              0.6134

 Test job not archived.
 1\1\GINC-SE212\SP\RHF\Aug-CC-pVDZ\C5H8S1\OHZDE\09-Apr-2025\0\\#t hf au
 g-cc-pvdz iop(5/13=1,5/36=2,99/5=2) pseudo=read geom=check guess=(read
 ,tcheck) scf=(maxcycle=1)\\title\\0,1\C,0,-0.20751211,-2.93011645,0.\H
 ,0,-0.70775465,-1.98748922,0.\C,0,0.37296237,-3.97660953,0.\H,0,0.8813
 7254,-4.90804053,0.\H,0,-0.41661984,3.52307823,0.\H,0,1.10583326,3.245
 21909,0.87471889\H,0,1.10583326,3.24521909,-0.87471889\H,0,1.30231114,
 -0.41501211,0.\H,0,2.12670014,0.89158153,-0.87431367\C,0,0.51328645,2.
 96503387,0.\C,0,0.27624433,1.48524946,0.\S,0,-1.2219964,0.85050533,0.\

 Normal termination of Gaussian 16 at Wed Apr  9 19:35:11 2025.
