 Gaussian 16, Revision C.01,

 ----------------------------------------------------------------------
 #t hf aug-cc-pvdz symm=none int=(grid=ultrafine) guess=(read,tcheck) s
 table=(opt,rrhf)
 ----------------------------------------------------------------------
 -----
 title
 -----
 Symbolic Z-matrix:
 Charge =  0 Multiplicity = 1

 SCF Done:  E(RHF) =  -783.967659822     A.U. after   15 cycles
 Normal termination of Gaussian 16 at Wed Apr  9 19:44:58 2025.
 Gaussian 16:  ES64L-G16RevC.01  3-Jul-2019

 ----------------------------------------------------------------------
 #t hf aug-cc-pvdz iop(5/13=1,5/36=2,99/5=2) pseudo=read geom=check gue
 ss=(read,tcheck) scf=(maxcycle=1)
 ----------------------------------------------------------------------
 -----
 title
 -----
 Structure from the checkpoint file:  "HB300SPXx10_1470_5.09_2.00_nitromethane_phosphineF2_dimer_mol1.chk"
 Charge =  0 Multiplicity = 1

                         Standard orientation:
 ---------------------------------------------------------------------
 Center     Atomic      Atomic             Coordinates (Angstroms)
 Number     Number       Type             X           Y           Z
 ---------------------------------------------------------------------
      1          1           0       -3.100846    1.834174    0.019299
      2          1           0       -4.292513    1.110105   -1.086998
      3          1           0       -4.582899    1.093987    0.695677
      4          6           0       -3.849861    1.055851   -0.099642
      5          7           0       -3.114059   -0.239787    0.002841
      6          8           0       -3.126088   -0.816968    1.071483
      7          8           0       -2.513527   -0.614146   -0.993767
      8         15           0        2.885801   -0.284904   -0.387470
      9          9           0        4.259418    0.039780    0.365328
     10          9           0        1.989516    0.884969    0.258609
     11          1           0        2.463350   -1.295148    0.524881
 ---------------------------------------------------------------------

 SCF Done:  E(RHF) =  -785.886317226     A.U. after    2 cycles

 The electronic state is 1-A.
 Alpha  occ. eigenvalues -- -105.29604 -29.29297 -29.28999 -21.10335 -21.09708
 Alpha  occ. eigenvalues --  -16.00072 -11.45298  -2.89035  -2.00344  -1.69509
 Alpha  occ. eigenvalues --   -1.63327  -1.59302  -1.52898  -1.20231  -0.90275
 Alpha  occ. eigenvalues --   -0.87462  -0.71317  -0.69473  -0.67464  -0.57146
 Alpha  occ. eigenvalues --   -0.57061  -0.56293  -0.46548  -0.40567  -0.36500
 Alpha  occ. eigenvalues --   -0.36121  -0.34639  -0.31949  -0.31426  -0.28654
 Alpha  occ. eigenvalues --   -0.25907  -0.19366  -0.00441
 Alpha virt. eigenvalues --    0.02963   0.05674   0.05863   0.06742   0.09280
 Alpha virt. eigenvalues --    0.09758   0.11168   0.13209   0.13495   0.13966
 Alpha virt. eigenvalues --    0.14268   0.14863   0.16248   0.17194   0.19391

 Mulliken charges:
               1
     1  H    1.355921
     2  H    1.350675
     3  H    1.332176
     4  C   -3.096475
     5  N    4.418531
     6  O   -2.693280
     7  O   -2.675978
     8  P    1.536784
     9  F   -0.217463
    10  F   -0.227126
    11  H   -1.083765
 Sum of Mulliken charges =  -0.00000

 Dipole moment (field-independent basis, Debye):
    X=             -0.2549    Y=              5.3988    Z=              4.5038  Tot=              7.0353

 Test job not archived.
 1\1\GINC-SE100\SP\RHF\Aug-CC-pVDZ\C1H4F2N1O2P1\OHZDE\09-Apr-2025\0\\#t
  hf aug-cc-pvdz iop(5/13=1,5/36=2,99/5=2) pseudo=read geom=check guess
 =(read,tcheck) scf=(maxcycle=1)\\title\\0,1\H,0,0.49481138,0.55069733,
 -2.50359179\H,0,-1.08891031,0.71291216,-3.29967626\H,0,-0.00441746,2.1
 4812453,-3.13671373\C,0,-0.34098337,1.21704881,-2.69950341\N,0,-0.9468
 7558,1.51662809,-1.36768821\O,0,-0.63929751,2.55888018,-0.82511637\O,0
 ,-1.68734525,0.66720154,-0.89420145\P,0,0.53758662,-1.84379635,3.39220
 852\F,0,1.66605941,-2.16644282,4.47912934\F,0,1.50560019,-1.46508191,2

 Normal termination of Gaussian 16 at Wed Apr  9 19:45:02 2025.
