 Gaussian 16, Revision C.01,

 ----------------------------------------------------------------------
 #t hf aug-cc-pvdz symm=none int=(grid=ultrafine) guess=(read,tcheck) s
 table=(opt,rrhf)
 ----------------------------------------------------------------------
 -----
 title
 -----
 Symbolic Z-matrix:
 Charge =  0 Multiplicity = 1

 SCF Done:  E(RHF) =  -897.816490954     A.U. after   12 cycles
 Normal termination of Gaussian 16 at Wed Apr  9 04:10:22 2025.
 Gaussian 16:  ES64L-G16RevC.01  3-Jul-2019

 ----------------------------------------------------------------------
 #t hf aug-cc-pvdz iop(5/13=1,5/36=2,99/5=2) pseudo=read geom=check gue
 ss=(read,tcheck) scf=(maxcycle=1)
 ----------------------------------------------------------------------
 -----
 title
 -----
 Structure from the checkpoint file:  "HB300SPXx10_1332_4.38_0.85_hydrogenchloride_methanethiol_dimer_mol1.chk"
 Charge =  0 Multiplicity = 1

                         Standard orientation:
 ---------------------------------------------------------------------
 Center     Atomic      Atomic             Coordinates (Angstroms)
 Number     Number       Type             X           Y           Z
 ---------------------------------------------------------------------
      1          1           0       -0.705458   -0.406709   -0.090535
      2         17           0       -1.924065    0.063237    0.004296
      3          1           0        0.610953    1.589218    0.556162
      4          1           0        1.435340    1.485924   -1.005029
      5          1           0        2.382269    1.362257    0.484998
      6          1           0        1.214819   -0.935659    1.232135
      7          6           0        1.431547    1.123536    0.019135
      8         16           0        1.198869   -0.681955   -0.085349
 ---------------------------------------------------------------------

 SCF Done:  E(RHF) =  -898.524691191     A.U. after    2 cycles

 The electronic state is 1-A.
 Alpha  occ. eigenvalues --  -99.86511 -75.71324 -13.16987 -13.13269 -13.10416
 Alpha  occ. eigenvalues --  -11.41671 -10.43774  -9.63927  -9.63081  -9.62998
 Alpha  occ. eigenvalues --   -8.05409  -1.27717  -1.20900  -0.96884  -0.68486
 Alpha  occ. eigenvalues --   -0.62172  -0.60523  -0.51875  -0.49570  -0.49455
 Alpha  occ. eigenvalues --   -0.41899  -0.27809
 Alpha virt. eigenvalues --    0.02072   0.03836   0.05013   0.06147   0.07898
 Alpha virt. eigenvalues --    0.10037   0.10660   0.10944   0.13869   0.14355
 Alpha virt. eigenvalues --    0.14685   0.16260   0.17443   0.18505   0.18689

 Mulliken charges:
               1
     1  H    1.256013
     2  Cl  -0.851949
     3  H    1.215850
     4  H    1.355673
     5  H    1.352011
     6  H    1.218117
     7  C   -4.133023
     8  S   -1.412691
 Sum of Mulliken charges =  -0.00000

 Dipole moment (field-independent basis, Debye):
    X=              3.4463    Y=             -0.2765    Z=             -0.8699  Tot=              3.5652

 Test job not archived.
 1\1\GINC-SE419\SP\RHF\Aug-CC-pVDZ\C1H5Cl1S1\OHZDE\09-Apr-2025\0\\#t hf
  aug-cc-pvdz iop(5/13=1,5/36=2,99/5=2) pseudo=read geom=check guess=(r
 ead,tcheck) scf=(maxcycle=1)\\title\\0,1\H,0,-0.71323053,0.36081391,-0
 .38963987\Cl,0,-0.97574618,1.50432633,-0.9712843\H,0,1.59008032,0.7736
 0661,0.42229867\H,0,2.1151857,-0.63222362,-0.51338675\H,0,2.34743525,-
 0.62287484,1.24107111\H,0,-0.28620345,-0.60385354,1.75600075\C,0,1.694
 32852,-0.30696273,0.43389184\S,0,0.06562445,-1.11599059,0.56675089\\Ve
 rsion=ES64L-G16RevC.01\State=1-A\HF=-898.5246912\RMSD=9.773e-02\Dipole

 Normal termination of Gaussian 16 at Wed Apr  9 04:10:24 2025.
