 Gaussian 16, Revision C.01,

 ----------------------------------------------------------------------
 #t hf aug-cc-pvdz symm=none int=(grid=ultrafine) guess=(read,tcheck) s
 table=(opt,rrhf)
 ----------------------------------------------------------------------
 -----
 title
 -----
 Symbolic Z-matrix:
 Charge =  0 Multiplicity = 1

 SCF Done:  E(RHF) =  -215.884816941     A.U. after   13 cycles
 Normal termination of Gaussian 16 at Wed Apr  9 19:41:47 2025.
 Gaussian 16:  ES64L-G16RevC.01  3-Jul-2019

 ----------------------------------------------------------------------
 #t hf aug-cc-pvdz iop(5/13=1,5/36=2,99/5=2) pseudo=read geom=check gue
 ss=(read,tcheck) scf=(maxcycle=1)
 ----------------------------------------------------------------------
 -----
 title
 -----
 Structure from the checkpoint file:  "HB300SPXx10_1412_5.04_0.85_ethyne_methylfluoride_dimer_mol1.chk"
 Charge =  0 Multiplicity = 1

                         Standard orientation:
 ---------------------------------------------------------------------
 Center     Atomic      Atomic             Coordinates (Angstroms)
 Number     Number       Type             X           Y           Z
 ---------------------------------------------------------------------
      1          6           0        1.063161    1.042938    0.000000
      2          1           0        0.000000    0.996031    0.000000
      3          6           0        2.258822    1.079815    0.000000
      4          1           0        3.319300    1.119307    0.000000
      5          1           0       -1.450989   -1.925213    0.893893
      6          1           0       -1.450989   -1.925213   -0.893893
      7          1           0        0.009598   -1.411938    0.000000
      8          6           0       -1.078431   -1.429368    0.000000
      9          9           0       -1.543137   -0.112587    0.000000
 ---------------------------------------------------------------------

 SCF Done:  E(RHF) =  -216.805196751     A.U. after    2 cycles

 The electronic state is 1-A'.
 Alpha  occ. eigenvalues --  -29.26263 -11.43837 -11.40355 -11.39980  -1.15452
 Alpha  occ. eigenvalues --   -1.08919  -0.78841  -0.68540  -0.65285  -0.63330
 Alpha  occ. eigenvalues --   -0.61690  -0.38804  -0.38222  -0.37990  -0.26149
 Alpha  occ. eigenvalues --   -0.25921
 Alpha virt. eigenvalues --    0.03504   0.04659   0.05792   0.06632   0.07403
 Alpha virt. eigenvalues --    0.11732   0.11868   0.12661   0.14271   0.14763
 Alpha virt. eigenvalues --    0.14824   0.15707   0.17685   0.17737   0.19059

 Mulliken charges:
               1
     1  C   -0.486195
     2  H    0.788171
     3  C   -0.990619
     4  H    0.556300
     5  H    1.345094
     6  H    1.345094
     7  H    1.206145
     8  C   -4.147900
     9  F    0.383910
 Sum of Mulliken charges =  -0.00000

 Dipole moment (field-independent basis, Debye):
    X=             -0.8618    Y=              0.1779    Z=              0.0000  Tot=              0.8800

 Test job not archived.
 1\1\GINC-SE100\SP\RHF\Aug-CC-pVDZ\C3H5F1\OHZDE\09-Apr-2025\0\\#t hf au
 g-cc-pvdz iop(5/13=1,5/36=2,99/5=2) pseudo=read geom=check guess=(read
 ,tcheck) scf=(maxcycle=1)\\title\\0,1\C,0,0.31595013,-1.6374503,0.\H,0
 ,0.81540337,-0.69773821,0.\C,0,-0.25942719,-2.68621438,0.\H,0,-0.76390
 634,-3.61984886,0.\H,0,-0.964392,2.0356413,0.8938929\H,0,-0.964392,2.0
 356413,-0.8938929\H,0,-1.26388872,0.51673735,0.\C,0,-0.72641306,1.4629
 0386,0.\F,0,0.64394189,1.19459012,0.\\Version=ES64L-G16RevC.01\State=1
 -A'\HF=-216.8051968\RMSD=8.470e-01\Dipole=0.2324776,0.2565628,0.\Quadr

 Normal termination of Gaussian 16 at Wed Apr  9 19:41:50 2025.
