 Gaussian 16, Revision C.01,

 ----------------------------------------------------------------------
 #t hf aug-cc-pvdz symm=none int=(grid=ultrafine) guess=(read,tcheck) s
 table=(opt,rrhf)
 ----------------------------------------------------------------------
 -----
 title
 -----
 Symbolic Z-matrix:
 Charge =  0 Multiplicity = 1

 SCF Done:  E(RHF) =  -601.588096008     A.U. after   14 cycles
 Normal termination of Gaussian 16 at Wed Apr  9 19:34:52 2025.
 Gaussian 16:  ES64L-G16RevC.01  3-Jul-2019

 ----------------------------------------------------------------------
 #t hf aug-cc-pvdz iop(5/13=1,5/36=2,99/5=2) pseudo=read geom=check gue
 ss=(read,tcheck) scf=(maxcycle=1)
 ----------------------------------------------------------------------
 -----
 title
 -----
 Structure from the checkpoint file:  "HB300SPXx10_101_1.11_0.80_sulfane_methylazide_dimer_mol1.chk"
 Charge =  0 Multiplicity = 1

                         Standard orientation:
 ---------------------------------------------------------------------
 Center     Atomic      Atomic             Coordinates (Angstroms)
 Number     Number       Type             X           Y           Z
 ---------------------------------------------------------------------
      1          1           0       -1.052432   -0.510252   -0.010883
      2          1           0       -2.543433   -0.477591    1.237987
      3         16           0       -2.383806   -0.329150   -0.085127
      4          1           0        1.015338    1.955139   -0.906524
      5          1           0        1.057261    1.990255    0.873357
      6          1           0       -0.485369    1.787973    0.022347
      7          6           0        0.571804    1.547266    0.002724
      8          7           0        0.664808    0.078039    0.029836
      9          7           0        1.795615   -0.393803    0.004122
     10          7           0        2.785107   -0.936053   -0.015472
 ---------------------------------------------------------------------

 SCF Done:  E(RHF) =  -602.773556126     A.U. after    2 cycles

 The electronic state is 1-A.
 Alpha  occ. eigenvalues --  -75.67491 -15.97726 -15.86442 -15.78227 -13.13896
 Alpha  occ. eigenvalues --  -13.07899 -13.01563 -11.41901  -8.01374  -1.69348
 Alpha  occ. eigenvalues --   -1.39219  -1.09741  -1.06182  -0.76222  -0.69955
 Alpha  occ. eigenvalues --   -0.69732  -0.64979  -0.59353  -0.56802  -0.53875
 Alpha  occ. eigenvalues --   -0.45090  -0.36806  -0.35885  -0.24686
 Alpha virt. eigenvalues --    0.02872   0.04630   0.05640   0.06607   0.07547
 Alpha virt. eigenvalues --    0.09989   0.10625   0.11174   0.12196   0.13263
 Alpha virt. eigenvalues --    0.13942   0.14367   0.15808   0.16841   0.17197

 Mulliken charges:
               1
     1  H    1.201249
     2  H    1.031757
     3  S   -2.403600
     4  H    1.305564
     5  H    1.331066
     6  H    1.476401
     7  C   -3.178955
     8  N   -1.952368
     9  N    2.723332
    10  N   -1.534447
 Sum of Mulliken charges =  -0.00000

 Dipole moment (field-independent basis, Debye):
    X=             -0.2534    Y=              1.9060    Z=             -0.8669  Tot=              2.1091

 Test job not archived.
 1\1\GINC-SE222\SP\RHF\Aug-CC-pVDZ\C1H5N3S1\OHZDE\09-Apr-2025\0\\#t hf
 aug-cc-pvdz iop(5/13=1,5/36=2,99/5=2) pseudo=read geom=check guess=(re
 ad,tcheck) scf=(maxcycle=1)\\title\\0,1\H,0,1.21774303,0.78814331,-0.0
 7896573\H,0,1.90622629,2.11329938,-1.32547278\S,0,1.84165876,1.9773473
 1,0.00700442\H,0,-1.86902297,0.43536821,1.14717677\H,0,-2.11986449,0.5
 414817,-0.61259186\H,0,-0.97705863,1.6331311,0.19185848\C,0,-1.3850329
 4,0.62839831,0.18889275\N,0,-0.2482654,-0.28186378,-0.0283513\N,0,-0.5
 1005325,-1.47885691,-0.0547292\N,0,-0.63439382,-2.59966989,-0.09752469

 Normal termination of Gaussian 16 at Wed Apr  9 19:34:55 2025.
