 Gaussian 16, Revision C.01,

 ----------------------------------------------------------------------
 #t hf aug-cc-pvdz symm=none int=(grid=ultrafine) guess=(read,tcheck) s
 table=(opt,rrhf)
 ----------------------------------------------------------------------
 -----
 title
 -----
 Symbolic Z-matrix:
 Charge =  0 Multiplicity = 1

 SCF Done:  E(RHF) =  -783.968480716     A.U. after   15 cycles
 Normal termination of Gaussian 16 at Wed Apr  9 19:44:58 2025.
 Gaussian 16:  ES64L-G16RevC.01  3-Jul-2019

 ----------------------------------------------------------------------
 #t hf aug-cc-pvdz iop(5/13=1,5/36=2,99/5=2) pseudo=read geom=check gue
 ss=(read,tcheck) scf=(maxcycle=1)
 ----------------------------------------------------------------------
 -----
 title
 -----
 Structure from the checkpoint file:  "HB300SPXx10_1463_5.09_0.90_nitromethane_phosphineF2_dimer_mol1.chk"
 Charge =  0 Multiplicity = 1

                         Standard orientation:
 ---------------------------------------------------------------------
 Center     Atomic      Atomic             Coordinates (Angstroms)
 Number     Number       Type             X           Y           Z
 ---------------------------------------------------------------------
      1          1           0       -1.471155    1.743107    0.075502
      2          1           0       -2.690924    1.192895   -1.098240
      3          1           0       -3.054742    1.160130    0.670681
      4          6           0       -2.298588    1.060093   -0.097144
      5          7           0       -1.720431   -0.314177   -0.009392
      6          8           0       -1.842488   -0.916019    1.038542
      7          8           0       -1.125871   -0.727086   -0.994286
      8         15           0        1.532094   -0.195219   -0.393911
      9          9           0        2.901480   -0.052593    0.420576
     10          9           0        0.749316    1.051588    0.255766
     11          1           0        0.959664   -1.175284    0.468204
 ---------------------------------------------------------------------

 SCF Done:  E(RHF) =  -785.882960229     A.U. after    2 cycles

 The electronic state is 1-A.
 Alpha  occ. eigenvalues -- -105.28808 -29.29081 -29.28347 -21.11763 -21.10511
 Alpha  occ. eigenvalues --  -16.01048 -11.45433  -2.88088  -2.01676  -1.71129
 Alpha  occ. eigenvalues --   -1.62800  -1.58801  -1.52404  -1.20977  -0.89963
 Alpha  occ. eigenvalues --   -0.88079  -0.72713  -0.70549  -0.68192  -0.58756
 Alpha  occ. eigenvalues --   -0.57946  -0.55882  -0.46929  -0.41055  -0.37671
 Alpha  occ. eigenvalues --   -0.36122  -0.34470  -0.34091  -0.32705  -0.27863
 Alpha  occ. eigenvalues --   -0.24937  -0.19556   0.00507
 Alpha virt. eigenvalues --    0.03394   0.05555   0.06578   0.07716   0.09495
 Alpha virt. eigenvalues --    0.10810   0.11430   0.12429   0.13504   0.14247
 Alpha virt. eigenvalues --    0.15099   0.15812   0.17421   0.18086   0.21281

 Mulliken charges:
               1
     1  H    1.133572
     2  H    1.442140
     3  H    1.316776
     4  C   -3.211645
     5  N    5.492206
     6  O   -2.931463
     7  O   -2.905094
     8  P    1.554056
     9  F   -0.186564
    10  F   -0.481480
    11  H   -1.222504
 Sum of Mulliken charges =  -0.00000

 Dipole moment (field-independent basis, Debye):
    X=             -0.5946    Y=              4.1382    Z=              4.3570  Tot=              6.0384

 Test job not archived.
 1\1\GINC-SE048\SP\RHF\Aug-CC-pVDZ\C1H4F2N1O2P1\OHZDE\09-Apr-2025\0\\#t
  hf aug-cc-pvdz iop(5/13=1,5/36=2,99/5=2) pseudo=read geom=check guess
 =(read,tcheck) scf=(maxcycle=1)\\title\\0,1\H,0,0.49481138,0.55069733,
 -2.50359179\H,0,-1.08891031,0.71291216,-3.29967626\H,0,-0.00441746,2.1
 4812453,-3.13671373\C,0,-0.34098337,1.21704881,-2.69950341\N,0,-0.9468
 7558,1.51662809,-1.36768821\O,0,-0.63929751,2.55888018,-0.82511637\O,0
 ,-1.68734525,0.66720154,-0.89420145\P,0,-0.01834723,-0.73511777,0.8251
 1735\F,0,1.11012556,-1.05776424,1.91203816\F,0,0.94966634,-0.35640333,

 Normal termination of Gaussian 16 at Wed Apr  9 19:45:02 2025.
