 Gaussian 16, Revision C.01,

 ----------------------------------------------------------------------
 #t hf aug-cc-pvdz symm=none int=(grid=ultrafine) guess=(read,tcheck) s
 table=(opt,rrhf)
 ----------------------------------------------------------------------
 -----
 title
 -----
 Symbolic Z-matrix:
 Charge =  0 Multiplicity = 1

 SCF Done:  E(RHF) =  -742.480349102     A.U. after   14 cycles
 Normal termination of Gaussian 16 at Wed Apr  9 19:37:42 2025.
 Gaussian 16:  ES64L-G16RevC.01  3-Jul-2019

 ----------------------------------------------------------------------
 #t hf aug-cc-pvdz iop(5/13=1,5/36=2,99/5=2) pseudo=read geom=check gue
 ss=(read,tcheck) scf=(maxcycle=1)
 ----------------------------------------------------------------------
 -----
 title
 -----
 Structure from the checkpoint file:  "HB300SPXx10_1133_4.17_0.90_aceticacid_thioacetone_dimer_mol1.chk"
 Charge =  0 Multiplicity = 1

                         Standard orientation:
 ---------------------------------------------------------------------
 Center     Atomic      Atomic             Coordinates (Angstroms)
 Number     Number       Type             X           Y           Z
 ---------------------------------------------------------------------
      1          6           0       -1.906467    1.370698    0.000000
      2          8           0       -2.106038    0.179073    0.000000
      3          8           0       -0.683825    1.915598    0.000000
      4          1           0        0.000000    1.207700    0.000000
      5          6           0       -2.985733    2.418427    0.000000
      6          1           0       -3.960224    1.943002    0.000000
      7          1           0       -2.880169    3.055713    0.876954
      8          1           0       -2.880169    3.055713   -0.876954
      9          1           0        3.572282   -1.983963    0.000000
     10          1           0        2.514787   -3.114802    0.874412
     11          1           0        2.514787   -3.114802   -0.874412
     12          1           0       -0.676897   -1.304185    0.000000
     13          1           0       -0.011653   -2.704045   -0.872921
     14          6           0        2.600150   -2.464897    0.000000
     15          6           0        1.479448   -1.471376    0.000000
     16         16           0        1.773999    0.132704    0.000000
     17          6           0        0.104907   -2.055673    0.000000
     18          1           0       -0.011653   -2.704045    0.872921
 ---------------------------------------------------------------------

 SCF Done:  E(RHF) =  -744.276159189     A.U. after    2 cycles

 The electronic state is 1-A'.
 Alpha  occ. eigenvalues --  -75.67001 -21.08660 -21.03566 -13.16752 -13.08376
 Alpha  occ. eigenvalues --  -12.98731 -11.51160 -11.48791 -11.40461 -11.38695
 Alpha  occ. eigenvalues --  -11.38599  -8.01421  -1.80816  -1.63787  -1.29147
 Alpha  occ. eigenvalues --   -1.10114  -1.05558  -1.03700  -0.79377  -0.75389
 Alpha  occ. eigenvalues --   -0.64309  -0.61736  -0.60886  -0.60798  -0.59955
 Alpha  occ. eigenvalues --   -0.59043  -0.55289  -0.53640  -0.50476  -0.48535
 Alpha  occ. eigenvalues --   -0.44749  -0.41407  -0.33235  -0.31652  -0.28581
 Alpha  occ. eigenvalues --   -0.22797
 Alpha virt. eigenvalues --    0.02717   0.04382   0.05329   0.05783   0.06619
 Alpha virt. eigenvalues --    0.06658   0.06844   0.07483   0.07557   0.08142
 Alpha virt. eigenvalues --    0.08448   0.09157   0.12345   0.12831   0.13592

 Mulliken charges:
               1
     1  C    5.932525
     2  O   -3.470462
     3  O   -3.625079
     4  H    2.031921
     5  C   -4.451394
     6  H    1.333264
     7  H    1.236782
     8  H    1.236782
     9  H    1.461183
    10  H    1.201283
    11  H    1.201283
    12  H    2.194246
    13  H    1.076487
    14  C   -4.591823
    15  C    0.473521
    16  S    0.547863
    17  C   -4.864869
    18  H    1.076487
 Sum of Mulliken charges =  -0.00000

 Dipole moment (field-independent basis, Debye):
    X=              1.0546    Y=              0.5084    Z=              0.0000  Tot=              1.1708

 Test job not archived.
 1\1\GINC-SE131\SP\RHF\Aug-CC-pVDZ\C5H10O2S1\OHZDE\09-Apr-2025\0\\#t hf
  aug-cc-pvdz iop(5/13=1,5/36=2,99/5=2) pseudo=read geom=check guess=(r
 ead,tcheck) scf=(maxcycle=1)\\title\\0,1\C,0,0.15920132,2.45664609,0.\
 O,0,1.21885316,1.87618237,0.\O,0,-1.02533188,1.83322707,0.\H,0,-0.8922
 641,0.85801947,0.\C,0,0.00380934,3.95277518,0.\H,0,0.98023034,4.424223
 4,0.\H,0,-0.56217465,4.2641268,-0.87695442\H,0,-0.56217465,4.2641268,0
 .87695442\H,0,-0.59494687,-3.92314337,0.\H,0,0.94774325,-3.79198655,-0
 .87441231\H,0,0.94774325,-3.79198655,0.87441231\H,0,1.49994451,-0.1642

 Normal termination of Gaussian 16 at Wed Apr  9 19:37:48 2025.
