 Gaussian 16, Revision C.01,

 ----------------------------------------------------------------------
 #t hf aug-cc-pvdz symm=none int=(grid=ultrafine) guess=(read,tcheck) s
 table=(opt,rrhf)
 ----------------------------------------------------------------------
 -----
 title
 -----
 Symbolic Z-matrix:
 Charge =  0 Multiplicity = 1

 SCF Done:  E(RHF) =  -1102.15471040     A.U. after   13 cycles
 Normal termination of Gaussian 16 at Wed Apr  9 19:36:33 2025.
 Gaussian 16:  ES64L-G16RevC.01  3-Jul-2019

 ----------------------------------------------------------------------
 #t hf aug-cc-pvdz iop(5/13=1,5/36=2,99/5=2) pseudo=read geom=check gue
 ss=(read,tcheck) scf=(maxcycle=1)
 ----------------------------------------------------------------------
 -----
 title
 -----
 Structure from the checkpoint file:  "HB300SPXx10_1119_4.15_1.50_aceticacid_dimethyldisulfide_dimer_mol1.chk"
 Charge =  0 Multiplicity = 1

                         Standard orientation:
 ---------------------------------------------------------------------
 Center     Atomic      Atomic             Coordinates (Angstroms)
 Number     Number       Type             X           Y           Z
 ---------------------------------------------------------------------
      1          6           0        3.493888   -0.058077   -0.020391
      2          8           0        3.034835    1.052251   -0.139137
      3          8           0        2.740867   -1.169246   -0.021182
      4          1           0        1.802481   -0.911395   -0.145128
      5          6           0        4.954703   -0.372687    0.144067
      6          1           0        5.529025    0.546790    0.160658
      7          1           0        5.111346   -0.930218    1.066404
      8          1           0        5.287976   -1.006188   -0.676982
      9          1           0       -5.016880   -0.974480    0.306590
     10          1           0       -4.395472   -0.285275   -1.208551
     11          1           0       -4.462377    0.709450    0.271591
     12          1           0       -0.944697    1.398676    1.538310
     13          1           0       -2.103786    2.358969    0.576819
     14          1           0       -0.364258    2.357754    0.164687
     15          6           0       -4.292695   -0.286519   -0.127507
     16         16           0       -2.652802   -0.912311    0.354298
     17         16           0       -1.373671    0.372947   -0.606603
     18          6           0       -1.193465    1.767565    0.548002
 ---------------------------------------------------------------------

 SCF Done:  E(RHF) =  -1104.00876308     A.U. after    2 cycles

 The electronic state is 1-A.
 Alpha  occ. eigenvalues --  -75.70048 -75.69868 -21.11700 -21.04748 -13.13440
 Alpha  occ. eigenvalues --  -13.10688 -13.08785 -13.07800 -13.04722 -13.03148
 Alpha  occ. eigenvalues --  -11.51763 -11.39888 -11.39576 -11.39277  -8.04027
 Alpha  occ. eigenvalues --   -8.03939  -1.82315  -1.64668  -1.26514  -1.12652
 Alpha  occ. eigenvalues --   -1.11046  -0.98072  -0.86696  -0.79921  -0.63434
 Alpha  occ. eigenvalues --   -0.61779  -0.60367  -0.60256  -0.59462  -0.59211
 Alpha  occ. eigenvalues --   -0.58652  -0.54103  -0.49686  -0.47060  -0.45047
 Alpha  occ. eigenvalues --   -0.42935  -0.33801  -0.33481  -0.29421  -0.25022
 Alpha  occ. eigenvalues --   -0.23736
 Alpha virt. eigenvalues --    0.02728   0.03322   0.04172   0.04570   0.06144
 Alpha virt. eigenvalues --    0.06446   0.06596   0.07411   0.08256   0.08378
 Alpha virt. eigenvalues --    0.09208   0.10021   0.11584   0.12244   0.12854

 Mulliken charges:
               1
     1  C    5.367323
     2  O   -3.007578
     3  O   -3.044958
     4  H    1.117851
     5  C   -4.219683
     6  H    1.269604
     7  H    1.240122
     8  H    1.247279
     9  H    1.338878
    10  H    1.509512
    11  H    1.555358
    12  H    1.572082
    13  H    1.517815
    14  H    1.457030
    15  C   -4.710350
    16  S    0.223824
    17  S    0.306814
    18  C   -4.740922
 Sum of Mulliken charges =   0.00000

 Dipole moment (field-independent basis, Debye):
    X=              0.2727    Y=             -1.3679    Z=             -0.0463  Tot=              1.3956

 Test job not archived.
 1\1\GINC-SE454\SP\RHF\Aug-CC-pVDZ\C4H10O2S2\OHZDE\09-Apr-2025\0\\#t hf
  aug-cc-pvdz iop(5/13=1,5/36=2,99/5=2) pseudo=read geom=check guess=(r
 ead,tcheck) scf=(maxcycle=1)\\title\\0,1\C,0,2.51189353,-1.3688008,0.0
 1480743\O,0,1.76216303,-1.97148126,0.7444221\O,0,2.20838592,-0.1819016
 3,-0.53372859\H,0,1.31541707,0.08523139,-0.22768185\C,0,3.88111819,-1.
 83853704,-0.39087365\H,0,4.08390343,-2.80677129,0.05292751\H,0,3.94369
 33,-1.90220497,-1.47628393\H,0,4.62800978,-1.11523999,-0.06604891\H,0,
 -4.91342991,2.89792805,-0.18387502\H,0,-4.15166782,2.7945492,1.4179473

 Normal termination of Gaussian 16 at Wed Apr  9 19:36:39 2025.
