 Gaussian 16, Revision C.01,

 ----------------------------------------------------------------------
 #t hf aug-cc-pvdz symm=none int=(grid=ultrafine) guess=(read,tcheck) s
 table=(opt,rrhf)
 ----------------------------------------------------------------------
 -----
 title
 -----
 Symbolic Z-matrix:
 Charge =  0 Multiplicity = 1

 SCF Done:  E(RHF) =  -914.489061816     A.U. after   12 cycles

 1\1\GINC-SE219\Stability\RHF\Aug-CC-pVDZ\C3H10S2\OHZDE\09-Apr-2025\0\\
 #t hf aug-cc-pvdz symm=none int=(grid=ultrafine) guess=(read,tcheck) s
 table=(opt,rrhf)\\title\\0,1\H,0,2.306559,-2.0578968,-0.64952301\H,0,3
 .32031438,-1.47471252,0.67641305\H,0,2.52307119,-0.31083024,-0.3888258
 5\H,0,0.07002633,-1.01993654,0.36023035\C,0,2.42249764,-1.27751778,0.0
 9684023\S,0,1.02865784,-1.2837739,1.27093846\H,0,0.81196215,1.35344786
 ,0.17183766\H,0,-0.1008466,2.63208894,-0.67148324\H,0,0.91401846,1.512
 45705,-1.59382105\H,0,-2.89374288,0.11164829,0.56407786\H,0,-2.3698089

 Normal termination of Gaussian 16 at Wed Apr  9 19:38:12 2025.
 Gaussian 16:  ES64L-G16RevC.01  3-Jul-2019

 ----------------------------------------------------------------------
 #t hf aug-cc-pvdz iop(5/13=1,5/36=2,99/5=2) pseudo=read geom=check gue
 ss=(read,tcheck) scf=(maxcycle=1)
 ----------------------------------------------------------------------
 -----
 title
 -----
 Structure from the checkpoint file:  "HB300SPXx10_1183_4.23_0.90_methanethiol_dimethylsulfide_dimer_mol1.chk"
 Charge =  0 Multiplicity = 1

                         Standard orientation:
 ---------------------------------------------------------------------
 Center     Atomic      Atomic             Coordinates (Angstroms)
 Number     Number       Type             X           Y           Z
 ---------------------------------------------------------------------
      1          1           0        2.622175    0.947903   -1.283381
      2          1           0        3.467623    0.818979    0.264038
      3          1           0        1.886790    1.607284    0.196993
      4          1           0        0.601022   -0.610221   -0.517723
      5          6           0        2.492201    0.804513   -0.214720
      6         16           0        1.757455   -0.824774    0.141521
      7          1           0       -0.209007    0.925969    1.271937
      8          1           0       -1.879062    1.538095    1.396655
      9          1           0       -0.733661    2.307623    0.287548
     10          1           0       -2.271243   -1.967673   -0.402036
     11          1           0       -2.802184   -0.998197    0.982060
     12          1           0       -1.115245   -1.559735    0.879889
     13          6           0       -1.042803    1.360674    0.723271
     14         16           0       -1.534685    0.275705   -0.640624
     15          6           0       -1.971319   -1.202674    0.309726
 ---------------------------------------------------------------------

 SCF Done:  E(RHF) =  -915.598590756     A.U. after    2 cycles

 The electronic state is 1-A.
 Alpha  occ. eigenvalues --  -75.67856 -75.67003 -13.11422 -13.11157 -13.10022
 Alpha  occ. eigenvalues --  -13.08274 -13.06286 -13.02292 -11.39791 -11.39542
 Alpha  occ. eigenvalues --  -11.39173  -8.01969  -8.00938  -1.23641  -1.17245
 Alpha  occ. eigenvalues --   -1.03381  -0.93405  -0.88557  -0.61757  -0.60519
 Alpha  occ. eigenvalues --   -0.58882  -0.58557  -0.58254  -0.56864  -0.48705
 Alpha  occ. eigenvalues --   -0.44804  -0.39180  -0.37156  -0.23133  -0.21692
 Alpha virt. eigenvalues --    0.02498   0.03305   0.04393   0.04946   0.06572
 Alpha virt. eigenvalues --    0.06913   0.07354   0.07703   0.08791   0.09679
 Alpha virt. eigenvalues --    0.10058   0.11866   0.12967   0.13409   0.14192

 Mulliken charges:
               1
     1  H    1.367959
     2  H    1.353879
     3  H    1.470213
     4  H    1.380153
     5  C   -4.780802
     6  S   -0.688635
     7  H    1.691588
     8  H    1.323287
     9  H    1.517276
    10  H    1.418986
    11  H    1.394565
    12  H    1.345380
    13  C   -4.671673
    14  S    0.464104
    15  C   -4.586280
 Sum of Mulliken charges =  -0.00000

 Dipole moment (field-independent basis, Debye):
    X=              0.3289    Y=              0.0248    Z=              0.0053  Tot=              0.3299

 Test job not archived.
 1\1\GINC-SE219\SP\RHF\Aug-CC-pVDZ\C3H10S2\OHZDE\09-Apr-2025\0\\#t hf a
 ug-cc-pvdz iop(5/13=1,5/36=2,99/5=2) pseudo=read geom=check guess=(rea
 d,tcheck) scf=(maxcycle=1)\\title\\0,1\H,0,2.306559,-2.0578968,-0.6495
 2301\H,0,3.32031438,-1.47471252,0.67641305\H,0,2.52307119,-0.31083024,
 -0.38882585\H,0,0.07002633,-1.01993654,0.36023035\C,0,2.42249764,-1.27
 751778,0.09684023\S,0,1.02865784,-1.2837739,1.27093846\H,0,0.81196215,
 1.35344786,0.17183766\H,0,-0.1008466,2.63208894,-0.67148324\H,0,0.9140
 1846,1.51245705,-1.59382105\H,0,-2.89374288,0.11164829,0.56407786\H,0,

 Normal termination of Gaussian 16 at Wed Apr  9 19:38:16 2025.
