 Gaussian 16, Revision C.01,

 ----------------------------------------------------------------------
 #t hf aug-cc-pvdz symm=none int=(grid=ultrafine) guess=(read,tcheck) s
 table=(opt,rrhf)
 ----------------------------------------------------------------------
 -----
 title
 -----
 Symbolic Z-matrix:
 Charge =  0 Multiplicity = 1

 SCF Done:  E(RHF) =  -1054.88852678     A.U. after   15 cycles
 Normal termination of Gaussian 16 at Wed Apr  9 19:47:18 2025.
 Gaussian 16:  ES64L-G16RevC.01  3-Jul-2019

 ----------------------------------------------------------------------
 #t hf aug-cc-pvdz iop(5/13=1,5/36=2,99/5=2) pseudo=read geom=check gue
 ss=(read,tcheck) scf=(maxcycle=1)
 ----------------------------------------------------------------------
 -----
 title
 -----
 Structure from the checkpoint file:  "HB300SPXx10_1483_5.11_0.90_thioacetone_phosphineF2_dimer_mol1.chk"
 Charge =  0 Multiplicity = 1

                         Standard orientation:
 ---------------------------------------------------------------------
 Center     Atomic      Atomic             Coordinates (Angstroms)
 Number     Number       Type             X           Y           Z
 ---------------------------------------------------------------------
      1          1           0        0.506018    1.638572   -0.135786
      2          1           0        1.739494    1.916056    1.111163
      3          1           0        2.152653    2.143743   -0.572468
      4          1           0        3.744836   -1.157800    0.229585
      5          1           0        4.049468    0.436269   -0.494046
      6          6           0        1.556118    1.528367    0.105318
      7          6           0        2.011815    0.104740    0.033621
      8         16           0        1.001381   -1.135596   -0.264746
      9          6           0        3.477031   -0.107365    0.261823
     10          1           0        3.766236    0.313763    1.228027
     11         15           0       -1.842447   -0.239729    0.283254
     12          9           0       -3.445871   -0.105204    0.285079
     13          9           0       -1.534256    1.050506   -0.618775
     14          1           0       -1.792744   -1.187295   -0.780659
 ---------------------------------------------------------------------

 SCF Done:  E(RHF) =  -1056.58292732     A.U. after    2 cycles

 The electronic state is 1-A.
 Alpha  occ. eigenvalues -- -105.27889 -75.67282 -29.27820 -29.26771 -13.16863
 Alpha  occ. eigenvalues --  -13.05949 -12.99099 -11.48884 -11.40999 -11.39379
 Alpha  occ. eigenvalues --   -8.01644  -2.86994  -1.61314  -1.58206  -1.51321
 Alpha  occ. eigenvalues --   -1.29484  -1.05879  -1.04483  -0.88917  -0.76270
 Alpha  occ. eigenvalues --   -0.62737  -0.62379  -0.61213  -0.56175  -0.55453
 Alpha  occ. eigenvalues --   -0.51170  -0.46142  -0.42760  -0.38991  -0.34963
 Alpha  occ. eigenvalues --   -0.33454  -0.33012  -0.28021  -0.24794  -0.22272
 Alpha  occ. eigenvalues --   -0.18278   0.00211
 Alpha virt. eigenvalues --    0.02931   0.05311   0.05526   0.06197   0.06842
 Alpha virt. eigenvalues --    0.06947   0.08407   0.08896   0.09751   0.10699
 Alpha virt. eigenvalues --    0.11852   0.12522   0.13692   0.13927   0.14723

 Mulliken charges:
               1
     1  H    1.232753
     2  H    0.848404
     3  H    1.100475
     4  H    1.326236
     5  H    1.150904
     6  C   -4.932034
     7  C    0.163032
     8  S    0.933909
     9  C   -3.605408
    10  H    1.088578
    11  P    2.084944
    12  F   -0.114338
    13  F   -0.278058
    14  H   -0.999396
 Sum of Mulliken charges =  -0.00000

 Dipole moment (field-independent basis, Debye):
    X=             -9.6365    Y=              1.4024    Z=             -2.8935  Tot=             10.1588

 Test job not archived.
 1\1\GINC-SE054\SP\RHF\Aug-CC-pVDZ\C3H7F2P1S1\OHZDE\09-Apr-2025\0\\#t h
 f aug-cc-pvdz iop(5/13=1,5/36=2,99/5=2) pseudo=read geom=check guess=(
 read,tcheck) scf=(maxcycle=1)\\title\\0,1\H,0,-0.82524406,-0.11851319,
 -2.18150719\H,0,-1.6981931,1.21808686,-2.95919937\H,0,-0.71897066,0.14
 764096,-3.93512177\H,0,1.41759528,3.22175764,-3.68330427\H,0,0.7352472
 6,2.04678605,-4.82844268\C,0,-0.77357806,0.63435768,-2.9583614\C,0,0.3
 925438,1.55581911,-2.78347778\S,0,1.39271927,1.4865874,-1.50157001\C,0
 ,0.57891903,2.56210758,-3.87735604\H,0,-0.33203334,3.15446018,-3.99493

 Normal termination of Gaussian 16 at Wed Apr  9 19:47:23 2025.
