 Gaussian 16, Revision C.01,

 ----------------------------------------------------------------------
 #t hf aug-cc-pvdz symm=none int=(grid=ultrafine) guess=(read,tcheck) s
 table=(opt,rrhf)
 ----------------------------------------------------------------------
 -----
 title
 -----
 Symbolic Z-matrix:
 Charge =  0 Multiplicity = 1

 SCF Done:  E(RHF) =  -1121.33944798     A.U. after   13 cycles
 Normal termination of Gaussian 16 at Wed Apr  9 19:37:37 2025.
 Gaussian 16:  ES64L-G16RevC.01  3-Jul-2019

 ----------------------------------------------------------------------
 #t hf aug-cc-pvdz iop(5/13=1,5/36=2,99/5=2) pseudo=read geom=check gue
 ss=(read,tcheck) scf=(maxcycle=1)
 ----------------------------------------------------------------------
 -----
 title
 -----
 Structure from the checkpoint file:  "HB300SPXx10_1093_4.13_0.90_Nmethylacetamide_dimethyldisulfide_dimer_mol1.chk"
 Charge =  0 Multiplicity = 1

                         Standard orientation:
 ---------------------------------------------------------------------
 Center     Atomic      Atomic             Coordinates (Angstroms)
 Number     Number       Type             X           Y           Z
 ---------------------------------------------------------------------
      1          6           0       -1.657202    1.679252   -0.759210
      2          1           0       -0.996330    1.507775   -1.608921
      3          1           0       -1.084547    2.143854    0.041176
      4          1           0       -2.449347    2.350162   -1.080089
      5          6           0       -2.271146    0.353270   -0.354770
      6          8           0       -3.186984   -0.148536   -0.984273
      7          7           0       -1.719528   -0.224706    0.744274
      8          1           0       -0.886902    0.190926    1.128155
      9          6           0       -2.078191   -1.559138    1.177614
     10          1           0       -3.084850   -1.773052    0.832314
     11          1           0       -1.401845   -2.311005    0.765388
     12          1           0       -2.048837   -1.617105    2.264025
     13          1           0        2.668134   -2.176731   -1.752072
     14          1           0        3.260723   -1.919812   -0.096500
     15          1           0        3.434188   -0.636386   -1.324289
     16          1           0        1.094138    2.320451   -0.468525
     17          1           0        2.830342    1.928498   -0.356795
     18          1           0        2.019262    2.753297    0.987117
     19          6           0        2.804864   -1.442927   -0.958930
     20         16           0        1.138862   -0.837854   -0.545210
     21         16           0        1.486016    0.445246    1.016487
     22          6           0        1.898406    2.016558    0.194106
 ---------------------------------------------------------------------

 SCF Done:  E(RHF) =  -1123.36625161     A.U. after    2 cycles

 The electronic state is 1-A.
 Alpha  occ. eigenvalues --  -75.71560 -75.71134 -21.00004 -15.73847 -13.18411
 Alpha  occ. eigenvalues --  -13.14555 -13.12539 -13.11105 -13.10186 -13.05974
 Alpha  occ. eigenvalues --  -11.48269 -11.41547 -11.40920 -11.38284 -11.37976
 Alpha  occ. eigenvalues --   -8.05599  -8.05175  -1.68394  -1.37553  -1.27908
 Alpha  occ. eigenvalues --   -1.14143  -1.09880  -0.99754  -0.97552  -0.88316
 Alpha  occ. eigenvalues --   -0.77579  -0.66829  -0.62139  -0.61624  -0.61559
 Alpha  occ. eigenvalues --   -0.60464  -0.59881  -0.59517  -0.57032  -0.53665
 Alpha  occ. eigenvalues --   -0.50836  -0.48760  -0.45709  -0.45310  -0.44175
 Alpha  occ. eigenvalues --   -0.35044  -0.29203  -0.27076  -0.26619  -0.25083
 Alpha virt. eigenvalues --    0.02156   0.02603   0.03767   0.04215   0.06108
 Alpha virt. eigenvalues --    0.06353   0.06907   0.07416   0.07736   0.08189
 Alpha virt. eigenvalues --    0.08292   0.08421   0.09022   0.10314   0.10887

 Mulliken charges:
               1
     1  C   -4.805821
     2  H    1.465001
     3  H    1.651397
     4  H    1.108790
     5  C    5.166863
     6  O   -3.468867
     7  N   -2.380433
     8  H    1.319873
     9  C   -3.588451
    10  H    1.422439
    11  H    1.468097
    12  H    1.373420
    13  H    1.390557
    14  H    1.492762
    15  H    1.451852
    16  H    1.783241
    17  H    1.514884
    18  H    1.433763
    19  C   -5.601057
    20  S    1.163418
    21  S   -0.571039
    22  C   -4.790691
 Sum of Mulliken charges =  -0.00000

 Dipole moment (field-independent basis, Debye):
    X=              2.5316    Y=             -0.3063    Z=              1.4854  Tot=              2.9511

 Test job not archived.
 1\1\GINC-SE097\SP\RHF\Aug-CC-pVDZ\C5H13N1O1S2\OHZDE\09-Apr-2025\0\\#t
 hf aug-cc-pvdz iop(5/13=1,5/36=2,99/5=2) pseudo=read geom=check guess=
 (read,tcheck) scf=(maxcycle=1)\\title\\0,1\C,0,-1.31055971,-0.36190707
 ,2.17525478\H,0,-0.76310857,0.57466921,2.28149083\H,0,-0.59510431,-1.1
 7658722,2.08130356\H,0,-1.91110445,-0.50300543,3.06969011\C,0,-2.23351
 851,-0.24400233,0.97818704\O,0,-3.28055753,0.37845097,1.03390772\N,0,-
 1.80028089,-0.8717422,-0.1463058\H,0,-0.86873727,-1.25332097,-0.144399
 63\C,0,-2.47826303,-0.73306099,-1.41840567\H,0,-3.52176476,-0.50262299

 Normal termination of Gaussian 16 at Wed Apr  9 19:37:49 2025.
