 Gaussian 16, Revision C.01,

 ----------------------------------------------------------------------
 #t hf aug-cc-pvdz symm=none int=(grid=ultrafine) guess=(read,tcheck) s
 table=(opt,rrhf)
 ----------------------------------------------------------------------
 -----
 title
 -----
 Symbolic Z-matrix:
 Charge =  0 Multiplicity = 1

 SCF Done:  E(RHF) =  -591.457006671     A.U. after   14 cycles
 Normal termination of Gaussian 16 at Wed Apr  9 19:35:08 2025.
 Gaussian 16:  ES64L-G16RevC.01  3-Jul-2019

 ----------------------------------------------------------------------
 #t hf aug-cc-pvdz iop(5/13=1,5/36=2,99/5=2) pseudo=read geom=check gue
 ss=(read,tcheck) scf=(maxcycle=1)
 ----------------------------------------------------------------------
 -----
 title
 -----
 Structure from the checkpoint file:  "HB300SPXx10_1013_4.05_0.90_ethyne_thioacetone_dimer_mol1.chk"
 Charge =  0 Multiplicity = 1

                         Standard orientation:
 ---------------------------------------------------------------------
 Center     Atomic      Atomic             Coordinates (Angstroms)
 Number     Number       Type             X           Y           Z
 ---------------------------------------------------------------------
      1          6           0        0.221433   -2.772801    0.000000
      2          1           0       -0.450154   -1.943488    0.000000
      3          6           0        0.991666   -3.688682    0.000000
      4          1           0        1.669124   -4.505441    0.000000
      5          1           0       -1.070487    3.136922    0.000000
      6          1           0        0.476998    3.155922    0.874719
      7          1           0        0.476998    3.155922   -0.874719
      8          1           0        1.371157   -0.398846    0.000000
      9          1           0        1.929921    1.041497   -0.874314
     10          6           0       -0.050885    2.767393    0.000000
     11          6           0        0.000000    1.269607    0.000000
     12         16           0       -1.348860    0.359552    0.000000
     13          6           0        1.379168    0.685014    0.000000
     14          1           0        1.929921    1.041497    0.874314
 ---------------------------------------------------------------------

 SCF Done:  E(RHF) =  -592.650810544     A.U. after    2 cycles

 The electronic state is 1-A'.
 Alpha  occ. eigenvalues --  -75.66641 -13.16174 -13.06973 -12.98275 -11.48353
 Alpha  occ. eigenvalues --  -11.40779 -11.40029 -11.39663 -11.39113  -8.00946
 Alpha  occ. eigenvalues --   -1.28981  -1.08571  -1.05106  -1.04000  -0.77753
 Alpha  occ. eigenvalues --   -0.75519  -0.64820  -0.61976  -0.61537  -0.60466
 Alpha  occ. eigenvalues --   -0.55762  -0.50987  -0.42266  -0.37840  -0.37708
 Alpha  occ. eigenvalues --   -0.32739  -0.22702
 Alpha virt. eigenvalues --    0.02482   0.04155   0.05353   0.05760   0.06398
 Alpha virt. eigenvalues --    0.06635   0.07259   0.08113   0.08408   0.09346
 Alpha virt. eigenvalues --    0.10408   0.12576   0.12583   0.13790   0.14140

 Mulliken charges:
               1
     1  C   -0.361836
     2  H    1.031725
     3  C   -1.028398
     4  H    0.593397
     5  H    1.454115
     6  H    1.204078
     7  H    1.204078
     8  H    1.650579
     9  H    1.147111
    10  C   -4.521272
    11  C    0.538219
    12  S    0.643031
    13  C   -4.701937
    14  H    1.147111
 Sum of Mulliken charges =  -0.00000

 Dipole moment (field-independent basis, Debye):
    X=             -0.0232    Y=              0.6674    Z=             -0.0000  Tot=              0.6678

 Test job not archived.
 1\1\GINC-SE162\SP\RHF\Aug-CC-pVDZ\C5H8S1\OHZDE\09-Apr-2025\0\\#t hf au
 g-cc-pvdz iop(5/13=1,5/36=2,99/5=2) pseudo=read geom=check guess=(read
 ,tcheck) scf=(maxcycle=1)\\title\\0,1\C,0,-0.20751211,-2.93011645,0.\H
 ,0,-0.70775465,-1.98748922,0.\C,0,0.37296237,-3.97660953,0.\H,0,0.8813
 7254,-4.90804053,0.\H,0,-0.34315673,3.11765044,0.\H,0,1.17929636,2.839
 7913,0.87471889\H,0,1.17929636,2.8397913,-0.87471889\H,0,1.37577424,-0
 .8204399,0.\H,0,2.20016325,0.48615374,-0.87431367\C,0,0.58674956,2.559
 60608,0.\C,0,0.34970744,1.07982166,0.\S,0,-1.14853329,0.44507754,0.\C,

 Normal termination of Gaussian 16 at Wed Apr  9 19:35:12 2025.
