 Gaussian 16, Revision C.01,

 ----------------------------------------------------------------------
 #t hf aug-cc-pvdz symm=none int=(grid=ultrafine) guess=(read,tcheck) s
 table=(opt,rrhf)
 ----------------------------------------------------------------------
 -----
 title
 -----
 Symbolic Z-matrix:
 Charge =  0 Multiplicity = 1

 SCF Done:  E(RHF) =  -914.496422859     A.U. after   12 cycles

 1\1\GINC-SE117\Stability\RHF\Aug-CC-pVDZ\C3H10S2\OHZDE\09-Apr-2025\0\\
 #t hf aug-cc-pvdz symm=none int=(grid=ultrafine) guess=(read,tcheck) s
 table=(opt,rrhf)\\title\\0,1\H,0,2.306559,-2.0578968,-0.64952301\H,0,3
 .32031438,-1.47471252,0.67641305\H,0,2.52307119,-0.31083024,-0.3888258
 5\H,0,0.07002633,-1.01993654,0.36023035\C,0,2.42249764,-1.27751778,0.0
 9684023\S,0,1.02865784,-1.2837739,1.27093846\H,0,0.35011654,1.92712418
 ,-0.34623105\H,0,-0.56269221,3.20576527,-1.18955194\H,0,0.45217285,2.0
 8613338,-2.11188976\H,0,-3.35558849,0.68532461,0.04600916\H,0,-2.83165

 Normal termination of Gaussian 16 at Wed Apr  9 19:38:11 2025.
 Gaussian 16:  ES64L-G16RevC.01  3-Jul-2019

 ----------------------------------------------------------------------
 #t hf aug-cc-pvdz iop(5/13=1,5/36=2,99/5=2) pseudo=read geom=check gue
 ss=(read,tcheck) scf=(maxcycle=1)
 ----------------------------------------------------------------------
 -----
 title
 -----
 Structure from the checkpoint file:  "HB300SPXx10_1188_4.23_1.25_methanethiol_dimethylsulfide_dimer_mol1.chk"
 Charge =  0 Multiplicity = 1

                         Standard orientation:
 ---------------------------------------------------------------------
 Center     Atomic      Atomic             Coordinates (Angstroms)
 Number     Number       Type             X           Y           Z
 ---------------------------------------------------------------------
      1          1           0        2.974203    1.102176   -1.284393
      2          1           0        3.844359    1.067716    0.254292
      3          1           0        2.183452    1.670965    0.204994
      4          1           0        1.151422   -0.677314   -0.503417
      5          6           0        2.872162    0.943078   -0.214923
      6         16           0        2.331338   -0.759899    0.143848
      7          1           0       -0.675033    1.001320    1.259807
      8          1           0       -2.402586    1.419044    1.402633
      9          1           0       -1.363477    2.315922    0.284556
     10          1           0       -2.411102   -2.105478   -0.402131
     11          1           0       -3.035028   -1.205163    0.989863
     12          1           0       -1.296234   -1.570744    0.869562
     13          6           0       -1.558381    1.339178    0.720582
     14         16           0       -1.937220    0.207597   -0.641519
     15          6           0       -2.193091   -1.312525    0.308838
 ---------------------------------------------------------------------

 SCF Done:  E(RHF) =  -915.599362663     A.U. after    2 cycles

 The electronic state is 1-A.
 Alpha  occ. eigenvalues --  -75.68136 -75.67317 -13.11317 -13.09383 -13.07053
 Alpha  occ. eigenvalues --  -13.06734 -13.03109 -13.00802 -11.39485 -11.39314
 Alpha  occ. eigenvalues --  -11.39139  -8.01992  -8.01412  -1.22710  -1.18009
 Alpha  occ. eigenvalues --   -1.03040  -0.93714  -0.88068  -0.60431  -0.60175
 Alpha  occ. eigenvalues --   -0.59683  -0.58555  -0.58000  -0.56843  -0.48707
 Alpha  occ. eigenvalues --   -0.44465  -0.39104  -0.36825  -0.23357  -0.22095
 Alpha virt. eigenvalues --    0.02400   0.03169   0.04204   0.05026   0.06131
 Alpha virt. eigenvalues --    0.06703   0.07223   0.07527   0.08740   0.09528
 Alpha virt. eigenvalues --    0.09942   0.11861   0.12606   0.12927   0.13478

 Mulliken charges:
               1
     1  H    1.411746
     2  H    1.349002
     3  H    1.444435
     4  H    1.021590
     5  C   -4.758048
     6  S   -0.484228
     7  H    1.467639
     8  H    1.391369
     9  H    1.447483
    10  H    1.405101
    11  H    1.388586
    12  H    1.397679
    13  C   -4.733923
    14  S    0.979871
    15  C   -4.728302
 Sum of Mulliken charges =  -0.00000

 Dipole moment (field-independent basis, Debye):
    X=              0.5605    Y=              0.1066    Z=              0.1322  Tot=              0.5857

 Test job not archived.
 1\1\GINC-SE117\SP\RHF\Aug-CC-pVDZ\C3H10S2\OHZDE\09-Apr-2025\0\\#t hf a
 ug-cc-pvdz iop(5/13=1,5/36=2,99/5=2) pseudo=read geom=check guess=(rea
 d,tcheck) scf=(maxcycle=1)\\title\\0,1\H,0,2.306559,-2.0578968,-0.6495
 2301\H,0,3.32031438,-1.47471252,0.67641305\H,0,2.52307119,-0.31083024,
 -0.38882585\H,0,0.07002633,-1.01993654,0.36023035\C,0,2.42249764,-1.27
 751778,0.09684023\S,0,1.02865784,-1.2837739,1.27093846\H,0,0.35011654,
 1.92712418,-0.34623105\H,0,-0.56269221,3.20576527,-1.18955194\H,0,0.45
 217285,2.08613338,-2.11188976\H,0,-3.35558849,0.68532461,0.04600916\H,

 Normal termination of Gaussian 16 at Wed Apr  9 19:38:16 2025.
