 Gaussian 16, Revision C.01,

 ----------------------------------------------------------------------
 #t hf aug-cc-pvdz symm=none int=(grid=ultrafine) guess=(read,tcheck) s
 table=(opt,rrhf)
 ----------------------------------------------------------------------
 -----
 title
 -----
 Symbolic Z-matrix:
 Charge =  0 Multiplicity = 1

 SCF Done:  E(RHF) =  -742.482616792     A.U. after   14 cycles
 Normal termination of Gaussian 16 at Wed Apr  9 19:37:37 2025.
 Gaussian 16:  ES64L-G16RevC.01  3-Jul-2019

 ----------------------------------------------------------------------
 #t hf aug-cc-pvdz iop(5/13=1,5/36=2,99/5=2) pseudo=read geom=check gue
 ss=(read,tcheck) scf=(maxcycle=1)
 ----------------------------------------------------------------------
 -----
 title
 -----
 Structure from the checkpoint file:  "HB300SPXx10_1139_4.17_1.50_aceticacid_thioacetone_dimer_mol1.chk"
 Charge =  0 Multiplicity = 1

                         Standard orientation:
 ---------------------------------------------------------------------
 Center     Atomic      Atomic             Coordinates (Angstroms)
 Number     Number       Type             X           Y           Z
 ---------------------------------------------------------------------
      1          6           0        2.716617   -1.523272    0.000000
      2          8           0        2.804723   -0.318267    0.000000
      3          8           0        1.549829   -2.179302    0.000000
      4          1           0        0.803250   -1.537931    0.000000
      5          6           0        3.888471   -2.466303    0.000000
      6          1           0        4.814628   -1.902482    0.000000
      7          1           0        3.842514   -3.110637    0.876954
      8          1           0        3.842514   -3.110637   -0.876954
      9          1           0       -4.293931    1.912185    0.000000
     10          1           0       -3.345962    3.136296    0.874412
     11          1           0       -3.345962    3.136296   -0.874412
     12          1           0       -0.000000    1.629738    0.000000
     13          1           0       -0.792303    2.961809   -0.872921
     14          6           0       -3.370634    2.481273    0.000000
     15          6           0       -2.162555    1.596061    0.000000
     16         16           0       -2.306948   -0.028434    0.000000
     17          6           0       -0.848180    2.305417    0.000000
     18          1           0       -0.792303    2.961809    0.872921
 ---------------------------------------------------------------------

 SCF Done:  E(RHF) =  -744.279316462     A.U. after    2 cycles

 The electronic state is 1-A'.
 Alpha  occ. eigenvalues --  -75.66476 -21.11437 -21.04500 -13.15699 -13.02149
 Alpha  occ. eigenvalues --  -12.97467 -11.51607 -11.48019 -11.40479 -11.39161
 Alpha  occ. eigenvalues --  -11.38773  -8.00688  -1.82067  -1.64467  -1.28691
 Alpha  occ. eigenvalues --   -1.10812  -1.04591  -1.03795  -0.79823  -0.75438
 Alpha  occ. eigenvalues --   -0.63298  -0.61749  -0.61597  -0.61188  -0.60248
 Alpha  occ. eigenvalues --   -0.60039  -0.55486  -0.53962  -0.50801  -0.49512
 Alpha  occ. eigenvalues --   -0.44630  -0.41867  -0.33239  -0.32221  -0.29221
 Alpha  occ. eigenvalues --   -0.22223
 Alpha virt. eigenvalues --    0.02522   0.04031   0.05414   0.05719   0.06514
 Alpha virt. eigenvalues --    0.06645   0.06796   0.07128   0.07485   0.08239
 Alpha virt. eigenvalues --    0.08755   0.09130   0.11320   0.12731   0.13023

 Mulliken charges:
               1
     1  C    5.391161
     2  O   -2.992407
     3  O   -3.113946
     4  H    1.154577
     5  C   -4.239818
     6  H    1.267004
     7  H    1.241855
     8  H    1.241855
     9  H    1.476113
    10  H    1.187082
    11  H    1.187082
    12  H    1.794559
    13  H    1.157718
    14  C   -4.300749
    15  C    0.010967
    16  S    1.078664
    17  C   -4.699433
    18  H    1.157718
 Sum of Mulliken charges =  -0.00000

 Dipole moment (field-independent basis, Debye):
    X=             -0.7111    Y=             -0.8708    Z=              0.0000  Tot=              1.1242

 Test job not archived.
 1\1\GINC-SE159\SP\RHF\Aug-CC-pVDZ\C5H10O2S1\OHZDE\09-Apr-2025\0\\#t hf
  aug-cc-pvdz iop(5/13=1,5/36=2,99/5=2) pseudo=read geom=check guess=(r
 ead,tcheck) scf=(maxcycle=1)\\title\\0,1\C,0,0.15920132,2.45664609,0.\
 O,0,1.21885316,1.87618237,0.\O,0,-1.02533188,1.83322707,0.\H,0,-0.8922
 641,0.85801947,0.\C,0,0.00380934,3.95277518,0.\H,0,0.98023034,4.424223
 4,0.\H,0,-0.56217465,4.2641268,-0.87695442\H,0,-0.56217465,4.2641268,0
 .87695442\H,0,-0.76362275,-5.29567931,0.\H,0,0.77906737,-5.16452249,-0
 .87441231\H,0,0.77906737,-5.16452249,0.87441231\H,0,1.33126862,-1.5368

 Normal termination of Gaussian 16 at Wed Apr  9 19:37:42 2025.
