 Gaussian 16, Revision C.01,

 ----------------------------------------------------------------------
 #t hf aug-cc-pvdz symm=none int=(grid=ultrafine) guess=(read,tcheck) s
 table=(opt,rrhf)
 ----------------------------------------------------------------------
 -----
 title
 -----
 Symbolic Z-matrix:
 Charge =  0 Multiplicity = 1

 SCF Done:  E(RHF) =  -1091.85156264     A.U. after   14 cycles
 Normal termination of Gaussian 16 at Wed Apr  9 19:42:18 2025.
 Gaussian 16:  ES64L-G16RevC.01  3-Jul-2019

 ----------------------------------------------------------------------
 #t hf aug-cc-pvdz iop(5/13=1,5/36=2,99/5=2) pseudo=read geom=check gue
 ss=(read,tcheck) scf=(maxcycle=1)
 ----------------------------------------------------------------------
 -----
 title
 -----
 Structure from the checkpoint file:  "HB300SPXx10_1404_5.03_0.95_dimethylsulfoxide_phosphineF2_dimer_mol1.chk"
 Charge =  0 Multiplicity = 1

                         Standard orientation:
 ---------------------------------------------------------------------
 Center     Atomic      Atomic             Coordinates (Angstroms)
 Number     Number       Type             X           Y           Z
 ---------------------------------------------------------------------
      1          1           0        2.013983    1.676014   -1.461941
      2          1           0        2.824615    1.764865    0.120377
      3          1           0        1.030730    1.819990    0.020461
      4          1           0        1.541529   -1.590564    1.682941
      5          1           0        0.822253    0.039507    1.785540
      6          6           0        1.941637    1.413299   -0.409995
      7         16           0        1.883959   -0.395310   -0.328884
      8          8           0        0.586350   -0.813785   -0.945858
      9          6           0        1.687040   -0.535731    1.466612
     10          1           0        2.596135   -0.180518    1.947964
     11         15           0       -1.753837   -0.371772   -0.097452
     12          9           0       -3.290486    0.096110    0.072034
     13          9           0       -1.094780    0.970588    0.518614
     14          1           0       -1.660484    0.016841   -1.460088
 ---------------------------------------------------------------------

 SCF Done:  E(RHF) =  -1093.70060127     A.U. after    2 cycles

 The electronic state is 1-A.
 Alpha  occ. eigenvalues -- -105.26695 -75.79505 -29.26878 -29.25361 -21.01458
 Alpha  occ. eigenvalues --  -13.34802 -13.22692 -13.18408 -11.41784 -11.41132
 Alpha  occ. eigenvalues --   -8.13946  -2.85628  -1.71528  -1.58942  -1.56578
 Alpha  occ. eigenvalues --   -1.50387  -1.21676  -1.06556  -0.90644  -0.86755
 Alpha  occ. eigenvalues --   -0.64995  -0.63323  -0.61777  -0.60463  -0.54410
 Alpha  occ. eigenvalues --   -0.51173  -0.49973  -0.44545  -0.40751  -0.38180
 Alpha  occ. eigenvalues --   -0.35663  -0.33839  -0.31855  -0.28928  -0.24126
 Alpha  occ. eigenvalues --   -0.22959  -0.17886   0.02090
 Alpha virt. eigenvalues --    0.03033   0.04081   0.05445   0.06419   0.07073
 Alpha virt. eigenvalues --    0.07734   0.08157   0.08737   0.10795   0.12049
 Alpha virt. eigenvalues --    0.12476   0.13085   0.14144   0.15396   0.15731

 Mulliken charges:
               1
     1  H    1.470809
     2  H    1.052015
     3  H    1.364984
     4  H    0.232025
     5  H    1.278368
     6  C   -4.161402
     7  S    3.174436
     8  O   -2.130477
     9  C   -3.681613
    10  H    0.768157
    11  P    2.489744
    12  F   -0.114630
    13  F   -0.629864
    14  H   -1.112552
 Sum of Mulliken charges =  -0.00000

 Dipole moment (field-independent basis, Debye):
    X=             -8.7970    Y=              4.5973    Z=             -6.2921  Tot=             11.7522

 Test job not archived.
 1\1\GINC-SE045\SP\RHF\Aug-CC-pVDZ\C2H7F2O1P1S1\OHZDE\09-Apr-2025\0\\#t
  hf aug-cc-pvdz iop(5/13=1,5/36=2,99/5=2) pseudo=read geom=check guess
 =(read,tcheck) scf=(maxcycle=1)\\title\\0,1\H,0,1.67395499,0.82417178,
 -3.38423362\H,0,0.49124302,-0.02078366,-4.41184902\H,0,0.89589517,-0.6
 6534236,-2.78340018\H,0,-2.718683,0.46280377,-2.2188292\H,0,-1.5421980
 9,-0.87905323,-2.20106353\C,0,0.76564588,0.22768029,-3.38836814\S,0,-0
 .5351395,1.25679703,-2.66046249\O,0,-0.17783951,1.44910918,-1.22000404
 \C,0,-1.85989706,0.022286,-2.71790313\H,0,-2.10168806,-0.18449539,-3.7

 Normal termination of Gaussian 16 at Wed Apr  9 19:42:23 2025.
