 Gaussian 16, Revision C.01,

 ----------------------------------------------------------------------
 #t hf aug-cc-pvdz symm=none int=(grid=ultrafine) guess=(read,tcheck) s
 table=(opt,rrhf)
 ----------------------------------------------------------------------
 -----
 title
 -----
 Symbolic Z-matrix:
 Charge =  0 Multiplicity = 1

 SCF Done:  E(RHF) =  -1054.88452934     A.U. after   15 cycles
 Normal termination of Gaussian 16 at Wed Apr  9 19:47:17 2025.
 Gaussian 16:  ES64L-G16RevC.01  3-Jul-2019

 ----------------------------------------------------------------------
 #t hf aug-cc-pvdz iop(5/13=1,5/36=2,99/5=2) pseudo=read geom=check gue
 ss=(read,tcheck) scf=(maxcycle=1)
 ----------------------------------------------------------------------
 -----
 title
 -----
 Structure from the checkpoint file:  "HB300SPXx10_1482_5.11_0.85_thioacetone_phosphineF2_dimer_mol1.chk"
 Charge =  0 Multiplicity = 1

                         Standard orientation:
 ---------------------------------------------------------------------
 Center     Atomic      Atomic             Coordinates (Angstroms)
 Number     Number       Type             X           Y           Z
 ---------------------------------------------------------------------
      1          1           0        0.443749    1.626244   -0.149557
      2          1           0        1.668271    1.915120    1.103616
      3          1           0        2.089355    2.141531   -0.578223
      4          1           0        3.699340   -1.147168    0.240881
      5          1           0        3.997231    0.447177   -0.484947
      6          6           0        1.493197    1.523760    0.097713
      7          6           0        1.958931    0.103091    0.032079
      8         16           0        0.958627   -1.144799   -0.268906
      9          6           0        3.424243   -0.098501    0.269029
     10          1           0        3.705139    0.326921    1.235804
     11         15           0       -1.781280   -0.233443    0.288293
     12          9           0       -3.385564   -0.109809    0.280781
     13          9           0       -1.476766    1.056667   -0.615162
     14          1           0       -1.719161   -1.183223   -0.772989
 ---------------------------------------------------------------------

 SCF Done:  E(RHF) =  -1056.58049017     A.U. after    2 cycles

 The electronic state is 1-A.
 Alpha  occ. eigenvalues -- -105.27755 -75.67330 -29.27771 -29.26531 -13.16953
 Alpha  occ. eigenvalues --  -13.06491 -12.99275 -11.48973 -11.40991 -11.39365
 Alpha  occ. eigenvalues --   -8.01734  -2.86844  -1.61273  -1.58123  -1.51221
 Alpha  occ. eigenvalues --   -1.29575  -1.06077  -1.04541  -0.88974  -0.76340
 Alpha  occ. eigenvalues --   -0.63248  -0.62409  -0.61321  -0.56210  -0.55501
 Alpha  occ. eigenvalues --   -0.51122  -0.46216  -0.42782  -0.38704  -0.34957
 Alpha  occ. eigenvalues --   -0.33554  -0.32922  -0.28053  -0.24833  -0.22082
 Alpha  occ. eigenvalues --   -0.18247   0.00128
 Alpha virt. eigenvalues --    0.02961   0.05302   0.05540   0.06191   0.06836
 Alpha virt. eigenvalues --    0.06930   0.08375   0.08862   0.09797   0.10725
 Alpha virt. eigenvalues --    0.11798   0.12529   0.13690   0.13926   0.14705

 Mulliken charges:
               1
     1  H    1.280703
     2  H    0.823491
     3  H    1.089651
     4  H    1.327336
     5  H    1.158725
     6  C   -5.023918
     7  C    0.217282
     8  S    0.907749
     9  C   -3.627179
    10  H    1.089695
    11  P    2.108887
    12  F   -0.117712
    13  F   -0.235026
    14  H   -0.999684
 Sum of Mulliken charges =   0.00000

 Dipole moment (field-independent basis, Debye):
    X=             -9.6018    Y=              1.3682    Z=             -2.8107  Tot=             10.0978

 Test job not archived.
 1\1\GINC-SE016\SP\RHF\Aug-CC-pVDZ\C3H7F2P1S1\OHZDE\09-Apr-2025\0\\#t h
 f aug-cc-pvdz iop(5/13=1,5/36=2,99/5=2) pseudo=read geom=check guess=(
 read,tcheck) scf=(maxcycle=1)\\title\\0,1\H,0,-0.82524406,-0.11851319,
 -2.18150719\H,0,-1.6981931,1.21808686,-2.95919937\H,0,-0.71897066,0.14
 764096,-3.93512177\H,0,1.41759528,3.22175764,-3.68330427\H,0,0.7352472
 6,2.04678605,-4.82844268\C,0,-0.77357806,0.63435768,-2.9583614\C,0,0.3
 925438,1.55581911,-2.78347778\S,0,1.39271927,1.4865874,-1.50157001\C,0
 ,0.57891903,2.56210758,-3.87735604\H,0,-0.33203334,3.15446018,-3.99493

 Normal termination of Gaussian 16 at Wed Apr  9 19:47:22 2025.
