 Gaussian 16, Revision C.01,

 ----------------------------------------------------------------------
 #t hf aug-cc-pvdz symm=none int=(grid=ultrafine) guess=(read,tcheck) s
 table=(opt,rrhf)
 ----------------------------------------------------------------------
 -----
 title
 -----
 Symbolic Z-matrix:
 Charge =  0 Multiplicity = 1

 SCF Done:  E(RHF) =  -1091.83676170     A.U. after   14 cycles
 Normal termination of Gaussian 16 at Wed Apr  9 19:42:21 2025.
 Gaussian 16:  ES64L-G16RevC.01  3-Jul-2019

 ----------------------------------------------------------------------
 #t hf aug-cc-pvdz iop(5/13=1,5/36=2,99/5=2) pseudo=read geom=check gue
 ss=(read,tcheck) scf=(maxcycle=1)
 ----------------------------------------------------------------------
 -----
 title
 -----
 Structure from the checkpoint file:  "HB300SPXx10_1401_5.03_0.80_dimethylsulfoxide_phosphineF2_dimer_mol1.chk"
 Charge =  0 Multiplicity = 1

                         Standard orientation:
 ---------------------------------------------------------------------
 Center     Atomic      Atomic             Coordinates (Angstroms)
 Number     Number       Type             X           Y           Z
 ---------------------------------------------------------------------
      1          1           0        1.763465    1.680216   -1.479225
      2          1           0        2.615092    1.799606    0.079374
      3          1           0        0.818267    1.790421    0.030572
      4          1           0        1.497891   -1.597997    1.677802
      5          1           0        0.723950    0.005402    1.800854
      6          6           0        1.730528    1.416142   -0.425647
      7         16           0        1.739943   -0.393289   -0.342945
      8          8           0        0.441113   -0.858539   -0.922729
      9          6           0        1.599344   -0.538853    1.457428
     10          1           0        2.508472   -0.150860    1.912705
     11         15           0       -1.560087   -0.353713   -0.096212
     12          9           0       -3.107052    0.059069    0.116960
     13          9           0       -0.932230    1.011985    0.500853
     14          1           0       -1.519511    0.036616   -1.460950
 ---------------------------------------------------------------------

 SCF Done:  E(RHF) =  -1093.68815188     A.U. after    2 cycles

 The electronic state is 1-A.
 Alpha  occ. eigenvalues -- -105.25319 -75.80216 -29.26519 -29.23576 -21.02676
 Alpha  occ. eigenvalues --  -13.35800 -13.23524 -13.19616 -11.42191 -11.41373
 Alpha  occ. eigenvalues --   -8.14721  -2.84488  -1.74595  -1.57864  -1.55335
 Alpha  occ. eigenvalues --   -1.49575  -1.22609  -1.07152  -0.92417  -0.85617
 Alpha  occ. eigenvalues --   -0.66977  -0.63859  -0.62358  -0.61609  -0.53983
 Alpha  occ. eigenvalues --   -0.51938  -0.50580  -0.43786  -0.42155  -0.37516
 Alpha  occ. eigenvalues --   -0.36844  -0.33694  -0.30814  -0.29367  -0.23857
 Alpha  occ. eigenvalues --   -0.22346  -0.17243   0.02459
 Alpha virt. eigenvalues --    0.03284   0.04096   0.05329   0.06402   0.07003
 Alpha virt. eigenvalues --    0.07742   0.08109   0.08719   0.10695   0.11714
 Alpha virt. eigenvalues --    0.12734   0.13024   0.14130   0.15379   0.15658

 Mulliken charges:
               1
     1  H    1.299774
     2  H   -0.052921
     3  H    1.567223
     4  H    0.240437
     5  H    1.480662
     6  C   -3.292660
     7  S    2.951845
     8  O   -2.320970
     9  C   -2.771547
    10  H   -0.934648
    11  P    3.677109
    12  F   -0.126413
    13  F   -0.567715
    14  H   -1.150176
 Sum of Mulliken charges =   0.00000

 Dipole moment (field-independent basis, Debye):
    X=            -30.5174    Y=             -5.2305    Z=            -12.3997  Tot=             33.3530

 Test job not archived.
 1\1\GINC-SE018\SP\RHF\Aug-CC-pVDZ\C2H7F2O1P1S1\OHZDE\09-Apr-2025\0\\#t
  hf aug-cc-pvdz iop(5/13=1,5/36=2,99/5=2) pseudo=read geom=check guess
 =(read,tcheck) scf=(maxcycle=1)\\title\\0,1\H,0,1.67395499,0.82417178,
 -3.38423362\H,0,0.49124302,-0.02078366,-4.41184902\H,0,0.89589517,-0.6
 6534236,-2.78340018\H,0,-2.718683,0.46280377,-2.2188292\H,0,-1.5421980
 9,-0.87905323,-2.20106353\C,0,0.76564588,0.22768029,-3.38836814\S,0,-0
 .5351395,1.25679703,-2.66046249\O,0,-0.17783951,1.44910918,-1.22000404
 \C,0,-1.85989706,0.022286,-2.71790313\H,0,-2.10168806,-0.18449539,-3.7

 Normal termination of Gaussian 16 at Wed Apr  9 19:42:27 2025.
