 Gaussian 16, Revision C.01,

 ----------------------------------------------------------------------
 #t hf aug-cc-pvdz symm=none int=(grid=ultrafine) guess=(read,tcheck) s
 table=(opt,rrhf)
 ----------------------------------------------------------------------
 -----
 title
 -----
 Symbolic Z-matrix:
 Charge =  0 Multiplicity = 1

 SCF Done:  E(RHF) =  -897.825039147     A.U. after   11 cycles
 Normal termination of Gaussian 16 at Wed Apr  9 04:10:22 2025.
 Gaussian 16:  ES64L-G16RevC.01  3-Jul-2019

 ----------------------------------------------------------------------
 #t hf aug-cc-pvdz iop(5/13=1,5/36=2,99/5=2) pseudo=read geom=check gue
 ss=(read,tcheck) scf=(maxcycle=1)
 ----------------------------------------------------------------------
 -----
 title
 -----
 Structure from the checkpoint file:  "HB300SPXx10_1335_4.38_1.00_hydrogenchloride_methanethiol_dimer_mol1.chk"
 Charge =  0 Multiplicity = 1

                         Standard orientation:
 ---------------------------------------------------------------------
 Center     Atomic      Atomic             Coordinates (Angstroms)
 Number     Number       Type             X           Y           Z
 ---------------------------------------------------------------------
      1          1           0       -0.896916   -0.394667   -0.090823
      2         17           0       -2.123981    0.052642    0.004414
      3          1           0        0.719432    1.582895    0.556411
      4          1           0        1.545108    1.494970   -1.005040
      5          1           0        2.494623    1.388757    0.484688
      6          1           0        1.370129   -0.930416    1.232029
      7          6           0        1.548338    1.132512    0.019101
      8         16           0        1.349080   -0.676970   -0.085432
 ---------------------------------------------------------------------

 SCF Done:  E(RHF) =  -898.529282883     A.U. after    2 cycles

 The electronic state is 1-A.
 Alpha  occ. eigenvalues --  -99.88385 -75.70707 -13.15230 -13.11342 -13.09326
 Alpha  occ. eigenvalues --  -11.41240 -10.45501  -9.65604  -9.64780  -9.64724
 Alpha  occ. eigenvalues --   -8.04635  -1.28139  -1.20339  -0.96056  -0.67710
 Alpha  occ. eigenvalues --   -0.61696  -0.60381  -0.51206  -0.50668  -0.50577
 Alpha  occ. eigenvalues --   -0.41192  -0.27152
 Alpha virt. eigenvalues --    0.02071   0.03895   0.05037   0.06108   0.07738
 Alpha virt. eigenvalues --    0.10069   0.10813   0.10857   0.13543   0.14365
 Alpha virt. eigenvalues --    0.14732   0.15515   0.17236   0.18114   0.18498

 Mulliken charges:
               1
     1  H    0.885541
     2  Cl  -0.701955
     3  H    1.234551
     4  H    1.384732
     5  H    1.349923
     6  H    1.154359
     7  C   -4.254412
     8  S   -1.052739
 Sum of Mulliken charges =   0.00000

 Dipole moment (field-independent basis, Debye):
    X=              2.7680    Y=             -0.0895    Z=             -0.8558  Tot=              2.8987

 Test job not archived.
 1\1\GINC-SE402\SP\RHF\Aug-CC-pVDZ\C1H5Cl1S1\OHZDE\09-Apr-2025\0\\#t hf
  aug-cc-pvdz iop(5/13=1,5/36=2,99/5=2) pseudo=read geom=check guess=(r
 ead,tcheck) scf=(maxcycle=1)\\title\\0,1\H,0,-0.71323053,0.36081391,-0
 .38963987\Cl,0,-0.97574618,1.50432633,-0.9712843\H,0,1.72752532,0.5129
 9405,0.59107351\H,0,2.2526307,-0.89283618,-0.34461191\H,0,2.48488025,-
 0.88348739,1.40984595\H,0,-0.14875845,-0.8644661,1.92477559\C,0,1.8317
 7352,-0.56757529,0.60266668\S,0,0.20306945,-1.37660315,0.73552573\\Ver
 sion=ES64L-G16RevC.01\State=1-A\HF=-898.5292829\RMSD=7.922e-02\Dipole=

 Normal termination of Gaussian 16 at Wed Apr  9 04:10:24 2025.
