 Gaussian 16, Revision C.01,

 ----------------------------------------------------------------------
 #t hf aug-cc-pvdz symm=none int=(grid=ultrafine) guess=(read,tcheck) s
 table=(opt,rrhf)
 ----------------------------------------------------------------------
 -----
 title
 -----
 Symbolic Z-matrix:
 Charge =  0 Multiplicity = 1

 SCF Done:  E(RHF) =  -800.726905127     A.U. after   13 cycles
 Normal termination of Gaussian 16 at Wed Apr  9 19:39:07 2025.
 Gaussian 16:  ES64L-G16RevC.01  3-Jul-2019

 ----------------------------------------------------------------------
 #t hf aug-cc-pvdz iop(5/13=1,5/36=2,99/5=2) pseudo=read geom=check gue
 ss=(read,tcheck) scf=(maxcycle=1)
 ----------------------------------------------------------------------
 -----
 title
 -----
 Structure from the checkpoint file:  "HB300SPXx10_1106_4.14_1.05_Nmethylacetamide_tetrahydrothiophene_dimer_mol1.chk"
 Charge =  0 Multiplicity = 1

                         Standard orientation:
 ---------------------------------------------------------------------
 Center     Atomic      Atomic             Coordinates (Angstroms)
 Number     Number       Type             X           Y           Z
 ---------------------------------------------------------------------
      1          6           0       -2.360973   -1.706954   -0.151554
      2          1           0       -2.262267   -2.196631    0.815936
      3          1           0       -1.505045   -1.956187   -0.775376
      4          1           0       -3.266012   -2.090756   -0.618505
      5          6           0       -2.528728   -0.217009    0.070772
      6          8           0       -3.453373    0.233661    0.727256
      7          7           0       -1.591603    0.567308   -0.519835
      8          1           0       -0.792873    0.127905   -0.955742
      9          6           0       -1.600483    2.007378   -0.376284
     10          1           0       -2.626925    2.344844   -0.265892
     11          1           0       -1.042167    2.337891    0.503665
     12          1           0       -1.163464    2.465301   -1.261242
     13          1           0        1.478938    1.659631   -0.837212
     14          1           0        3.131081    1.183574   -1.236545
     15          1           0        2.575295    1.888132    1.299391
     16          1           0        2.329707   -1.969969    0.898245
     17          1           0        3.588726    0.477692    1.010345
     18          1           0        0.572347   -1.841789    0.772329
     19          1           0        1.809662   -0.266748    2.547424
     20          1           0        0.576704    0.447031    1.513161
     21         16           0        1.675358   -0.745505   -1.083804
     22          6           0        2.265738    0.938623   -0.627178
     23          6           0        2.588557    0.888362    0.865665
     24          6           0        1.555796   -0.032163    1.513829
     25          6           0        1.506555   -1.298617    0.663362
 ---------------------------------------------------------------------

 SCF Done:  E(RHF) =  -802.910709570     A.U. after    2 cycles

 The electronic state is 1-A.
 Alpha  occ. eigenvalues --  -75.67853 -21.00602 -15.74897 -13.12667 -13.11151
 Alpha  occ. eigenvalues --  -13.09994 -11.48832 -11.45084 -11.43939 -11.40280
 Alpha  occ. eigenvalues --  -11.39418 -11.38347 -11.37475  -8.01916  -1.69021
 Alpha  occ. eigenvalues --   -1.38160  -1.33668  -1.10490  -1.08449  -1.08336
 Alpha  occ. eigenvalues --   -0.98446  -0.85803  -0.84223  -0.78236  -0.67582
 Alpha  occ. eigenvalues --   -0.67318  -0.66513  -0.62517  -0.62000  -0.61036
 Alpha  occ. eigenvalues --   -0.57722  -0.55313  -0.54579  -0.51549  -0.49987
 Alpha  occ. eigenvalues --   -0.48064  -0.46646  -0.46375  -0.45481  -0.43240
 Alpha  occ. eigenvalues --   -0.36066  -0.29913  -0.27391  -0.23665
 Alpha virt. eigenvalues --    0.03220   0.03875   0.04494   0.05056   0.05106
 Alpha virt. eigenvalues --    0.05533   0.06038   0.06199   0.06847   0.07050
 Alpha virt. eigenvalues --    0.08162   0.08543   0.09152   0.09534   0.10576

 Mulliken charges:
               1
     1  C   -4.799944
     2  H    1.333029
     3  H    1.621701
     4  H    1.108091
     5  C    5.412249
     6  O   -3.471471
     7  N   -2.747996
     8  H    1.137292
     9  C   -3.843170
    10  H    1.385815
    11  H    1.612701
    12  H    1.480311
    13  H    1.884797
    14  H    1.350238
    15  H    1.322073
    16  H    1.333541
    17  H    1.505684
    18  H    1.876779
    19  H    1.279183
    20  H    2.071946
    21  S    0.583465
    22  C   -3.613379
    23  C   -3.095869
    24  C   -3.107053
    25  C   -3.620014
 Sum of Mulliken charges =  -0.00000

 Dipole moment (field-independent basis, Debye):
    X=              3.1462    Y=             -0.1061    Z=             -1.0154  Tot=              3.3076

 Test job not archived.
 1\1\GINC-SE113\SP\RHF\Aug-CC-pVDZ\C7H15N1O1S1\OHZDE\09-Apr-2025\0\\#t
 hf aug-cc-pvdz iop(5/13=1,5/36=2,99/5=2) pseudo=read geom=check guess=
 (read,tcheck) scf=(maxcycle=1)\\title\\0,1\C,0,-2.35790997,-0.53076315
 ,1.51380969\H,0,-2.45888814,0.43106478,2.01406411\H,0,-1.4356415,-1.01
 232631,1.83224394\H,0,-3.20368729,-1.14467685,1.81747472\C,0,-2.435185
 38,-0.3119418,0.01592702\O,0,-3.41358688,0.19433185,-0.50891479\N,0,-1
 .3525984,-0.72916607,-0.68842032\H,0,-0.53292762,-1.03795931,-0.184588
 74\C,0,-1.26500492,-0.56327277,-2.12344447\H,0,-2.26409386,-0.61429593

 Normal termination of Gaussian 16 at Wed Apr  9 19:39:24 2025.
