 Gaussian 16, Revision C.01,

 ----------------------------------------------------------------------
 #t hf aug-cc-pvdz symm=none int=(grid=ultrafine) guess=(read,tcheck) s
 table=(opt,rrhf)
 ----------------------------------------------------------------------
 -----
 title
 -----
 Symbolic Z-matrix:
 Charge =  0 Multiplicity = 1

 SCF Done:  E(RHF) =  -1312.03183370     A.U. after   13 cycles

 1\1\GINC-SE229\Stability\RHF\Aug-CC-pVDZ\C3H10S3\OHZDE\09-Apr-2025\0\\
 #t hf aug-cc-pvdz symm=none int=(grid=ultrafine) guess=(read,tcheck) s
 table=(opt,rrhf)\\title\\0,1\H,0,1.01554051,-2.06430295,-0.26345232\H,
 0,1.41221348,-3.50790796,0.68330627\H,0,2.28776701,-1.9997821,0.978385
 09\H,0,0.09227498,-0.7095981,1.83267489\C,0,1.324424,-2.42503809,0.712
 77693\S,0,0.06941485,-2.04508424,1.97921636\H,0,-2.84762912,0.62085978
 ,0.53013795\H,0,-1.79704067,-0.70633527,-0.00577927\H,0,-2.42352274,0.
 48607273,-1.18640434\H,0,0.39281878,2.83914267,-2.44189341\H,0,-0.6219

 Normal termination of Gaussian 16 at Wed Apr  9 19:38:23 2025.
 Gaussian 16:  ES64L-G16RevC.01  3-Jul-2019

 ----------------------------------------------------------------------
 #t hf aug-cc-pvdz iop(5/13=1,5/36=2,99/5=2) pseudo=read geom=check gue
 ss=(read,tcheck) scf=(maxcycle=1)
 ----------------------------------------------------------------------
 -----
 title
 -----
 Structure from the checkpoint file:  "HB300SPXx10_1175_4.22_1.00_methanethiol_dimethyldisulfide_dimer_mol1.chk"
 Charge =  0 Multiplicity = 1

                         Standard orientation:
 ---------------------------------------------------------------------
 Center     Atomic      Atomic             Coordinates (Angstroms)
 Number     Number       Type             X           Y           Z
 ---------------------------------------------------------------------
      1          1           0        1.497559   -1.540823    0.830414
      2          1           0        3.238436   -1.860739    0.898962
      3          1           0        2.371559   -2.059109   -0.629856
      4          1           0        1.751909    0.549072   -0.797173
      5          6           0        2.432102   -1.472661    0.282193
      6         16           0        2.853148    0.263184   -0.082288
      7          1           0       -0.366887    2.849779    0.728346
      8          1           0        0.382907    1.348750    1.308958
      9          1           0       -1.341216    1.691667    1.652473
     10          1           0       -3.675707   -0.613640   -0.416507
     11          1           0       -3.148293   -0.384830    1.272295
     12          1           0       -3.241367   -2.016682    0.584575
     13          6           0       -0.534059    1.792838    0.932618
     14         16           0       -0.990704    1.040799   -0.660900
     15         16           0       -1.284674   -0.931900   -0.190034
     16          6           0       -3.016912   -0.972971    0.368366
 ---------------------------------------------------------------------

 SCF Done:  E(RHF) =  -1313.35673176     A.U. after    2 cycles

 The electronic state is 1-A.
 Alpha  occ. eigenvalues --  -75.70351 -75.70208 -75.67412 -13.14147 -13.11845
 Alpha  occ. eigenvalues --  -13.11003 -13.09961 -13.08690 -13.08018 -13.06359
 Alpha  occ. eigenvalues --  -13.04573 -13.02221 -11.40313 -11.39846 -11.38752
 Alpha  occ. eigenvalues --   -8.04345  -8.04289  -8.01298  -1.27014  -1.17466
 Alpha  occ. eigenvalues --   -1.12920  -0.98492  -0.93101  -0.87063  -0.60647
 Alpha  occ. eigenvalues --   -0.59977  -0.59811  -0.58972  -0.58760  -0.57819
 Alpha  occ. eigenvalues --   -0.48406  -0.47454  -0.43431  -0.38580  -0.34097
 Alpha  occ. eigenvalues --   -0.25421  -0.23939  -0.22930
 Alpha virt. eigenvalues --    0.02446   0.02742   0.03433   0.04449   0.06192
 Alpha virt. eigenvalues --    0.06853   0.07169   0.08051   0.08289   0.09028
 Alpha virt. eigenvalues --    0.09506   0.10945   0.11937   0.12489   0.12988

 Mulliken charges:
               1
     1  H    1.495343
     2  H    1.371780
     3  H    1.389934
     4  H    1.161593
     5  C   -4.705432
     6  S   -0.691888
     7  H    1.400234
     8  H    1.539896
     9  H    1.568783
    10  H    1.499952
    11  H    1.510847
    12  H    1.380168
    13  C   -4.465483
    14  S   -0.069836
    15  S    0.584221
    16  C   -4.970113
 Sum of Mulliken charges =  -0.00000

 Dipole moment (field-independent basis, Debye):
    X=              0.5183    Y=             -0.4224    Z=              0.0078  Tot=              0.6686

 Test job not archived.
 1\1\GINC-SE229\SP\RHF\Aug-CC-pVDZ\C3H10S3\OHZDE\09-Apr-2025\0\\#t hf a
 ug-cc-pvdz iop(5/13=1,5/36=2,99/5=2) pseudo=read geom=check guess=(rea
 d,tcheck) scf=(maxcycle=1)\\title\\0,1\H,0,1.01554051,-2.06430295,-0.2
 6345232\H,0,1.41221348,-3.50790796,0.68330627\H,0,2.28776701,-1.999782
 1,0.97838509\H,0,0.09227498,-0.7095981,1.83267489\C,0,1.324424,-2.4250
 3809,0.71277693\S,0,0.06941485,-2.04508424,1.97921636\H,0,-2.84762912,
 0.62085978,0.53013795\H,0,-1.79704067,-0.70633527,-0.00577927\H,0,-2.4
 2352274,0.48607273,-1.18640434\H,0,0.39281878,2.83914267,-2.44189341\H

 Normal termination of Gaussian 16 at Wed Apr  9 19:38:29 2025.
