 Gaussian 16, Revision C.01,

 ----------------------------------------------------------------------
 #t hf aug-cc-pvdz symm=none int=(grid=ultrafine) guess=(read,tcheck) s
 table=(opt,rrhf)
 ----------------------------------------------------------------------
 -----
 title
 -----
 Symbolic Z-matrix:
 Charge =  0 Multiplicity = 1

 SCF Done:  E(RHF) =  -532.971546328     A.U. after   13 cycles
 Normal termination of Gaussian 16 at Wed Apr  9 19:34:55 2025.
 Gaussian 16:  ES64L-G16RevC.01  3-Jul-2019

 ----------------------------------------------------------------------
 #t hf aug-cc-pvdz iop(5/13=1,5/36=2,99/5=2) pseudo=read geom=check gue
 ss=(read,tcheck) scf=(maxcycle=1)
 ----------------------------------------------------------------------
 -----
 title
 -----
 Structure from the checkpoint file:  "HB300SPXx10_1045_4.08_1.00_ammonia_dimethylsulfide_dimer_mol1.chk"
 Charge =  0 Multiplicity = 1

                         Standard orientation:
 ---------------------------------------------------------------------
 Center     Atomic      Atomic             Coordinates (Angstroms)
 Number     Number       Type             X           Y           Z
 ---------------------------------------------------------------------
      1          7           0        2.958950   -0.256353    0.140444
      2          1           0        3.594743   -0.324293    0.924907
      3          1           0        2.103468   -0.735892    0.398441
      4          1           0        3.371541   -0.775221   -0.624408
      5          1           0       -0.241075    1.602670    1.058689
      6          1           0       -0.785163    2.039803   -0.580312
      7          1           0        0.900208    1.539586   -0.291443
      8          1           0       -2.530759   -1.472795    0.213498
      9          1           0       -2.858011    0.221525   -0.181427
     10          1           0       -2.186229   -0.212062    1.408989
     11          6           0       -0.135937    1.384457   -0.002783
     12         16           0       -0.509986   -0.355670   -0.335898
     13          6           0       -2.184331   -0.450811    0.346839
 ---------------------------------------------------------------------

 SCF Done:  E(RHF) =  -533.910602432     A.U. after    2 cycles

 The electronic state is 1-A.
 Alpha  occ. eigenvalues --  -75.66708 -15.73604 -13.09674 -13.06742 -13.00919
 Alpha  occ. eigenvalues --  -11.38888 -11.38112  -8.00832  -1.24296  -1.21902
 Alpha  occ. eigenvalues --   -1.02443  -0.87508  -0.61028  -0.60391  -0.59550
 Alpha  occ. eigenvalues --   -0.59099  -0.57163  -0.56227  -0.43813  -0.38123
 Alpha  occ. eigenvalues --   -0.36280  -0.21707
 Alpha virt. eigenvalues --    0.03228   0.04025   0.04540   0.05369   0.06838
 Alpha virt. eigenvalues --    0.07269   0.08032   0.08113   0.09191   0.11036
 Alpha virt. eigenvalues --    0.13197   0.13858   0.15329   0.15977   0.17461

 Mulliken charges:
               1
     1  N   -1.950766
     2  H    0.657604
     3  H    0.750467
     4  H    0.596762
     5  H    1.447989
     6  H    1.377764
     7  H    1.442532
     8  H    1.390375
     9  H    1.397394
    10  H    1.413865
    11  C   -4.739609
    12  S    1.021653
    13  C   -4.806030
 Sum of Mulliken charges =  -0.00000

 Dipole moment (field-independent basis, Debye):
    X=              0.2750    Y=             -1.1442    Z=              0.1464  Tot=              1.1858

 Test job not archived.
 1\1\GINC-SE340\SP\RHF\Aug-CC-pVDZ\C2H9N1S1\OHZDE\09-Apr-2025\0\\#t hf
 aug-cc-pvdz iop(5/13=1,5/36=2,99/5=2) pseudo=read geom=check guess=(re
 ad,tcheck) scf=(maxcycle=1)\\title\\0,1\N,0,-1.73355141,-2.37393966,0.
 81983189\H,0,-2.47172211,-2.47256241,1.50511242\H,0,-1.77953232,-1.428
 67287,0.45551723\H,0,-1.951459,-2.99867579,0.05388488\H,0,0.76885339,0
 .33009045,1.80242544\H,0,2.13592344,-0.17493803,0.77797203\H,0,0.79829
 756,-1.30127341,1.11894456\H,0,0.07504067,2.4536916,-1.42626355\H,0,1.
 65556218,2.14231001,-0.69225093\H,0,0.25075072,2.5160157,0.3351533\C,0

 Normal termination of Gaussian 16 at Wed Apr  9 19:34:57 2025.
