 Gaussian 16, Revision C.01,

 ----------------------------------------------------------------------
 #t hf aug-cc-pvdz symm=none int=(grid=ultrafine) guess=(read,tcheck) s
 table=(opt,rrhf)
 ----------------------------------------------------------------------
 -----
 title
 -----
 Symbolic Z-matrix:
 Charge =  0 Multiplicity = 1

 SCF Done:  E(RHF) =  -991.411436485     A.U. after   12 cycles

 1\1\GINC-SE056\Stability\RHF\Aug-CC-pVDZ\C5H12S2\OHZDE\09-Apr-2025\0\\
 #t hf aug-cc-pvdz symm=none int=(grid=ultrafine) guess=(read,tcheck) s
 table=(opt,rrhf)\\title\\0,1\H,0,2.75511322,-2.75302781,-0.03281769\H,
 0,2.23328443,-3.6609344,1.39160682\H,0,2.88304587,-2.02859561,1.588775
 53\H,0,0.87227038,-0.86572365,0.25189781\C,0,2.28978938,-2.67174858,0.
 94522466\S,0,0.57786237,-2.06107277,0.80693494\H,0,-0.67044039,-0.3947
 9112,-1.7123463\H,0,-0.76535363,1.07573054,-2.69170139\H,0,-2.90794694
 ,0.40977582,-1.23108222\H,0,-0.62146827,2.77857433,0.9017218\H,0,-2.36

 Normal termination of Gaussian 16 at Wed Apr  9 19:39:38 2025.
 Gaussian 16:  ES64L-G16RevC.01  3-Jul-2019

 ----------------------------------------------------------------------
 #t hf aug-cc-pvdz iop(5/13=1,5/36=2,99/5=2) pseudo=read geom=check gue
 ss=(read,tcheck) scf=(maxcycle=1)
 ----------------------------------------------------------------------
 -----
 title
 -----
 Structure from the checkpoint file:  "HB300SPXx10_1205_4.25_1.00_methanethiol_tetrahydrothiophene_dimer_mol1.chk"
 Charge =  0 Multiplicity = 1

                         Standard orientation:
 ---------------------------------------------------------------------
 Center     Atomic      Atomic             Coordinates (Angstroms)
 Number     Number       Type             X           Y           Z
 ---------------------------------------------------------------------
      1          1           0        3.644128    1.140977   -0.814620
      2          1           0        4.506985   -0.199256   -0.049872
      3          1           0        3.630433    0.960027    0.956764
      4          1           0        1.230799    0.280821   -0.024648
      5          6           0        3.624115    0.431744    0.007747
      6         16           0        2.180736   -0.674538   -0.116911
      7          1           0       -0.560955   -0.075107   -1.791827
      8          1           0       -2.064684    0.830704   -2.012926
      9          1           0       -2.253309   -1.761121   -1.369131
     10          1           0       -2.246921    0.355649    1.933488
     11          1           0       -3.271608   -0.613366   -0.501814
     12          1           0       -0.511634    0.039574    2.069149
     13          1           0       -2.119972   -1.949036    1.226894
     14          1           0       -0.573065   -1.695139    0.430600
     15         16           0       -1.025030    1.360223    0.103370
     16          6           0       -1.472383    0.262314   -1.301066
     17          6           0       -2.238241   -0.908267   -0.690298
     18          6           0       -1.544546   -1.241895    0.629483
     19          6           0       -1.352527    0.075157    1.381566
 ---------------------------------------------------------------------

 SCF Done:  E(RHF) =  -992.897382071     A.U. after    2 cycles

 The electronic state is 1-A.
 Alpha  occ. eigenvalues --  -75.67371 -75.66608 -13.12615 -13.10766 -13.09782
 Alpha  occ. eigenvalues --  -13.08203 -13.06923 -13.00273 -11.43672 -11.42704
 Alpha  occ. eigenvalues --  -11.39100 -11.38944 -11.36234  -8.01249  -8.00679
 Alpha  occ. eigenvalues --   -1.32761  -1.17398  -1.07212  -1.07058  -0.93269
 Alpha  occ. eigenvalues --   -0.84527  -0.83108  -0.66576  -0.65459  -0.60808
 Alpha  occ. eigenvalues --   -0.59298  -0.58036  -0.54423  -0.49161  -0.48659
 Alpha  occ. eigenvalues --   -0.46593  -0.45486  -0.42053  -0.38681  -0.34834
 Alpha  occ. eigenvalues --   -0.22973  -0.21598
 Alpha virt. eigenvalues --    0.02908   0.03592   0.04523   0.05391   0.05796
 Alpha virt. eigenvalues --    0.06093   0.06364   0.06427   0.07467   0.07806
 Alpha virt. eigenvalues --    0.08610   0.09393   0.11028   0.12672   0.13106

 Mulliken charges:
               1
     1  H    1.375065
     2  H    1.329453
     3  H    1.412778
     4  H    1.779629
     5  C   -5.162203
     6  S   -0.493692
     7  H    1.407484
     8  H    1.388641
     9  H    1.292424
    10  H    1.402794
    11  H    1.412812
    12  H    1.423015
    13  H    1.309557
    14  H    1.646258
    15  S    0.433311
    16  C   -3.138610
    17  C   -2.772768
    18  C   -2.772934
    19  C   -3.273011
 Sum of Mulliken charges =   0.00000

 Dipole moment (field-independent basis, Debye):
    X=              0.1924    Y=             -0.5803    Z=             -0.0236  Tot=              0.6118

 Test job not archived.
 1\1\GINC-SE056\SP\RHF\Aug-CC-pVDZ\C5H12S2\OHZDE\09-Apr-2025\0\\#t hf a
 ug-cc-pvdz iop(5/13=1,5/36=2,99/5=2) pseudo=read geom=check guess=(rea
 d,tcheck) scf=(maxcycle=1)\\title\\0,1\H,0,2.75511322,-2.75302781,-0.0
 3281769\H,0,2.23328443,-3.6609344,1.39160682\H,0,2.88304587,-2.0285956
 1,1.58877553\H,0,0.87227038,-0.86572365,0.25189781\C,0,2.28978938,-2.6
 7174858,0.94522466\S,0,0.57786237,-2.06107277,0.80693494\H,0,-0.670440
 39,-0.39479112,-1.7123463\H,0,-0.76535363,1.07573054,-2.69170139\H,0,-
 2.90794694,0.40977582,-1.23108222\H,0,-0.62146827,2.77857433,0.9017218

 Normal termination of Gaussian 16 at Wed Apr  9 19:39:46 2025.
