 Gaussian 16, Revision C.01,

 ----------------------------------------------------------------------
 #t hf aug-cc-pvdz symm=none int=(grid=ultrafine) guess=(read,tcheck) s
 table=(opt,rrhf)
 ----------------------------------------------------------------------
 -----
 title
 -----
 Symbolic Z-matrix:
 Charge =  0 Multiplicity = 1

 SCF Done:  E(RHF) =  -1054.89281451     A.U. after   15 cycles
 Normal termination of Gaussian 16 at Wed Apr  9 19:47:17 2025.
 Gaussian 16:  ES64L-G16RevC.01  3-Jul-2019

 ----------------------------------------------------------------------
 #t hf aug-cc-pvdz iop(5/13=1,5/36=2,99/5=2) pseudo=read geom=check gue
 ss=(read,tcheck) scf=(maxcycle=1)
 ----------------------------------------------------------------------
 -----
 title
 -----
 Structure from the checkpoint file:  "HB300SPXx10_1485_5.11_1.00_thioacetone_phosphineF2_dimer_mol1.chk"
 Charge =  0 Multiplicity = 1

                         Standard orientation:
 ---------------------------------------------------------------------
 Center     Atomic      Atomic             Coordinates (Angstroms)
 Number     Number       Type             X           Y           Z
 ---------------------------------------------------------------------
      1          1           0        0.630055    1.661242   -0.110337
      2          1           0        1.880130    1.917503    1.124567
      3          1           0        2.278225    2.147552   -0.562369
      4          1           0        3.836879   -1.177413    0.208168
      5          1           0        4.153978    0.415932   -0.511691
      6          6           0        1.681177    1.536703    0.119051
      7          6           0        2.118010    0.107775    0.036258
      8         16           0        1.088828   -1.118348   -0.256723
      9          6           0        3.582763   -0.123837    0.247863
     10          1           0        3.887534    0.289242    1.212757
     11         15           0       -1.965500   -0.251366    0.274017
     12          9           0       -3.566981   -0.096620    0.293562
     13          9           0       -1.650589    1.038933   -0.625596
     14          1           0       -1.939117   -1.194673   -0.794504
 ---------------------------------------------------------------------

 SCF Done:  E(RHF) =  -1056.58457704     A.U. after    2 cycles

 The electronic state is 1-A.
 Alpha  occ. eigenvalues -- -105.28134 -75.67158 -29.27942 -29.27184 -13.16670
 Alpha  occ. eigenvalues --  -13.04890 -12.98753 -11.48713 -11.40973 -11.39337
 Alpha  occ. eigenvalues --   -8.01464  -2.87289  -1.61442  -1.58361  -1.51518
 Alpha  occ. eigenvalues --   -1.29323  -1.05558  -1.04382  -0.88941  -0.76125
 Alpha  occ. eigenvalues --   -0.62308  -0.62148  -0.61002  -0.56104  -0.55418
 Alpha  occ. eigenvalues --   -0.51195  -0.46036  -0.42673  -0.39361  -0.35024
 Alpha  occ. eigenvalues --   -0.33352  -0.33079  -0.27892  -0.24818  -0.22447
 Alpha  occ. eigenvalues --   -0.18362   0.00340
 Alpha virt. eigenvalues --    0.02875   0.05327   0.05502   0.06207   0.06849
 Alpha virt. eigenvalues --    0.06980   0.08442   0.08949   0.09663   0.10630
 Alpha virt. eigenvalues --    0.11893   0.12538   0.13693   0.13935   0.14763

 Mulliken charges:
               1
     1  H    1.183516
     2  H    0.901004
     3  H    1.118225
     4  H    1.330435
     5  H    1.138022
     6  C   -4.777232
     7  C    0.053710
     8  S    0.977082
     9  C   -3.614238
    10  H    1.090060
    11  P    2.061957
    12  F   -0.114808
    13  F   -0.326016
    14  H   -1.021716
 Sum of Mulliken charges =   0.00000

 Dipole moment (field-independent basis, Debye):
    X=             -9.5736    Y=              1.5283    Z=             -3.0518  Tot=             10.1638

 Test job not archived.
 1\1\GINC-SE100\SP\RHF\Aug-CC-pVDZ\C3H7F2P1S1\OHZDE\09-Apr-2025\0\\#t h
 f aug-cc-pvdz iop(5/13=1,5/36=2,99/5=2) pseudo=read geom=check guess=(
 read,tcheck) scf=(maxcycle=1)\\title\\0,1\H,0,-0.82524406,-0.11851319,
 -2.18150719\H,0,-1.6981931,1.21808686,-2.95919937\H,0,-0.71897066,0.14
 764096,-3.93512177\H,0,1.41759528,3.22175764,-3.68330427\H,0,0.7352472
 6,2.04678605,-4.82844268\C,0,-0.77357806,0.63435768,-2.9583614\C,0,0.3
 925438,1.55581911,-2.78347778\S,0,1.39271927,1.4865874,-1.50157001\C,0
 ,0.57891903,2.56210758,-3.87735604\H,0,-0.33203334,3.15446018,-3.99493

 Normal termination of Gaussian 16 at Wed Apr  9 19:47:22 2025.
