 Gaussian 16, Revision C.01,

 ----------------------------------------------------------------------
 #t hf aug-cc-pvdz symm=none int=(grid=ultrafine) guess=(read,tcheck) s
 table=(opt,rrhf)
 ----------------------------------------------------------------------
 -----
 title
 -----
 Symbolic Z-matrix:
 Charge =  0 Multiplicity = 1

 SCF Done:  E(RHF) =  -215.887713991     A.U. after   13 cycles
 Normal termination of Gaussian 16 at Wed Apr  9 19:42:47 2025.
 Gaussian 16:  ES64L-G16RevC.01  3-Jul-2019

 ----------------------------------------------------------------------
 #t hf aug-cc-pvdz iop(5/13=1,5/36=2,99/5=2) pseudo=read geom=check gue
 ss=(read,tcheck) scf=(maxcycle=1)
 ----------------------------------------------------------------------
 -----
 title
 -----
 Structure from the checkpoint file:  "HB300SPXx10_1414_5.04_0.95_ethyne_methylfluoride_dimer_mol1.chk"
 Charge =  0 Multiplicity = 1

                         Standard orientation:
 ---------------------------------------------------------------------
 Center     Atomic      Atomic             Coordinates (Angstroms)
 Number     Number       Type             X           Y           Z
 ---------------------------------------------------------------------
      1          6           0        1.053888    1.222019    0.000000
      2          1           0        0.000000    1.074260    0.000000
      3          6           0        2.240629    1.372389    0.000000
      4          1           0        3.292550    1.512511    0.000000
      5          1           0       -1.335050   -2.118779    0.893893
      6          1           0       -1.335050   -2.118779   -0.893893
      7          1           0        0.070132   -1.468985    0.000000
      8          6           0       -1.011313   -1.589764    0.000000
      9          9           0       -1.599089   -0.323121    0.000000
 ---------------------------------------------------------------------

 SCF Done:  E(RHF) =  -216.808680522     A.U. after    2 cycles

 The electronic state is 1-A'.
 Alpha  occ. eigenvalues --  -29.25990 -11.43732 -11.40642 -11.40422  -1.15087
 Alpha  occ. eigenvalues --   -1.09163  -0.78414  -0.67697  -0.65252  -0.63173
 Alpha  occ. eigenvalues --   -0.62320  -0.38691  -0.38398  -0.38023  -0.25831
 Alpha  occ. eigenvalues --   -0.25779
 Alpha virt. eigenvalues --    0.03484   0.04604   0.05824   0.06560   0.07402
 Alpha virt. eigenvalues --    0.11621   0.11725   0.12799   0.14255   0.14529
 Alpha virt. eigenvalues --    0.14733   0.15787   0.17561   0.17826   0.18923

 Mulliken charges:
               1
     1  C   -0.359165
     2  H    0.700700
     3  C   -0.950348
     4  H    0.562029
     5  H    1.348981
     6  H    1.348981
     7  H    1.209692
     8  C   -4.142414
     9  F    0.281544
 Sum of Mulliken charges =  -0.00000

 Dipole moment (field-independent basis, Debye):
    X=             -0.7099    Y=              0.2257    Z=             -0.0000  Tot=              0.7449

 Test job not archived.
 1\1\GINC-SE016\SP\RHF\Aug-CC-pVDZ\C3H5F1\OHZDE\09-Apr-2025\0\\#t hf au
 g-cc-pvdz iop(5/13=1,5/36=2,99/5=2) pseudo=read geom=check guess=(read
 ,tcheck) scf=(maxcycle=1)\\title\\0,1\C,0,0.31595013,-1.6374503,0.\H,0
 ,0.81540337,-0.69773821,0.\C,0,-0.25942719,-2.68621438,0.\H,0,-0.76390
 634,-3.61984886,0.\H,0,-0.98456394,2.25826816,0.8938929\H,0,-0.9845639
 4,2.25826816,-0.8938929\H,0,-1.28406066,0.73936422,0.\C,0,-0.746585,1.
 68553072,0.\F,0,0.62376995,1.41721698,0.\\Version=ES64L-G16RevC.01\Sta
 te=1-A'\HF=-216.8086805\RMSD=8.306e-01\Dipole=0.2359285,0.173874,0.\Qu

 Normal termination of Gaussian 16 at Wed Apr  9 19:42:49 2025.
