 Gaussian 16, Revision C.01,

 ----------------------------------------------------------------------
 #t hf aug-cc-pvdz symm=none int=(grid=ultrafine) guess=(read,tcheck) s
 table=(opt,rrhf)
 ----------------------------------------------------------------------
 -----
 title
 -----
 Symbolic Z-matrix:
 Charge =  0 Multiplicity = 1

 SCF Done:  E(RHF) =  -1037.70215304     A.U. after   14 cycles
 Normal termination of Gaussian 16 at Wed Apr  9 19:46:49 2025.
 Gaussian 16:  ES64L-G16RevC.01  3-Jul-2019

 ----------------------------------------------------------------------
 #t hf aug-cc-pvdz iop(5/13=1,5/36=2,99/5=2) pseudo=read geom=check gue
 ss=(read,tcheck) scf=(maxcycle=1)
 ----------------------------------------------------------------------
 -----
 title
 -----
 Structure from the checkpoint file:  "HB300SPXx10_1478_5.10_1.25_phosphaalkene_phosphineF2_dimer_mol1.chk"
 Charge =  0 Multiplicity = 1

                         Standard orientation:
 ---------------------------------------------------------------------
 Center     Atomic      Atomic             Coordinates (Angstroms)
 Number     Number       Type             X           Y           Z
 ---------------------------------------------------------------------
      1          1           0       -2.192983   -2.869705   -0.575710
      2          1           0       -1.118517   -2.215770    0.661866
      3          1           0       -2.868086   -1.953130    0.770675
      4          1           0       -1.508100    2.167604   -1.515734
      5          1           0       -0.625558    1.139520    1.984796
      6          1           0       -2.251379    2.797617   -0.040948
      7          1           0       -0.509062    2.585232   -0.116248
      8          1           0       -1.598674   -0.332194    2.005115
      9          1           0       -2.371074    1.255829    2.056963
     10         15           0       -1.859689   -0.498173   -0.959758
     11          6           0       -1.608624    0.759993    0.127397
     12          6           0       -1.460839    2.149694   -0.428390
     13          6           0       -1.548711    0.681286    1.621542
     14          6           0       -2.022951   -2.023247    0.087164
     15         15           0        2.116295    0.250722   -0.217867
     16          9           0        3.703063    0.022660   -0.265750
     17          9           0        1.765179   -0.881144    0.860630
     18          1           0        1.826902   -0.543237   -1.366595
 ---------------------------------------------------------------------

 SCF Done:  E(RHF) =  -1039.58091019     A.U. after    2 cycles

 The electronic state is 1-A.
 Alpha  occ. eigenvalues -- -105.29634-105.15187 -29.29281 -29.29045 -11.43483
 Alpha  occ. eigenvalues --  -11.39369 -11.37335 -11.36547  -2.88977  -2.73760
 Alpha  occ. eigenvalues --   -1.63464  -1.60070  -1.53268  -1.53073  -1.45250
 Alpha  occ. eigenvalues --   -1.33530  -1.19420  -1.02147  -1.00097  -0.90391
 Alpha  occ. eigenvalues --   -0.78165  -0.64919  -0.59800  -0.58912  -0.56775
 Alpha  occ. eigenvalues --   -0.55860  -0.55225  -0.54349  -0.53540  -0.48314
 Alpha  occ. eigenvalues --   -0.46858  -0.40765  -0.36283  -0.34755  -0.28717
 Alpha  occ. eigenvalues --   -0.25973  -0.19792  -0.19438  -0.14764  -0.03011
 Alpha  occ. eigenvalues --   -0.00613
 Alpha virt. eigenvalues --    0.04644   0.05365   0.05996   0.06414   0.06529
 Alpha virt. eigenvalues --    0.06878   0.07351   0.07630   0.08473   0.09029
 Alpha virt. eigenvalues --    0.10186   0.11166   0.11476   0.11974   0.12561

 Mulliken charges:
               1
     1  H    1.214631
     2  H    1.181997
     3  H    1.134976
     4  H    1.331999
     5  H    1.258458
     6  H    1.080468
     7  H    0.554186
     8  H    1.319761
     9  H    1.240661
    10  P    5.640117
    11  C    0.566996
    12  C   -5.834464
    13  C   -4.786824
    14  C   -5.821777
    15  P    1.823830
    16  F   -0.159391
    17  F   -0.555012
    18  H   -1.190610
 Sum of Mulliken charges =   0.00000

 Dipole moment (field-independent basis, Debye):
    X=              3.3623    Y=             -6.9999    Z=             -1.3390  Tot=              7.8801

 Test job not archived.
 1\1\GINC-SE048\SP\RHF\Aug-CC-pVDZ\C4H10F2P2\OHZDE\09-Apr-2025\0\\#t hf
  aug-cc-pvdz iop(5/13=1,5/36=2,99/5=2) pseudo=read geom=check guess=(r
 ead,tcheck) scf=(maxcycle=1)\\title\\0,1\H,0,-0.66372889,3.26375392,-1
 .41484082\H,0,0.57607353,2.07688321,-1.82463407\H,0,-0.55842324,2.6448
 712,-3.06242126\H,0,-2.87100416,-1.40911587,-1.55416728\H,0,0.42715494
 ,-1.23076192,-3.33739031\H,0,-2.60862974,-1.75549695,-3.26751243\H,0,-
 1.47646146,-2.36750684,-2.07165071\H,0,0.4157342,0.51539066,-3.5906339
 2\H,0,-0.67072928,-0.53226666,-4.50884988\P,0,-1.6570918,1.05342876,-1

 Normal termination of Gaussian 16 at Wed Apr  9 19:46:57 2025.
