 Gaussian 16, Revision C.01,

 ----------------------------------------------------------------------
 #t hf aug-cc-pvdz symm=none int=(grid=ultrafine) guess=(read,tcheck) s
 table=(opt,rrhf)
 ----------------------------------------------------------------------
 -----
 title
 -----
 Symbolic Z-matrix:
 Charge =  0 Multiplicity = 1

 SCF Done:  E(RHF) =  -974.719896110     A.U. after   13 cycles
 Normal termination of Gaussian 16 at Wed Apr  9 19:39:56 2025.
 Gaussian 16:  ES64L-G16RevC.01  3-Jul-2019

 ----------------------------------------------------------------------
 #t hf aug-cc-pvdz iop(5/13=1,5/36=2,99/5=2) pseudo=read geom=check gue
 ss=(read,tcheck) scf=(maxcycle=1)
 ----------------------------------------------------------------------
 -----
 title
 -----
 Structure from the checkpoint file:  "HB300SPXx10_1373_4.42_0.90_hydrogenchloride_thioacetone_dimer_mol1.chk"
 Charge =  0 Multiplicity = 1

                         Standard orientation:
 ---------------------------------------------------------------------
 Center     Atomic      Atomic             Coordinates (Angstroms)
 Number     Number       Type             X           Y           Z
 ---------------------------------------------------------------------
      1          1           0        1.540561   -0.046613    0.000000
      2         17           0        2.493739   -0.956741    0.000000
      3          1           0       -0.176042   -1.600047    0.000000
      4          1           0       -1.720749   -1.644569    0.874054
      5          1           0       -1.720749   -1.644569   -0.874054
      6          1           0       -2.704135    1.878459    0.000000
      7          1           0       -3.232976    0.423930   -0.874659
      8          6           0       -1.200044   -1.245351    0.000000
      9          6           0       -1.298688    0.247019    0.000000
     10         16           0        0.000000    1.231255    0.000000
     11          6           0       -2.692349    0.793999    0.000000
     12          1           0       -3.232976    0.423930    0.874659
 ---------------------------------------------------------------------

 SCF Done:  E(RHF) =  -975.801506698     A.U. after    2 cycles

 The electronic state is 1-A'.
 Alpha  occ. eigenvalues --  -99.86026 -75.68371 -13.18028 -13.09340 -13.00042
 Alpha  occ. eigenvalues --  -11.49948 -11.41780 -11.40189 -10.43231  -9.63378
 Alpha  occ. eigenvalues --   -9.62680  -9.62478  -8.02821  -1.30906  -1.25971
 Alpha  occ. eigenvalues --   -1.07019  -1.05266  -0.77690  -0.66898  -0.63156
 Alpha  occ. eigenvalues --   -0.62795  -0.61455  -0.56824  -0.52589  -0.48927
 Alpha  occ. eigenvalues --   -0.48704  -0.43638  -0.34218  -0.25415
 Alpha virt. eigenvalues --    0.01833   0.04924   0.05009   0.06032   0.06500
 Alpha virt. eigenvalues --    0.06936   0.07306   0.07326   0.09035   0.10892
 Alpha virt. eigenvalues --    0.12080   0.12699   0.14168   0.14973   0.15153

 Mulliken charges:
               1
     1  H    0.952176
     2  Cl  -0.899977
     3  H    1.429105
     4  H    1.151965
     5  H    1.151965
     6  H    1.457556
     7  H    1.183905
     8  C   -4.525121
     9  C    0.279563
    10  S    0.772333
    11  C   -4.137376
    12  H    1.183905
 Sum of Mulliken charges =  -0.00000

 Dipole moment (field-independent basis, Debye):
    X=             -3.2784    Y=              1.9675    Z=              0.0000  Tot=              3.8235

 Test job not archived.
 1\1\GINC-SE125\SP\RHF\Aug-CC-pVDZ\C3H7Cl1S1\OHZDE\09-Apr-2025\0\\#t hf
  aug-cc-pvdz iop(5/13=1,5/36=2,99/5=2) pseudo=read geom=check guess=(r
 ead,tcheck) scf=(maxcycle=1)\\title\\0,1\H,0,-0.37830043,1.49279945,0.
 \Cl,0,0.15229845,2.69917624,0.\H,0,1.66733836,0.40871212,0.\H,0,2.2358
 7222,-1.02825416,0.87405369\H,0,2.23587222,-1.02825416,-0.87405369\H,0
 ,-0.74075882,-3.15391694,0.\H,0,0.80692468,-3.15513675,-0.87465894\C,0
 ,1.68303732,-0.67486708,0.\C,0,0.31372577,-1.27643452,0.\S,0,-1.054331
 03,-0.39114799,0.\C,0,0.27470062,-2.77308266,0.\H,0,0.80692468,-3.1551

 Normal termination of Gaussian 16 at Wed Apr  9 19:40:01 2025.
