 Gaussian 16, Revision C.01,

 ----------------------------------------------------------------------
 #t hf aug-cc-pvdz symm=none int=(grid=ultrafine) guess=(read,tcheck) s
 table=(opt,rrhf)
 ----------------------------------------------------------------------
 -----
 title
 -----
 Symbolic Z-matrix:
 Charge =  0 Multiplicity = 1

 SCF Done:  E(RHF) =  -952.382031804     A.U. after   12 cycles

 1\1\GINC-SE229\Stability\RHF\Aug-CC-pVDZ\C4H10S2\OHZDE\09-Apr-2025\0\\
 #t hf aug-cc-pvdz symm=none int=(grid=ultrafine) guess=(read,tcheck) s
 table=(opt,rrhf)\\title\\0,1\H,0,1.25927999,1.11406487,-0.28265552\H,0
 ,2.28279017,2.73418341,-0.67577847\S,0,1.07110419,2.4516331,-0.1764195
 4\H,0,0.10665094,-0.63686405,1.80049952\H,0,0.01683218,-2.38007778,2.0
 8150822\H,0,-2.28615043,-1.0252988,1.89250059\H,0,-1.30356309,-2.34846
 988,-1.66299746\H,0,-2.13877091,-2.54352466,1.01019402\H,0,-0.59931541
 ,-0.76266774,-2.00652125\H,0,-2.91159688,-0.86927576,-0.63268293\H,0,-

 Normal termination of Gaussian 16 at Wed Apr  9 04:10:39 2025.
 Gaussian 16:  ES64L-G16RevC.01  3-Jul-2019

 ----------------------------------------------------------------------
 #t hf aug-cc-pvdz iop(5/13=1,5/36=2,99/5=2) pseudo=read geom=check gue
 ss=(read,tcheck) scf=(maxcycle=1)
 ----------------------------------------------------------------------
 -----
 title
 -----
 Structure from the checkpoint file:  "HB300SPXx10_1238_4.28_1.25_sulfane_tetrahydrothiophene_dimer_mol1.chk"
 Charge =  0 Multiplicity = 1

                         Standard orientation:
 ---------------------------------------------------------------------
 Center     Atomic      Atomic             Coordinates (Angstroms)
 Number     Number       Type             X           Y           Z
 ---------------------------------------------------------------------
      1          1           0       -2.044102   -0.571987   -0.017719
      2          1           0       -3.980618   -0.803734    0.134281
      3         16           0       -3.142514    0.217712   -0.092893
      4          1           0        0.241783    0.027815   -1.792207
      5          1           0        1.864687   -0.631130   -2.032626
      6          1           0        1.652684    1.955217   -1.368743
      7          1           0        2.029145   -0.162933    1.906855
      8          1           0        2.849402    0.974732   -0.525113
      9          1           0        0.269153   -0.122631    2.078741
     10          1           0        1.526659    2.100936    1.230288
     11          1           0        0.027888    1.611681    0.452178
     12         16           0        0.940775   -1.329526    0.088690
     13          6           0        1.198987   -0.166125   -1.310784
     14          6           0        1.780180    1.105477   -0.697937
     15          6           0        1.061643    1.316109    0.633849
     16          6           0        1.091049   -0.020284    1.375091
 ---------------------------------------------------------------------

 SCF Done:  E(RHF) =  -953.654256294     A.U. after    2 cycles

 The electronic state is 1-A.
 Alpha  occ. eigenvalues --  -75.69781 -75.66514 -13.15786 -13.10489 -13.09424
 Alpha  occ. eigenvalues --  -13.08568 -13.03861 -13.01320 -11.43434 -11.42567
 Alpha  occ. eigenvalues --  -11.39047 -11.36351  -8.03467  -8.00590  -1.32798
 Alpha  occ. eigenvalues --   -1.10763  -1.07233  -1.07191  -0.84594  -0.83293
 Alpha  occ. eigenvalues --   -0.66633  -0.65603  -0.60900  -0.54708  -0.54062
 Alpha  occ. eigenvalues --   -0.49048  -0.47220  -0.45707  -0.43031  -0.42149
 Alpha  occ. eigenvalues --   -0.34884  -0.25443  -0.21997
 Alpha virt. eigenvalues --    0.02787   0.03788   0.04844   0.05576   0.06019
 Alpha virt. eigenvalues --    0.06313   0.06405   0.07005   0.07484   0.08448
 Alpha virt. eigenvalues --    0.11044   0.12204   0.12941   0.13501   0.14456

 Mulliken charges:
               1
     1  H    1.067228
     2  H    0.964700
     3  S   -2.081403
     4  H    1.451350
     5  H    1.391055
     6  H    1.273886
     7  H    1.438059
     8  H    1.413702
     9  H    1.369223
    10  H    1.298059
    11  H    1.448521
    12  S    0.863452
    13  C   -3.204285
    14  C   -2.847607
    15  C   -2.583963
    16  C   -3.261978
 Sum of Mulliken charges =  -0.00000

 Dipole moment (field-independent basis, Debye):
    X=              0.3734    Y=              1.3563    Z=             -0.1910  Tot=              1.4196

 Test job not archived.
 1\1\GINC-SE229\SP\RHF\Aug-CC-pVDZ\C4H10S2\OHZDE\09-Apr-2025\0\\#t hf a
 ug-cc-pvdz iop(5/13=1,5/36=2,99/5=2) pseudo=read geom=check guess=(rea
 d,tcheck) scf=(maxcycle=1)\\title\\0,1\H,0,1.25927999,1.11406487,-0.28
 265552\H,0,2.28279017,2.73418341,-0.67577847\S,0,1.07110419,2.4516331,
 -0.17641954\H,0,0.10665094,-0.63686405,1.80049952\H,0,0.01683218,-2.38
 007778,2.08150822\H,0,-2.28615043,-1.0252988,1.89250059\H,0,-1.3035630
 9,-2.34846988,-1.66299746\H,0,-2.13877091,-2.54352466,1.01019402\H,0,-
 0.59931541,-0.76266774,-2.00652125\H,0,-2.91159688,-0.86927576,-0.6326

 Normal termination of Gaussian 16 at Wed Apr  9 04:10:45 2025.
