 Gaussian 16, Revision C.01,

 ----------------------------------------------------------------------
 #t hf aug-cc-pvdz symm=none int=(grid=ultrafine) guess=(read,tcheck) s
 table=(opt,rrhf)
 ----------------------------------------------------------------------
 -----
 title
 -----
 Symbolic Z-matrix:
 Charge =  0 Multiplicity = 1

 SCF Done:  E(RHF) =  -875.459363408     A.U. after   12 cycles
 Normal termination of Gaussian 16 at Wed Apr  9 19:38:50 2025.
 Gaussian 16:  ES64L-G16RevC.01  3-Jul-2019

 ----------------------------------------------------------------------
 #t hf aug-cc-pvdz iop(5/13=1,5/36=2,99/5=2) pseudo=read geom=check gue
 ss=(read,tcheck) scf=(maxcycle=1)
 ----------------------------------------------------------------------
 -----
 title
 -----
 Structure from the checkpoint file:  "HB300SPXx10_1195_4.24_1.00_methanethiol_methanethiol_dimer_mol1.chk"
 Charge =  0 Multiplicity = 1

                         Standard orientation:
 ---------------------------------------------------------------------
 Center     Atomic      Atomic             Coordinates (Angstroms)
 Number     Number       Type             X           Y           Z
 ---------------------------------------------------------------------
      1          1           0       -0.998606    0.918237    1.344825
      2          1           0       -2.760156    0.958142    1.222097
      3          1           0       -1.786109    1.839853    0.040023
      4          1           0       -0.705298   -0.353676   -0.994969
      5          6           0       -1.835406    0.943563    0.651473
      6         16           0       -1.885633   -0.554999   -0.382533
      7          1           0        2.259936   -0.468782    1.745249
      8          1           0        2.214052   -1.719350    0.497883
      9          1           0        0.696807   -1.017074    1.067868
     10          1           0        1.353556    1.447517    0.139333
     11          6           0        1.741211   -0.807842    0.853772
     12         16           0        1.903819    0.403799   -0.498329
 ---------------------------------------------------------------------

 SCF Done:  E(RHF) =  -876.353590908     A.U. after    2 cycles

 The electronic state is 1-A.
 Alpha  occ. eigenvalues --  -75.69115 -75.67922 -13.12660 -13.11551 -13.07956
 Alpha  occ. eigenvalues --  -13.07431 -13.05719 -13.02277 -11.40080 -11.39776
 Alpha  occ. eigenvalues --   -8.02998  -8.01819  -1.19447  -1.17758  -0.94590
 Alpha  occ. eigenvalues --   -0.93940  -0.60925  -0.60103  -0.59392  -0.58431
 Alpha  occ. eigenvalues --   -0.49903  -0.48845  -0.39869  -0.39266  -0.24349
 Alpha  occ. eigenvalues --   -0.23433
 Alpha virt. eigenvalues --    0.02236   0.03072   0.04324   0.04849   0.06891
 Alpha virt. eigenvalues --    0.07112   0.07602   0.09121   0.10567   0.11195
 Alpha virt. eigenvalues --    0.12388   0.13140   0.14932   0.15119   0.15397

 Mulliken charges:
               1
     1  H    1.542769
     2  H    1.362999
     3  H    1.303948
     4  H    1.071323
     5  C   -4.672448
     6  S   -0.574151
     7  H    1.331152
     8  H    1.371949
     9  H    1.562932
    10  H    1.019686
    11  C   -4.589175
    12  S   -0.730984
 Sum of Mulliken charges =  -0.00000

 Dipole moment (field-independent basis, Debye):
    X=             -0.1687    Y=             -0.8388    Z=             -0.0298  Tot=              0.8561

 Test job not archived.
 1\1\GINC-SE014\SP\RHF\Aug-CC-pVDZ\C2H8S2\OHZDE\09-Apr-2025\0\\#t hf au
 g-cc-pvdz iop(5/13=1,5/36=2,99/5=2) pseudo=read geom=check guess=(read
 ,tcheck) scf=(maxcycle=1)\\title\\0,1\H,0,1.48841111,-0.83932977,-0.94
 699875\H,0,2.60301323,-1.84400864,-0.01533608\H,0,2.55978836,-0.100175
 65,0.26866848\H,0,0.07877426,-0.11956038,1.21477831\C,0,1.95766928,-0.
 9705586,0.02469451\S,0,0.71991769,-1.29709475,1.32035013\H,0,-1.574672
 08,0.17827181,-2.45837711\H,0,-2.64457133,0.11060946,-1.05385339\H,0,-
 1.09691261,-0.73892914,-0.99778441\H,0,0.31167708,1.57207986,-1.204710

 Normal termination of Gaussian 16 at Wed Apr  9 19:38:54 2025.
