 Gaussian 16, Revision C.01,

 ----------------------------------------------------------------------
 #t hf aug-cc-pvdz symm=none int=(grid=ultrafine) guess=(read,tcheck) s
 table=(opt,rrhf)
 ----------------------------------------------------------------------
 -----
 title
 -----
 Symbolic Z-matrix:
 Charge =  0 Multiplicity = 1

 SCF Done:  E(RHF) =  -1037.69025433     A.U. after   15 cycles
 Normal termination of Gaussian 16 at Wed Apr  9 19:46:58 2025.
 Gaussian 16:  ES64L-G16RevC.01  3-Jul-2019

 ----------------------------------------------------------------------
 #t hf aug-cc-pvdz iop(5/13=1,5/36=2,99/5=2) pseudo=read geom=check gue
 ss=(read,tcheck) scf=(maxcycle=1)
 ----------------------------------------------------------------------
 -----
 title
 -----
 Structure from the checkpoint file:  "HB300SPXx10_1472_5.10_0.85_phosphaalkene_phosphineF2_dimer_mol1.chk"
 Charge =  0 Multiplicity = 1

                         Standard orientation:
 ---------------------------------------------------------------------
 Center     Atomic      Atomic             Coordinates (Angstroms)
 Number     Number       Type             X           Y           Z
 ---------------------------------------------------------------------
      1          1           0        1.262115    2.978884   -0.602269
      2          1           0        0.360816    2.144616    0.664759
      3          1           0        2.130910    2.213067    0.727146
      4          1           0        1.503534   -2.104031   -1.514893
      5          1           0        0.536147   -1.234860    2.006222
      6          1           0        2.389235   -2.574750   -0.059445
      7          1           0        0.636496   -2.691003   -0.088443
      8          1           0        1.218224    0.392411    1.997933
      9          1           0        2.274046   -1.023640    2.031836
     10         15           0        1.366631    0.584252   -0.973148
     11          6           0        1.382700   -0.691360    0.122517
     12          6           0        1.482028   -2.087961   -0.426706
     13          6           0        1.348010   -0.615191    1.617592
     14          6           0        1.270042    2.120023    0.066384
     15         15           0       -1.554485   -0.295888   -0.212812
     16          9           0       -3.156659   -0.367592   -0.218594
     17          9           0       -1.392495    0.888750    0.853936
     18          1           0       -1.448023    0.530369   -1.370249
 ---------------------------------------------------------------------

 SCF Done:  E(RHF) =  -1039.57994177     A.U. after    2 cycles

 The electronic state is 1-A.
 Alpha  occ. eigenvalues -- -105.28647-105.15710 -29.28634 -29.27620 -11.44311
 Alpha  occ. eigenvalues --  -11.39806 -11.37749 -11.36641  -2.87889  -2.74269
 Alpha  occ. eigenvalues --   -1.62797  -1.59591  -1.53778  -1.52955  -1.45927
 Alpha  occ. eigenvalues --   -1.36386  -1.19860  -1.02590  -1.00337  -0.90045
 Alpha  occ. eigenvalues --   -0.78819  -0.65468  -0.60448  -0.60302  -0.58519
 Alpha  occ. eigenvalues --   -0.55618  -0.54866  -0.54063  -0.53562  -0.48706
 Alpha  occ. eigenvalues --   -0.46498  -0.39591  -0.35621  -0.33975  -0.28185
 Alpha  occ. eigenvalues --   -0.26034  -0.20347  -0.18928  -0.15798  -0.03038
 Alpha  occ. eigenvalues --    0.00298
 Alpha virt. eigenvalues --    0.04685   0.05445   0.05989   0.06339   0.06426
 Alpha virt. eigenvalues --    0.06855   0.07240   0.07698   0.08549   0.08870
 Alpha virt. eigenvalues --    0.10181   0.11372   0.11840   0.12573   0.13009

 Mulliken charges:
               1
     1  H    1.216834
     2  H    1.210313
     3  H    1.105088
     4  H    1.167045
     5  H    1.339493
     6  H    0.888128
     7  H    0.816562
     8  H    1.486968
     9  H    1.000035
    10  P    6.002306
    11  C    0.212951
    12  C   -5.796676
    13  C   -4.553656
    14  C   -6.052696
    15  P    2.020351
    16  F    0.002281
    17  F   -0.731087
    18  H   -1.334240
 Sum of Mulliken charges =   0.00000

 Dipole moment (field-independent basis, Debye):
    X=             -6.5157    Y=              6.8986    Z=             -1.5344  Tot=              9.6125

 Test job not archived.
 1\1\GINC-SE018\SP\RHF\Aug-CC-pVDZ\C4H10F2P2\OHZDE\09-Apr-2025\0\\#t hf
  aug-cc-pvdz iop(5/13=1,5/36=2,99/5=2) pseudo=read geom=check guess=(r
 ead,tcheck) scf=(maxcycle=1)\\title\\0,1\H,0,-0.66372889,3.26375392,-1
 .41484082\H,0,0.57607353,2.07688321,-1.82463407\H,0,-0.55842324,2.6448
 712,-3.06242126\H,0,-2.87100416,-1.40911587,-1.55416728\H,0,0.42715494
 ,-1.23076192,-3.33739031\H,0,-2.60862974,-1.75549695,-3.26751243\H,0,-
 1.47646146,-2.36750684,-2.07165071\H,0,0.4157342,0.51539066,-3.5906339
 2\H,0,-0.67072928,-0.53226666,-4.50884988\P,0,-1.6570918,1.05342876,-1

 Normal termination of Gaussian 16 at Wed Apr  9 19:47:07 2025.
