 Gaussian 16, Revision C.01,

 ----------------------------------------------------------------------
 #t hf aug-cc-pvdz symm=none int=(grid=ultrafine) guess=(read,tcheck) s
 table=(opt,rrhf)
 ----------------------------------------------------------------------
 -----
 title
 -----
 Symbolic Z-matrix:
 Charge =  0 Multiplicity = 1

 SCF Done:  E(RHF) =  -3015.76250838     A.U. after   14 cycles
 Normal termination of Gaussian 16 at Wed Apr  9 19:39:16 2025.
 Gaussian 16:  ES64L-G16RevC.01  3-Jul-2019

 ----------------------------------------------------------------------
 #t hf aug-cc-pvdz iop(5/13=1,5/36=2,99/5=2) pseudo=read geom=check gue
 ss=(read,tcheck) scf=(maxcycle=1)
 ----------------------------------------------------------------------
 -----
 title
 -----
 Structure from the checkpoint file:  "HB300SPXx10_1344_4.39_0.95_hydrogenchloride_P4S3_dimer_mol1.chk"
 Charge =  0 Multiplicity = 1

                         Standard orientation:
 ---------------------------------------------------------------------
 Center     Atomic      Atomic             Coordinates (Angstroms)
 Number     Number       Type             X           Y           Z
 ---------------------------------------------------------------------
      1          1           0       -2.543851   -0.483477   -0.515884
      2         17           0       -3.612533    0.006807    0.016589
      3         16           0       -0.437335   -0.717050   -1.546575
      4         15           0       -0.165867    1.325119   -1.068206
      5         16           0       -0.207828   -0.728363    1.679374
      6         16           0        2.467872   -0.666236   -0.145572
      7         15           0        1.859320    1.353060   -0.084992
      8         15           0       -0.006939    1.309795    1.176922
      9         15           0        0.633057   -1.711031    0.005492
 ---------------------------------------------------------------------

 SCF Done:  E(RHF) =  -3017.42980606     A.U. after    2 cycles

 The electronic state is 1-A.
 Alpha  occ. eigenvalues -- -105.26939-105.24109-105.24065-105.23228 -99.89402
 Alpha  occ. eigenvalues --  -75.73454 -75.72950 -75.72833 -13.18237 -13.16200
 Alpha  occ. eigenvalues --  -13.15193 -13.14228 -13.13683 -13.11781 -13.08173
 Alpha  occ. eigenvalues --  -13.07405 -13.05513 -10.46566  -9.66717  -9.65821
 Alpha  occ. eigenvalues --   -9.65781  -8.07640  -8.07203  -8.07005  -2.85053
 Alpha  occ. eigenvalues --   -2.82254  -2.81149  -2.81097  -1.64123  -1.54881
 Alpha  occ. eigenvalues --   -1.54751  -1.54273  -1.52262  -1.51953  -1.51373
 Alpha  occ. eigenvalues --   -1.48843  -1.48821  -1.36562  -1.36373  -1.35395
 Alpha  occ. eigenvalues --   -1.29181  -1.11520  -1.01906  -1.01224  -0.79494
 Alpha  occ. eigenvalues --   -0.68967  -0.62971  -0.52327  -0.52010  -0.51620
 Alpha  occ. eigenvalues --   -0.51420  -0.37479  -0.36409  -0.26270  -0.25744
 Alpha  occ. eigenvalues --   -0.22253  -0.21632  -0.11714  -0.11252  -0.03704
 Alpha  occ. eigenvalues --   -0.00019   0.03989   0.04830
 Alpha virt. eigenvalues --    0.05050   0.07043   0.07982   0.08074   0.08642
 Alpha virt. eigenvalues --    0.08759   0.09158   0.09961   0.10582   0.10888
 Alpha virt. eigenvalues --    0.11653   0.11882   0.13132   0.13576   0.14286

 Mulliken charges:
               1
     1  H   -1.031616
     2  Cl  -0.239266
     3  S   -3.625863
     4  P    2.313815
     5  S   -3.280763
     6  S   -2.959362
     7  P    2.427907
     8  P    2.267450
     9  P    4.127698
 Sum of Mulliken charges =  -0.00000

 Dipole moment (field-independent basis, Debye):
    X=              4.0772    Y=             25.1845    Z=              3.6661  Tot=             25.7745

 Test job not archived.
 1\1\GINC-SE097\SP\RHF\Aug-CC-pVDZ\Cl1H1P4S3\OHZDE\09-Apr-2025\0\\#t hf
  aug-cc-pvdz iop(5/13=1,5/36=2,99/5=2) pseudo=read geom=check guess=(r
 ead,tcheck) scf=(maxcycle=1)\\title\\0,1\H,0,-0.57388532,0.23171594,-0
 .00983813\Cl,0,-1.31085335,0.72448843,-0.94794305\S,0,0.82935649,-0.00
 876286,1.8682912\P,0,0.3223346,2.00024352,2.29233181\S,0,-2.29864467,-
 0.18015704,2.67189486\S,0,-0.02454863,-0.10272521,4.97757359\P,0,-0.27
 907411,1.92695803,4.46069737\P,0,-1.85445667,1.87354219,2.8505608\P,0,
 -0.4605042,-1.10400213,3.16419184\\Version=ES64L-G16RevC.01\State=1-A\

 Normal termination of Gaussian 16 at Wed Apr  9 19:39:22 2025.
