 Gaussian 16, Revision C.01,

 ----------------------------------------------------------------------
 #t hf aug-cc-pvdz symm=none int=(grid=ultrafine) guess=(read,tcheck) s
 table=(opt,rrhf)
 ----------------------------------------------------------------------
 -----
 title
 -----
 Symbolic Z-matrix:
 Charge =  0 Multiplicity = 1

 SCF Done:  E(RHF) =  -897.826001743     A.U. after   11 cycles
 Normal termination of Gaussian 16 at Wed Apr  9 04:10:22 2025.
 Gaussian 16:  ES64L-G16RevC.01  3-Jul-2019

 ----------------------------------------------------------------------
 #t hf aug-cc-pvdz iop(5/13=1,5/36=2,99/5=2) pseudo=read geom=check gue
 ss=(read,tcheck) scf=(maxcycle=1)
 ----------------------------------------------------------------------
 -----
 title
 -----
 Structure from the checkpoint file:  "HB300SPXx10_1336_4.38_1.05_hydrogenchloride_methanethiol_dimer_mol1.chk"
 Charge =  0 Multiplicity = 1

                         Standard orientation:
 ---------------------------------------------------------------------
 Center     Atomic      Atomic             Coordinates (Angstroms)
 Number     Number       Type             X           Y           Z
 ---------------------------------------------------------------------
      1          1           0       -0.961316   -0.391193   -0.090905
      2         17           0       -2.190621    0.049900    0.004449
      3          1           0        0.757433    1.580963    0.556482
      4          1           0        1.583405    1.497244   -1.005043
      5          1           0        2.533577    1.395810    0.484599
      6          1           0        1.420897   -0.929035    1.231998
      7          6           0        1.588559    1.134789    0.019091
      8         16           0        1.398450   -0.675676   -0.085457
 ---------------------------------------------------------------------

 SCF Done:  E(RHF) =  -898.529536607     A.U. after    2 cycles

 The electronic state is 1-A.
 Alpha  occ. eigenvalues --  -99.88808 -75.70535 -13.14739 -13.10562 -13.08990
 Alpha  occ. eigenvalues --  -11.41128 -10.45896  -9.65990  -9.65167  -9.65117
 Alpha  occ. eigenvalues --   -8.04437  -1.28332  -1.20170  -0.95871  -0.67658
 Alpha  occ. eigenvalues --   -0.61575  -0.60314  -0.51106  -0.50935  -0.50784
 Alpha  occ. eigenvalues --   -0.41009  -0.26874
 Alpha virt. eigenvalues --    0.02062   0.03900   0.05030   0.06091   0.07686
 Alpha virt. eigenvalues --    0.10073   0.10779   0.10916   0.13418   0.14268
 Alpha virt. eigenvalues --    0.14804   0.15315   0.17193   0.17972   0.18437

 Mulliken charges:
               1
     1  H    0.792498
     2  Cl  -0.657696
     3  H    1.245878
     4  H    1.389547
     5  H    1.347980
     6  H    1.134945
     7  C   -4.294518
     8  S   -0.958635
 Sum of Mulliken charges =  -0.00000

 Dipole moment (field-independent basis, Debye):
    X=              2.5813    Y=             -0.0466    Z=             -0.8543  Tot=              2.7194

 Test job not archived.
 1\1\GINC-SE423\SP\RHF\Aug-CC-pVDZ\C1H5Cl1S1\OHZDE\09-Apr-2025\0\\#t hf
  aug-cc-pvdz iop(5/13=1,5/36=2,99/5=2) pseudo=read geom=check guess=(r
 ead,tcheck) scf=(maxcycle=1)\\title\\0,1\H,0,-0.71323053,0.36081391,-0
 .38963987\Cl,0,-0.97574618,1.50432633,-0.9712843\H,0,1.77334032,0.4261
 232,0.64733179\H,0,2.2984457,-0.97970704,-0.28835363\H,0,2.53069524,-0
 .97035825,1.46610423\H,0,-0.10294345,-0.95133696,1.98103387\C,0,1.8775
 8851,-0.65444614,0.65892496\S,0,0.24888445,-1.463474,0.79178401\\Versi
 on=ES64L-G16RevC.01\State=1-A\HF=-898.5295366\RMSD=7.647e-02\Dipole=0.

 Normal termination of Gaussian 16 at Wed Apr  9 04:10:23 2025.
