 Gaussian 16, Revision C.01,

 ----------------------------------------------------------------------
 #t hf aug-cc-pvdz symm=none int=(grid=ultrafine) guess=(read,tcheck) s
 table=(opt,rrhf)
 ----------------------------------------------------------------------
 -----
 title
 -----
 Symbolic Z-matrix:
 Charge =  0 Multiplicity = 1

 SCF Done:  E(RHF) =  -704.614825354     A.U. after   13 cycles
 Normal termination of Gaussian 16 at Wed Apr  9 19:37:16 2025.
 Gaussian 16:  ES64L-G16RevC.01  3-Jul-2019

 ----------------------------------------------------------------------
 #t hf aug-cc-pvdz iop(5/13=1,5/36=2,99/5=2) pseudo=read geom=check gue
 ss=(read,tcheck) scf=(maxcycle=1)
 ----------------------------------------------------------------------
 -----
 title
 -----
 Structure from the checkpoint file:  "HB300SPXx10_1130_4.16_2.00_aceticacid_dimethylsulfide_dimer_mol1.chk"
 Charge =  0 Multiplicity = 1

                         Standard orientation:
 ---------------------------------------------------------------------
 Center     Atomic      Atomic             Coordinates (Angstroms)
 Number     Number       Type             X           Y           Z
 ---------------------------------------------------------------------
      1          6           0        0.229225    2.979831    0.000000
      2          8           0       -0.831134    2.397959    0.000000
      3          8           0        1.412570    2.355846   -0.000000
      4          1           0        1.268108    1.376894   -0.000000
      5          6           0        0.381699    4.476023    0.000000
      6          1           0       -0.595417    4.946026    0.000000
      7          1           0        0.947374    4.788423    0.876781
      8          1           0        0.947374    4.788423   -0.876781
      9          1           0       -1.498937   -3.713831    1.379195
     10          1           0       -1.398865   -1.930519    1.315483
     11          1           0       -0.246864   -2.863153    2.299403
     12          1           0       -0.246864   -2.863153   -2.299403
     13          1           0       -1.398865   -1.930519   -1.315483
     14          1           0       -1.498937   -3.713831   -1.379195
     15          6           0       -0.831134   -2.855178    1.382643
     16         16           0        0.336154   -2.961762   -0.000000
     17          6           0       -0.831134   -2.855178   -1.382643
 ---------------------------------------------------------------------

 SCF Done:  E(RHF) =  -706.249286421     A.U. after    2 cycles

 The electronic state is 1-A'.
 Alpha  occ. eigenvalues --  -75.66848 -21.12192 -21.04923 -13.08747 -13.06289
 Alpha  occ. eigenvalues --  -13.00181 -11.51902 -11.39470 -11.38914 -11.38760
 Alpha  occ. eigenvalues --   -8.00947  -1.82672  -1.64879  -1.22243  -1.11240
 Alpha  occ. eigenvalues --   -1.02690  -0.87593  -0.80325  -0.63681  -0.62040
 Alpha  occ. eigenvalues --   -0.60627  -0.60117  -0.59771  -0.57634  -0.56633
 Alpha  occ. eigenvalues --   -0.54430  -0.50028  -0.45197  -0.44050  -0.36264
 Alpha  occ. eigenvalues --   -0.33794  -0.29638  -0.21628
 Alpha virt. eigenvalues --    0.03150   0.03648   0.03934   0.05418   0.06174
 Alpha virt. eigenvalues --    0.06429   0.07173   0.07693   0.08097   0.08544
 Alpha virt. eigenvalues --    0.09372   0.10854   0.11885   0.12967   0.13316

 Mulliken charges:
               1
     1  C    5.246317
     2  O   -2.937261
     3  O   -2.923964
     4  H    0.944936
     5  C   -4.108916
     6  H    1.267756
     7  H    1.242428
     8  H    1.242428
     9  H    1.393381
    10  H    1.440532
    11  H    1.394364
    12  H    1.394364
    13  H    1.440532
    14  H    1.393381
    15  C   -4.748428
    16  S    1.066575
    17  C   -4.748428
 Sum of Mulliken charges =  -0.00000

 Dipole moment (field-independent basis, Debye):
    X=              1.2746    Y=              0.3319    Z=             -0.0000  Tot=              1.3171

 Test job not archived.
 1\1\GINC-SE100\SP\RHF\Aug-CC-pVDZ\C4H10O2S1\OHZDE\09-Apr-2025\0\\#t hf
  aug-cc-pvdz iop(5/13=1,5/36=2,99/5=2) pseudo=read geom=check guess=(r
 ead,tcheck) scf=(maxcycle=1)\\title\\0,1\C,0,0.08152563,1.86646531,0.\
 O,0,1.12794826,1.25988757,0.\O,0,-1.11612638,1.27040068,0.\H,0,-0.9946
 6015,0.28833063,0.\C,0,-0.03582077,3.36582142,0.\H,0,0.95204799,3.8127
 8193,0.\H,0,-0.5940149,3.69140047,-0.87678098\H,0,-0.5940149,3.6914004
 7,0.87678098\H,0,1.65224785,-4.86588072,-1.37919498\H,0,1.5940213,-3.0
 8071272,-1.31548339\H,0,0.42046735,-3.98607608,-2.29940307\H,0,0.42046

 Normal termination of Gaussian 16 at Wed Apr  9 19:37:20 2025.
