 Gaussian 16, Revision C.01,

 ----------------------------------------------------------------------
 #t hf aug-cc-pvdz symm=none int=(grid=ultrafine) guess=(read,tcheck) s
 table=(opt,rrhf)
 ----------------------------------------------------------------------
 -----
 title
 -----
 Symbolic Z-matrix:
 Charge =  0 Multiplicity = 1

 SCF Done:  E(RHF) =  -991.402123543     A.U. after   12 cycles

 1\1\GINC-SE045\Stability\RHF\Aug-CC-pVDZ\C5H12S2\OHZDE\09-Apr-2025\0\\
 #t hf aug-cc-pvdz symm=none int=(grid=ultrafine) guess=(read,tcheck) s
 table=(opt,rrhf)\\title\\0,1\H,0,2.75511322,-2.75302781,-0.03281769\H,
 0,2.23328443,-3.6609344,1.39160682\H,0,2.88304587,-2.02859561,1.588775
 53\H,0,0.87227038,-0.86572365,0.25189781\C,0,2.28978938,-2.67174858,0.
 94522466\S,0,0.57786237,-2.06107277,0.80693494\H,0,-0.62549112,-0.7386
 4798,-1.56804463\H,0,-0.72040435,0.73187369,-2.54739972\H,0,-2.8629976
 7,0.06591897,-1.08678055\H,0,-0.576519,2.43471747,1.04602347\H,0,-2.32

 Normal termination of Gaussian 16 at Wed Apr  9 19:39:39 2025.
 Gaussian 16:  ES64L-G16RevC.01  3-Jul-2019

 ----------------------------------------------------------------------
 #t hf aug-cc-pvdz iop(5/13=1,5/36=2,99/5=2) pseudo=read geom=check gue
 ss=(read,tcheck) scf=(maxcycle=1)
 ----------------------------------------------------------------------
 -----
 title
 -----
 Structure from the checkpoint file:  "HB300SPXx10_1202_4.25_0.85_methanethiol_tetrahydrothiophene_dimer_mol1.chk"
 Charge =  0 Multiplicity = 1

                         Standard orientation:
 ---------------------------------------------------------------------
 Center     Atomic      Atomic             Coordinates (Angstroms)
 Number     Number       Type             X           Y           Z
 ---------------------------------------------------------------------
      1          1           0        3.485612    1.065381   -0.799765
      2          1           0        4.274071   -0.344446   -0.081223
      3          1           0        3.475347    0.835033    0.965899
      4          1           0        1.032156    0.326051   -0.011081
      5          6           0        3.430388    0.335348    0.002545
      6         16           0        1.923407   -0.680356   -0.139217
      7          1           0       -0.463340   -0.054420   -1.797239
      8          1           0       -1.912811    0.943976   -1.978398
      9          1           0       -2.248658   -1.649650   -1.405752
     10          1           0       -2.091375    0.367921    1.954711
     11          1           0       -3.190664   -0.469379   -0.496851
     12          1           0       -0.376697   -0.053138    2.064783
     13          1           0       -2.106015   -1.919122    1.182581
     14          1           0       -0.553209   -1.733758    0.378899
     15         16           0       -0.827002    1.350949    0.141832
     16          6           0       -1.349385    0.321727   -1.288477
     17          6           0       -2.177991   -0.818882   -0.703447
     18          6           0       -1.494696   -1.230178    0.599735
     19          6           0       -1.219466    0.051327    1.386576
 ---------------------------------------------------------------------

 SCF Done:  E(RHF) =  -992.892511056     A.U. after    2 cycles

 The electronic state is 1-A.
 Alpha  occ. eigenvalues --  -75.67022 -75.66257 -13.14302 -13.11609 -13.10713
 Alpha  occ. eigenvalues --  -13.09641 -13.06574 -12.99923 -11.43979 -11.42957
 Alpha  occ. eigenvalues --  -11.39171 -11.38690 -11.36366  -8.01155  -8.00233
 Alpha  occ. eigenvalues --   -1.33215  -1.16885  -1.07666  -1.07269  -0.92961
 Alpha  occ. eigenvalues --   -0.84846  -0.83260  -0.66931  -0.65679  -0.61065
 Alpha  occ. eigenvalues --   -0.59067  -0.57606  -0.55065  -0.49425  -0.48661
 Alpha  occ. eigenvalues --   -0.46619  -0.45593  -0.42314  -0.38579  -0.35108
 Alpha  occ. eigenvalues --   -0.22629  -0.20547
 Alpha virt. eigenvalues --    0.03043   0.03620   0.04438   0.05329   0.05804
 Alpha virt. eigenvalues --    0.06087   0.06385   0.06473   0.07440   0.08045
 Alpha virt. eigenvalues --    0.08666   0.09515   0.11313   0.12471   0.13161

 Mulliken charges:
               1
     1  H    1.334713
     2  H    1.318327
     3  H    1.389628
     4  H    2.406222
     5  C   -5.252710
     6  S   -0.586709
     7  H    1.393484
     8  H    1.398324
     9  H    1.301313
    10  H    1.416864
    11  H    1.407867
    12  H    1.448704
    13  H    1.307091
    14  H    1.791878
    15  S    0.034457
    16  C   -3.186090
    17  C   -2.651036
    18  C   -2.875388
    19  C   -3.396939
 Sum of Mulliken charges =  -0.00000

 Dipole moment (field-independent basis, Debye):
    X=              0.0667    Y=             -0.4722    Z=             -0.0073  Tot=              0.4770

 Test job not archived.
 1\1\GINC-SE045\SP\RHF\Aug-CC-pVDZ\C5H12S2\OHZDE\09-Apr-2025\0\\#t hf a
 ug-cc-pvdz iop(5/13=1,5/36=2,99/5=2) pseudo=read geom=check guess=(rea
 d,tcheck) scf=(maxcycle=1)\\title\\0,1\H,0,2.75511322,-2.75302781,-0.0
 3281769\H,0,2.23328443,-3.6609344,1.39160682\H,0,2.88304587,-2.0285956
 1,1.58877553\H,0,0.87227038,-0.86572365,0.25189781\C,0,2.28978938,-2.6
 7174858,0.94522466\S,0,0.57786237,-2.06107277,0.80693494\H,0,-0.625491
 12,-0.73864798,-1.56804463\H,0,-0.72040435,0.73187369,-2.54739972\H,0,
 -2.86299767,0.06591897,-1.08678055\H,0,-0.576519,2.43471747,1.04602347

 Normal termination of Gaussian 16 at Wed Apr  9 19:39:47 2025.
