 Gaussian 16, Revision C.01,

 ----------------------------------------------------------------------
 #t hf aug-cc-pvdz symm=none int=(grid=ultrafine) guess=(read,tcheck) s
 table=(opt,rrhf)
 ----------------------------------------------------------------------
 -----
 title
 -----
 Symbolic Z-matrix:
 Charge =  0 Multiplicity = 1

 SCF Done:  E(RHF) =  -571.990916357     A.U. after   12 cycles
 Normal termination of Gaussian 16 at Wed Apr  9 19:40:06 2025.
 Gaussian 16:  ES64L-G16RevC.01  3-Jul-2019

 ----------------------------------------------------------------------
 #t hf aug-cc-pvdz iop(5/13=1,5/36=2,99/5=2) pseudo=read geom=check gue
 ss=(read,tcheck) scf=(maxcycle=1)
 ----------------------------------------------------------------------
 -----
 title
 -----
 Structure from the checkpoint file:  "HB300SPXx10_136_1.14_1.05_sulfane_trimethylamine_dimer_mol1.chk"
 Charge =  0 Multiplicity = 1

                         Standard orientation:
 ---------------------------------------------------------------------
 Center     Atomic      Atomic             Coordinates (Angstroms)
 Number     Number       Type             X           Y           Z
 ---------------------------------------------------------------------
      1          1           0       -1.132604    0.046780    0.000000
      2          1           0       -2.757874   -1.062686    0.000000
      3         16           0       -2.488199    0.250519    0.000000
      4          1           0        2.439686   -0.832735    1.303193
      5          1           0        0.944805   -0.272685    2.080506
      6          1           0        0.956255   -1.800557    1.197590
      7          1           0        0.956255   -1.800557   -1.197590
      8          1           0        2.439686   -0.832735   -1.303193
      9          1           0        0.944805   -0.272685   -2.080506
     10          1           0        2.439473    1.412314    0.000000
     11          1           0        0.950682    1.804524   -0.882789
     12          6           0        1.344494   -0.783221    1.205875
     13          7           0        0.925489   -0.088742    0.000000
     14          6           0        1.344494   -0.783221   -1.205875
     15          6           0        1.344494    1.303006    0.000000
     16          1           0        0.950682    1.804524    0.882789
 ---------------------------------------------------------------------

 SCF Done:  E(RHF) =  -573.125155722     A.U. after    2 cycles

 The electronic state is 1-A'.
 Alpha  occ. eigenvalues --  -75.67647 -15.71416 -13.13871 -13.07809 -12.99736
 Alpha  occ. eigenvalues --  -11.38903 -11.38902 -11.37847  -8.01340  -1.43316
 Alpha  occ. eigenvalues --   -1.08740  -1.03950  -1.03938  -0.84481  -0.66369
 Alpha  occ. eigenvalues --   -0.63548  -0.63535  -0.55267  -0.55256  -0.52696
 Alpha  occ. eigenvalues --   -0.52045  -0.48637  -0.48630  -0.42286  -0.30208
 Alpha  occ. eigenvalues --   -0.23988
 Alpha virt. eigenvalues --    0.03089   0.04673   0.05309   0.05466   0.06046
 Alpha virt. eigenvalues --    0.06254   0.06557   0.06993   0.07050   0.08994
 Alpha virt. eigenvalues --    0.09537   0.12098   0.13008   0.13777   0.14215

 Mulliken charges:
               1
     1  H    1.317203
     2  H    0.961898
     3  S   -2.557402
     4  H    1.297238
     5  H    1.307602
     6  H    1.332784
     7  H    1.332784
     8  H    1.297238
     9  H    1.307602
    10  H    1.268266
    11  H    1.293728
    12  C   -3.558845
    13  N   -0.692945
    14  C   -3.558845
    15  C   -3.642032
    16  H    1.293728
 Sum of Mulliken charges =  -0.00000

 Dipole moment (field-independent basis, Debye):
    X=              0.8928    Y=              0.8806    Z=             -0.0000  Tot=              1.2540

 Test job not archived.
 1\1\GINC-SE016\SP\RHF\Aug-CC-pVDZ\C3H11N1S1\OHZDE\09-Apr-2025\0\\#t hf
  aug-cc-pvdz iop(5/13=1,5/36=2,99/5=2) pseudo=read geom=check guess=(r
 ead,tcheck) scf=(maxcycle=1)\\title\\0,1\H,0,0.06719299,0.97177334,0.\
 H,0,1.32304535,2.48678341,0.\S,0,-0.00955285,2.34044335,0.\H,0,0.61056
 714,-2.66684492,-1.30319342\H,0,0.1920132,-1.12634599,-2.08050641\H,0,
 1.71219445,-1.27988291,-1.19759028\H,0,1.71219445,-1.27988291,1.197590
 28\H,0,0.61056714,-2.66684492,1.30319342\H,0,0.1920132,-1.12634599,2.0
 8050641\H,0,-1.62472634,-2.45777849,0.\H,0,-1.87673437,-0.93895613,0.8

 Normal termination of Gaussian 16 at Wed Apr  9 19:40:09 2025.
