 Gaussian 16, Revision C.01,

 ----------------------------------------------------------------------
 #t hf aug-cc-pvdz symm=none int=(grid=ultrafine) guess=(read,tcheck) s
 table=(opt,rrhf)
 ----------------------------------------------------------------------
 -----
 title
 -----
 Symbolic Z-matrix:
 Charge =  0 Multiplicity = 1

 SCF Done:  E(RHF) =  -645.421457209     A.U. after   14 cycles
 Normal termination of Gaussian 16 at Wed Apr  9 04:10:49 2025.
 Gaussian 16:  ES64L-G16RevC.01  3-Jul-2019

 ----------------------------------------------------------------------
 #t hf aug-cc-pvdz iop(5/13=1,5/36=2,99/5=2) pseudo=read geom=check gue
 ss=(read,tcheck) scf=(maxcycle=1)
 ----------------------------------------------------------------------
 -----
 title
 -----
 Structure from the checkpoint file:  "HB300SPXx10_123_1.13_0.90_sulfane_pyridine_dimer_mol1.chk"
 Charge =  0 Multiplicity = 1

                         Standard orientation:
 ---------------------------------------------------------------------
 Center     Atomic      Atomic             Coordinates (Angstroms)
 Number     Number       Type             X           Y           Z
 ---------------------------------------------------------------------
      1          1           0        1.894509   -0.306011   -0.026459
      2          1           0        3.351003   -0.040212    1.252511
      3         16           0        3.212543    0.011702   -0.080076
      4          1           0       -2.982683   -1.819422   -0.002502
      5          1           0       -0.543859   -2.292453   -0.001353
      6          6           0       -2.687976    0.316568    0.000589
      7          6           0       -2.270814   -1.007197   -0.000579
      8          6           0       -0.907837   -1.272713    0.000227
      9          7           0        0.019094   -0.315488    0.002353
     10          6           0       -0.388415    0.953253    0.003268
     11          6           0       -1.728141    1.318726    0.002504
     12          1           0        0.393022    1.703266    0.003859
     13          1           0       -2.006707    2.362178    0.002979
     14          1           0       -3.740535    0.562015   -0.000349
 ---------------------------------------------------------------------

 SCF Done:  E(RHF) =  -646.829992806     A.U. after    2 cycles

 The electronic state is 1-A.
 Alpha  occ. eigenvalues --  -75.66458 -15.75030 -13.12550 -13.07114 -12.98847
 Alpha  occ. eigenvalues --  -11.49913 -11.46084 -11.44700 -11.42135 -11.39035
 Alpha  occ. eigenvalues --   -8.00259  -1.46563  -1.20436  -1.12714  -1.07983
 Alpha  occ. eigenvalues --   -0.90211  -0.90050  -0.75159  -0.66821  -0.61560
 Alpha  occ. eigenvalues --   -0.60443  -0.58713  -0.55512  -0.51299  -0.48555
 Alpha  occ. eigenvalues --   -0.42782  -0.38343  -0.35276  -0.33415  -0.23376
 Alpha virt. eigenvalues --    0.02508   0.04666   0.04875   0.05178   0.05576
 Alpha virt. eigenvalues --    0.06881   0.07916   0.09569   0.10192   0.10365
 Alpha virt. eigenvalues --    0.11964   0.12774   0.13269   0.13515   0.13715

 Mulliken charges:
               1
     1  H    1.555795
     2  H    0.984178
     3  S   -2.661808
     4  H    1.452153
     5  H    1.609866
     6  C   -0.016635
     7  C   -0.875566
     8  C   -1.392139
     9  N   -3.252678
    10  C   -1.490208
    11  C   -0.619443
    12  H    1.751125
    13  H    1.416519
    14  H    1.538840
 Sum of Mulliken charges =   0.00000

 Dipole moment (field-independent basis, Debye):
    X=             -2.7756    Y=              0.4487    Z=             -0.8733  Tot=              2.9441

 Test job not archived.
 1\1\GINC-SE016\SP\RHF\Aug-CC-pVDZ\C5H7N1S1\OHZDE\09-Apr-2025\0\\#t hf
 aug-cc-pvdz iop(5/13=1,5/36=2,99/5=2) pseudo=read geom=check guess=(re
 ad,tcheck) scf=(maxcycle=1)\\title\\0,1\H,0,1.25021154,1.5960457,0.136
 91261\H,0,3.15091491,1.84193998,0.53016902\S,0,2.02337536,2.53859467,0
 .73260516\H,0,-1.737469,-1.70023497,-2.3703353\H,0,-0.19908664,0.24941
 562,-2.30815224\C,0,-1.61018795,-2.01815513,-0.24147633\C,0,-1.3135879
 2,-1.37117852,-1.43304274\C,0,-0.45367807,-0.28139462,-1.39943018\N,0,
 0.10075378,0.17255512,-0.27603333\C,0,-0.18848099,-0.45317609,0.864392

 Normal termination of Gaussian 16 at Wed Apr  9 04:10:54 2025.
