 Gaussian 16, Revision C.01,

 ----------------------------------------------------------------------
 #t hf aug-cc-pvdz symm=none int=(grid=ultrafine) guess=(read,tcheck) s
 table=(opt,rrhf)
 ----------------------------------------------------------------------
 -----
 title
 -----
 Symbolic Z-matrix:
 Charge =  0 Multiplicity = 1

 SCF Done:  E(RHF) =  -1013.77174421     A.U. after   12 cycles
 Normal termination of Gaussian 16 at Wed Apr  9 19:39:13 2025.
 Gaussian 16:  ES64L-G16RevC.01  3-Jul-2019

 ----------------------------------------------------------------------
 #t hf aug-cc-pvdz iop(5/13=1,5/36=2,99/5=2) pseudo=read geom=check gue
 ss=(read,tcheck) scf=(maxcycle=1)
 ----------------------------------------------------------------------
 -----
 title
 -----
 Structure from the checkpoint file:  "HB300SPXx10_1363_4.41_0.90_hydrogenchloride_tetrahydrothiophene_dimer_mol1.chk"
 Charge =  0 Multiplicity = 1

                         Standard orientation:
 ---------------------------------------------------------------------
 Center     Atomic      Atomic             Coordinates (Angstroms)
 Number     Number       Type             X           Y           Z
 ---------------------------------------------------------------------
      1          1           0       -1.411240   -0.446797    0.082040
      2         17           0       -2.445567    0.341642   -0.196958
      3          1           0        1.662074   -0.016202    1.972355
      4          1           0       -0.020774    0.530225    2.016425
      5          1           0        1.778310    2.097503    0.784465
      6          1           0        0.099156   -0.264560   -1.817096
      7          1           0        0.224294    1.814348    0.002667
      8          1           0        1.490835   -1.353022   -1.710296
      9          1           0        1.945521    1.295019   -1.688988
     10          1           0        2.811688    0.283817   -0.536037
     11         16           0        0.296568   -1.227695    0.389254
     12          6           0        0.801352    0.250228    1.363334
     13          6           0        1.141401    1.332488    0.340885
     14          6           0        1.821275    0.631030   -0.833933
     15          6           0        0.944253   -0.564600   -1.201170
 ---------------------------------------------------------------------

 SCF Done:  E(RHF) =  -1015.07033029     A.U. after    2 cycles

 The electronic state is 1-A.
 Alpha  occ. eigenvalues --  -99.85863 -75.68939 -13.16437 -13.14161 -13.11587
 Alpha  occ. eigenvalues --  -11.45124 -11.44158 -11.40452 -11.37362 -10.43057
 Alpha  occ. eigenvalues --   -9.63194  -9.62462  -9.62364  -8.03186  -1.34567
 Alpha  occ. eigenvalues --   -1.25994  -1.09483  -1.08673  -0.86596  -0.84445
 Alpha  occ. eigenvalues --   -0.69266  -0.67223  -0.65478  -0.62351  -0.55251
 Alpha  occ. eigenvalues --   -0.50297  -0.49871  -0.48943  -0.47517  -0.46580
 Alpha  occ. eigenvalues --   -0.43665  -0.36766  -0.25573
 Alpha virt. eigenvalues --    0.03169   0.04498   0.05183   0.05636   0.05847
 Alpha virt. eigenvalues --    0.06283   0.06601   0.06858   0.07388   0.10442
 Alpha virt. eigenvalues --    0.11999   0.12376   0.13166   0.13817   0.14202

 Mulliken charges:
               1
     1  H    1.207664
     2  Cl  -0.846193
     3  H    1.437668
     4  H    1.268761
     5  H    1.283416
     6  H    1.299410
     7  H    1.358926
     8  H    1.396984
     9  H    1.294016
    10  H    1.405953
    11  S    0.037506
    12  C   -3.092458
    13  C   -2.352080
    14  C   -2.767972
    15  C   -2.931602
 Sum of Mulliken charges =   0.00000

 Dipole moment (field-independent basis, Debye):
    X=              3.8266    Y=             -1.2123    Z=              0.5360  Tot=              4.0497

 Test job not archived.
 1\1\GINC-SE340\SP\RHF\Aug-CC-pVDZ\C4H9Cl1S1\OHZDE\09-Apr-2025\0\\#t hf
  aug-cc-pvdz iop(5/13=1,5/36=2,99/5=2) pseudo=read geom=check guess=(r
 ead,tcheck) scf=(maxcycle=1)\\title\\0,1\H,0,-0.21838216,0.19107529,-1
 .4737198\Cl,0,-0.27626126,1.34164549,-2.13866114\H,0,-1.6262889,-0.995
 38866,1.65902075\H,0,-2.05422672,0.09096727,0.32890697\H,0,-0.88252493
 ,1.15810295,2.49665254\H,0,1.82744796,0.28121435,-0.15930892\H,0,-0.32
 564607,1.65612587,0.90034183\H,0,2.17029644,-1.22527195,0.70433544\H,0
 ,1.6946727,0.98793479,2.15168153\H,0,0.92531386,-0.51871406,2.64175014

 Normal termination of Gaussian 16 at Wed Apr  9 19:39:17 2025.
