 Gaussian 16, Revision C.01,

 ----------------------------------------------------------------------
 #t hf aug-cc-pvdz symm=none int=(grid=ultrafine) guess=(read,tcheck) s
 table=(opt,rrhf)
 ----------------------------------------------------------------------
 -----
 title
 -----
 Symbolic Z-matrix:
 Charge =  0 Multiplicity = 1

 SCF Done:  E(RHF) =  -747.044126405     A.U. after   14 cycles
 Normal termination of Gaussian 16 at Wed Apr  9 19:44:01 2025.
 Gaussian 16:  ES64L-G16RevC.01  3-Jul-2019

 ----------------------------------------------------------------------
 #t hf aug-cc-pvdz iop(5/13=1,5/36=2,99/5=2) pseudo=read geom=check gue
 ss=(read,tcheck) scf=(maxcycle=1)
 ----------------------------------------------------------------------
 -----
 title
 -----
 Structure from the checkpoint file:  "HB300SPXx10_1453_5.08_0.90_methylcyanate_phosphineF2_dimer_mol1.chk"
 Charge =  0 Multiplicity = 1

                         Standard orientation:
 ---------------------------------------------------------------------
 Center     Atomic      Atomic             Coordinates (Angstroms)
 Number     Number       Type             X           Y           Z
 ---------------------------------------------------------------------
      1          1           0       -2.659966   -1.062384    1.322418
      2          1           0       -3.247481   -1.788423   -0.201455
      3          1           0       -1.488231   -1.655804    0.104735
      4          6           0       -2.462585   -1.205221    0.263495
      5          8           0       -2.508568    0.092599   -0.411189
      6          6           0       -1.626008    0.940385   -0.040993
      7          7           0       -0.835613    1.724713    0.266753
      8         15           0        1.590099    0.333260   -0.160710
      9          9           0        0.636093   -0.964641   -0.082618
     10          9           0        2.985117   -0.418023    0.091252
     11          1           0        1.402695    0.726917    1.194464
 ---------------------------------------------------------------------

 SCF Done:  E(RHF) =  -748.808695744     A.U. after    2 cycles

 The electronic state is 1-A.
 Alpha  occ. eigenvalues -- -105.28474 -29.28699 -29.27739 -21.16135 -15.76341
 Alpha  occ. eigenvalues --  -11.50042 -11.45948  -2.87602  -1.85996  -1.61928
 Alpha  occ. eigenvalues --   -1.58521  -1.51952  -1.30913  -1.05811  -0.89379
 Alpha  occ. eigenvalues --   -0.74603  -0.67676  -0.65980  -0.57163  -0.56295
 Alpha  occ. eigenvalues --   -0.55342  -0.52968  -0.46192  -0.42739  -0.39697
 Alpha  occ. eigenvalues --   -0.36118  -0.35421  -0.33884  -0.27674  -0.24872
 Alpha  occ. eigenvalues --   -0.19426   0.01062
 Alpha virt. eigenvalues --    0.03133   0.05305   0.06933   0.07189   0.08310
 Alpha virt. eigenvalues --    0.10300   0.11093   0.12249   0.12437   0.12970
 Alpha virt. eigenvalues --    0.13222   0.14425   0.15207   0.16004   0.16683

 Mulliken charges:
               1
     1  H    1.287645
     2  H    1.087148
     3  H    1.104636
     4  C   -2.733334
     5  O   -2.680574
     6  C    4.204048
     7  N   -2.428082
     8  P    1.607686
     9  F   -0.245152
    10  F   -0.214515
    11  H   -0.989505
 Sum of Mulliken charges =  -0.00000

 Dipole moment (field-independent basis, Debye):
    X=              1.1322    Y=             -5.8874    Z=              1.7155  Tot=              6.2359

 Test job not archived.
 1\1\GINC-SE100\SP\RHF\Aug-CC-pVDZ\C2H4F2N1O1P1\OHZDE\09-Apr-2025\0\\#t
  hf aug-cc-pvdz iop(5/13=1,5/36=2,99/5=2) pseudo=read geom=check guess
 =(read,tcheck) scf=(maxcycle=1)\\title\\0,1\H,0,-2.89287834,1.38344137
 ,-2.41875402\H,0,-2.88368966,0.15494314,-3.71690786\H,0,-2.33807438,-0
 .28314113,-2.0686702\C,0,-2.39546429,0.50243917,-2.8151059\O,0,-1.0419
 8507,0.86597867,-3.23651367\C,0,-0.26338211,1.27221362,-2.30729377\N,0
 ,0.4658792,1.6354549,-1.48824768\P,0,0.41264607,-0.5077998,0.35744166\
 F,0,-0.97495618,-0.86004145,-0.38502776\F,0,0.16538593,-1.37568336,1.6

 Normal termination of Gaussian 16 at Wed Apr  9 19:44:05 2025.
