 Gaussian 16, Revision C.01,

 ----------------------------------------------------------------------
 #t hf aug-cc-pvdz symm=none int=(grid=ultrafine) guess=(read,tcheck) s
 table=(opt,rrhf)
 ----------------------------------------------------------------------
 -----
 title
 -----
 Symbolic Z-matrix:
 Charge =  0 Multiplicity = 1

 SCF Done:  E(RHF) =  -609.889708465     A.U. after   13 cycles
 Normal termination of Gaussian 16 at Wed Apr  9 19:36:16 2025.
 Gaussian 16:  ES64L-G16RevC.01  3-Jul-2019

 ----------------------------------------------------------------------
 #t hf aug-cc-pvdz iop(5/13=1,5/36=2,99/5=2) pseudo=read geom=check gue
 ss=(read,tcheck) scf=(maxcycle=1)
 ----------------------------------------------------------------------
 -----
 title
 -----
 Structure from the checkpoint file:  "HB300SPXx10_1056_4.09_1.05_ammonia_tetrahydrothiophene_dimer_mol1.chk"
 Charge =  0 Multiplicity = 1

                         Standard orientation:
 ---------------------------------------------------------------------
 Center     Atomic      Atomic             Coordinates (Angstroms)
 Number     Number       Type             X           Y           Z
 ---------------------------------------------------------------------
      1          7           0       -2.932083    0.434568   -0.188921
      2          1           0       -2.280287   -0.338470   -0.084487
      3          1           0       -3.600781    0.368191    0.568189
      4          1           0       -3.445862    0.281740   -1.047660
      5          1           0        1.448122   -0.187132    1.924969
      6          1           0       -0.302765   -0.005075    2.084068
      7          1           0        1.107958    2.088683    1.170511
      8          1           0       -0.255104    0.012995   -1.806834
      9          1           0       -0.408217    1.659843    0.369518
     10          1           0        1.314704   -0.786101   -1.979127
     11          1           0        1.287717    1.832935   -1.414191
     12          1           0        2.386694    0.795279   -0.507148
     13         16           0        0.280300   -1.328874    0.139198
     14          6           0        0.526158    0.008846    1.381202
     15          6           0        0.601045    1.315464    0.592589
     16          6           0        1.334508    1.001564   -0.710469
     17          6           0        0.669557   -0.243020   -1.293744
 ---------------------------------------------------------------------

 SCF Done:  E(RHF) =  -611.209527452     A.U. after    2 cycles

 The electronic state is 1-A.
 Alpha  occ. eigenvalues --  -75.66059 -15.73644 -13.10131 -13.09085 -13.05847
 Alpha  occ. eigenvalues --  -11.42909 -11.42055 -11.38494 -11.35579  -8.00145
 Alpha  occ. eigenvalues --   -1.32138  -1.24184  -1.06713  -1.06666  -0.84094
 Alpha  occ. eigenvalues --   -0.82544  -0.65920  -0.64920  -0.60686  -0.60539
 Alpha  occ. eigenvalues --   -0.60188  -0.53632  -0.48385  -0.46483  -0.44935
 Alpha  occ. eigenvalues --   -0.41603  -0.38184  -0.34383  -0.21849
 Alpha virt. eigenvalues --    0.03763   0.04590   0.04732   0.05803   0.06068
 Alpha virt. eigenvalues --    0.06231   0.06422   0.07096   0.07506   0.08807
 Alpha virt. eigenvalues --    0.09192   0.11234   0.13121   0.14235   0.14803

 Mulliken charges:
               1
     1  N   -2.052783
     2  H    1.049759
     3  H    0.596065
     4  H    0.575741
     5  H    1.386765
     6  H    1.439164
     7  H    1.279695
     8  H    1.574870
     9  H    1.686891
    10  H    1.361051
    11  H    1.284459
    12  H    1.409098
    13  S    0.751761
    14  C   -3.381284
    15  C   -2.850860
    16  C   -2.675625
    17  C   -3.434767
 Sum of Mulliken charges =   0.00000

 Dipole moment (field-independent basis, Debye):
    X=             -0.2907    Y=             -0.6456    Z=             -0.0093  Tot=              0.7081

 Test job not archived.
 1\1\GINC-SE045\SP\RHF\Aug-CC-pVDZ\C4H11N1S1\OHZDE\09-Apr-2025\0\\#t hf
  aug-cc-pvdz iop(5/13=1,5/36=2,99/5=2) pseudo=read geom=check guess=(r
 ead,tcheck) scf=(maxcycle=1)\\title\\0,1\N,0,-1.82627315,2.2398073,0.1
 9813908\H,0,-1.3275361,1.71497926,-0.51540753\H,0,-2.80551666,2.240204
 76,-0.05849198\H,0,-1.50884454,3.19950412,0.14356214\H,0,-0.37040001,-
 2.41027766,-0.34810083\H,0,-1.67205102,-1.21465506,-0.36398629\H,0,-0.
 47471936,-1.7486462,1.97904571\H,0,1.19352568,1.3292423,0.31334308\H,0
 ,-0.8061856,-0.0668127,1.54794676\H,0,2.50257614,0.302894,-0.29124997\

 Normal termination of Gaussian 16 at Wed Apr  9 19:36:22 2025.
