 Gaussian 16, Revision C.01,

 ----------------------------------------------------------------------
 #t hf aug-cc-pvdz symm=none int=(grid=ultrafine) guess=(read,tcheck) s
 table=(opt,rrhf)
 ----------------------------------------------------------------------
 -----
 title
 -----
 Symbolic Z-matrix:
 Charge =  0 Multiplicity = 1

 SCF Done:  E(RHF) =  -215.888273556     A.U. after   13 cycles
 Normal termination of Gaussian 16 at Wed Apr  9 19:42:48 2025.
 Gaussian 16:  ES64L-G16RevC.01  3-Jul-2019

 ----------------------------------------------------------------------
 #t hf aug-cc-pvdz iop(5/13=1,5/36=2,99/5=2) pseudo=read geom=check gue
 ss=(read,tcheck) scf=(maxcycle=1)
 ----------------------------------------------------------------------
 -----
 title
 -----
 Structure from the checkpoint file:  "HB300SPXx10_1415_5.04_1.00_ethyne_methylfluoride_dimer_mol1.chk"
 Charge =  0 Multiplicity = 1

                         Standard orientation:
 ---------------------------------------------------------------------
 Center     Atomic      Atomic             Coordinates (Angstroms)
 Number     Number       Type             X           Y           Z
 ---------------------------------------------------------------------
      1          6           0        1.046676    1.308942    0.000000
      2          1           0        0.000000    1.116634    0.000000
      3          6           0        2.225974    1.509489    0.000000
      4          1           0        3.271009    1.694084    0.000000
      5          1           0       -1.279444   -2.207184    0.893893
      6          1           0       -1.279444   -2.207184   -0.893893
      7          1           0        0.096925   -1.498400    0.000000
      8          6           0       -0.978427   -1.664920    0.000000
      9          9           0       -1.619376   -0.424335    0.000000
 ---------------------------------------------------------------------

 SCF Done:  E(RHF) =  -216.809567983     A.U. after    2 cycles

 The electronic state is 1-A'.
 Alpha  occ. eigenvalues --  -29.25883 -11.43688 -11.40746 -11.40559  -1.14975
 Alpha  occ. eigenvalues --   -1.09246  -0.78341  -0.67367  -0.65276  -0.63116
 Alpha  occ. eigenvalues --   -0.62527  -0.38663  -0.38463  -0.37971  -0.25755
 Alpha  occ. eigenvalues --   -0.25641
 Alpha virt. eigenvalues --    0.03477   0.04578   0.05837   0.06524   0.07394
 Alpha virt. eigenvalues --    0.11578   0.11657   0.12855   0.14248   0.14404
 Alpha virt. eigenvalues --    0.14725   0.15813   0.17491   0.17852   0.18812

 Mulliken charges:
               1
     1  C   -0.312188
     2  H    0.665250
     3  C   -0.937221
     4  H    0.563727
     5  H    1.349718
     6  H    1.349718
     7  H    1.211951
     8  C   -4.136353
     9  F    0.245398
 Sum of Mulliken charges =   0.00000

 Dipole moment (field-independent basis, Debye):
    X=             -0.6614    Y=              0.2469    Z=              0.0000  Tot=              0.7060

 Test job not archived.
 1\1\GINC-SE018\SP\RHF\Aug-CC-pVDZ\C3H5F1\OHZDE\09-Apr-2025\0\\#t hf au
 g-cc-pvdz iop(5/13=1,5/36=2,99/5=2) pseudo=read geom=check guess=(read
 ,tcheck) scf=(maxcycle=1)\\title\\0,1\C,0,0.31595013,-1.6374503,0.\H,0
 ,0.81540337,-0.69773821,0.\C,0,-0.25942719,-2.68621438,0.\H,0,-0.76390
 634,-3.61984886,0.\H,0,-0.99464991,2.36958159,0.8938929\H,0,-0.9946499
 1,2.36958159,-0.8938929\H,0,-1.29414663,0.85067765,0.\C,0,-0.75667096,
 1.79684416,0.\F,0,0.61368398,1.52853041,0.\\Version=ES64L-G16RevC.01\S
 tate=1-A'\HF=-216.809568\RMSD=8.230e-01\Dipole=0.2377641,0.1435931,0.\

 Normal termination of Gaussian 16 at Wed Apr  9 19:42:51 2025.
