 Gaussian 16, Revision C.01,

 ----------------------------------------------------------------------
 #t hf aug-cc-pvdz symm=none int=(grid=ultrafine) guess=(read,tcheck) s
 table=(opt,rrhf)
 ----------------------------------------------------------------------
 -----
 title
 -----
 Symbolic Z-matrix:
 Charge =  0 Multiplicity = 1

 SCF Done:  E(RHF) =  -977.978489846     A.U. after   13 cycles
 Normal termination of Gaussian 16 at Wed Apr  9 19:43:52 2025.
 Gaussian 16:  ES64L-G16RevC.01  3-Jul-2019

 ----------------------------------------------------------------------
 #t hf aug-cc-pvdz iop(5/13=1,5/36=2,99/5=2) pseudo=read geom=check gue
 ss=(read,tcheck) scf=(maxcycle=1)
 ----------------------------------------------------------------------
 -----
 title
 -----
 Structure from the checkpoint file:  "HB300SPXx10_1441_5.07_0.80_methanethiol_phosphineF2_dimer_mol1.chk"
 Charge =  0 Multiplicity = 1

                         Standard orientation:
 ---------------------------------------------------------------------
 Center     Atomic      Atomic             Coordinates (Angstroms)
 Number     Number       Type             X           Y           Z
 ---------------------------------------------------------------------
      1          1           0        1.170285    1.629016   -0.027337
      2          1           0        1.727058    0.930382   -1.554187
      3          1           0        2.909106    1.322989   -0.296137
      4          1           0        1.846914   -0.477736    1.428499
      5          6           0        1.900509    0.967342   -0.482245
      6         16           0        1.690153   -0.738340    0.121930
      7         15           0       -1.024302   -0.217168   -0.295502
      8          9           0       -0.696801    0.967982    0.735289
      9          9           0       -2.624737   -0.174049   -0.158500
     10          1           0       -0.840488   -1.283142    0.633175
 ---------------------------------------------------------------------

 SCF Done:  E(RHF) =  -979.305607623     A.U. after    2 cycles

 The electronic state is 1-A.
 Alpha  occ. eigenvalues -- -105.28204 -75.70135 -29.28135 -29.26930 -13.15755
 Alpha  occ. eigenvalues --  -13.09783 -13.08934 -11.40544  -8.04211  -2.87375
 Alpha  occ. eigenvalues --   -1.62126  -1.58521  -1.51733  -1.20507  -0.96147
 Alpha  occ. eigenvalues --   -0.89549  -0.62896  -0.61142  -0.54544  -0.51060
 Alpha  occ. eigenvalues --   -0.46653  -0.41639  -0.38775  -0.35774  -0.33569
 Alpha  occ. eigenvalues --   -0.28902  -0.25670  -0.23169  -0.18700  -0.00877
 Alpha virt. eigenvalues --    0.04032   0.04288   0.06248   0.07044   0.08099
 Alpha virt. eigenvalues --    0.09491   0.10600   0.12005   0.12956   0.14613
 Alpha virt. eigenvalues --    0.15279   0.15833   0.16451   0.16771   0.19658

 Mulliken charges:
               1
     1  H    1.093621
     2  H    0.812155
     3  H    1.062417
     4  H    1.247558
     5  C   -3.820439
     6  S   -1.230058
     7  P    2.284052
     8  F   -0.330187
     9  F   -0.021955
    10  H   -1.097165
 Sum of Mulliken charges =  -0.00000

 Dipole moment (field-independent basis, Debye):
    X=             -7.9166    Y=              0.0651    Z=              2.6301  Tot=              8.3423

 Test job not archived.
 1\1\GINC-SE014\SP\RHF\Aug-CC-pVDZ\C1H5F2P1S1\OHZDE\09-Apr-2025\0\\#t h
 f aug-cc-pvdz iop(5/13=1,5/36=2,99/5=2) pseudo=read geom=check guess=(
 read,tcheck) scf=(maxcycle=1)\\title\\0,1\H,0,-1.72434823,-0.02735536,
 -1.47402619\H,0,-1.29643549,-1.41515971,-2.4840979\H,0,-1.57230153,0.1
 6002765,-3.24353895\H,0,0.52779021,1.28305094,-1.94983564\C,0,-1.18500
 823,-0.34129171,-2.36202164\S,0,0.60124692,-0.03772908,-2.17289215\P,0
 ,0.19694585,-1.12222001,0.37162229\F,0,-0.84065869,0.09899271,0.451513
 \F,0,0.27606689,-1.42975603,1.9467995\H,0,1.37499157,-0.32015371,0.333

 Normal termination of Gaussian 16 at Wed Apr  9 19:43:55 2025.
