 Gaussian 16, Revision C.01,

 ----------------------------------------------------------------------
 #t hf aug-cc-pvdz symm=none int=(grid=ultrafine) guess=(read,tcheck) s
 table=(opt,rrhf)
 ----------------------------------------------------------------------
 -----
 title
 -----
 Symbolic Z-matrix:
 Charge =  0 Multiplicity = 1

 SCF Done:  E(RHF) =  -532.960587784     A.U. after   13 cycles
 Normal termination of Gaussian 16 at Wed Apr  9 19:34:57 2025.
 Gaussian 16:  ES64L-G16RevC.01  3-Jul-2019

 ----------------------------------------------------------------------
 #t hf aug-cc-pvdz iop(5/13=1,5/36=2,99/5=2) pseudo=read geom=check gue
 ss=(read,tcheck) scf=(maxcycle=1)
 ----------------------------------------------------------------------
 -----
 title
 -----
 Structure from the checkpoint file:  "HB300SPXx10_1041_4.08_0.80_ammonia_dimethylsulfide_dimer_mol1.chk"
 Charge =  0 Multiplicity = 1

                         Standard orientation:
 ---------------------------------------------------------------------
 Center     Atomic      Atomic             Coordinates (Angstroms)
 Number     Number       Type             X           Y           Z
 ---------------------------------------------------------------------
      1          7           0        2.540506   -0.303266    0.148061
      2          1           0        3.138465   -0.367294    0.962050
      3          1           0        1.654661   -0.736172    0.385215
      4          1           0        2.962570   -0.868250   -0.577961
      5          1           0       -0.099898    1.630297    1.026241
      6          1           0       -0.553548    2.025915   -0.650401
      7          1           0        1.094477    1.467116   -0.268442
      8          1           0       -2.482950   -1.377019    0.194012
      9          1           0       -2.718836    0.312923   -0.277404
     10          1           0       -2.135490   -0.086390    1.356293
     11          6           0        0.041120    1.366849   -0.020708
     12         16           0       -0.393713   -0.367694   -0.305671
     13          6           0       -2.098384   -0.366042    0.304826
 ---------------------------------------------------------------------

 SCF Done:  E(RHF) =  -533.904777903     A.U. after    2 cycles

 The electronic state is 1-A.
 Alpha  occ. eigenvalues --  -75.66566 -15.72662 -13.12039 -13.07649 -13.01874
 Alpha  occ. eigenvalues --  -11.38939 -11.37595  -8.00794  -1.25125  -1.21176
 Alpha  occ. eigenvalues --   -1.02285  -0.87702  -0.62886  -0.60122  -0.59460
 Alpha  occ. eigenvalues --   -0.58745  -0.56392  -0.56039  -0.43641  -0.37842
 Alpha  occ. eigenvalues --   -0.35947  -0.21828
 Alpha virt. eigenvalues --    0.03239   0.04091   0.04584   0.05354   0.07029
 Alpha virt. eigenvalues --    0.07353   0.08014   0.08061   0.09241   0.11311
 Alpha virt. eigenvalues --    0.13209   0.13987   0.15691   0.16006   0.17323

 Mulliken charges:
               1
     1  N   -1.945673
     2  H    0.632629
     3  H    1.029223
     4  H    0.568502
     5  H    1.431414
     6  H    1.359949
     7  H    1.415091
     8  H    1.384600
     9  H    1.390922
    10  H    1.409736
    11  C   -4.633828
    12  S    0.736820
    13  C   -4.779385
 Sum of Mulliken charges =  -0.00000

 Dipole moment (field-independent basis, Debye):
    X=              0.3334    Y=             -1.1025    Z=              0.1949  Tot=              1.1682

 Test job not archived.
 1\1\GINC-SE114\SP\RHF\Aug-CC-pVDZ\C2H9N1S1\OHZDE\09-Apr-2025\0\\#t hf
 aug-cc-pvdz iop(5/13=1,5/36=2,99/5=2) pseudo=read geom=check guess=(re
 ad,tcheck) scf=(maxcycle=1)\\title\\0,1\N,0,-1.73355141,-2.37393966,0.
 81983189\H,0,-2.47172211,-2.47256241,1.50511242\H,0,-1.77953232,-1.428
 67287,0.45551723\H,0,-1.951459,-2.99867579,0.05388488\H,0,0.38419346,-
 0.00677464,2.00020592\H,0,1.75126352,-0.51180312,0.9757525\H,0,0.41363
 764,-1.63813849,1.31672504\H,0,-0.30961925,2.11682651,-1.22848307\H,0,
 1.27090226,1.80544493,-0.49447046\H,0,-0.13390921,2.17915062,0.5329337

 Normal termination of Gaussian 16 at Wed Apr  9 19:35:00 2025.
