 Gaussian 16, Revision C.01,

 ----------------------------------------------------------------------
 #t hf aug-cc-pvdz symm=none int=(grid=ultrafine) guess=(read,tcheck) s
 table=(opt,rrhf)
 ----------------------------------------------------------------------
 -----
 title
 -----
 Symbolic Z-matrix:
 Charge =  0 Multiplicity = 1

 SCF Done:  E(RHF) =  -1121.34282099     A.U. after   13 cycles
 Normal termination of Gaussian 16 at Wed Apr  9 19:37:34 2025.
 Gaussian 16:  ES64L-G16RevC.01  3-Jul-2019

 ----------------------------------------------------------------------
 #t hf aug-cc-pvdz iop(5/13=1,5/36=2,99/5=2) pseudo=read geom=check gue
 ss=(read,tcheck) scf=(maxcycle=1)
 ----------------------------------------------------------------------
 -----
 title
 -----
 Structure from the checkpoint file:  "HB300SPXx10_1094_4.13_0.95_Nmethylacetamide_dimethyldisulfide_dimer_mol1.chk"
 Charge =  0 Multiplicity = 1

                         Standard orientation:
 ---------------------------------------------------------------------
 Center     Atomic      Atomic             Coordinates (Angstroms)
 Number     Number       Type             X           Y           Z
 ---------------------------------------------------------------------
      1          6           0       -1.721488    1.679239   -0.758828
      2          1           0       -1.059937    1.504706   -1.607387
      3          1           0       -1.148106    2.141266    0.042528
      4          1           0       -2.510009    2.353739   -1.081106
      5          6           0       -2.342173    0.356092   -0.355393
      6          8           0       -3.259201   -0.141563   -0.986458
      7          7           0       -1.795098   -0.224338    0.744628
      8          1           0       -0.961251    0.187511    1.129931
      9          6           0       -2.160593   -1.557097    1.177405
     10          1           0       -3.167619   -1.766435    0.830374
     11          1           0       -1.486972   -2.312063    0.766382
     12          1           0       -2.133383   -1.615143    2.263868
     13          1           0        2.719827   -2.182956   -1.750016
     14          1           0        3.310718   -1.928658   -0.093433
     15          1           0        3.492158   -0.646099   -1.320975
     16          1           0        1.164143    2.321425   -0.469388
     17          1           0        2.898345    1.921562   -0.354638
     18          1           0        2.088713    2.750121    0.987833
     19          6           0        2.858531   -1.449742   -0.956671
     20         16           0        1.194593   -0.837056   -0.545859
     21         16           0        1.544894    0.444527    1.016380
     22          6           0        1.965869    2.013900    0.194646
 ---------------------------------------------------------------------

 SCF Done:  E(RHF) =  -1123.36762997     A.U. after    2 cycles

 The electronic state is 1-A.
 Alpha  occ. eigenvalues --  -75.71512 -75.71108 -21.00067 -15.74081 -13.17465
 Alpha  occ. eigenvalues --  -13.13998 -13.12240 -13.10763 -13.10000 -13.05696
 Alpha  occ. eigenvalues --  -11.48272 -11.41472 -11.40883 -11.38229 -11.38013
 Alpha  occ. eigenvalues --   -8.05532  -8.05145  -1.68452  -1.37556  -1.27861
 Alpha  occ. eigenvalues --   -1.14055  -1.09891  -0.99629  -0.97610  -0.88209
 Alpha  occ. eigenvalues --   -0.77540  -0.66806  -0.61899  -0.61577  -0.61448
 Alpha  occ. eigenvalues --   -0.60442  -0.59977  -0.59618  -0.57049  -0.53658
 Alpha  occ. eigenvalues --   -0.50894  -0.48701  -0.45735  -0.45235  -0.44264
 Alpha  occ. eigenvalues --   -0.35008  -0.29244  -0.27026  -0.26681  -0.25062
 Alpha virt. eigenvalues --    0.02154   0.02592   0.03759   0.04177   0.06123
 Alpha virt. eigenvalues --    0.06352   0.06911   0.07414   0.07739   0.08149
 Alpha virt. eigenvalues --    0.08265   0.08423   0.09010   0.10265   0.10851

 Mulliken charges:
               1
     1  C   -4.754423
     2  H    1.434052
     3  H    1.613161
     4  H    1.134997
     5  C    5.097500
     6  O   -3.445902
     7  N   -2.393693
     8  H    1.189568
     9  C   -3.555080
    10  H    1.422053
    11  H    1.441257
    12  H    1.379710
    13  H    1.387681
    14  H    1.494621
    15  H    1.453590
    16  H    1.765969
    17  H    1.519032
    18  H    1.431882
    19  C   -5.570235
    20  S    1.171667
    21  S   -0.416656
    22  C   -4.800753
 Sum of Mulliken charges =   0.00000

 Dipole moment (field-independent basis, Debye):
    X=              2.5619    Y=             -0.2964    Z=              1.5201  Tot=              2.9936

 Test job not archived.
 1\1\GINC-SE098\SP\RHF\Aug-CC-pVDZ\C5H13N1O1S2\OHZDE\09-Apr-2025\0\\#t
 hf aug-cc-pvdz iop(5/13=1,5/36=2,99/5=2) pseudo=read geom=check guess=
 (read,tcheck) scf=(maxcycle=1)\\title\\0,1\C,0,-1.31055971,-0.36190707
 ,2.17525478\H,0,-0.76310857,0.57466921,2.28149083\H,0,-0.59510431,-1.1
 7658722,2.08130356\H,0,-1.91110445,-0.50300543,3.06969011\C,0,-2.23351
 851,-0.24400233,0.97818704\O,0,-3.28055753,0.37845097,1.03390772\N,0,-
 1.80028089,-0.8717422,-0.1463058\H,0,-0.86873727,-1.25332097,-0.144399
 63\C,0,-2.47826303,-0.73306099,-1.41840567\H,0,-3.52176476,-0.50262299

 Normal termination of Gaussian 16 at Wed Apr  9 19:37:47 2025.
