 Gaussian 16, Revision C.01,

 ----------------------------------------------------------------------
 #t hf aug-cc-pvdz symm=none int=(grid=ultrafine) guess=(read,tcheck) s
 table=(opt,rrhf)
 ----------------------------------------------------------------------
 -----
 title
 -----
 Symbolic Z-matrix:
 Charge =  0 Multiplicity = 1

 SCF Done:  E(RHF) =  -969.532005094     A.U. after   13 cycles
 Normal termination of Gaussian 16 at Wed Apr  9 19:36:25 2025.
 Gaussian 16:  ES64L-G16RevC.01  3-Jul-2019

 ----------------------------------------------------------------------
 #t hf aug-cc-pvdz iop(5/13=1,5/36=2,99/5=2) pseudo=read geom=check gue
 ss=(read,tcheck) scf=(maxcycle=1)
 ----------------------------------------------------------------------
 -----
 title
 -----
 Structure from the checkpoint file:  "HB300SPXx10_1064_4.10_0.95_methylamine_dimethyldisulfide_dimer_mol1.chk"
 Charge =  0 Multiplicity = 1

                         Standard orientation:
 ---------------------------------------------------------------------
 Center     Atomic      Atomic             Coordinates (Angstroms)
 Number     Number       Type             X           Y           Z
 ---------------------------------------------------------------------
      1          7           0        2.139468    0.931586   -0.007338
      2          1           0        2.315748    1.880991   -0.307924
      3          1           0        1.434324    0.550553   -0.626921
      4          6           0        3.364480    0.134368   -0.066627
      5          1           0        3.149443   -0.878720    0.271621
      6          1           0        3.821964    0.065134   -1.059986
      7          1           0        4.103177    0.552933    0.615883
      8          1           0       -1.826147    2.559741    0.643226
      9          1           0       -0.821888    2.192993   -0.774284
     10          1           0       -0.261638    1.741844    0.857634
     11          1           0       -0.497574   -2.021673    1.565740
     12          1           0        0.770294   -0.782419    1.314242
     13          1           0        0.912897   -2.378645    0.546509
     14          6           0       -1.126466    1.846356    0.209514
     15         16           0       -2.036579    0.274240    0.077081
     16         16           0       -0.639091   -1.041368   -0.642037
     17          6           0        0.217627   -1.602355    0.864602
 ---------------------------------------------------------------------

 SCF Done:  E(RHF) =  -970.894401552     A.U. after    2 cycles

 The electronic state is 1-A.
 Alpha  occ. eigenvalues --  -75.69727 -75.69470 -15.72529 -13.14091 -13.12113
 Alpha  occ. eigenvalues --  -13.09147 -13.08579 -13.07692 -13.03233 -11.39648
 Alpha  occ. eigenvalues --  -11.39323 -11.38019  -8.03726  -8.03537  -1.31784
 Alpha  occ. eigenvalues --   -1.26016  -1.12406  -0.97821  -0.95185  -0.86391
 Alpha  occ. eigenvalues --   -0.66323  -0.59899  -0.59843  -0.58927  -0.58777
 Alpha  occ. eigenvalues --   -0.58119  -0.53459  -0.51109  -0.46692  -0.42717
 Alpha  occ. eigenvalues --   -0.35459  -0.33356  -0.24886  -0.23316
 Alpha virt. eigenvalues --    0.03237   0.03356   0.04036   0.05254   0.06444
 Alpha virt. eigenvalues --    0.06604   0.06800   0.07466   0.07688   0.09131
 Alpha virt. eigenvalues --    0.09745   0.09850   0.11383   0.12757   0.13853

 Mulliken charges:
               1
     1  N   -2.182369
     2  H    0.625977
     3  H    1.021696
     4  C   -3.275836
     5  H    1.535309
     6  H    1.327463
     7  H    1.281985
     8  H    1.340916
     9  H    1.511936
    10  H    1.685237
    11  H    1.393651
    12  H    1.816840
    13  H    1.469958
    14  C   -4.853514
    15  S    0.340480
    16  S   -0.237480
    17  C   -4.802250
 Sum of Mulliken charges =  -0.00000

 Dipole moment (field-independent basis, Debye):
    X=             -0.0548    Y=              0.0017    Z=             -1.0191  Tot=              1.0206

 Test job not archived.
 1\1\GINC-SE108\SP\RHF\Aug-CC-pVDZ\C3H11N1S2\OHZDE\09-Apr-2025\0\\#t hf
  aug-cc-pvdz iop(5/13=1,5/36=2,99/5=2) pseudo=read geom=check guess=(r
 ead,tcheck) scf=(maxcycle=1)\\title\\0,1\N,0,-0.790217,0.77789413,2.28
 472778\H,0,-1.73224372,0.61681804,2.6155392\H,0,-0.85550262,0.99181266
 ,1.29666237\C,0,-0.16836631,1.8838218,3.01270443\H,0,0.84688345,2.0289
 6517,2.64500493\H,0,-0.69345824,2.84224623,2.93178871\H,0,-0.0959132,1
 .62767695,4.06903376\H,0,-1.76356837,-2.64886345,-0.18714213\H,0,-2.29
 27501,-0.95634145,-0.0993459\H,0,-0.95996695,-1.52999282,0.93756546\H,

 Normal termination of Gaussian 16 at Wed Apr  9 19:36:31 2025.
