 Gaussian 16, Revision C.01,

 ----------------------------------------------------------------------
 #t hf aug-cc-pvdz symm=none int=(grid=ultrafine) guess=(read,tcheck) s
 table=(opt,rrhf)
 ----------------------------------------------------------------------
 -----
 title
 -----
 Symbolic Z-matrix:
 Charge =  0 Multiplicity = 1

 SCF Done:  E(RHF) =  -645.424824557     A.U. after   14 cycles
 Normal termination of Gaussian 16 at Wed Apr  9 04:10:49 2025.
 Gaussian 16:  ES64L-G16RevC.01  3-Jul-2019

 ----------------------------------------------------------------------
 #t hf aug-cc-pvdz iop(5/13=1,5/36=2,99/5=2) pseudo=read geom=check gue
 ss=(read,tcheck) scf=(maxcycle=1)
 ----------------------------------------------------------------------
 -----
 title
 -----
 Structure from the checkpoint file:  "HB300SPXx10_125_1.13_1.00_sulfane_pyridine_dimer_mol1.chk"
 Charge =  0 Multiplicity = 1

                         Standard orientation:
 ---------------------------------------------------------------------
 Center     Atomic      Atomic             Coordinates (Angstroms)
 Number     Number       Type             X           Y           Z
 ---------------------------------------------------------------------
      1          1           0        2.040360   -0.305488   -0.027445
      2          1           0        3.496096   -0.039831    1.252416
      3         16           0        3.358460    0.012086   -0.080255
      4          1           0       -3.045387   -1.819418   -0.003395
      5          1           0       -0.606613   -2.292705   -0.000745
      6          6           0       -2.750458    0.316541   -0.000141
      7          6           0       -2.333433   -1.007268   -0.001042
      8          6           0       -0.970485   -1.272927    0.000603
      9          7           0       -0.043455   -0.315799    0.003289
     10          6           0       -0.450832    0.952984    0.003944
     11          6           0       -1.790518    1.318598    0.002354
     12          1           0        0.330684    1.702916    0.005008
     13          1           0       -2.068975    2.362079    0.002649
     14          1           0       -3.802990    0.562098   -0.001728
 ---------------------------------------------------------------------

 SCF Done:  E(RHF) =  -646.830872934     A.U. after    2 cycles

 The electronic state is 1-A.
 Alpha  occ. eigenvalues --  -75.67406 -15.74773 -13.13257 -13.07233 -12.99486
 Alpha  occ. eigenvalues --  -11.49585 -11.45791 -11.44375 -11.41865 -11.38769
 Alpha  occ. eigenvalues --   -8.01140  -1.46103  -1.20034  -1.12426  -1.08579
 Alpha  occ. eigenvalues --   -0.89882  -0.89751  -0.74774  -0.66517  -0.61230
 Alpha  occ. eigenvalues --   -0.60131  -0.57594  -0.55176  -0.51878  -0.48311
 Alpha  occ. eigenvalues --   -0.42352  -0.38009  -0.35032  -0.34978  -0.23781
 Alpha virt. eigenvalues --    0.02577   0.04621   0.04912   0.05086   0.05640
 Alpha virt. eigenvalues --    0.06871   0.07800   0.09751   0.10371   0.10520
 Alpha virt. eigenvalues --    0.11939   0.12717   0.13286   0.13602   0.13727

 Mulliken charges:
               1
     1  H    1.540318
     2  H    0.986543
     3  S   -2.618824
     4  H    1.451522
     5  H    1.611363
     6  C   -0.025846
     7  C   -0.873390
     8  C   -1.330414
     9  N   -3.281672
    10  C   -1.541052
    11  C   -0.580540
    12  H    1.706261
    13  H    1.421949
    14  H    1.533781
 Sum of Mulliken charges =  -0.00000

 Dipole moment (field-independent basis, Debye):
    X=             -2.3385    Y=              0.5015    Z=             -0.8747  Tot=              2.5466

 Test job not archived.
 1\1\GINC-SE159\SP\RHF\Aug-CC-pVDZ\C5H7N1S1\OHZDE\09-Apr-2025\0\\#t hf
 aug-cc-pvdz iop(5/13=1,5/36=2,99/5=2) pseudo=read geom=check guess=(re
 ad,tcheck) scf=(maxcycle=1)\\title\\0,1\H,0,1.25021154,1.5960457,0.136
 91261\H,0,3.15091491,1.84193998,0.53016902\S,0,2.02337536,2.53859467,0
 .73260516\H,0,-1.86518653,-1.85840059,-2.41621818\H,0,-0.32680417,0.09
 124999,-2.35403512\C,0,-1.73790547,-2.17632075,-0.28735921\C,0,-1.4413
 0545,-1.52934414,-1.47892562\C,0,-0.5813956,-0.43956024,-1.44531306\N,
 0,-0.02696375,0.0143895,-0.32191621\C,0,-0.31619852,-0.61134171,0.8185

 Normal termination of Gaussian 16 at Wed Apr  9 04:10:53 2025.
