 Gaussian 16, Revision C.01,

 ----------------------------------------------------------------------
 #t hf aug-cc-pvdz symm=none int=(grid=ultrafine) guess=(read,tcheck) s
 table=(opt,rrhf)
 ----------------------------------------------------------------------
 -----
 title
 -----
 Symbolic Z-matrix:
 Charge =  0 Multiplicity = 1

 SCF Done:  E(RHF) =  -571.982894375     A.U. after   12 cycles
 Normal termination of Gaussian 16 at Wed Apr  9 04:10:42 2025.
 Gaussian 16:  ES64L-G16RevC.01  3-Jul-2019

 ----------------------------------------------------------------------
 #t hf aug-cc-pvdz iop(5/13=1,5/36=2,99/5=2) pseudo=read geom=check gue
 ss=(read,tcheck) scf=(maxcycle=1)
 ----------------------------------------------------------------------
 -----
 title
 -----
 Structure from the checkpoint file:  "HB300SPXx10_132_1.14_0.85_sulfane_trimethylamine_dimer_mol1.chk"
 Charge =  0 Multiplicity = 1

                         Standard orientation:
 ---------------------------------------------------------------------
 Center     Atomic      Atomic             Coordinates (Angstroms)
 Number     Number       Type             X           Y           Z
 ---------------------------------------------------------------------
      1          1           0       -0.876284    0.029902    0.000000
      2          1           0       -2.501555   -1.079564    0.000000
      3         16           0       -2.231879    0.233641    0.000000
      4          1           0        2.303987   -0.823800    1.303193
      5          1           0        0.809107   -0.263750    2.080506
      6          1           0        0.820557   -1.791622    1.197590
      7          1           0        0.820557   -1.791622   -1.197590
      8          1           0        2.303987   -0.823800   -1.303193
      9          1           0        0.809107   -0.263750   -2.080506
     10          1           0        2.303775    1.421250    0.000000
     11          1           0        0.814983    1.813459   -0.882789
     12          6           0        1.208796   -0.774285    1.205875
     13          7           0        0.789791   -0.079806    0.000000
     14          6           0        1.208796   -0.774285   -1.205875
     15          6           0        1.208796    1.311941    0.000000
     16          1           0        0.814983    1.813459    0.882789
 ---------------------------------------------------------------------

 SCF Done:  E(RHF) =  -573.120173933     A.U. after    2 cycles

 The electronic state is 1-A'.
 Alpha  occ. eigenvalues --  -75.65261 -15.72439 -13.12588 -13.07487 -12.98321
 Alpha  occ. eigenvalues --  -11.39635 -11.39610 -11.38577  -7.99144  -1.44989
 Alpha  occ. eigenvalues --   -1.07477  -1.04763  -1.04762  -0.85637  -0.68506
 Alpha  occ. eigenvalues --   -0.64395  -0.64375  -0.56061  -0.56026  -0.52665
 Alpha  occ. eigenvalues --   -0.52425  -0.49433  -0.49411  -0.42704  -0.27179
 Alpha  occ. eigenvalues --   -0.23068
 Alpha virt. eigenvalues --    0.02964   0.04852   0.05278   0.05397   0.05977
 Alpha virt. eigenvalues --    0.06271   0.06462   0.06979   0.06986   0.08957
 Alpha virt. eigenvalues --    0.09703   0.12173   0.13565   0.13825   0.14015

 Mulliken charges:
               1
     1  H    1.174420
     2  H    0.930345
     3  S   -2.633050
     4  H    1.245354
     5  H    1.299850
     6  H    1.299719
     7  H    1.299719
     8  H    1.245354
     9  H    1.299850
    10  H    1.227646
    11  H    1.255993
    12  C   -3.761661
    13  N    0.399253
    14  C   -3.761661
    15  C   -3.777125
    16  H    1.255993
 Sum of Mulliken charges =   0.00000

 Dipole moment (field-independent basis, Debye):
    X=              2.0983    Y=              0.8056    Z=              0.0000  Tot=              2.2477

 Test job not archived.
 1\1\GINC-SE396\SP\RHF\Aug-CC-pVDZ\C3H11N1S1\OHZDE\09-Apr-2025\0\\#t hf
  aug-cc-pvdz iop(5/13=1,5/36=2,99/5=2) pseudo=read geom=check guess=(r
 ead,tcheck) scf=(maxcycle=1)\\title\\0,1\H,0,0.06719299,0.97177334,0.\
 H,0,1.32304535,2.48678341,0.\S,0,-0.00955285,2.34044335,0.\H,0,0.62133
 443,-2.2741258,-1.30319342\H,0,0.20278049,-0.73362686,-2.08050641\H,0,
 1.72296174,-0.88716378,-1.19759028\H,0,1.72296174,-0.88716378,1.197590
 28\H,0,0.62133443,-2.2741258,1.30319342\H,0,0.20278049,-0.73362686,2.0
 8050641\H,0,-1.61395905,-2.06505937,0.\H,0,-1.86596709,-0.546237,0.882

 Normal termination of Gaussian 16 at Wed Apr  9 04:10:47 2025.
