 Gaussian 16, Revision C.01,

 ----------------------------------------------------------------------
 #t hf aug-cc-pvdz symm=none int=(grid=ultrafine) guess=(read,tcheck) s
 table=(opt,rrhf)
 ----------------------------------------------------------------------
 -----
 title
 -----
 Symbolic Z-matrix:
 Charge =  0 Multiplicity = 1

 SCF Done:  E(RHF) =  -1091.85399278     A.U. after   14 cycles
 Normal termination of Gaussian 16 at Wed Apr  9 19:42:19 2025.
 Gaussian 16:  ES64L-G16RevC.01  3-Jul-2019

 ----------------------------------------------------------------------
 #t hf aug-cc-pvdz iop(5/13=1,5/36=2,99/5=2) pseudo=read geom=check gue
 ss=(read,tcheck) scf=(maxcycle=1)
 ----------------------------------------------------------------------
 -----
 title
 -----
 Structure from the checkpoint file:  "HB300SPXx10_1406_5.03_1.05_dimethylsulfoxide_phosphineF2_dimer_mol1.chk"
 Charge =  0 Multiplicity = 1

                         Standard orientation:
 ---------------------------------------------------------------------
 Center     Atomic      Atomic             Coordinates (Angstroms)
 Number     Number       Type             X           Y           Z
 ---------------------------------------------------------------------
      1          1           0        2.172244    1.672890   -1.450251
      2          1           0        2.959343    1.744183    0.144785
      3          1           0        1.168783    1.836302    0.016512
      4          1           0        1.582833   -1.584934    1.683947
      5          1           0        0.895734    0.059552    1.776538
      6          6           0        2.077834    1.411162   -0.399809
      7         16           0        1.981653   -0.395918   -0.321174
      8          8           0        0.685649   -0.787246   -0.958985
      9          6           0        1.753442   -0.533207    1.470856
     10          1           0        2.661912   -0.197052    1.966853
     11         15           0       -1.884434   -0.382383   -0.098567
     12          9           0       -3.413618    0.116964    0.046957
     13          9           0       -1.207729    0.945788    0.529013
     14          1           0       -1.761506    0.004950   -1.459220
 ---------------------------------------------------------------------

 SCF Done:  E(RHF) =  -1093.70117081     A.U. after    2 cycles

 The electronic state is 1-A.
 Alpha  occ. eigenvalues -- -105.27317 -75.79189 -29.27101 -29.26137 -21.01000
 Alpha  occ. eigenvalues --  -13.34392 -13.22338 -13.17907 -11.41608 -11.40976
 Alpha  occ. eigenvalues --   -8.13610  -2.86249  -1.70464  -1.59493  -1.57113
 Alpha  occ. eigenvalues --   -1.50817  -1.21298  -1.06299  -0.89965  -0.87417
 Alpha  occ. eigenvalues --   -0.64428  -0.63081  -0.61543  -0.60050  -0.54780
 Alpha  occ. eigenvalues --   -0.50872  -0.49206  -0.44976  -0.40085  -0.38438
 Alpha  occ. eigenvalues --   -0.35097  -0.33935  -0.32276  -0.28552  -0.24376
 Alpha  occ. eigenvalues --   -0.23291  -0.18138   0.01711
 Alpha virt. eigenvalues --    0.02997   0.04100   0.05505   0.06415   0.07101
 Alpha virt. eigenvalues --    0.07718   0.08157   0.08747   0.10778   0.12191
 Alpha virt. eigenvalues --    0.12343   0.13091   0.14095   0.15399   0.15746

 Mulliken charges:
               1
     1  H    1.469289
     2  H    1.272350
     3  H    1.331926
     4  H    0.500415
     5  H    1.250502
     6  C   -4.373391
     7  S    3.247943
     8  O   -2.155098
     9  C   -4.042535
    10  H    1.192386
    11  P    2.154170
    12  F   -0.124705
    13  F   -0.591291
    14  H   -1.131962
 Sum of Mulliken charges =  -0.00000

 Dipole moment (field-independent basis, Debye):
    X=             -3.3368    Y=              5.9687    Z=             -3.3462  Tot=              7.6130

 Test job not archived.
 1\1\GINC-SE054\SP\RHF\Aug-CC-pVDZ\C2H7F2O1P1S1\OHZDE\09-Apr-2025\0\\#t
  hf aug-cc-pvdz iop(5/13=1,5/36=2,99/5=2) pseudo=read geom=check guess
 =(read,tcheck) scf=(maxcycle=1)\\title\\0,1\H,0,1.67395499,0.82417178,
 -3.38423362\H,0,0.49124302,-0.02078366,-4.41184902\H,0,0.89589517,-0.6
 6534236,-2.78340018\H,0,-2.718683,0.46280377,-2.2188292\H,0,-1.5421980
 9,-0.87905323,-2.20106353\C,0,0.76564588,0.22768029,-3.38836814\S,0,-0
 .5351395,1.25679703,-2.66046249\O,0,-0.17783951,1.44910918,-1.22000404
 \C,0,-1.85989706,0.022286,-2.71790313\H,0,-2.10168806,-0.18449539,-3.7

 Normal termination of Gaussian 16 at Wed Apr  9 19:42:24 2025.
