 Gaussian 16, Revision C.01,

 ----------------------------------------------------------------------
 #t hf aug-cc-pvdz symm=none int=(grid=ultrafine) guess=(read,tcheck) s
 table=(opt,rrhf)
 ----------------------------------------------------------------------
 -----
 title
 -----
 Symbolic Z-matrix:
 Charge =  0 Multiplicity = 1

 SCF Done:  E(RHF) =  -591.449614834     A.U. after   14 cycles
 Normal termination of Gaussian 16 at Wed Apr  9 19:35:05 2025.
 Gaussian 16:  ES64L-G16RevC.01  3-Jul-2019

 ----------------------------------------------------------------------
 #t hf aug-cc-pvdz iop(5/13=1,5/36=2,99/5=2) pseudo=read geom=check gue
 ss=(read,tcheck) scf=(maxcycle=1)
 ----------------------------------------------------------------------
 -----
 title
 -----
 Structure from the checkpoint file:  "HB300SPXx10_1011_4.05_0.80_ethyne_thioacetone_dimer_mol1.chk"
 Charge =  0 Multiplicity = 1

                         Standard orientation:
 ---------------------------------------------------------------------
 Center     Atomic      Atomic             Coordinates (Angstroms)
 Number     Number       Type             X           Y           Z
 ---------------------------------------------------------------------
      1          6           0        0.202998   -2.579481    0.000000
      2          1           0       -0.486273   -1.764806    0.000000
      3          6           0        0.992754   -3.478582    0.000000
      4          1           0        1.687624   -4.280580    0.000000
      5          1           0       -1.110406    3.047399    0.000000
      6          1           0        0.436312    3.099682    0.874719
      7          1           0        0.436312    3.099682   -0.874719
      8          1           0        1.406729   -0.435030    0.000000
      9          1           0        1.934381    1.016999   -0.874314
     10          6           0       -0.083091    2.699887    0.000000
     11          6           0        0.000000    1.203543    0.000000
     12         16           0       -1.328973    0.264684    0.000000
     13          6           0        1.391424    0.648752    0.000000
     14          1           0        1.934381    1.016999    0.874314
 ---------------------------------------------------------------------

 SCF Done:  E(RHF) =  -592.645791855     A.U. after    2 cycles

 The electronic state is 1-A'.
 Alpha  occ. eigenvalues --  -75.66554 -13.16226 -13.07994 -12.98413 -11.48531
 Alpha  occ. eigenvalues --  -11.40783 -11.39674 -11.39158 -11.38862  -8.00968
 Alpha  occ. eigenvalues --   -1.29174  -1.08349  -1.05343  -1.04028  -0.78135
 Alpha  occ. eigenvalues --   -0.75294  -0.64867  -0.62025  -0.61666  -0.60396
 Alpha  occ. eigenvalues --   -0.55790  -0.51111  -0.42318  -0.37490  -0.37376
 Alpha  occ. eigenvalues --   -0.32905  -0.22559
 Alpha virt. eigenvalues --    0.02515   0.04226   0.05336   0.05773   0.06394
 Alpha virt. eigenvalues --    0.06644   0.07232   0.08050   0.08434   0.09304
 Alpha virt. eigenvalues --    0.10522   0.12715   0.12761   0.13812   0.14340

 Mulliken charges:
               1
     1  C   -0.603612
     2  H    1.447945
     3  C   -1.101735
     4  H    0.596862
     5  H    1.455401
     6  H    1.202945
     7  H    1.202945
     8  H    1.705846
     9  H    1.140759
    10  C   -4.617787
    11  C    0.607789
    12  S    0.531596
    13  C   -4.709712
    14  H    1.140759
 Sum of Mulliken charges =  -0.00000

 Dipole moment (field-independent basis, Debye):
    X=              0.0259    Y=              0.6438    Z=              0.0000  Tot=              0.6443

 Test job not archived.
 1\1\GINC-SE135\SP\RHF\Aug-CC-pVDZ\C5H8S1\OHZDE\09-Apr-2025\0\\#t hf au
 g-cc-pvdz iop(5/13=1,5/36=2,99/5=2) pseudo=read geom=check guess=(read
 ,tcheck) scf=(maxcycle=1)\\title\\0,1\C,0,-0.20751211,-2.93011645,0.\H
 ,0,-0.70775465,-1.98748922,0.\C,0,0.37296237,-3.97660953,0.\H,0,0.8813
 7254,-4.90804053,0.\H,0,-0.29418133,2.84736524,0.\H,0,1.22827177,2.569
 50611,0.87471889\H,0,1.22827177,2.56950611,-0.87471889\H,0,1.42474965,
 -1.0907251,0.\H,0,2.24913865,0.21586854,-0.87431367\C,0,0.63572496,2.2
 8932088,0.\C,0,0.39868284,0.80953647,0.\S,0,-1.09955789,0.17479234,0.\

 Normal termination of Gaussian 16 at Wed Apr  9 19:35:09 2025.
