 Gaussian 16, Revision C.01,

 ----------------------------------------------------------------------
 #t hf aug-cc-pvdz symm=none int=(grid=ultrafine) guess=(read,tcheck) s
 table=(opt,rrhf)
 ----------------------------------------------------------------------
 -----
 title
 -----
 Symbolic Z-matrix:
 Charge =  0 Multiplicity = 1

 SCF Done:  E(RHF) =  -609.888976483     A.U. after   13 cycles
 Normal termination of Gaussian 16 at Wed Apr  9 19:36:16 2025.
 Gaussian 16:  ES64L-G16RevC.01  3-Jul-2019

 ----------------------------------------------------------------------
 #t hf aug-cc-pvdz iop(5/13=1,5/36=2,99/5=2) pseudo=read geom=check gue
 ss=(read,tcheck) scf=(maxcycle=1)
 ----------------------------------------------------------------------
 -----
 title
 -----
 Structure from the checkpoint file:  "HB300SPXx10_1055_4.09_1.00_ammonia_tetrahydrothiophene_dimer_mol1.chk"
 Charge =  0 Multiplicity = 1

                         Standard orientation:
 ---------------------------------------------------------------------
 Center     Atomic      Atomic             Coordinates (Angstroms)
 Number     Number       Type             X           Y           Z
 ---------------------------------------------------------------------
      1          7           0       -2.815803    0.481705   -0.208917
      2          1           0       -2.189498   -0.309954   -0.089121
      3          1           0       -3.492284    0.446222    0.543341
      4          1           0       -3.327259    0.333849   -1.069910
      5          1           0        1.405355   -0.198501    1.937179
      6          1           0       -0.340154    0.040415    2.079230
      7          1           0        1.142979    2.076805    1.150800
      8          1           0       -0.260870    0.006134   -1.811047
      9          1           0       -0.379487    1.685273    0.342667
     10          1           0        1.284353   -0.843962   -1.959905
     11          1           0        1.335245    1.781792   -1.428814
     12          1           0        2.393761    0.722138   -0.499359
     13         16           0        0.216501   -1.326313    0.156442
     14          6           0        0.494385    0.019159    1.383227
     15          6           0        0.616630    1.312370    0.578596
     16          6           0        1.350241    0.958630   -0.714131
     17          6           0        0.651153   -0.272014   -1.286975
 ---------------------------------------------------------------------

 SCF Done:  E(RHF) =  -611.209388640     A.U. after    2 cycles

 The electronic state is 1-A.
 Alpha  occ. eigenvalues --  -75.66078 -15.73451 -13.10250 -13.09165 -13.06937
 Alpha  occ. eigenvalues --  -11.43002 -11.42059 -11.38501 -11.35545  -8.00170
 Alpha  occ. eigenvalues --   -1.32125  -1.24096  -1.06734  -1.06672  -0.84114
 Alpha  occ. eigenvalues --   -0.82514  -0.65914  -0.64913  -0.60718  -0.60552
 Alpha  occ. eigenvalues --   -0.60064  -0.53596  -0.48358  -0.46463  -0.44905
 Alpha  occ. eigenvalues --   -0.41610  -0.38083  -0.34385  -0.21900
 Alpha virt. eigenvalues --    0.03788   0.04600   0.04752   0.05803   0.06063
 Alpha virt. eigenvalues --    0.06242   0.06430   0.07071   0.07499   0.08839
 Alpha virt. eigenvalues --    0.09233   0.11263   0.13082   0.14287   0.14781

 Mulliken charges:
               1
     1  N   -2.050308
     2  H    1.161829
     3  H    0.576600
     4  H    0.558813
     5  H    1.384475
     6  H    1.433873
     7  H    1.276115
     8  H    1.573553
     9  H    1.715526
    10  H    1.357773
    11  H    1.285630
    12  H    1.407422
    13  S    0.659951
    14  C   -3.376802
    15  C   -2.863790
    16  C   -2.670541
    17  C   -3.430120
 Sum of Mulliken charges =  -0.00000

 Dipole moment (field-independent basis, Debye):
    X=             -0.3166    Y=             -0.6261    Z=             -0.0018  Tot=              0.7016

 Test job not archived.
 1\1\GINC-SE041\SP\RHF\Aug-CC-pVDZ\C4H11N1S1\OHZDE\09-Apr-2025\0\\#t hf
  aug-cc-pvdz iop(5/13=1,5/36=2,99/5=2) pseudo=read geom=check guess=(r
 ead,tcheck) scf=(maxcycle=1)\\title\\0,1\N,0,-1.82627315,2.2398073,0.1
 9813908\H,0,-1.3275361,1.71497926,-0.51540753\H,0,-2.80551666,2.240204
 76,-0.05849198\H,0,-1.50884454,3.19950412,0.14356214\H,0,-0.45172795,-
 2.31401052,-0.31171803\H,0,-1.75337897,-1.11838792,-0.32760349\H,0,-0.
 5560473,-1.65237906,2.01542851\H,0,1.11219774,1.42550944,0.34972588\H,
 0,-0.88751355,0.02945444,1.58432956\H,0,2.4212482,0.39916113,-0.254867

 Normal termination of Gaussian 16 at Wed Apr  9 19:36:22 2025.
