 Gaussian 16, Revision C.01,

 ----------------------------------------------------------------------
 #t hf aug-cc-pvdz symm=none int=(grid=ultrafine) guess=(read,tcheck) s
 table=(opt,rrhf)
 ----------------------------------------------------------------------
 -----
 title
 -----
 Symbolic Z-matrix:
 Charge =  0 Multiplicity = 1

 SCF Done:  E(RHF) =  -645.423496581     A.U. after   14 cycles
 Normal termination of Gaussian 16 at Wed Apr  9 04:10:49 2025.
 Gaussian 16:  ES64L-G16RevC.01  3-Jul-2019

 ----------------------------------------------------------------------
 #t hf aug-cc-pvdz iop(5/13=1,5/36=2,99/5=2) pseudo=read geom=check gue
 ss=(read,tcheck) scf=(maxcycle=1)
 ----------------------------------------------------------------------
 -----
 title
 -----
 Structure from the checkpoint file:  "HB300SPXx10_124_1.13_0.95_sulfane_pyridine_dimer_mol1.chk"
 Charge =  0 Multiplicity = 1

                         Standard orientation:
 ---------------------------------------------------------------------
 Center     Atomic      Atomic             Coordinates (Angstroms)
 Number     Number       Type             X           Y           Z
 ---------------------------------------------------------------------
      1          1           0        1.967435   -0.305745   -0.026964
      2          1           0        3.423543   -0.040017    1.252459
      3         16           0        3.285502    0.011898   -0.080171
      4          1           0       -3.014035   -1.819422   -0.002954
      5          1           0       -0.575235   -2.292580   -0.001042
      6          6           0       -2.719217    0.316552    0.000219
      7          6           0       -2.302123   -1.007235   -0.000813
      8          6           0       -0.939161   -1.272822    0.000420
      9          7           0       -0.012181   -0.315645    0.002830
     10          6           0       -0.419624    0.953117    0.003613
     11          6           0       -1.759330    1.318660    0.002429
     12          1           0        0.361853    1.703089    0.004445
     13          1           0       -2.037841    2.362126    0.002813
     14          1           0       -3.771762    0.562054   -0.001049
 ---------------------------------------------------------------------

 SCF Done:  E(RHF) =  -646.830651384     A.U. after    2 cycles

 The electronic state is 1-A.
 Alpha  occ. eigenvalues --  -75.66980 -15.74890 -13.12936 -13.07195 -12.99196
 Alpha  occ. eigenvalues --  -11.49738 -11.45920 -11.44522 -11.41986 -11.38889
 Alpha  occ. eigenvalues --   -8.00743  -1.46305  -1.20212  -1.12556  -1.08301
 Alpha  occ. eigenvalues --   -0.90028  -0.89885  -0.74945  -0.66651  -0.61375
 Alpha  occ. eigenvalues --   -0.60268  -0.58100  -0.55327  -0.51591  -0.48421
 Alpha  occ. eigenvalues --   -0.42556  -0.38159  -0.35142  -0.34295  -0.23594
 Alpha virt. eigenvalues --    0.02547   0.04656   0.04896   0.05119   0.05610
 Alpha virt. eigenvalues --    0.06877   0.07853   0.09670   0.10290   0.10450
 Alpha virt. eigenvalues --    0.11951   0.12747   0.13284   0.13563   0.13720

 Mulliken charges:
               1
     1  H    1.553483
     2  H    0.985197
     3  S   -2.649593
     4  H    1.452125
     5  H    1.610419
     6  C   -0.025600
     7  C   -0.872303
     8  C   -1.358786
     9  N   -3.260948
    10  C   -1.525767
    11  C   -0.592995
    12  H    1.729152
    13  H    1.419081
    14  H    1.536534
 Sum of Mulliken charges =   0.00000

 Dipole moment (field-independent basis, Debye):
    X=             -2.5322    Y=              0.4775    Z=             -0.8740  Tot=              2.7210

 Test job not archived.
 1\1\GINC-SE054\SP\RHF\Aug-CC-pVDZ\C5H7N1S1\OHZDE\09-Apr-2025\0\\#t hf
 aug-cc-pvdz iop(5/13=1,5/36=2,99/5=2) pseudo=read geom=check guess=(re
 ad,tcheck) scf=(maxcycle=1)\\title\\0,1\H,0,1.25021154,1.5960457,0.136
 91261\H,0,3.15091491,1.84193998,0.53016902\S,0,2.02337536,2.53859467,0
 .73260516\H,0,-1.80132776,-1.77931778,-2.39327674\H,0,-0.26294541,0.17
 03328,-2.33109368\C,0,-1.67404671,-2.09723794,-0.26441777\C,0,-1.37744
 669,-1.45026133,-1.45598418\C,0,-0.51753684,-0.36047743,-1.42237162\N,
 0,0.03689502,0.09347231,-0.29897477\C,0,-0.25233976,-0.5322589,0.84145

 Normal termination of Gaussian 16 at Wed Apr  9 04:10:55 2025.
