 Gaussian 16, Revision C.01,

 ----------------------------------------------------------------------
 #t hf aug-cc-pvdz symm=none int=(grid=ultrafine) guess=(read,tcheck) s
 table=(opt,rrhf)
 ----------------------------------------------------------------------
 -----
 title
 -----
 Symbolic Z-matrix:
 Charge =  0 Multiplicity = 1

 SCF Done:  E(RHF) =  -648.915225546     A.U. after   12 cycles
 Normal termination of Gaussian 16 at Wed Apr  9 19:36:42 2025.
 Gaussian 16:  ES64L-G16RevC.01  3-Jul-2019

 ----------------------------------------------------------------------
 #t hf aug-cc-pvdz iop(5/13=1,5/36=2,99/5=2) pseudo=read geom=check gue
 ss=(read,tcheck) scf=(maxcycle=1)
 ----------------------------------------------------------------------
 -----
 title
 -----
 Structure from the checkpoint file:  "HB300SPXx10_1088_4.12_1.25_methylamine_tetrahydrothiophene_dimer_mol1.chk"
 Charge =  0 Multiplicity = 1

                         Standard orientation:
 ---------------------------------------------------------------------
 Center     Atomic      Atomic             Coordinates (Angstroms)
 Number     Number       Type             X           Y           Z
 ---------------------------------------------------------------------
      1          7           0        2.785700   -0.250514    0.792889
      2          1           0        2.024726   -0.835460    0.463796
      3          1           0        3.372614   -0.826393    1.381481
      4          6           0        3.549157    0.275533   -0.337441
      5          1           0        4.374307    0.884331    0.030906
      6          1           0        3.964134   -0.485028   -1.009222
      7          1           0        2.909423    0.928225   -0.931587
      8          1           0       -1.806913    0.523702   -1.968878
      9          1           0       -0.049376    0.351098   -1.974539
     10          1           0       -1.109348    2.426792   -0.642827
     11          1           0       -0.555005   -0.538378    1.791010
     12          1           0        0.179526    1.497286    0.130061
     13          1           0       -2.260778   -0.993710    1.637884
     14          1           0       -1.651987    1.613446    1.769603
     15          1           0       -2.813571    1.087551    0.552056
     16         16           0       -1.090537   -1.234102   -0.466449
     17          6           0       -0.931001    0.379082   -1.339549
     18          6           0       -0.840445    1.445987   -0.249819
     19          6           0       -1.774651    1.002601    0.875119
     20          6           0       -1.441237   -0.458908    1.165558
 ---------------------------------------------------------------------

 SCF Done:  E(RHF) =  -650.434679393     A.U. after    2 cycles

 The electronic state is 1-A.
 Alpha  occ. eigenvalues --  -75.66026 -15.72266 -13.09993 -13.08991 -13.02316
 Alpha  occ. eigenvalues --  -11.42929 -11.42075 -11.38601 -11.37456 -11.35856
 Alpha  occ. eigenvalues --   -8.00106  -1.32301  -1.30964  -1.06765  -1.06737
 Alpha  occ. eigenvalues --   -0.94518  -0.84122  -0.82759  -0.66122  -0.65352
 Alpha  occ. eigenvalues --   -0.64974  -0.60482  -0.58983  -0.53834  -0.52998
 Alpha  occ. eigenvalues --   -0.50357  -0.48550  -0.46731  -0.45116  -0.41644
 Alpha  occ. eigenvalues --   -0.34730  -0.34355  -0.21599
 Alpha virt. eigenvalues --    0.03724   0.04310   0.04769   0.05630   0.05805
 Alpha virt. eigenvalues --    0.06017   0.06070   0.06563   0.07131   0.08002
 Alpha virt. eigenvalues --    0.08705   0.08872   0.09987   0.11408   0.13007

 Mulliken charges:
               1
     1  N   -2.189511
     2  H    0.759720
     3  H    0.621059
     4  C   -3.254099
     5  H    1.281027
     6  H    1.332846
     7  H    1.482501
     8  H    1.426015
     9  H    1.507465
    10  H    1.297606
    11  H    1.596198
    12  H    1.730919
    13  H    1.367812
    14  H    1.299160
    15  H    1.440040
    16  S    0.943769
    17  C   -3.416800
    18  C   -2.970393
    19  C   -2.774612
    20  C   -3.480722
 Sum of Mulliken charges =   0.00000

 Dipole moment (field-independent basis, Debye):
    X=              0.1425    Y=             -0.4917    Z=             -0.2827  Tot=              0.5848

 Test job not archived.
 1\1\GINC-SE029\SP\RHF\Aug-CC-pVDZ\C5H13N1S1\OHZDE\09-Apr-2025\0\\#t hf
  aug-cc-pvdz iop(5/13=1,5/36=2,99/5=2) pseudo=read geom=check guess=(r
 ead,tcheck) scf=(maxcycle=1)\\title\\0,1\N,0,-0.48023551,2.04199658,1.
 33183501\H,0,-0.98136805,1.22913012,0.98881982\H,0,-1.14375731,2.80345
 765,1.38144373\C,0,0.08991425,1.76981847,2.65020044\H,0,0.60698078,2.6
 5693888,3.01468146\H,0,-0.63523497,1.46399211,3.41346792\H,0,0.8338340
 5,0.97768014,2.5643137\H,0,0.84129425,-2.9631911,-0.25577851\H,0,0.551
 47218,-1.82058145,1.05921468\H,0,2.56952397,-1.30912205,-0.63529982\H,

 Normal termination of Gaussian 16 at Wed Apr  9 19:36:50 2025.
