 Gaussian 16, Revision C.01,

 ----------------------------------------------------------------------
 #t hf aug-cc-pvdz symm=none int=(grid=ultrafine) guess=(read,tcheck) s
 table=(opt,rrhf)
 ----------------------------------------------------------------------
 -----
 title
 -----
 Symbolic Z-matrix:
 Charge =  0 Multiplicity = 1

 SCF Done:  E(RHF) =  -1102.15502679     A.U. after   13 cycles
 Normal termination of Gaussian 16 at Wed Apr  9 19:36:42 2025.
 Gaussian 16:  ES64L-G16RevC.01  3-Jul-2019

 ----------------------------------------------------------------------
 #t hf aug-cc-pvdz iop(5/13=1,5/36=2,99/5=2) pseudo=read geom=check gue
 ss=(read,tcheck) scf=(maxcycle=1)
 ----------------------------------------------------------------------
 -----
 title
 -----
 Structure from the checkpoint file:  "HB300SPXx10_1114_4.15_0.95_aceticacid_dimethyldisulfide_dimer_mol1.chk"
 Charge =  0 Multiplicity = 1

                         Standard orientation:
 ---------------------------------------------------------------------
 Center     Atomic      Atomic             Coordinates (Angstroms)
 Number     Number       Type             X           Y           Z
 ---------------------------------------------------------------------
      1          6           0        2.794760   -0.069627   -0.040017
      2          8           0        2.460250    1.080473   -0.191775
      3          8           0        1.928041   -1.094568   -0.045729
      4          1           0        1.026503   -0.741303   -0.203372
      5          6           0        4.208293   -0.533846    0.175457
      6          1           0        4.876530    0.319766    0.194579
      7          1           0        4.277484   -1.086212    1.111506
      8          1           0        4.496206   -1.215435   -0.623955
      9          1           0       -4.668780   -0.660732    0.248757
     10          1           0       -3.933229   -0.071775   -1.257529
     11          1           0       -3.937317    0.953942    0.202835
     12          1           0       -0.405019    1.291943    1.567501
     13          1           0       -1.426478    2.350126    0.554097
     14          1           0        0.314392    2.156379    0.196816
     15          6           0       -3.863001   -0.062205   -0.173925
     16         16           0       -2.313956   -0.848394    0.369550
     17         16           0       -0.877530    0.274592   -0.572247
     18          6           0       -0.583861    1.665161    0.563809
 ---------------------------------------------------------------------

 SCF Done:  E(RHF) =  -1104.00838973     A.U. after    2 cycles

 The electronic state is 1-A.
 Alpha  occ. eigenvalues --  -75.70750 -75.70410 -21.09757 -21.04112 -13.17069
 Alpha  occ. eigenvalues --  -13.13317 -13.11983 -13.09650 -13.07881 -13.04097
 Alpha  occ. eigenvalues --  -11.51493 -11.40365 -11.39572 -11.38883  -8.04820
 Alpha  occ. eigenvalues --   -8.04460  -1.81453  -1.64141  -1.27153  -1.13078
 Alpha  occ. eigenvalues --   -1.10527  -0.98459  -0.87440  -0.79233  -0.63369
 Alpha  occ. eigenvalues --   -0.61262  -0.60597  -0.59947  -0.59803  -0.59217
 Alpha  occ. eigenvalues --   -0.58449  -0.53842  -0.49024  -0.47596  -0.44766
 Alpha  occ. eigenvalues --   -0.43379  -0.34195  -0.32628  -0.29143  -0.25474
 Alpha  occ. eigenvalues --   -0.24278
 Alpha virt. eigenvalues --    0.02602   0.03460   0.04395   0.04605   0.06506
 Alpha virt. eigenvalues --    0.06585   0.06700   0.07384   0.08197   0.08382
 Alpha virt. eigenvalues --    0.09562   0.10831   0.12006   0.12553   0.12904

 Mulliken charges:
               1
     1  C    5.601534
     2  O   -3.147533
     3  O   -3.362831
     4  H    2.070283
     5  C   -4.424307
     6  H    1.292950
     7  H    1.253494
     8  H    1.240659
     9  H    1.344314
    10  H    1.509276
    11  H    1.560614
    12  H    1.524588
    13  H    1.470852
    14  H    1.698757
    15  C   -4.835716
    16  S    0.524885
    17  S   -0.639009
    18  C   -4.682811
 Sum of Mulliken charges =   0.00000

 Dipole moment (field-independent basis, Debye):
    X=             -0.3684    Y=             -1.2344    Z=             -0.0079  Tot=              1.2882

 Test job not archived.
 1\1\GINC-SE118\SP\RHF\Aug-CC-pVDZ\C4H10O2S2\OHZDE\09-Apr-2025\0\\#t hf
  aug-cc-pvdz iop(5/13=1,5/36=2,99/5=2) pseudo=read geom=check guess=(r
 ead,tcheck) scf=(maxcycle=1)\\title\\0,1\C,0,2.51189353,-1.3688008,0.0
 1480743\O,0,1.76216303,-1.97148126,0.7444221\O,0,2.20838592,-0.1819016
 3,-0.53372859\H,0,1.31541707,0.08523139,-0.22768185\C,0,3.88111819,-1.
 83853704,-0.39087365\H,0,4.08390343,-2.80677129,0.05292751\H,0,3.94369
 33,-1.90220497,-1.47628393\H,0,4.62800978,-1.11523999,-0.06604891\H,0,
 -3.7590837,2.67586602,-0.65805119\H,0,-2.99732161,2.57248716,0.9437711

 Normal termination of Gaussian 16 at Wed Apr  9 19:36:49 2025.
