 Gaussian 16, Revision C.01,

 ----------------------------------------------------------------------
 #t hf aug-cc-pvdz symm=none int=(grid=ultrafine) guess=(read,tcheck) s
 table=(opt,rrhf)
 ----------------------------------------------------------------------
 -----
 title
 -----
 Symbolic Z-matrix:
 Charge =  0 Multiplicity = 1

 SCF Done:  E(RHF) =  -605.469342147     A.U. after   13 cycles
 Normal termination of Gaussian 16 at Wed Apr  9 19:36:50 2025.
 Gaussian 16:  ES64L-G16RevC.01  3-Jul-2019

 ----------------------------------------------------------------------
 #t hf aug-cc-pvdz iop(5/13=1,5/36=2,99/5=2) pseudo=read geom=check gue
 ss=(read,tcheck) scf=(maxcycle=1)
 ----------------------------------------------------------------------
 -----
 title
 -----
 Structure from the checkpoint file:  "HB300SPXx10_111_1.12_0.80_sulfane_methylcyanate_dimer_mol1.chk"
 Charge =  0 Multiplicity = 1

                         Standard orientation:
 ---------------------------------------------------------------------
 Center     Atomic      Atomic             Coordinates (Angstroms)
 Number     Number       Type             X           Y           Z
 ---------------------------------------------------------------------
      1          1           0        1.333829    0.854346    0.034259
      2          1           0        2.291594   -0.400149    1.168142
      3         16           0        1.966357   -0.320306   -0.130471
      4          1           0       -1.713397   -1.235844    1.311792
      5          1           0       -2.096778   -2.063719   -0.224902
      6          1           0       -0.403888   -1.604870    0.144537
      7          6           0       -1.451753   -1.343101    0.262371
      8          8           0       -1.711809   -0.079054   -0.426091
      9          6           0       -0.994327    0.913462   -0.052059
     10          7           0       -0.357444    1.826485    0.257223
 ---------------------------------------------------------------------

 SCF Done:  E(RHF) =  -606.605274340     A.U. after    2 cycles

 The electronic state is 1-A.
 Alpha  occ. eigenvalues --  -75.68785 -21.15757 -15.75774 -13.15048 -13.08939
 Alpha  occ. eigenvalues --  -13.06710 -11.49485 -11.45402  -8.02659  -1.85584
 Alpha  occ. eigenvalues --   -1.30621  -1.10836  -1.05226  -0.74084  -0.66911
 Alpha  occ. eigenvalues --   -0.65633  -0.58344  -0.56430  -0.53187  -0.50581
 Alpha  occ. eigenvalues --   -0.43752  -0.39819  -0.34426  -0.25817
 Alpha virt. eigenvalues --    0.02314   0.04448   0.05389   0.05947   0.07400
 Alpha virt. eigenvalues --    0.09192   0.10840   0.11466   0.11667   0.12426
 Alpha virt. eigenvalues --    0.13738   0.14109   0.15133   0.15195   0.16406

 Mulliken charges:
               1
     1  H    1.277755
     2  H    1.081521
     3  S   -2.634434
     4  H    1.350595
     5  H    1.292477
     6  H    1.580535
     7  C   -2.882808
     8  O   -2.704108
     9  C    4.170750
    10  N   -2.532284
 Sum of Mulliken charges =   0.00000

 Dipole moment (field-independent basis, Debye):
    X=             -1.3853    Y=             -4.1606    Z=             -1.0399  Tot=              4.5067

 Test job not archived.
 1\1\GINC-SE014\SP\RHF\Aug-CC-pVDZ\C2H5N1O1S1\OHZDE\09-Apr-2025\0\\#t h
 f aug-cc-pvdz iop(5/13=1,5/36=2,99/5=2) pseudo=read geom=check guess=(
 read,tcheck) scf=(maxcycle=1)\\title\\0,1\H,0,1.70020261,0.23216325,0.
 14198181\H,0,1.83071194,2.07603691,0.74186388\S,0,1.65222468,0.8789214
 7,1.31945248\H,0,-2.04230345,1.26916957,-0.31060509\H,0,-2.72254087,0.
 30077428,1.02852635\H,0,-1.05152296,0.93853291,1.14627873\C,0,-1.82361
 414,0.55914879,0.48267335\O,0,-1.37056868,-0.69758313,-0.11297538\C,0,
 -0.265516,-0.63874727,-0.75730756\N,0,0.73277195,-0.62044369,-1.338663

 Normal termination of Gaussian 16 at Wed Apr  9 19:36:53 2025.
