 Gaussian 16, Revision C.01,

 ----------------------------------------------------------------------
 #t hf aug-cc-pvdz symm=none int=(grid=ultrafine) guess=(read,tcheck) s
 table=(opt,rrhf)
 ----------------------------------------------------------------------
 -----
 title
 -----
 Symbolic Z-matrix:
 Charge =  0 Multiplicity = 1

 SCF Done:  E(RHF) =  -783.960083643     A.U. after   15 cycles
 Normal termination of Gaussian 16 at Wed Apr  9 19:44:58 2025.
 Gaussian 16:  ES64L-G16RevC.01  3-Jul-2019

 ----------------------------------------------------------------------
 #t hf aug-cc-pvdz iop(5/13=1,5/36=2,99/5=2) pseudo=read geom=check gue
 ss=(read,tcheck) scf=(maxcycle=1)
 ----------------------------------------------------------------------
 -----
 title
 -----
 Structure from the checkpoint file:  "HB300SPXx10_1461_5.09_0.80_nitromethane_phosphineF2_dimer_mol1.chk"
 Charge =  0 Multiplicity = 1

                         Standard orientation:
 ---------------------------------------------------------------------
 Center     Atomic      Atomic             Coordinates (Angstroms)
 Number     Number       Type             X           Y           Z
 ---------------------------------------------------------------------
      1          1           0        1.314390    1.726649   -0.083160
      2          1           0        2.535498    1.202440    1.101044
      3          1           0        2.912093    1.169493   -0.665196
      4          6           0        2.152514    1.058995    0.097798
      5          7           0        1.599288   -0.325583    0.011381
      6          8           0        1.739196   -0.929088   -1.033361
      7          8           0        1.005283   -0.745239    0.993754
      8         15           0       -1.412234   -0.181361    0.394519
      9          9           0       -2.778240   -0.065970   -0.429896
     10          9           0       -0.647064    1.076631   -0.254572
     11          1           0       -0.816657   -1.154384   -0.459857
 ---------------------------------------------------------------------

 SCF Done:  E(RHF) =  -785.875668362     A.U. after    2 cycles

 The electronic state is 1-A.
 Alpha  occ. eigenvalues -- -105.28498 -29.29060 -29.27908 -21.12304 -21.10773
 Alpha  occ. eigenvalues --  -16.01285 -11.45313  -2.87790  -2.02348  -1.71967
 Alpha  occ. eigenvalues --   -1.62635  -1.58684  -1.52313  -1.21341  -0.90454
 Alpha  occ. eigenvalues --   -0.88160  -0.73728  -0.70978  -0.68506  -0.60143
 Alpha  occ. eigenvalues --   -0.58223  -0.54976  -0.46854  -0.41199  -0.37817
 Alpha  occ. eigenvalues --   -0.36383  -0.34678  -0.34192  -0.33214  -0.27701
 Alpha  occ. eigenvalues --   -0.24632  -0.19601   0.00751
 Alpha virt. eigenvalues --    0.03451   0.05524   0.06629   0.07755   0.09450
 Alpha virt. eigenvalues --    0.10887   0.11184   0.12234   0.13499   0.14376
 Alpha virt. eigenvalues --    0.15299   0.15912   0.17492   0.18142   0.21215

 Mulliken charges:
               1
     1  H    1.044528
     2  H    1.428935
     3  H    1.306076
     4  C   -3.188482
     5  N    5.762479
     6  O   -3.020091
     7  O   -2.950687
     8  P    1.540342
     9  F   -0.173242
    10  F   -0.468748
    11  H   -1.281111
 Sum of Mulliken charges =  -0.00000

 Dipole moment (field-independent basis, Debye):
    X=              0.5358    Y=              3.8921    Z=             -4.4437  Tot=              5.9314

 Test job not archived.
 1\1\GINC-SE041\SP\RHF\Aug-CC-pVDZ\C1H4F2N1O2P1\OHZDE\09-Apr-2025\0\\#t
  hf aug-cc-pvdz iop(5/13=1,5/36=2,99/5=2) pseudo=read geom=check guess
 =(read,tcheck) scf=(maxcycle=1)\\title\\0,1\H,0,0.49481138,0.55069733,
 -2.50359179\H,0,-1.08891031,0.71291216,-3.29967626\H,0,-0.00441746,2.1
 4812453,-3.13671373\C,0,-0.34098337,1.21704881,-2.69950341\N,0,-0.9468
 7558,1.51662809,-1.36768821\O,0,-0.63929751,2.55888018,-0.82511637\O,0
 ,-1.68734525,0.66720154,-0.89420145\P,0,-0.06888667,-0.63432881,0.5917
 4542\F,0,1.05958612,-0.95697528,1.67866624\F,0,0.8991269,-0.25561437,-

 Normal termination of Gaussian 16 at Wed Apr  9 19:45:02 2025.
