 Gaussian 16, Revision C.01,

 ----------------------------------------------------------------------
 #t hf aug-cc-pvdz symm=none int=(grid=ultrafine) guess=(read,tcheck) s
 table=(opt,rrhf)
 ----------------------------------------------------------------------
 -----
 title
 -----
 Symbolic Z-matrix:
 Charge =  0 Multiplicity = 1

 SCF Done:  E(RHF) =  -630.511967109     A.U. after   14 cycles

 1\1\GINC-SE054\Stability\RHF\Aug-CC-pVDZ\C6H10S1\OHZDE\09-Apr-2025\0\\
 #t hf aug-cc-pvdz symm=none int=(grid=ultrafine) guess=(read,tcheck) s
 table=(opt,rrhf)\\title\\0,1\C,0,2.59090187,-0.04968862,0.43961338\H,0
 ,1.93323189,0.27193926,-0.33858357\C,0,3.30609004,-0.41751171,1.325807
 27\H,0,3.94715573,-0.74121457,2.10714096\H,0,0.1669805,-1.66385701,-0.
 57743483\H,0,-1.30767965,-1.71069001,-1.55291582\H,0,-1.55553125,-1.97
 023416,1.09973753\H,0,-1.87073303,1.82565069,0.17695414\H,0,-2.6525684
 3,-0.8697775,0.26766275\H,0,-0.1588805,2.01629009,0.57120417\H,0,-1.66

 Normal termination of Gaussian 16 at Wed Apr  9 19:35:28 2025.
 Gaussian 16:  ES64L-G16RevC.01  3-Jul-2019

 ----------------------------------------------------------------------
 #t hf aug-cc-pvdz iop(5/13=1,5/36=2,99/5=2) pseudo=read geom=check gue
 ss=(read,tcheck) scf=(maxcycle=1)
 ----------------------------------------------------------------------
 -----
 title
 -----
 Structure from the checkpoint file:  "HB300SPXx10_1005_4.04_1.00_ethyne_tetrahydrothiophene_dimer_mol1.chk"
 Charge =  0 Multiplicity = 1

                         Standard orientation:
 ---------------------------------------------------------------------
 Center     Atomic      Atomic             Coordinates (Angstroms)
 Number     Number       Type             X           Y           Z
 ---------------------------------------------------------------------
      1          6           0       -2.614796   -0.405524   -0.052922
      2          1           0       -1.741017   -1.018958   -0.010799
      3          6           0       -3.577714    0.303487   -0.100039
      4          1           0       -4.436684    0.925309   -0.141743
      5          1           0       -0.087146    0.034667   -1.765389
      6          1           0        1.604925   -0.370872   -2.082895
      7          1           0        1.045909    2.123004   -1.287001
      8          1           0        1.818181   -0.058553    1.875914
      9          1           0        2.395723    1.289769   -0.518518
     10          1           0        0.078671   -0.286360    2.086687
     11          1           0        0.971140    2.133379    1.317271
     12          1           0       -0.460789    1.459196    0.544377
     13         16           0        0.866886   -1.293091    0.025491
     14          6           0        0.903732   -0.042110   -1.320708
     15          6           0        1.314151    1.271754   -0.660931
     16          6           0        0.609197    1.315619    0.693928
     17          6           0        0.855581   -0.033412    1.369713
 ---------------------------------------------------------------------

 SCF Done:  E(RHF) =  -631.921883840     A.U. after    2 cycles

 The electronic state is 1-A.
 Alpha  occ. eigenvalues --  -75.66667 -13.11125 -13.09889 -13.09062 -11.43599
 Alpha  occ. eigenvalues --  -11.42822 -11.41022 -11.40700 -11.39008 -11.36243
 Alpha  occ. eigenvalues --   -8.00736  -1.32610  -1.09279  -1.07283  -1.07186
 Alpha  occ. eigenvalues --   -0.84616  -0.83126  -0.78161  -0.66633  -0.65638
 Alpha  occ. eigenvalues --   -0.65001  -0.60913  -0.54161  -0.48933  -0.47097
 Alpha  occ. eigenvalues --   -0.45530  -0.42137  -0.38502  -0.38479  -0.34929
 Alpha  occ. eigenvalues --   -0.22496
 Alpha virt. eigenvalues --    0.03457   0.04418   0.04883   0.05504   0.05760
 Alpha virt. eigenvalues --    0.05933   0.06694   0.07058   0.07377   0.08490
 Alpha virt. eigenvalues --    0.10034   0.11235   0.11867   0.13411   0.14103

 Mulliken charges:
               1
     1  C    0.042582
     2  H    1.157624
     3  C   -1.396963
     4  H    0.491464
     5  H    1.523101
     6  H    1.366349
     7  H    1.278052
     8  H    1.394972
     9  H    1.425321
    10  H    1.454403
    11  H    1.263741
    12  H    1.821002
    13  S    0.491843
    14  C   -3.315435
    15  C   -2.786556
    16  C   -2.838282
    17  C   -3.373220
 Sum of Mulliken charges =  -0.00000

 Dipole moment (field-independent basis, Debye):
    X=              0.5304    Y=              0.4550    Z=              0.0072  Tot=              0.6989

 Test job not archived.
 1\1\GINC-SE054\SP\RHF\Aug-CC-pVDZ\C6H10S1\OHZDE\09-Apr-2025\0\\#t hf a
 ug-cc-pvdz iop(5/13=1,5/36=2,99/5=2) pseudo=read geom=check guess=(rea
 d,tcheck) scf=(maxcycle=1)\\title\\0,1\C,0,2.59090187,-0.04968862,0.43
 961338\H,0,1.93323189,0.27193926,-0.33858357\C,0,3.30609004,-0.4175117
 1,1.32580727\H,0,3.94715573,-0.74121457,2.10714096\H,0,0.1669805,-1.66
 385701,-0.57743483\H,0,-1.30767965,-1.71069001,-1.55291582\H,0,-1.5555
 3125,-1.97023416,1.09973753\H,0,-1.87073303,1.82565069,0.17695414\H,0,
 -2.65256843,-0.8697775,0.26766275\H,0,-0.1588805,2.01629009,0.57120417

 Normal termination of Gaussian 16 at Wed Apr  9 19:35:35 2025.
