 Gaussian 16, Revision C.01,

 ----------------------------------------------------------------------
 #t hf aug-cc-pvdz symm=none int=(grid=ultrafine) guess=(read,tcheck) s
 table=(opt,rrhf)
 ----------------------------------------------------------------------
 -----
 title
 -----
 Symbolic Z-matrix:
 Charge =  0 Multiplicity = 1

 SCF Done:  E(RHF) =  -989.364005927     A.U. after   13 cycles
 Normal termination of Gaussian 16 at Wed Apr  9 19:37:14 2025.
 Gaussian 16:  ES64L-G16RevC.01  3-Jul-2019

 ----------------------------------------------------------------------
 #t hf aug-cc-pvdz iop(5/13=1,5/36=2,99/5=2) pseudo=read geom=check gue
 ss=(read,tcheck) scf=(maxcycle=1)
 ----------------------------------------------------------------------
 -----
 title
 -----
 Structure from the checkpoint file:  "HB300SPXx10_1144_4.19_0.95_methanol_dimethyldisulfide_dimer_mol1.chk"
 Charge =  0 Multiplicity = 1

                         Standard orientation:
 ---------------------------------------------------------------------
 Center     Atomic      Atomic             Coordinates (Angstroms)
 Number     Number       Type             X           Y           Z
 ---------------------------------------------------------------------
      1          8           0        2.720296    0.180407   -0.140780
      2          1           0        1.897127    0.365045   -0.609034
      3          6           0        2.712117   -1.184080    0.249219
      4          1           0        3.630225   -1.365697    0.803787
      5          1           0        1.862913   -1.420557    0.896744
      6          1           0        2.690297   -1.856821   -0.612904
      7          1           0       -3.148328   -1.686325    0.577403
      8          1           0       -3.260566   -0.414563   -0.658835
      9          1           0       -2.948581    0.012105    1.045577
     10          1           0        0.745535    1.348694    1.385239
     11          1           0       -0.948210    1.928991    1.420121
     12          1           0        0.283536    2.817208    0.501886
     13          6           0       -2.767488   -0.716423    0.260327
     14         16           0       -0.983469   -0.943406   -0.020517
     15         16           0       -0.388380    0.896624   -0.705148
     16          6           0       -0.047416    1.830032    0.821601
 ---------------------------------------------------------------------

 SCF Done:  E(RHF) =  -990.763473335     A.U. after    2 cycles

 The electronic state is 1-A.
 Alpha  occ. eigenvalues --  -75.70956 -75.70657 -21.04552 -13.15464 -13.12556
 Alpha  occ. eigenvalues --  -13.11958 -13.10368 -13.08938 -13.04583 -11.40595
 Alpha  occ. eigenvalues --  -11.40280 -11.38506  -8.04977  -8.04713  -1.68354
 Alpha  occ. eigenvalues --   -1.27407  -1.13405  -0.98939  -0.96077  -0.87597
 Alpha  occ. eigenvalues --   -0.62918  -0.60931  -0.60125  -0.59790  -0.59113
 Alpha  occ. eigenvalues --   -0.58199  -0.52599  -0.47877  -0.43882  -0.40375
 Alpha  occ. eigenvalues --   -0.34513  -0.30281  -0.25839  -0.24380
 Alpha virt. eigenvalues --    0.02425   0.03409   0.04010   0.04642   0.06472
 Alpha virt. eigenvalues --    0.06995   0.07662   0.08194   0.08400   0.08804
 Alpha virt. eigenvalues --    0.09771   0.10793   0.12731   0.12823   0.14017

 Mulliken charges:
               1
     1  O   -2.489908
     2  H    1.609985
     3  C   -2.614085
     4  H    1.242472
     5  H    1.358312
     6  H    1.298403
     7  H    1.377406
     8  H    1.489936
     9  H    1.500002
    10  H    1.468392
    11  H    1.525149
    12  H    1.416251
    13  C   -5.083630
    14  S    0.896143
    15  S   -0.534554
    16  C   -4.460273
 Sum of Mulliken charges =  -0.00000

 Dipole moment (field-independent basis, Debye):
    X=             -0.9942    Y=             -0.5980    Z=             -0.3208  Tot=              1.2037

 Test job not archived.
 1\1\GINC-SE340\SP\RHF\Aug-CC-pVDZ\C3H10O1S2\OHZDE\09-Apr-2025\0\\#t hf
  aug-cc-pvdz iop(5/13=1,5/36=2,99/5=2) pseudo=read geom=check guess=(r
 ead,tcheck) scf=(maxcycle=1)\\title\\0,1\O,0,-0.42925951,1.22968046,-2
 .50380826\H,0,-0.36156068,1.36890772,-1.5514469\C,0,-1.37991091,0.2017
 0921,-2.7351714\H,0,-1.41855104,0.0350798,-3.80950666\H,0,-1.09677682,
 -0.73598734,-2.24842974\H,0,-2.37984798,0.48334645,-2.39294418\H,0,-0.
 57272873,-2.5417492,2.41523284\H,0,-0.10729611,-0.97096871,3.10391543\
 H,0,1.05953938,-1.90936862,2.13319358\H,0,1.68729178,-0.04598043,-1.28

 Normal termination of Gaussian 16 at Wed Apr  9 19:37:18 2025.
