 Gaussian 16, Revision C.01,

 ----------------------------------------------------------------------
 #t hf aug-cc-pvdz symm=none int=(grid=ultrafine) guess=(read,tcheck) s
 table=(opt,rrhf)
 ----------------------------------------------------------------------
 -----
 title
 -----
 Symbolic Z-matrix:
 Charge =  0 Multiplicity = 1

 SCF Done:  E(RHF) =  -875.455016467     A.U. after   12 cycles
 Normal termination of Gaussian 16 at Wed Apr  9 19:37:55 2025.
 Gaussian 16:  ES64L-G16RevC.01  3-Jul-2019

 ----------------------------------------------------------------------
 #t hf aug-cc-pvdz iop(5/13=1,5/36=2,99/5=2) pseudo=read geom=check gue
 ss=(read,tcheck) scf=(maxcycle=1)
 ----------------------------------------------------------------------
 -----
 title
 -----
 Structure from the checkpoint file:  "HB300SPXx10_1193_4.24_0.90_methanethiol_methanethiol_dimer_mol1.chk"
 Charge =  0 Multiplicity = 1

                         Standard orientation:
 ---------------------------------------------------------------------
 Center     Atomic      Atomic             Coordinates (Angstroms)
 Number     Number       Type             X           Y           Z
 ---------------------------------------------------------------------
      1          1           0       -0.917059    0.922338    1.360913
      2          1           0       -2.676599    0.917233    1.206940
      3          1           0       -1.705220    1.833322    0.049061
      4          1           0       -0.549083   -0.323057   -0.982590
      5          6           0       -1.741819    0.931273    0.652886
      6         16           0       -1.734397   -0.559915   -0.392907
      7          1           0        2.111218   -0.464430    1.754504
      8          1           0        2.120257   -1.705927    0.497303
      9          1           0        0.575254   -1.047978    1.045187
     10          1           0        1.183488    1.440132    0.146818
     11          6           0        1.617441   -0.809891    0.851393
     12         16           0        1.772148    0.416170   -0.488581
 ---------------------------------------------------------------------

 SCF Done:  E(RHF) =  -876.352752928     A.U. after    2 cycles

 The electronic state is 1-A.
 Alpha  occ. eigenvalues --  -75.69199 -75.67553 -13.13113 -13.11555 -13.08432
 Alpha  occ. eigenvalues --  -13.07770 -13.06911 -13.03106 -11.40101 -11.39785
 Alpha  occ. eigenvalues --   -8.03102  -8.01486  -1.20048  -1.17295  -0.94722
 Alpha  occ. eigenvalues --   -0.93948  -0.61410  -0.60182  -0.59435  -0.58178
 Alpha  occ. eigenvalues --   -0.50115  -0.48885  -0.40018  -0.39412  -0.24154
 Alpha  occ. eigenvalues --   -0.23299
 Alpha virt. eigenvalues --    0.02356   0.03077   0.04336   0.04925   0.07007
 Alpha virt. eigenvalues --    0.07226   0.07649   0.08904   0.10584   0.11325
 Alpha virt. eigenvalues --    0.12531   0.13242   0.14958   0.15131   0.15499

 Mulliken charges:
               1
     1  H    1.595794
     2  H    1.343695
     3  H    1.298771
     4  H    1.178610
     5  C   -4.676379
     6  S   -0.669729
     7  H    1.325042
     8  H    1.352857
     9  H    1.638187
    10  H    1.012836
    11  C   -4.534509
    12  S   -0.865176
 Sum of Mulliken charges =  -0.00000

 Dipole moment (field-independent basis, Debye):
    X=             -0.1311    Y=             -0.8846    Z=             -0.1243  Tot=              0.9029

 Test job not archived.
 1\1\GINC-SE362\SP\RHF\Aug-CC-pVDZ\C2H8S2\OHZDE\09-Apr-2025\0\\#t hf au
 g-cc-pvdz iop(5/13=1,5/36=2,99/5=2) pseudo=read geom=check guess=(read
 ,tcheck) scf=(maxcycle=1)\\title\\0,1\H,0,1.48841111,-0.83932977,-0.94
 699875\H,0,2.60301323,-1.84400864,-0.01533608\H,0,2.55978836,-0.100175
 65,0.26866848\H,0,0.07877426,-0.11956038,1.21477831\C,0,1.95766928,-0.
 9705586,0.02469451\S,0,0.71991769,-1.29709475,1.32035013\H,0,-1.476181
 68,-0.00003296,-2.27186654\H,0,-2.54608093,-0.06769531,-0.86734282\H,0
 ,-0.99842221,-0.91723392,-0.81127384\H,0,0.41016747,1.39377509,-1.0182

 Normal termination of Gaussian 16 at Wed Apr  9 19:37:58 2025.
