 Gaussian 16, Revision C.01,

 ----------------------------------------------------------------------
 #t hf aug-cc-pvdz symm=none int=(grid=ultrafine) guess=(read,tcheck) s
 table=(opt,rrhf)
 ----------------------------------------------------------------------
 -----
 title
 -----
 Symbolic Z-matrix:
 Charge =  0 Multiplicity = 1

 SCF Done:  E(RHF) =  -747.047120969     A.U. after   14 cycles
 Normal termination of Gaussian 16 at Wed Apr  9 19:44:59 2025.
 Gaussian 16:  ES64L-G16RevC.01  3-Jul-2019

 ----------------------------------------------------------------------
 #t hf aug-cc-pvdz iop(5/13=1,5/36=2,99/5=2) pseudo=read geom=check gue
 ss=(read,tcheck) scf=(maxcycle=1)
 ----------------------------------------------------------------------
 -----
 title
 -----
 Structure from the checkpoint file:  "HB300SPXx10_1455_5.08_1.00_methylcyanate_phosphineF2_dimer_mol1.chk"
 Charge =  0 Multiplicity = 1

                         Standard orientation:
 ---------------------------------------------------------------------
 Center     Atomic      Atomic             Coordinates (Angstroms)
 Number     Number       Type             X           Y           Z
 ---------------------------------------------------------------------
      1          1           0       -2.807958   -1.062975    1.318658
      2          1           0       -3.396856   -1.782346   -0.207841
      3          1           0       -1.637697   -1.673884    0.108227
      4          6           0       -2.606576   -1.209634    0.261012
      5          8           0       -2.630674    0.088004   -0.415158
      6          6           0       -1.738522    0.923819   -0.040754
      7          7           0       -0.939054    1.697399    0.270738
      8         15           0        1.706653    0.345401   -0.161140
      9          9           0        0.734258   -0.939030   -0.087242
     10          9           0        3.089633   -0.424944    0.099469
     11          1           0        1.517054    0.743022    1.192570
 ---------------------------------------------------------------------

 SCF Done:  E(RHF) =  -748.809099547     A.U. after    2 cycles

 The electronic state is 1-A.
 Alpha  occ. eigenvalues -- -105.28593 -29.28584 -29.27974 -21.16016 -15.76160
 Alpha  occ. eigenvalues --  -11.49691 -11.46084  -2.87755  -1.85878  -1.61947
 Alpha  occ. eigenvalues --   -1.58501  -1.52007  -1.30384  -1.05796  -0.89329
 Alpha  occ. eigenvalues --   -0.74411  -0.67328  -0.65888  -0.56815  -0.56162
 Alpha  occ. eigenvalues --   -0.55182  -0.52610  -0.46333  -0.42343  -0.39676
 Alpha  occ. eigenvalues --   -0.35856  -0.35250  -0.33927  -0.27614  -0.24906
 Alpha  occ. eigenvalues --   -0.19313   0.00884
 Alpha virt. eigenvalues --    0.03026   0.05314   0.06873   0.07178   0.08311
 Alpha virt. eigenvalues --    0.10251   0.11067   0.12266   0.12484   0.12995
 Alpha virt. eigenvalues --    0.13047   0.14428   0.15185   0.16074   0.16605

 Mulliken charges:
               1
     1  H    1.322920
     2  H    1.132517
     3  H    1.169704
     4  C   -2.754835
     5  O   -2.663126
     6  C    4.178087
     7  N   -2.477803
     8  P    1.650337
     9  F   -0.306932
    10  F   -0.232065
    11  H   -1.018805
 Sum of Mulliken charges =  -0.00000

 Dipole moment (field-independent basis, Debye):
    X=              0.4482    Y=             -6.3300    Z=              1.7023  Tot=              6.5702

 Test job not archived.
 1\1\GINC-SE016\SP\RHF\Aug-CC-pVDZ\C2H4F2N1O1P1\OHZDE\09-Apr-2025\0\\#t
  hf aug-cc-pvdz iop(5/13=1,5/36=2,99/5=2) pseudo=read geom=check guess
 =(read,tcheck) scf=(maxcycle=1)\\title\\0,1\H,0,-2.89287834,1.38344137
 ,-2.41875402\H,0,-2.88368966,0.15494314,-3.71690786\H,0,-2.33807438,-0
 .28314113,-2.0686702\C,0,-2.39546429,0.50243917,-2.8151059\O,0,-1.0419
 8507,0.86597867,-3.23651367\C,0,-0.26338211,1.27221362,-2.30729377\N,0
 ,0.4658792,1.6354549,-1.48824768\P,0,0.56410365,-0.57189984,0.54451304
 \F,0,-0.8234986,-0.92414149,-0.19795637\F,0,0.31684351,-1.4397834,1.87

 Normal termination of Gaussian 16 at Wed Apr  9 19:45:03 2025.
