 Gaussian 16, Revision C.01,

 ----------------------------------------------------------------------
 #t hf aug-cc-pvdz symm=none int=(grid=ultrafine) guess=(read,tcheck) s
 table=(opt,rrhf)
 ----------------------------------------------------------------------
 -----
 title
 -----
 Symbolic Z-matrix:
 Charge =  0 Multiplicity = 1

 SCF Done:  E(RHF) =  -855.905347922     A.U. after   14 cycles
 Normal termination of Gaussian 16 at Wed Apr  9 19:34:55 2025.
 Gaussian 16:  ES64L-G16RevC.01  3-Jul-2019

 ----------------------------------------------------------------------
 #t hf aug-cc-pvdz iop(5/13=1,5/36=2,99/5=2) pseudo=read geom=check gue
 ss=(read,tcheck) scf=(maxcycle=1)
 ----------------------------------------------------------------------
 -----
 title
 -----
 Structure from the checkpoint file:  "HB300SPXx10_1033_4.07_0.90_phosphaalkyne_methanethiol_dimer_mol1.chk"
 Charge =  0 Multiplicity = 1

                         Standard orientation:
 ---------------------------------------------------------------------
 Center     Atomic      Atomic             Coordinates (Angstroms)
 Number     Number       Type             X           Y           Z
 ---------------------------------------------------------------------
      1          1           0       -1.164023    2.142580    1.281071
      2          1           0       -1.432858    2.510944   -0.424919
      3          1           0        0.111723    1.825515    0.093350
      4         15           0       -2.012475   -0.968189   -0.169880
      5          6           0       -1.482382    0.460742    0.053663
      6          6           0       -0.967484    1.802441    0.262679
      7          1           0        0.830945   -0.200532    1.532993
      8          1           0        2.579757   -0.470358    1.628259
      9          1           0        1.530447   -1.735503    0.973415
     10          1           0        0.770507   -0.233027   -1.114993
     11          6           0        1.683344   -0.662744    1.044699
     12         16           0        1.972484    0.067537   -0.599202
 ---------------------------------------------------------------------

 SCF Done:  E(RHF) =  -856.936993069     A.U. after    2 cycles

 The electronic state is 1-A.
 Alpha  occ. eigenvalues -- -105.17149 -75.67939 -13.11983 -13.07366 -13.05116
 Alpha  occ. eigenvalues --  -11.45412 -11.40374 -11.39500  -8.01863  -2.75420
 Alpha  occ. eigenvalues --   -1.57013  -1.36013  -1.35068  -1.18343  -1.13998
 Alpha  occ. eigenvalues --   -0.93993  -0.78407  -0.60707  -0.59984  -0.59245
 Alpha  occ. eigenvalues --   -0.59033  -0.57731  -0.48963  -0.39226  -0.23882
 Alpha  occ. eigenvalues --   -0.16559  -0.16345  -0.06874
 Alpha virt. eigenvalues --    0.03009   0.04183   0.05843   0.05943   0.06572
 Alpha virt. eigenvalues --    0.07582   0.08084   0.08525   0.08660   0.09964
 Alpha virt. eigenvalues --    0.11526   0.12935   0.13305   0.14626   0.14838

 Mulliken charges:
               1
     1  H    1.246547
     2  H    1.112914
     3  H    1.616419
     4  P    4.811668
     5  C   -3.938171
     6  C   -4.663928
     7  H    1.635943
     8  H    1.407241
     9  H    1.299159
    10  H    0.920638
    11  C   -4.671263
    12  S   -0.777168
 Sum of Mulliken charges =  -0.00000

 Dipole moment (field-independent basis, Debye):
    X=             -3.3275    Y=             -9.6844    Z=             -1.1800  Tot=             10.3079

 Test job not archived.
 1\1\GINC-SE219\SP\RHF\Aug-CC-pVDZ\C3H7P1S1\OHZDE\09-Apr-2025\0\\#t hf
 aug-cc-pvdz iop(5/13=1,5/36=2,99/5=2) pseudo=read geom=check guess=(re
 ad,tcheck) scf=(maxcycle=1)\\title\\0,1\H,0,0.38933231,2.34404549,-1.6
 8180664\H,0,-1.19987448,1.75919838,-2.18254684\H,0,0.10218747,0.605834
 91,-1.86864837\P,0,-1.17058474,1.34195856,1.32892267\C,0,-0.7484701,1.
 45533882,-0.14816129\C,0,-0.34350289,1.5476729,-1.53972175\H,0,1.77663
 702,0.20782689,0.06332646\H,0,2.82006313,-1.21157914,-0.12843927\H,0,1
 .74748022,-1.0932075,1.27370865\H,0,-0.47266277,-1.15994674,-0.2305856

 Normal termination of Gaussian 16 at Wed Apr  9 19:34:59 2025.
