 Gaussian 16, Revision C.01,

 ----------------------------------------------------------------------
 #t hf aug-cc-pvdz symm=none int=(grid=ultrafine) guess=(read,tcheck) s
 table=(opt,rrhf)
 ----------------------------------------------------------------------
 -----
 title
 -----
 Symbolic Z-matrix:
 Charge =  0 Multiplicity = 1

 SCF Done:  E(RHF) =  -3015.76415422     A.U. after   14 cycles
 Normal termination of Gaussian 16 at Wed Apr  9 19:39:14 2025.
 Gaussian 16:  ES64L-G16RevC.01  3-Jul-2019

 ----------------------------------------------------------------------
 #t hf aug-cc-pvdz iop(5/13=1,5/36=2,99/5=2) pseudo=read geom=check gue
 ss=(read,tcheck) scf=(maxcycle=1)
 ----------------------------------------------------------------------
 -----
 title
 -----
 Structure from the checkpoint file:  "HB300SPXx10_1345_4.39_1.00_hydrogenchloride_P4S3_dimer_mol1.chk"
 Charge =  0 Multiplicity = 1

                         Standard orientation:
 ---------------------------------------------------------------------
 Center     Atomic      Atomic             Coordinates (Angstroms)
 Number     Number       Type             X           Y           Z
 ---------------------------------------------------------------------
      1          1           0       -2.631313   -0.480419   -0.503069
      2         17           0       -3.708100    0.006175    0.016299
      3         16           0       -0.399684   -0.718654   -1.560146
      4         15           0       -0.140419    1.323885   -1.076611
      5         16           0       -0.210873   -0.732210    1.668432
      6         16           0        2.487446   -0.660406   -0.122541
      7         15           0        1.872106    1.357001   -0.067889
      8         15           0       -0.009790    1.306997    1.170330
      9         15           0        0.654022   -1.710832    0.004442
 ---------------------------------------------------------------------

 SCF Done:  E(RHF) =  -3017.43044224     A.U. after    2 cycles

 The electronic state is 1-A.
 Alpha  occ. eigenvalues -- -105.26886-105.24073-105.24024-105.23190 -99.89707
 Alpha  occ. eigenvalues --  -75.73380 -75.72926 -75.72810 -13.17716 -13.16167
 Alpha  occ. eigenvalues --  -13.14871 -13.14098 -13.13635 -13.11519 -13.07993
 Alpha  occ. eigenvalues --  -13.07307 -13.05452 -10.46848  -9.66991  -9.66095
 Alpha  occ. eigenvalues --   -9.66058  -8.07552  -8.07181  -8.06977  -2.85006
 Alpha  occ. eigenvalues --   -2.82224  -2.81116  -2.81069  -1.64076  -1.54837
 Alpha  occ. eigenvalues --   -1.54705  -1.54210  -1.52188  -1.51907  -1.51314
 Alpha  occ. eigenvalues --   -1.48810  -1.48775  -1.36523  -1.36347  -1.35364
 Alpha  occ. eigenvalues --   -1.29312  -1.11453  -1.01766  -1.01199  -0.79454
 Alpha  occ. eigenvalues --   -0.68846  -0.62915  -0.52232  -0.52017  -0.51723
 Alpha  occ. eigenvalues --   -0.51564  -0.37404  -0.36406  -0.26194  -0.25632
 Alpha  occ. eigenvalues --   -0.22171  -0.21624  -0.11625  -0.11229  -0.03669
 Alpha  occ. eigenvalues --   -0.00008   0.03957   0.04852
 Alpha virt. eigenvalues --    0.05031   0.06963   0.07986   0.08076   0.08612
 Alpha virt. eigenvalues --    0.08771   0.09134   0.09965   0.10586   0.10839
 Alpha virt. eigenvalues --    0.11669   0.11870   0.13101   0.13583   0.14216

 Mulliken charges:
               1
     1  H   -1.157482
     2  Cl  -0.166739
     3  S   -3.528893
     4  P    2.281440
     5  S   -3.272543
     6  S   -2.966210
     7  P    2.464540
     8  P    2.263401
     9  P    4.082484
 Sum of Mulliken charges =   0.00000

 Dipole moment (field-independent basis, Debye):
    X=              5.1373    Y=             25.3401    Z=              3.9898  Tot=             26.1616

 Test job not archived.
 1\1\GINC-SE098\SP\RHF\Aug-CC-pVDZ\Cl1H1P4S3\OHZDE\09-Apr-2025\0\\#t hf
  aug-cc-pvdz iop(5/13=1,5/36=2,99/5=2) pseudo=read geom=check guess=(r
 ead,tcheck) scf=(maxcycle=1)\\title\\0,1\H,0,-0.57388532,0.23171594,-0
 .00983813\Cl,0,-1.31085335,0.72448843,-0.94794305\S,0,0.90321132,-0.02
 141964,1.96714012\P,0,0.39618944,1.98758674,2.39118072\S,0,-2.22478984
 ,-0.19281382,2.77074378\S,0,0.0493062,-0.11538199,5.0764225\P,0,-0.205
 21928,1.91430125,4.55954628\P,0,-1.78060184,1.86088541,2.94940971\P,0,
 -0.38664937,-1.11665891,3.26304075\\Version=ES64L-G16RevC.01\State=1-A

 Normal termination of Gaussian 16 at Wed Apr  9 19:39:20 2025.
