 Gaussian 16, Revision C.01,

 ----------------------------------------------------------------------
 #t hf aug-cc-pvdz symm=none int=(grid=ultrafine) guess=(read,tcheck) s
 table=(opt,rrhf)
 ----------------------------------------------------------------------
 -----
 title
 -----
 Symbolic Z-matrix:
 Charge =  0 Multiplicity = 1

 SCF Done:  E(RHF) =  -969.534933890     A.U. after   13 cycles
 Normal termination of Gaussian 16 at Wed Apr  9 19:36:23 2025.
 Gaussian 16:  ES64L-G16RevC.01  3-Jul-2019

 ----------------------------------------------------------------------
 #t hf aug-cc-pvdz iop(5/13=1,5/36=2,99/5=2) pseudo=read geom=check gue
 ss=(read,tcheck) scf=(maxcycle=1)
 ----------------------------------------------------------------------
 -----
 title
 -----
 Structure from the checkpoint file:  "HB300SPXx10_1067_4.10_1.10_methylamine_dimethyldisulfide_dimer_mol1.chk"
 Charge =  0 Multiplicity = 1

                         Standard orientation:
 ---------------------------------------------------------------------
 Center     Atomic      Atomic             Coordinates (Angstroms)
 Number     Number       Type             X           Y           Z
 ---------------------------------------------------------------------
      1          7           0        2.475731    0.884562    0.002324
      2          1           0        2.742154    1.814147   -0.293796
      3          1           0        1.738513    0.575137   -0.619820
      4          6           0        3.619314   -0.025481   -0.059032
      5          1           0        3.308181   -1.014929    0.274418
      6          1           0        4.069754   -0.133680   -1.052129
      7          1           0        4.393405    0.317835    0.626248
      8          1           0       -1.667628    2.661301    0.651400
      9          1           0       -0.700549    2.206689   -0.766507
     10          1           0       -0.188513    1.697140    0.864061
     11          1           0       -0.783096   -2.029812    1.555035
     12          1           0        0.597482   -0.915916    1.310635
     13          1           0        0.588624   -2.515123    0.535944
     14          6           0       -1.038384    1.886385    0.215357
     15         16           0       -2.093915    0.408724    0.074779
     16         16           0       -0.826943   -1.030918   -0.648506
     17          6           0       -0.030047   -1.677507    0.856655
 ---------------------------------------------------------------------

 SCF Done:  E(RHF) =  -970.894935162     A.U. after    2 cycles

 The electronic state is 1-A.
 Alpha  occ. eigenvalues --  -75.69694 -75.69462 -15.72869 -13.13214 -13.10998
 Alpha  occ. eigenvalues --  -13.08844 -13.07910 -13.06216 -13.03132 -11.39567
 Alpha  occ. eigenvalues --  -11.39402 -11.38007  -8.03691  -8.03528  -1.31680
 Alpha  occ. eigenvalues --   -1.26136  -1.12379  -0.97821  -0.95141  -0.86373
 Alpha  occ. eigenvalues --   -0.66016  -0.59948  -0.59642  -0.59075  -0.58937
 Alpha  occ. eigenvalues --   -0.58230  -0.53607  -0.50983  -0.46752  -0.42696
 Alpha  occ. eigenvalues --   -0.35431  -0.33370  -0.24864  -0.23291
 Alpha virt. eigenvalues --    0.03199   0.03326   0.04008   0.05167   0.06349
 Alpha virt. eigenvalues --    0.06512   0.06745   0.07431   0.07704   0.09163
 Alpha virt. eigenvalues --    0.09642   0.09832   0.11291   0.12633   0.13739

 Mulliken charges:
               1
     1  N   -2.177099
     2  H    0.627700
     3  H    0.811313
     4  C   -3.203275
     5  H    1.457310
     6  H    1.323382
     7  H    1.274204
     8  H    1.372969
     9  H    1.524741
    10  H    1.615215
    11  H    1.444884
    12  H    1.720284
    13  H    1.441481
    14  C   -4.765005
    15  S    0.267196
    16  S    0.014770
    17  C   -4.750071
 Sum of Mulliken charges =  -0.00000

 Dipole moment (field-independent basis, Debye):
    X=             -0.0496    Y=             -0.0272    Z=             -1.0802  Tot=              1.0817

 Test job not archived.
 1\1\GINC-SE135\SP\RHF\Aug-CC-pVDZ\C3H11N1S2\OHZDE\09-Apr-2025\0\\#t hf
  aug-cc-pvdz iop(5/13=1,5/36=2,99/5=2) pseudo=read geom=check guess=(r
 ead,tcheck) scf=(maxcycle=1)\\title\\0,1\N,0,-0.790217,0.77789413,2.28
 472778\H,0,-1.73224372,0.61681804,2.6155392\H,0,-0.85550262,0.99181266
 ,1.29666237\C,0,-0.16836631,1.8838218,3.01270443\H,0,0.84688345,2.0289
 6517,2.64500493\H,0,-0.69345824,2.84224623,2.93178871\H,0,-0.0959132,1
 .62767695,4.06903376\H,0,-1.56550827,-2.70617775,-0.54470516\H,0,-2.09
 468999,-1.01365574,-0.45690894\H,0,-0.76190685,-1.58730711,0.58000243\

 Normal termination of Gaussian 16 at Wed Apr  9 19:36:29 2025.
