 Gaussian 16, Revision C.01,

 ----------------------------------------------------------------------
 #t hf aug-cc-pvdz symm=none int=(grid=ultrafine) guess=(read,tcheck) s
 table=(opt,rrhf)
 ----------------------------------------------------------------------
 -----
 title
 -----
 Symbolic Z-matrix:
 Charge =  0 Multiplicity = 1

 SCF Done:  E(RHF) =  -1166.70023176     A.U. after   13 cycles
 Normal termination of Gaussian 16 at Wed Apr  9 19:42:18 2025.
 Gaussian 16:  ES64L-G16RevC.01  3-Jul-2019

 ----------------------------------------------------------------------
 #t hf aug-cc-pvdz iop(5/13=1,5/36=2,99/5=2) pseudo=read geom=check gue
 ss=(read,tcheck) scf=(maxcycle=1)
 ----------------------------------------------------------------------
 -----
 title
 -----
 Structure from the checkpoint file:  "HB300SPXx10_1400_5.02_2.00_dimethylsulfone_phosphineF2_dimer_mol1.chk"
 Charge =  0 Multiplicity = 1

                         Standard orientation:
 ---------------------------------------------------------------------
 Center     Atomic      Atomic             Coordinates (Angstroms)
 Number     Number       Type             X           Y           Z
 ---------------------------------------------------------------------
      1          1           0        2.957860    0.649609    2.098503
      2          1           0        1.934911   -0.810203    2.059699
      3          1           0        1.229722    0.769676    1.621084
      4          1           0        1.882921    1.992441   -0.734944
      5          1           0        3.081396    1.264180   -1.839966
      6          1           0        3.622991    1.937771   -0.281550
      7          8           0        3.834289   -0.877309   -0.097586
      8         16           0        2.574443   -0.181489   -0.088756
      9          8           0        1.430640   -0.786805   -0.738756
     10          6           0        2.126167    0.157555    1.602895
     11          6           0        2.812159    1.434890   -0.800531
     12         15           0       -3.579938   -0.504818    0.042076
     13          9           0       -5.030838    0.111784   -0.259430
     14          9           0       -2.833217    0.887511    0.377452
     15          1           0       -3.174722   -0.562780   -1.319514
 ---------------------------------------------------------------------

 SCF Done:  E(RHF) =  -1168.88801278     A.U. after    2 cycles

 The electronic state is 1-A.
 Alpha  occ. eigenvalues -- -105.29938 -75.87998 -29.29317 -29.29183 -21.03946
 Alpha  occ. eigenvalues --  -21.03701 -13.50817 -13.40638 -13.33238 -11.43647
 Alpha  occ. eigenvalues --  -11.42085  -8.23410  -2.89250  -1.83134  -1.64343
 Alpha  occ. eigenvalues --   -1.62962  -1.59642  -1.53257  -1.19619  -1.09278
 Alpha  occ. eigenvalues --   -0.90475  -0.87461  -0.65537  -0.65034  -0.64939
 Alpha  occ. eigenvalues --   -0.62059  -0.56579  -0.55703  -0.54181  -0.46916
 Alpha  occ. eigenvalues --   -0.42974  -0.40790  -0.38938  -0.38881  -0.36477
 Alpha  occ. eigenvalues --   -0.36338  -0.34690  -0.34636  -0.28518  -0.26015
 Alpha  occ. eigenvalues --   -0.19768  -0.00775
 Alpha virt. eigenvalues --    0.02328   0.04357   0.05338   0.05988   0.06692
 Alpha virt. eigenvalues --    0.06891   0.07513   0.09231   0.10003   0.11436
 Alpha virt. eigenvalues --    0.12428   0.12994   0.14244   0.14504   0.14834

 Mulliken charges:
               1
     1  H    1.344475
     2  H    1.309032
     3  H    1.259898
     4  H    1.361414
     5  H    1.351566
     6  H    1.321846
     7  O   -2.519556
     8  S    6.121462
     9  O   -2.539871
    10  C   -4.552406
    11  C   -4.527036
    12  P    1.653103
    13  F   -0.230255
    14  F   -0.246182
    15  H   -1.107491
 Sum of Mulliken charges =  -0.00000

 Dipole moment (field-independent basis, Debye):
    X=             -2.1804    Y=              7.4325    Z=             -0.3725  Tot=              7.7547

 Test job not archived.
 1\1\GINC-SE016\SP\RHF\Aug-CC-pVDZ\C2H7F2O2P1S1\OHZDE\09-Apr-2025\0\\#t
  hf aug-cc-pvdz iop(5/13=1,5/36=2,99/5=2) pseudo=read geom=check guess
 =(read,tcheck) scf=(maxcycle=1)\\title\\0,1\H,0,1.82037896,-1.1252997,
 2.45423408\H,0,2.45327614,-0.04590354,1.18406648\H,0,1.26048817,-1.302
 78481,0.75605091\H,0,-1.35656486,-1.06874241,1.510339\H,0,-1.8999986,0
 .31018714,2.5058364\H,0,-0.84910966,-0.93302114,3.2309401\O,0,0.704774
 22,1.412934,2.93921594\S,0,0.30796869,0.58975017,1.82729483\O,0,-0.016
 49706,1.22000253,0.56448154\C,0,1.58998555,-0.61149627,1.52558836\C,0,

 Normal termination of Gaussian 16 at Wed Apr  9 19:42:23 2025.
