 Gaussian 16, Revision C.01,

 ----------------------------------------------------------------------
 #t hf aug-cc-pvdz symm=none int=(grid=ultrafine) guess=(read,tcheck) s
 table=(opt,rrhf)
 ----------------------------------------------------------------------
 -----
 title
 -----
 Symbolic Z-matrix:
 Charge =  0 Multiplicity = 1

 SCF Done:  E(RHF) =  -571.997885413     A.U. after   12 cycles
 Normal termination of Gaussian 16 at Wed Apr  9 19:36:08 2025.
 Gaussian 16:  ES64L-G16RevC.01  3-Jul-2019

 ----------------------------------------------------------------------
 #t hf aug-cc-pvdz iop(5/13=1,5/36=2,99/5=2) pseudo=read geom=check gue
 ss=(read,tcheck) scf=(maxcycle=1)
 ----------------------------------------------------------------------
 -----
 title
 -----
 Structure from the checkpoint file:  "HB300SPXx10_1077_4.11_1.10_methylamine_dimethylsulfide_dimer_mol1.chk"
 Charge =  0 Multiplicity = 1

                         Standard orientation:
 ---------------------------------------------------------------------
 Center     Atomic      Atomic             Coordinates (Angstroms)
 Number     Number       Type             X           Y           Z
 ---------------------------------------------------------------------
      1          7           0       -2.101215   -0.756744    0.155660
      2          1           0       -2.537695   -1.657536    0.013057
      3          1           0       -1.318199   -0.695459   -0.485845
      4          6           0       -3.052594    0.324718   -0.096535
      5          1           0       -2.557844    1.282049    0.065328
      6          1           0       -3.479596    0.337865   -1.106076
      7          1           0       -3.874903    0.260990    0.615553
      8          1           0        1.725427    1.586524    1.301073
      9          1           0        0.041111    1.027819    1.115879
     10          1           0        0.684889    2.304321    0.061187
     11          1           0        2.007635   -2.090531   -0.173383
     12          1           0        0.789935   -1.495610    0.974919
     13          1           0        2.504361   -1.045603    1.166940
     14          6           0        0.924687    1.385996    0.591676
     15         16           0        1.451431    0.170070   -0.644377
     16          6           0        1.711321   -1.250504    0.450157
 ---------------------------------------------------------------------

 SCF Done:  E(RHF) =  -573.137768195     A.U. after    2 cycles

 The electronic state is 1-A.
 Alpha  occ. eigenvalues --  -75.66890 -15.72162 -13.09203 -13.06913 -13.04411
 Alpha  occ. eigenvalues --  -11.38819 -11.38675 -11.37406  -8.00982  -1.31004
 Alpha  occ. eigenvalues --   -1.22146  -1.02602  -0.94508  -0.87621  -0.65420
 Alpha  occ. eigenvalues --   -0.59779  -0.59586  -0.58970  -0.57443  -0.56392
 Alpha  occ. eigenvalues --   -0.52957  -0.50372  -0.43913  -0.36335  -0.34693
 Alpha  occ. eigenvalues --   -0.21974
 Alpha virt. eigenvalues --    0.03575   0.03651   0.04376   0.05483   0.06449
 Alpha virt. eigenvalues --    0.06738   0.07102   0.07630   0.08594   0.08918
 Alpha virt. eigenvalues --    0.09722   0.11254   0.12520   0.13172   0.14358

 Mulliken charges:
               1
     1  N   -2.175881
     2  H    0.604044
     3  H    0.858271
     4  C   -3.190483
     5  H    1.446151
     6  H    1.313968
     7  H    1.263389
     8  H    1.364869
     9  H    1.568536
    10  H    1.421880
    11  H    1.432139
    12  H    1.453695
    13  H    1.382261
    14  C   -4.847617
    15  S    0.863360
    16  C   -4.758583
 Sum of Mulliken charges =   0.00000

 Dipole moment (field-independent basis, Debye):
    X=             -0.1003    Y=             -0.1519    Z=             -1.0394  Tot=              1.0552

 Test job not archived.
 1\1\GINC-SE212\SP\RHF\Aug-CC-pVDZ\C3H11N1S1\OHZDE\09-Apr-2025\0\\#t hf
  aug-cc-pvdz iop(5/13=1,5/36=2,99/5=2) pseudo=read geom=check guess=(r
 ead,tcheck) scf=(maxcycle=1)\\title\\0,1\N,0,-1.19251098,0.46771599,1.
 69699571\H,0,-2.17204653,0.34511648,1.91553075\H,0,-1.12099987,0.60068
 208,0.69419832\C,0,-0.64549649,1.62445241,2.40482331\H,0,0.40921091,1.
 73255139,2.15309408\H,0,-1.13947726,2.57752576,2.18276464\H,0,-0.70604
 436,1.45678733,3.47978713\H,0,2.50367674,-1.05641513,-0.63994398\H,0,1
 .40614006,-0.39316376,0.60057257\H,0,2.34408455,0.69607249,-0.44350908

 Normal termination of Gaussian 16 at Wed Apr  9 19:36:12 2025.
