 Gaussian 16, Revision C.01,

 ----------------------------------------------------------------------
 #t hf aug-cc-pvdz symm=none int=(grid=ultrafine) guess=(read,tcheck) s
 table=(opt,rrhf)
 ----------------------------------------------------------------------
 -----
 title
 -----
 Symbolic Z-matrix:
 Charge =  0 Multiplicity = 1

 SCF Done:  E(RHF) =  -1037.69459759     A.U. after   15 cycles
 Normal termination of Gaussian 16 at Wed Apr  9 19:46:56 2025.
 Gaussian 16:  ES64L-G16RevC.01  3-Jul-2019

 ----------------------------------------------------------------------
 #t hf aug-cc-pvdz iop(5/13=1,5/36=2,99/5=2) pseudo=read geom=check gue
 ss=(read,tcheck) scf=(maxcycle=1)
 ----------------------------------------------------------------------
 -----
 title
 -----
 Structure from the checkpoint file:  "HB300SPXx10_1473_5.10_0.90_phosphaalkene_phosphineF2_dimer_mol1.chk"
 Charge =  0 Multiplicity = 1

                         Standard orientation:
 ---------------------------------------------------------------------
 Center     Atomic      Atomic             Coordinates (Angstroms)
 Number     Number       Type             X           Y           Z
 ---------------------------------------------------------------------
      1          1           0        1.411421    2.962986   -0.597329
      2          1           0        0.476052    2.159155    0.664672
      3          1           0        2.247162    2.165931    0.734912
      4          1           0        1.479975   -2.124228   -1.515341
      5          1           0        0.527812   -1.225871    2.002597
      6          1           0        2.342315   -2.627093   -0.056619
      7          1           0        0.586740   -2.682282   -0.093455
      8          1           0        1.266096    0.376702    1.999368
      9          1           0        2.271875   -1.075251    2.036105
     10         15           0        1.434242    0.566583   -0.970787
     11          6           0        1.401088   -0.710038    0.123316
     12          6           0        1.454221   -2.108635   -0.427239
     13          6           0        1.362447   -0.634380    1.618320
     14          6           0        1.386514    2.103622    0.070261
     15         15           0       -1.624744   -0.282531   -0.213812
     16          9           0       -3.228401   -0.298460   -0.226714
     17          9           0       -1.426383    0.894564    0.855141
     18          1           0       -1.484488    0.540816   -1.369720
 ---------------------------------------------------------------------

 SCF Done:  E(RHF) =  -1039.58198703     A.U. after    2 cycles

 The electronic state is 1-A.
 Alpha  occ. eigenvalues -- -105.28829-105.15644 -29.28743 -29.27918 -11.44153
 Alpha  occ. eigenvalues --  -11.39714 -11.37654 -11.36665  -2.88070  -2.74193
 Alpha  occ. eigenvalues --   -1.62881  -1.59676  -1.53655  -1.53004  -1.45804
 Alpha  occ. eigenvalues --   -1.35856  -1.19749  -1.02489  -1.00284  -0.90038
 Alpha  occ. eigenvalues --   -0.78687  -0.65351  -0.60238  -0.59840  -0.58217
 Alpha  occ. eigenvalues --   -0.55561  -0.54832  -0.54112  -0.53791  -0.48613
 Alpha  occ. eigenvalues --   -0.46581  -0.39922  -0.35768  -0.34139  -0.28329
 Alpha  occ. eigenvalues --   -0.25937  -0.20221  -0.19015  -0.15684  -0.03056
 Alpha  occ. eigenvalues --    0.00133
 Alpha virt. eigenvalues --    0.04689   0.05432   0.05994   0.06349   0.06448
 Alpha virt. eigenvalues --    0.06869   0.07244   0.07688   0.08531   0.08895
 Alpha virt. eigenvalues --    0.10190   0.11387   0.11777   0.12506   0.12944

 Mulliken charges:
               1
     1  H    1.218079
     2  H    1.210355
     3  H    1.114101
     4  H    1.195454
     5  H    1.348714
     6  H    0.920809
     7  H    0.804788
     8  H    1.443882
     9  H    1.042460
    10  P    5.879296
    11  C    0.262336
    12  C   -5.771622
    13  C   -4.573918
    14  C   -6.035347
    15  P    1.995858
    16  F   -0.044336
    17  F   -0.719473
    18  H   -1.291437
 Sum of Mulliken charges =   0.00000

 Dipole moment (field-independent basis, Debye):
    X=             -5.8377    Y=              6.9097    Z=             -1.4928  Tot=              9.1679

 Test job not archived.
 1\1\GINC-SE026\SP\RHF\Aug-CC-pVDZ\C4H10F2P2\OHZDE\09-Apr-2025\0\\#t hf
  aug-cc-pvdz iop(5/13=1,5/36=2,99/5=2) pseudo=read geom=check guess=(r
 ead,tcheck) scf=(maxcycle=1)\\title\\0,1\H,0,-0.66372889,3.26375392,-1
 .41484082\H,0,0.57607353,2.07688321,-1.82463407\H,0,-0.55842324,2.6448
 712,-3.06242126\H,0,-2.87100416,-1.40911587,-1.55416728\H,0,0.42715494
 ,-1.23076192,-3.33739031\H,0,-2.60862974,-1.75549695,-3.26751243\H,0,-
 1.47646146,-2.36750684,-2.07165071\H,0,0.4157342,0.51539066,-3.5906339
 2\H,0,-0.67072928,-0.53226666,-4.50884988\P,0,-1.6570918,1.05342876,-1

 Normal termination of Gaussian 16 at Wed Apr  9 19:47:05 2025.
