 Gaussian 16, Revision C.01,

 ----------------------------------------------------------------------
 #t hf aug-cc-pvdz symm=none int=(grid=ultrafine) guess=(read,tcheck) s
 table=(opt,rrhf)
 ----------------------------------------------------------------------
 -----
 title
 -----
 Symbolic Z-matrix:
 Charge =  0 Multiplicity = 1

 SCF Done:  E(RHF) =  -1334.39454181     A.U. after   13 cycles
 Normal termination of Gaussian 16 at Wed Apr  9 04:10:31 2025.
 Gaussian 16:  ES64L-G16RevC.01  3-Jul-2019

 ----------------------------------------------------------------------
 #t hf aug-cc-pvdz iop(5/13=1,5/36=2,99/5=2) pseudo=read geom=check gue
 ss=(read,tcheck) scf=(maxcycle=1)
 ----------------------------------------------------------------------
 -----
 title
 -----
 Structure from the checkpoint file:  "HB300SPXx10_1314_4.36_0.95_hydrogenchloride_dimethyldisulfide_dimer_mol1.chk"
 Charge =  0 Multiplicity = 1

                         Standard orientation:
 ---------------------------------------------------------------------
 Center     Atomic      Atomic             Coordinates (Angstroms)
 Number     Number       Type             X           Y           Z
 ---------------------------------------------------------------------
      1          1           0       -1.714443   -0.195231    0.383081
      2         17           0       -2.880169   -0.543024   -0.091193
      3          1           0        3.528755   -1.236693   -0.542201
      4          1           0        3.264374   -0.261896    0.919261
      5          1           0        3.137679    0.485383   -0.696921
      6          1           0       -0.615418    1.374481   -1.411567
      7          1           0        0.916201    2.202760   -1.009652
      8          1           0       -0.587994    2.661283   -0.185625
      9          6           0        2.960776   -0.412884   -0.112244
     10         16           0        1.213607   -0.915380   -0.195928
     11         16           0        0.251633    0.644728    0.727205
     12          6           0       -0.029130    1.834842   -0.622178
 ---------------------------------------------------------------------

 SCF Done:  E(RHF) =  -1335.53030176     A.U. after    2 cycles

 The electronic state is 1-A.
 Alpha  occ. eigenvalues --  -99.87737 -75.71836 -75.71196 -13.16797 -13.14358
 Alpha  occ. eigenvalues --  -13.12513 -13.10933 -13.09031 -13.04758 -11.41141
 Alpha  occ. eigenvalues --  -11.40955 -10.44889  -9.65016  -9.64171  -9.64140
 Alpha  occ. eigenvalues --   -8.05913  -8.05243  -1.28949  -1.26830  -1.14076
 Alpha  occ. eigenvalues --   -0.99587  -0.88387  -0.67788  -0.61558  -0.60607
 Alpha  occ. eigenvalues --   -0.60524  -0.59745  -0.50231  -0.50151  -0.48467
 Alpha  occ. eigenvalues --   -0.44530  -0.35355  -0.27409  -0.25199
 Alpha virt. eigenvalues --    0.02150   0.03138   0.04442   0.05039   0.06858
 Alpha virt. eigenvalues --    0.07398   0.08219   0.08602   0.09548   0.11207
 Alpha virt. eigenvalues --    0.12166   0.12379   0.14227   0.14606   0.15005

 Mulliken charges:
               1
     1  H    1.023549
     2  Cl  -0.743318
     3  H    1.334884
     4  H    1.504728
     5  H    1.521213
     6  H    1.356373
     7  H    1.547684
     8  H    1.377594
     9  C   -4.757190
    10  S    0.605212
    11  S   -0.519700
    12  C   -4.251028
 Sum of Mulliken charges =   0.00000

 Dipole moment (field-independent basis, Debye):
    X=              2.7220    Y=              0.3820    Z=              0.5202  Tot=              2.7974

 Test job not archived.
 1\1\GINC-SE219\SP\RHF\Aug-CC-pVDZ\C2H7Cl1S2\OHZDE\09-Apr-2025\0\\#t hf
  aug-cc-pvdz iop(5/13=1,5/36=2,99/5=2) pseudo=read geom=check guess=(r
 ead,tcheck) scf=(maxcycle=1)\\title\\0,1\H,0,-0.26068265,0.62653872,-1
 .61580209\Cl,0,0.10581098,1.51670262,-2.49790267\H,0,1.84090341,-1.967
 7952,2.66025769\H,0,0.24256482,-2.58639106,2.19265922\H,0,0.38777824,-
 1.03973486,3.07202892\H,0,-0.55533997,1.90496489,0.6582725\H,0,-1.2447
 8997,1.0299796,2.05559019\H,0,-2.26196202,1.40805015,0.65049495\C,0,0.
 8408467,-1.69071428,2.32974787\S,0,1.06248021,-0.82297029,0.74544896\S

 Normal termination of Gaussian 16 at Wed Apr  9 04:10:35 2025.
