 Gaussian 16, Revision C.01,

 ----------------------------------------------------------------------
 #t hf aug-cc-pvdz symm=none int=(grid=ultrafine) guess=(read,tcheck) s
 table=(opt,rrhf)
 ----------------------------------------------------------------------
 -----
 title
 -----
 Symbolic Z-matrix:
 Charge =  0 Multiplicity = 1

 SCF Done:  E(RHF) =  -952.374430998     A.U. after   12 cycles

 1\1\GINC-SE143\Stability\RHF\Aug-CC-pVDZ\C4H10S2\OHZDE\09-Apr-2025\0\\
 #t hf aug-cc-pvdz symm=none int=(grid=ultrafine) guess=(read,tcheck) s
 table=(opt,rrhf)\\title\\0,1\H,0,1.25927999,1.11406487,-0.28265552\H,0
 ,2.28279017,2.73418341,-0.67577847\S,0,1.07110419,2.4516331,-0.1764195
 4\H,0,0.2965772,0.20454817,1.78216092\H,0,0.20675843,-1.53866555,2.063
 16962\H,0,-2.09622417,-0.18388658,1.874162\H,0,-1.11363684,-1.50705765
 ,-1.68133606\H,0,-1.94884466,-1.70211244,0.99185542\H,0,-0.40938916,0.
 07874449,-2.02485985\H,0,-2.72167063,-0.02786353,-0.65102153\H,0,-1.46

 Normal termination of Gaussian 16 at Wed Apr  9 04:10:39 2025.
 Gaussian 16:  ES64L-G16RevC.01  3-Jul-2019

 ----------------------------------------------------------------------
 #t hf aug-cc-pvdz iop(5/13=1,5/36=2,99/5=2) pseudo=read geom=check gue
 ss=(read,tcheck) scf=(maxcycle=1)
 ----------------------------------------------------------------------
 -----
 title
 -----
 Structure from the checkpoint file:  "HB300SPXx10_1233_4.28_0.90_sulfane_tetrahydrothiophene_dimer_mol1.chk"
 Charge =  0 Multiplicity = 1

                         Standard orientation:
 ---------------------------------------------------------------------
 Center     Atomic      Atomic             Coordinates (Angstroms)
 Number     Number       Type             X           Y           Z
 ---------------------------------------------------------------------
      1          1           0       -1.502598   -0.576656   -0.001278
      2          1           0       -3.455267   -0.604993    0.113543
      3         16           0       -2.513126    0.316050   -0.134300
      4          1           0        0.058000    0.007564   -1.801473
      5          1           0        1.609734   -0.821501   -1.976402
      6          1           0        1.649332    1.798799   -1.422017
      7          1           0        1.743334   -0.206021    1.943943
      8          1           0        2.723041    0.739045   -0.511377
      9          1           0       -0.006436    0.019067    2.071941
     10          1           0        1.487588    2.066353    1.165323
     11          1           0       -0.037601    1.698485    0.371841
     12         16           0        0.577818   -1.332616    0.148512
     13          6           0        0.980780   -0.261512   -1.289910
     14          6           0        1.676324    0.969679   -0.714822
     15          6           0        0.956871    1.307972    0.589885
     16          6           0        0.835325    0.008013    1.384607
 ---------------------------------------------------------------------

 SCF Done:  E(RHF) =  -953.652058676     A.U. after    2 cycles

 The electronic state is 1-A.
 Alpha  occ. eigenvalues --  -75.68158 -75.67173 -13.15610 -13.12436 -13.11580
 Alpha  occ. eigenvalues --  -13.09854 -13.07353 -13.00727 -11.44101 -11.43231
 Alpha  occ. eigenvalues --  -11.39411 -11.36595  -8.01949  -8.01303  -1.33383
 Alpha  occ. eigenvalues --   -1.10020  -1.07688  -1.07526  -0.85097  -0.83561
 Alpha  occ. eigenvalues --   -0.67116  -0.65975  -0.61289  -0.56352  -0.53060
 Alpha  occ. eigenvalues --   -0.49275  -0.47308  -0.45925  -0.42778  -0.42552
 Alpha  occ. eigenvalues --   -0.35373  -0.24801  -0.21457
 Alpha virt. eigenvalues --    0.03171   0.03988   0.04741   0.05515   0.06020
 Alpha virt. eigenvalues --    0.06334   0.06362   0.06854   0.07511   0.08928
 Alpha virt. eigenvalues --    0.11736   0.12309   0.12798   0.13594   0.14451

 Mulliken charges:
               1
     1  H    1.727370
     2  H    0.851121
     3  S   -2.310650
     4  H    1.358742
     5  H    1.394895
     6  H    1.276915
     7  H    1.420335
     8  H    1.397212
     9  H    1.331167
    10  H    1.298196
    11  H    1.550848
    12  S    0.208107
    13  C   -2.999727
    14  C   -2.832775
    15  C   -2.433413
    16  C   -3.238343
 Sum of Mulliken charges =   0.00000

 Dipole moment (field-independent basis, Debye):
    X=              0.9218    Y=              0.9833    Z=             -0.1570  Tot=              1.3569

 Test job not archived.
 1\1\GINC-SE143\SP\RHF\Aug-CC-pVDZ\C4H10S2\OHZDE\09-Apr-2025\0\\#t hf a
 ug-cc-pvdz iop(5/13=1,5/36=2,99/5=2) pseudo=read geom=check guess=(rea
 d,tcheck) scf=(maxcycle=1)\\title\\0,1\H,0,1.25927999,1.11406487,-0.28
 265552\H,0,2.28279017,2.73418341,-0.67577847\S,0,1.07110419,2.4516331,
 -0.17641954\H,0,0.2965772,0.20454817,1.78216092\H,0,0.20675843,-1.5386
 6555,2.06316962\H,0,-2.09622417,-0.18388658,1.874162\H,0,-1.11363684,-
 1.50705765,-1.68133606\H,0,-1.94884466,-1.70211244,0.99185542\H,0,-0.4
 0938916,0.07874449,-2.02485985\H,0,-2.72167063,-0.02786353,-0.65102153

 Normal termination of Gaussian 16 at Wed Apr  9 04:10:45 2025.
