 Gaussian 16, Revision C.01,

 ----------------------------------------------------------------------
 #t hf aug-cc-pvdz symm=none int=(grid=ultrafine) guess=(read,tcheck) s
 table=(opt,rrhf)
 ----------------------------------------------------------------------
 -----
 title
 -----
 Symbolic Z-matrix:
 Charge =  0 Multiplicity = 1

 SCF Done:  E(RHF) =  -460.091297453     A.U. after    9 cycles
 Normal termination of Gaussian 16 at Wed Apr  9 04:10:20 2025.
 Gaussian 16:  ES64L-G16RevC.01  3-Jul-2019

 ----------------------------------------------------------------------
 #t hf aug-cc-pvdz iop(5/13=1,5/36=2,99/5=2) pseudo=read geom=check gue
 ss=(read,tcheck) scf=(maxcycle=1)
 ----------------------------------------------------------------------
 -----
 title
 -----
 Structure from the checkpoint file:  "HB300SPXx10_1321_4.37_0.80_hydrogenchloride_dimethylsulfide_dimer_mol2.chk"
 Charge =  0 Multiplicity = 1

                         Standard orientation:
 ---------------------------------------------------------------------
 Center     Atomic      Atomic             Coordinates (Angstroms)
 Number     Number       Type             X           Y           Z
 ---------------------------------------------------------------------
      1          1           0       -0.000000   -0.000000   -1.250684
      2         17           0        0.000000    0.000000    0.073570
 ---------------------------------------------------------------------

 SCF Done:  E(RHF) =  -460.345537920     A.U. after    2 cycles

 The electronic state is 1-SG.
 Alpha  occ. eigenvalues --  -99.91260 -10.48202  -9.68191  -9.67408  -9.67408
 Alpha  occ. eigenvalues --   -1.29845  -0.68665  -0.52721  -0.52721
 Alpha virt. eigenvalues --    0.02416   0.09985   0.12781   0.13078   0.13078
 Alpha virt. eigenvalues --    0.18720   0.25385   0.25385   0.33621   0.33621
 Alpha virt. eigenvalues --    0.40541   0.50009   0.50009   0.54243   0.83225

 Mulliken charges:
               1
     1  H    0.463317
     2  Cl  -0.463317
 Sum of Mulliken charges =  -0.00000

 Dipole moment (field-independent basis, Debye):
    X=              0.0000    Y=              0.0000    Z=             -0.8595  Tot=              0.8595

 Test job not archived.
 1\1\GINC-SE096\SP\RHF\Aug-CC-pVDZ\Cl1H1\OHZDE\09-Apr-2025\0\\#t hf aug
 -cc-pvdz iop(5/13=1,5/36=2,99/5=2) pseudo=read geom=check guess=(read,
 tcheck) scf=(maxcycle=1)\\title\\0,1\H,0,-0.09169332,-0.01707414,-1.03
 147385\Cl,0,0.64323048,-0.44620369,-2.04605842\\Version=ES64L-G16RevC.
 01\State=1-SG\HF=-460.3455379\RMSD=1.451e-02\Dipole=-0.1876698,0.10958
 23,0.2590838\Quadrupole=-0.0789928,-0.7117759,0.7907688,-0.5606391,-1.
 3255107,0.7739793\PG=C*V [C*(H1Cl1)]\\@

 Normal termination of Gaussian 16 at Wed Apr  9 04:10:21 2025.
