 Gaussian 16, Revision C.01,

 ----------------------------------------------------------------------
 #t hf aug-cc-pvdz symm=none int=(grid=ultrafine) guess=(read,tcheck) s
 table=(opt,rrhf)
 ----------------------------------------------------------------------
 -----
 title
 -----
 Symbolic Z-matrix:
 Charge =  0 Multiplicity = 1

 SCF Done:  E(RHF) =  -797.395222263     A.U. after   10 cycles
 Normal termination of Gaussian 16 at Wed Apr  9 19:38:51 2025.
 Gaussian 16:  ES64L-G16RevC.01  3-Jul-2019

 ----------------------------------------------------------------------
 #t hf aug-cc-pvdz iop(5/13=1,5/36=2,99/5=2) pseudo=read geom=check gue
 ss=(read,tcheck) scf=(maxcycle=1)
 ----------------------------------------------------------------------
 -----
 title
 -----
 Structure from the checkpoint file:  "HB300SPXx10_1224_4.27_0.95_sulfane_sulfane_dimer_mol1.chk"
 Charge =  0 Multiplicity = 1

                         Standard orientation:
 ---------------------------------------------------------------------
 Center     Atomic      Atomic             Coordinates (Angstroms)
 Number     Number       Type             X           Y           Z
 ---------------------------------------------------------------------
      1          1           0       -0.668153   -0.079712   -0.109861
      2          1           0       -2.060355    1.263069    0.082899
      3         16           0       -2.009479   -0.074202   -0.002966
      4          1           0        1.885242    0.374466    1.219138
      5          1           0        2.084817    1.133827   -0.554745
      6         16           0        1.931882   -0.094027   -0.036874
 ---------------------------------------------------------------------

 SCF Done:  E(RHF) =  -797.869053191     A.U. after    2 cycles

 The electronic state is 1-A.
 Alpha  occ. eigenvalues --  -75.71459 -75.69099 -13.16250 -13.14298 -13.11857
 Alpha  occ. eigenvalues --  -13.08804 -13.06818 -13.00520  -8.05189  -8.02841
 Alpha  occ. eigenvalues --   -1.13026  -1.10236  -0.56177  -0.54281  -0.44937
 Alpha  occ. eigenvalues --   -0.42890  -0.26941  -0.24936
 Alpha virt. eigenvalues --    0.01243   0.04271   0.05458   0.05971   0.10764
 Alpha virt. eigenvalues --    0.11323   0.12159   0.13705   0.15298   0.15443
 Alpha virt. eigenvalues --    0.15793   0.19103   0.23423   0.23946   0.24468

 Mulliken charges:
               1
     1  H    1.498316
     2  H    0.934273
     3  S   -2.199716
     4  H    1.034100
     5  H    1.069014
     6  S   -2.335985
 Sum of Mulliken charges =  -0.00000

 Dipole moment (field-independent basis, Debye):
    X=             -0.2268    Y=             -1.9311    Z=             -0.4687  Tot=              2.0000

 Test job not archived.
 1\1\GINC-SE207\SP\RHF\Aug-CC-pVDZ\H4S2\OHZDE\09-Apr-2025\0\\#t hf aug-
 cc-pvdz iop(5/13=1,5/36=2,99/5=2) pseudo=read geom=check guess=(read,t
 check) scf=(maxcycle=1)\\title\\0,1\H,0,0.53139832,0.64498716,-0.29055
 053\H,0,2.23879772,0.67266195,0.63813986\S,0,1.60273769,1.45777787,-0.
 24349168\H,0,-1.79192368,-0.41007211,1.11706047\H,0,-1.02395296,-1.925
 6312,0.18088576\S,0,-1.63841754,-0.78368277,-0.16203208\\Version=ES64L
 -G16RevC.01\State=1-A\HF=-797.8690532\RMSD=1.565e-01\Dipole=-0.2199034
 ,0.4431403,-0.611913\Quadrupole=-0.0865327,0.6568893,-0.5703566,0.0720

 Normal termination of Gaussian 16 at Wed Apr  9 19:38:52 2025.
