 Gaussian 16, Revision C.01,

 ----------------------------------------------------------------------
 #t hf aug-cc-pvdz symm=none int=(grid=ultrafine) guess=(read,tcheck) s
 table=(opt,rrhf)
 ----------------------------------------------------------------------
 -----
 title
 -----
 Symbolic Z-matrix:
 Charge =  0 Multiplicity = 1

 SCF Done:  E(RHF) =  -969.518484447     A.U. after   13 cycles
 Normal termination of Gaussian 16 at Wed Apr  9 19:36:21 2025.
 Gaussian 16:  ES64L-G16RevC.01  3-Jul-2019

 ----------------------------------------------------------------------
 #t hf aug-cc-pvdz iop(5/13=1,5/36=2,99/5=2) pseudo=read geom=check gue
 ss=(read,tcheck) scf=(maxcycle=1)
 ----------------------------------------------------------------------
 -----
 title
 -----
 Structure from the checkpoint file:  "HB300SPXx10_1061_4.10_0.80_methylamine_dimethyldisulfide_dimer_mol1.chk"
 Charge =  0 Multiplicity = 1

                         Standard orientation:
 ---------------------------------------------------------------------
 Center     Atomic      Atomic             Coordinates (Angstroms)
 Number     Number       Type             X           Y           Z
 ---------------------------------------------------------------------
      1          7           0        1.794201    0.971323   -0.018834
      2          1           0        1.853523    1.933112   -0.325816
      3          1           0        1.139273    0.503596   -0.634137
      4          6           0        3.106703    0.328092   -0.076415
      5          1           0        3.016701   -0.701362    0.268731
      6          1           0        3.567323    0.308336   -1.070540
      7          1           0        3.790507    0.837550    0.601491
      8          1           0       -2.043793    2.400224    0.632082
      9          1           0       -1.005173    2.148659   -0.785787
     10          1           0       -0.391272    1.779401    0.847414
     11          1           0       -0.167911   -1.980264    1.579650
     12          1           0        0.939905   -0.598142    1.317026
     13          1           0        1.273496   -2.170291    0.558903
     14          6           0       -1.263620    1.774088    0.200968
     15         16           0       -1.976698    0.102422    0.080793
     16         16           0       -0.431403   -1.038768   -0.633823
     17          6           0        0.489855   -1.481936    0.873996
 ---------------------------------------------------------------------

 SCF Done:  E(RHF) =  -970.887390490     A.U. after    2 cycles

 The electronic state is 1-A.
 Alpha  occ. eigenvalues --  -75.69744 -75.69514 -15.71677 -13.15599 -13.13152
 Alpha  occ. eigenvalues --  -13.10058 -13.09203 -13.08413 -13.03394 -11.39714
 Alpha  occ. eigenvalues --  -11.39142 -11.37929  -8.03783  -8.03607  -1.32302
 Alpha  occ. eigenvalues --   -1.25726  -1.12492  -0.97903  -0.95360  -0.86506
 Alpha  occ. eigenvalues --   -0.67376  -0.60349  -0.59983  -0.58984  -0.58649
 Alpha  occ. eigenvalues --   -0.57301  -0.53090  -0.51431  -0.46474  -0.42808
 Alpha  occ. eigenvalues --   -0.35269  -0.33465  -0.24658  -0.23187
 Alpha virt. eigenvalues --    0.03260   0.03419   0.04056   0.05349   0.06540
 Alpha virt. eigenvalues --    0.06684   0.06868   0.07498   0.07673   0.09086
 Alpha virt. eigenvalues --    0.09793   0.09931   0.11418   0.12883   0.13945

 Mulliken charges:
               1
     1  N   -2.152166
     2  H    0.619868
     3  H    1.425474
     4  C   -3.345978
     5  H    1.607101
     6  H    1.318938
     7  H    1.296904
     8  H    1.303809
     9  H    1.488676
    10  H    1.745502
    11  H    1.340481
    12  H    1.825144
    13  H    1.473040
    14  C   -4.957298
    15  S    0.475250
    16  S   -0.729951
    17  C   -4.734794
 Sum of Mulliken charges =   0.00000

 Dipole moment (field-independent basis, Debye):
    X=             -0.0004    Y=              0.1125    Z=             -0.9464  Tot=              0.9531

 Test job not archived.
 1\1\GINC-SE054\SP\RHF\Aug-CC-pVDZ\C3H11N1S2\OHZDE\09-Apr-2025\0\\#t hf
  aug-cc-pvdz iop(5/13=1,5/36=2,99/5=2) pseudo=read geom=check guess=(r
 ead,tcheck) scf=(maxcycle=1)\\title\\0,1\N,0,-0.790217,0.77789413,2.28
 472778\H,0,-1.73224372,0.61681804,2.6155392\H,0,-0.85550262,0.99181266
 ,1.29666237\C,0,-0.16836631,1.8838218,3.01270443\H,0,0.84688345,2.0289
 6517,2.64500493\H,0,-0.69345824,2.84224623,2.93178871\H,0,-0.0959132,1
 .62767695,4.06903376\H,0,-1.96162847,-2.59154916,0.17042091\H,0,-2.490
 8102,-0.89902716,0.25821713\H,0,-1.15802705,-1.47267853,1.2951285\H,0,

 Normal termination of Gaussian 16 at Wed Apr  9 19:36:28 2025.
