 Gaussian 16, Revision C.01,

 ----------------------------------------------------------------------
 #t hf aug-cc-pvdz symm=none int=(grid=ultrafine) guess=(read,tcheck) s
 table=(opt,rrhf)
 ----------------------------------------------------------------------
 -----
 title
 -----
 Symbolic Z-matrix:
 Charge =  0 Multiplicity = 1

 SCF Done:  E(RHF) =  -797.387209147     A.U. after   11 cycles
 Normal termination of Gaussian 16 at Wed Apr  9 19:38:50 2025.
 Gaussian 16:  ES64L-G16RevC.01  3-Jul-2019

 ----------------------------------------------------------------------
 #t hf aug-cc-pvdz iop(5/13=1,5/36=2,99/5=2) pseudo=read geom=check gue
 ss=(read,tcheck) scf=(maxcycle=1)
 ----------------------------------------------------------------------
 -----
 title
 -----
 Structure from the checkpoint file:  "HB300SPXx10_1221_4.27_0.80_sulfane_sulfane_dimer_mol1.chk"
 Charge =  0 Multiplicity = 1

                         Standard orientation:
 ---------------------------------------------------------------------
 Center     Atomic      Atomic             Coordinates (Angstroms)
 Number     Number       Type             X           Y           Z
 ---------------------------------------------------------------------
      1          1           0       -0.462561   -0.080554   -0.105762
      2          1           0       -1.854581    1.263146    0.081838
      3         16           0       -1.804260   -0.074165   -0.003713
      4          1           0        1.675825    0.374631    1.219399
      5          1           0        1.882297    1.133687   -0.553825
      6         16           0        1.726698   -0.094017   -0.036390
 ---------------------------------------------------------------------

 SCF Done:  E(RHF) =  -797.863693767     A.U. after    2 cycles

 The electronic state is 1-A.
 Alpha  occ. eigenvalues --  -75.71772 -75.68129 -13.16882 -13.15195 -13.12792
 Alpha  occ. eigenvalues --  -13.09398 -13.06845 -12.99750  -8.05594  -8.01949
 Alpha  occ. eigenvalues --   -1.14177  -1.09435  -0.56752  -0.54949  -0.45557
 Alpha  occ. eigenvalues --   -0.43094  -0.25874  -0.24535
 Alpha virt. eigenvalues --    0.01220   0.04653   0.05230   0.05803   0.10586
 Alpha virt. eigenvalues --    0.11160   0.12263   0.13853   0.15517   0.15683
 Alpha virt. eigenvalues --    0.16277   0.19832   0.22673   0.23601   0.23964

 Mulliken charges:
               1
     1  H    2.069289
     2  H    0.916176
     3  S   -2.489170
     4  H    1.056562
     5  H    1.092788
     6  S   -2.645644
 Sum of Mulliken charges =  -0.00000

 Dipole moment (field-independent basis, Debye):
    X=             -0.1496    Y=             -1.9681    Z=             -0.5222  Tot=              2.0417

 Test job not archived.
 1\1\GINC-SE159\SP\RHF\Aug-CC-pVDZ\H4S2\OHZDE\09-Apr-2025\0\\#t hf aug-
 cc-pvdz iop(5/13=1,5/36=2,99/5=2) pseudo=read geom=check guess=(read,t
 check) scf=(maxcycle=1)\\title\\0,1\H,0,0.53139832,0.64498716,-0.29055
 053\H,0,2.23879772,0.67266195,0.63813986\S,0,1.60273769,1.45777787,-0.
 24349168\H,0,-1.44932118,-0.18449265,1.09676808\H,0,-0.68135046,-1.700
 05174,0.16059337\S,0,-1.29581503,-0.55810331,-0.18232447\\Version=ES64
 L-G16RevC.01\State=1-A\HF=-797.8636938\RMSD=1.720e-01\Dipole=-0.244670
 5,0.424596,-0.6364673\Quadrupole=-0.6512568,0.6412745,0.0099823,-0.731

 Normal termination of Gaussian 16 at Wed Apr  9 19:38:52 2025.
