 Gaussian 16, Revision C.01,

 ----------------------------------------------------------------------
 #t hf aug-cc-pvdz symm=none int=(grid=ultrafine) guess=(read,tcheck) s
 table=(opt,rrhf)
 ----------------------------------------------------------------------
 -----
 title
 -----
 Symbolic Z-matrix:
 Charge =  0 Multiplicity = 1

 SCF Done:  E(RHF) =  -418.180204019     A.U. after   14 cycles
 Normal termination of Gaussian 16 at Wed Apr  9 19:34:47 2025.
 Gaussian 16:  ES64L-G16RevC.01  3-Jul-2019

 ----------------------------------------------------------------------
 #t hf aug-cc-pvdz iop(5/13=1,5/36=2,99/5=2) pseudo=read geom=check gue
 ss=(read,tcheck) scf=(maxcycle=1)
 ----------------------------------------------------------------------
 -----
 title
 -----
 Structure from the checkpoint file:  "HB300SPXx10_1031_4.07_0.80_phosphaalkyne_methanethiol_dimer_mol2.chk"
 Charge =  0 Multiplicity = 1

                         Standard orientation:
 ---------------------------------------------------------------------
 Center     Atomic      Atomic             Coordinates (Angstroms)
 Number     Number       Type             X           Y           Z
 ---------------------------------------------------------------------
      1          1           0        2.141404   -0.797341   -0.632927
      2          1           0        2.142304   -0.141456    1.006640
      3          1           0        2.121633    0.955882   -0.378845
      4         15           0       -1.244556    0.000954   -0.000465
      5          6           0        0.295816   -0.006326    0.003125
      6          6           0        1.748018    0.001094   -0.001109
 ---------------------------------------------------------------------

 SCF Done:  E(RHF) =  -418.756513289     A.U. after    2 cycles

 The electronic state is 1-A.
 Alpha  occ. eigenvalues -- -105.16478 -11.44593 -11.40280  -2.74822  -1.56259
 Alpha  occ. eigenvalues --   -1.34106  -1.34103  -1.14019  -0.77829  -0.59504
 Alpha  occ. eigenvalues --   -0.59005  -0.58906  -0.15883  -0.15831  -0.06254
 Alpha virt. eigenvalues --    0.03074   0.06564   0.06572   0.08290   0.09003
 Alpha virt. eigenvalues --    0.09011   0.09387   0.14349   0.15374   0.15412
 Alpha virt. eigenvalues --    0.16341   0.19554   0.19610   0.22494   0.26394

 Mulliken charges:
               1
     1  H    1.137363
     2  H    1.137900
     3  H    1.124735
     4  P    5.288165
     5  C   -4.316897
     6  C   -4.371267
 Sum of Mulliken charges =   0.00000

 Dipole moment (field-independent basis, Debye):
    X=            -10.6865    Y=              0.0821    Z=             -0.0437  Tot=             10.6869

 Test job not archived.
 1\1\GINC-SE173\SP\RHF\Aug-CC-pVDZ\C2H3P1\OHZDE\09-Apr-2025\0\\#t hf au
 g-cc-pvdz iop(5/13=1,5/36=2,99/5=2) pseudo=read geom=check guess=(read
 ,tcheck) scf=(maxcycle=1)\\title\\0,1\H,0,0.38933231,2.34404549,-1.681
 80664\H,0,-1.19987448,1.75919838,-2.18254684\H,0,0.10218747,0.60583491
 ,-1.86864837\P,0,-1.17058474,1.34195856,1.32892267\C,0,-0.7484701,1.45
 533882,-0.14816129\C,0,-0.34350289,1.5476729,-1.53972175\\Version=ES64
 L-G16RevC.01\State=1-A\HF=-418.7565133\RMSD=1.222e+00\Dipole=-1.145324
 1,-0.3221603,4.0326994\Quadrupole=-0.2904065,-0.3487473,0.6391538,0.03

 Normal termination of Gaussian 16 at Wed Apr  9 19:34:48 2025.
