 Gaussian 16, Revision C.01,

 ----------------------------------------------------------------------
 #t hf aug-cc-pvdz symm=none int=(grid=ultrafine) guess=(read,tcheck) s
 table=(opt,rrhf)
 ----------------------------------------------------------------------
 -----
 title
 -----
 Symbolic Z-matrix:
 Charge =  0 Multiplicity = 1

 SCF Done:  E(RHF) =  -704.620716328     A.U. after   13 cycles
 Normal termination of Gaussian 16 at Wed Apr  9 19:37:22 2025.
 Gaussian 16:  ES64L-G16RevC.01  3-Jul-2019

 ----------------------------------------------------------------------
 #t hf aug-cc-pvdz iop(5/13=1,5/36=2,99/5=2) pseudo=read geom=check gue
 ss=(read,tcheck) scf=(maxcycle=1)
 ----------------------------------------------------------------------
 -----
 title
 -----
 Structure from the checkpoint file:  "HB300SPXx10_1125_4.16_1.00_aceticacid_dimethylsulfide_dimer_mol1.chk"
 Charge =  0 Multiplicity = 1

                         Standard orientation:
 ---------------------------------------------------------------------
 Center     Atomic      Atomic             Coordinates (Angstroms)
 Number     Number       Type             X           Y           Z
 ---------------------------------------------------------------------
      1          6           0        0.267541    1.843012    0.000000
      2          8           0       -0.867853    1.426098    0.000000
      3          8           0        1.344375    1.049229    0.000000
      4          1           0        1.055271    0.102850    0.000000
      5          6           0        0.641847    3.299630    0.000000
      6          1           0       -0.254079    3.910346    0.000000
      7          1           0        1.247848    3.524007    0.876781
      8          1           0        1.247848    3.524007   -0.876781
      9          1           0       -1.656450   -2.441957    1.379195
     10          1           0       -1.291059   -0.693614    1.315483
     11          1           0       -0.291333   -1.787898    2.299403
     12          1           0       -0.291333   -1.787898   -2.299403
     13          1           0       -1.291059   -0.693614   -1.315483
     14          1           0       -1.656450   -2.441957   -1.379195
     15          6           0       -0.867853   -1.692717    1.382643
     16         16           0        0.270408   -1.972508   -0.000000
     17          6           0       -0.867853   -1.692717   -1.382643
 ---------------------------------------------------------------------

 SCF Done:  E(RHF) =  -706.254732762     A.U. after    2 cycles

 The electronic state is 1-A'.
 Alpha  occ. eigenvalues --  -75.68030 -21.09807 -21.04167 -13.12618 -13.11196
 Alpha  occ. eigenvalues --  -13.08477 -11.51630 -11.39200 -11.39093 -11.38995
 Alpha  occ. eigenvalues --   -8.02156  -1.81512  -1.64217  -1.23012  -1.10637
 Alpha  occ. eigenvalues --   -1.03051  -0.88407  -0.79333  -0.63502  -0.61457
 Alpha  occ. eigenvalues --   -0.60317  -0.59864  -0.59675  -0.57844  -0.56893
 Alpha  occ. eigenvalues --   -0.53900  -0.49193  -0.44652  -0.44458  -0.36832
 Alpha  occ. eigenvalues --   -0.32738  -0.29161  -0.23152
 Alpha virt. eigenvalues --    0.03362   0.03828   0.04441   0.05805   0.06145
 Alpha virt. eigenvalues --    0.06290   0.07142   0.07580   0.08070   0.08861
 Alpha virt. eigenvalues --    0.10635   0.11802   0.12107   0.12809   0.14279

 Mulliken charges:
               1
     1  C    5.666441
     2  O   -3.048709
     3  O   -3.426051
     4  H    1.992295
     5  C   -4.402725
     6  H    1.305726
     7  H    1.242422
     8  H    1.242422
     9  H    1.379125
    10  H    1.524493
    11  H    1.461347
    12  H    1.461347
    13  H    1.524493
    14  H    1.379125
    15  C   -4.724696
    16  S    0.147643
    17  C   -4.724696
 Sum of Mulliken charges =  -0.00000

 Dipole moment (field-independent basis, Debye):
    X=              0.9534    Y=             -0.4576    Z=              0.0000  Tot=              1.0575

 Test job not archived.
 1\1\GINC-SE045\SP\RHF\Aug-CC-pVDZ\C4H10O2S1\OHZDE\09-Apr-2025\0\\#t hf
  aug-cc-pvdz iop(5/13=1,5/36=2,99/5=2) pseudo=read geom=check guess=(r
 ead,tcheck) scf=(maxcycle=1)\\title\\0,1\C,0,0.08152563,1.86646531,0.\
 O,0,1.12794826,1.25988757,0.\O,0,-1.11612638,1.27040068,0.\H,0,-0.9946
 6015,0.28833063,0.\C,0,-0.03582077,3.36582142,0.\H,0,0.95204799,3.8127
 8193,0.\H,0,-0.5940149,3.69140047,-0.87678098\H,0,-0.5940149,3.6914004
 7,0.87678098\H,0,1.23726894,-2.68622206,-1.37919498\H,0,1.17904238,-0.
 90105407,-1.31548339\H,0,0.00548843,-1.80641742,-2.29940307\H,0,0.0054

 Normal termination of Gaussian 16 at Wed Apr  9 19:37:27 2025.
