 Gaussian 16, Revision C.01,

 ----------------------------------------------------------------------
 #t hf aug-cc-pvdz symm=none int=(grid=ultrafine) guess=(read,tcheck) s
 table=(opt,rrhf)
 ----------------------------------------------------------------------
 -----
 title
 -----
 Symbolic Z-matrix:
 Charge =  0 Multiplicity = 1

 SCF Done:  E(RHF) =  -630.513187181     A.U. after   14 cycles

 1\1\GINC-SE100\Stability\RHF\Aug-CC-pVDZ\C6H10S1\OHZDE\09-Apr-2025\0\\
 #t hf aug-cc-pvdz symm=none int=(grid=ultrafine) guess=(read,tcheck) s
 table=(opt,rrhf)\\title\\0,1\C,0,2.59090187,-0.04968862,0.43961338\H,0
 ,1.93323189,0.27193926,-0.33858357\C,0,3.30609004,-0.41751171,1.325807
 27\H,0,3.94715573,-0.74121457,2.10714096\H,0,-0.07409918,-1.63621903,-
 0.67689818\H,0,-1.54875933,-1.68305202,-1.65237918\H,0,-1.79661094,-1.
 94259618,1.00027418\H,0,-2.11181271,1.85328867,0.07749079\H,0,-2.89364
 812,-0.84213952,0.1681994\H,0,-0.39996019,2.04392808,0.47174081\H,0,-1

 Normal termination of Gaussian 16 at Wed Apr  9 19:35:27 2025.
 Gaussian 16:  ES64L-G16RevC.01  3-Jul-2019

 ----------------------------------------------------------------------
 #t hf aug-cc-pvdz iop(5/13=1,5/36=2,99/5=2) pseudo=read geom=check gue
 ss=(read,tcheck) scf=(maxcycle=1)
 ----------------------------------------------------------------------
 -----
 title
 -----
 Structure from the checkpoint file:  "HB300SPXx10_1007_4.04_1.10_ethyne_tetrahydrothiophene_dimer_mol1.chk"
 Charge =  0 Multiplicity = 1

                         Standard orientation:
 ---------------------------------------------------------------------
 Center     Atomic      Atomic             Coordinates (Angstroms)
 Number     Number       Type             X           Y           Z
 ---------------------------------------------------------------------
      1          6           0       -2.813962   -0.404752   -0.048710
      2          1           0       -1.935624   -1.011858   -0.009858
      3          6           0       -3.782147    0.297285   -0.092171
      4          1           0       -4.645737    0.912886   -0.130631
      5          1           0       -0.033242    0.030870   -1.764442
      6          1           0        1.660875   -0.361849   -2.087115
      7          1           0        1.085851    2.126708   -1.285995
      8          1           0        1.882565   -0.053815    1.871566
      9          1           0        2.443778    1.302210   -0.522398
     10          1           0        0.145339   -0.294614    2.086689
     11          1           0        1.018059    2.132700    1.318482
     12          1           0       -0.411005    1.449231    0.548447
     13         16           0        0.935289   -1.292532    0.021874
     14          6           0        0.959370   -0.039334   -1.322550
     15          6           0        1.361985    1.276516   -0.661922
     16          6           0        0.660401    1.313242    0.694898
     17          6           0        0.918440   -0.034950    1.368001
 ---------------------------------------------------------------------

 SCF Done:  E(RHF) =  -631.921066738     A.U. after    2 cycles

 The electronic state is 1-A.
 Alpha  occ. eigenvalues --  -75.66556 -13.10734 -13.09543 -13.06841 -11.43446
 Alpha  occ. eigenvalues --  -11.42713 -11.41180 -11.40917 -11.38955 -11.36235
 Alpha  occ. eigenvalues --   -8.00617  -1.32566  -1.09408  -1.07189  -1.07128
 Alpha  occ. eigenvalues --   -0.84538  -0.83114  -0.78239  -0.66511  -0.65633
 Alpha  occ. eigenvalues --   -0.65174  -0.60850  -0.54148  -0.48921  -0.47075
 Alpha  occ. eigenvalues --   -0.45525  -0.42080  -0.38653  -0.38627  -0.34848
 Alpha  occ. eigenvalues --   -0.22292
 Alpha virt. eigenvalues --    0.03412   0.04360   0.04876   0.05538   0.05794
 Alpha virt. eigenvalues --    0.05906   0.06672   0.07115   0.07297   0.08391
 Alpha virt. eigenvalues --    0.10002   0.11208   0.11657   0.13404   0.14045

 Mulliken charges:
               1
     1  C    0.065685
     2  H    0.935526
     3  C   -1.338228
     4  H    0.514156
     5  H    1.514908
     6  H    1.366350
     7  H    1.279226
     8  H    1.396249
     9  H    1.421695
    10  H    1.449913
    11  H    1.274276
    12  H    1.739125
    13  S    0.710576
    14  C   -3.347984
    15  C   -2.777263
    16  C   -2.814039
    17  C   -3.390171
 Sum of Mulliken charges =  -0.00000

 Dipole moment (field-independent basis, Debye):
    X=              0.4870    Y=              0.4505    Z=              0.0028  Tot=              0.6635

 Test job not archived.
 1\1\GINC-SE100\SP\RHF\Aug-CC-pVDZ\C6H10S1\OHZDE\09-Apr-2025\0\\#t hf a
 ug-cc-pvdz iop(5/13=1,5/36=2,99/5=2) pseudo=read geom=check guess=(rea
 d,tcheck) scf=(maxcycle=1)\\title\\0,1\C,0,2.59090187,-0.04968862,0.43
 961338\H,0,1.93323189,0.27193926,-0.33858357\C,0,3.30609004,-0.4175117
 1,1.32580727\H,0,3.94715573,-0.74121457,2.10714096\H,0,-0.07409918,-1.
 63621903,-0.67689818\H,0,-1.54875933,-1.68305202,-1.65237918\H,0,-1.79
 661094,-1.94259618,1.00027418\H,0,-2.11181271,1.85328867,0.07749079\H,
 0,-2.89364812,-0.84213952,0.1681994\H,0,-0.39996019,2.04392808,0.47174

 Normal termination of Gaussian 16 at Wed Apr  9 19:35:33 2025.
