 Gaussian 16, Revision C.01,

 ----------------------------------------------------------------------
 #t hf aug-cc-pvdz symm=none int=(grid=ultrafine) guess=(read,tcheck) s
 table=(opt,rrhf)
 ----------------------------------------------------------------------
 -----
 title
 -----
 Symbolic Z-matrix:
 Charge =  0 Multiplicity = 1

 SCF Done:  E(RHF) =  -936.859765666     A.U. after   11 cycles
 Normal termination of Gaussian 16 at Wed Apr  9 19:38:55 2025.
 Gaussian 16:  ES64L-G16RevC.01  3-Jul-2019

 ----------------------------------------------------------------------
 #t hf aug-cc-pvdz iop(5/13=1,5/36=2,99/5=2) pseudo=read geom=check gue
 ss=(read,tcheck) scf=(maxcycle=1)
 ----------------------------------------------------------------------
 -----
 title
 -----
 Structure from the checkpoint file:  "HB300SPXx10_1325_4.37_1.00_hydrogenchloride_dimethylsulfide_dimer_mol1.chk"
 Charge =  0 Multiplicity = 1

                         Standard orientation:
 ---------------------------------------------------------------------
 Center     Atomic      Atomic             Coordinates (Angstroms)
 Number     Number       Type             X           Y           Z
 ---------------------------------------------------------------------
      1          1           0       -1.043413   -0.000003   -0.439393
      2         17           0       -2.277761   -0.000002    0.040223
      3          1           0        0.421406   -1.354202    1.227979
      4          1           0        2.192409   -1.365704    1.004403
      5          1           0        1.149365   -2.299390   -0.082719
      6          1           0        1.149355    2.299393   -0.082721
      7          1           0        2.192400    1.365710    1.004406
      8          1           0        0.421395    1.354203    1.227976
      9          6           0        1.229193   -1.385386    0.499872
     10         16           0        1.093047    0.000001   -0.658887
     11          6           0        1.229186    1.385388    0.499872
 ---------------------------------------------------------------------

 SCF Done:  E(RHF) =  -937.775195845     A.U. after    2 cycles

 The electronic state is 1-A.
 Alpha  occ. eigenvalues --  -99.87693 -75.69414 -13.13300 -13.12479 -13.09517
 Alpha  occ. eigenvalues --  -11.40670 -11.40498 -10.44785  -9.64871  -9.64098
 Alpha  occ. eigenvalues --   -9.64076  -8.03569  -1.27741  -1.24065  -1.04582
 Alpha  occ. eigenvalues --   -0.89896  -0.67543  -0.61512  -0.61197  -0.59315
 Alpha  occ. eigenvalues --   -0.58408  -0.50154  -0.50113  -0.45900  -0.38434
 Alpha  occ. eigenvalues --   -0.25471
 Alpha virt. eigenvalues --    0.02754   0.03555   0.05072   0.05895   0.07126
 Alpha virt. eigenvalues --    0.07367   0.08291   0.09001   0.10915   0.11746
 Alpha virt. eigenvalues --    0.12797   0.15307   0.15532   0.15692   0.16299

 Mulliken charges:
               1
     1  H    0.932496
     2  Cl  -0.746540
     3  H    1.307079
     4  H    1.418587
     5  H    1.388774
     6  H    1.388774
     7  H    1.418586
     8  H    1.307079
     9  C   -4.388170
    10  S    0.361503
    11  C   -4.388168
 Sum of Mulliken charges =   0.00000

 Dipole moment (field-independent basis, Debye):
    X=              3.3012    Y=              0.0000    Z=             -0.6080  Tot=              3.3567

 Test job not archived.
 1\1\GINC-SE229\SP\RHF\Aug-CC-pVDZ\C2H7Cl1S1\OHZDE\09-Apr-2025\0\\#t hf
  aug-cc-pvdz iop(5/13=1,5/36=2,99/5=2) pseudo=read geom=check guess=(r
 ead,tcheck) scf=(maxcycle=1)\\title\\0,1\H,0,-0.09169332,-0.01707414,-
 1.03147385\Cl,0,0.64323048,-0.44620369,-2.04605842\H,0,1.55356891,0.78
 935302,0.81310355\H,0,0.90160554,1.22580867,2.41654401\H,0,0.66289922,
 2.30598018,1.03169959\H,0,-1.38978239,-1.80164301,1.28216932\H,0,-0.31
 756517,-1.2138862,2.56530648\H,0,0.34466311,-1.62978856,0.96060974\C,0
 ,0.7322326,1.26702485,1.34307445\S,0,-0.84143477,0.4765645,0.91963991\

 Normal termination of Gaussian 16 at Wed Apr  9 19:38:58 2025.
