 Gaussian 16, Revision C.01,

 ----------------------------------------------------------------------
 #t hf aug-cc-pvdz symm=none int=(grid=ultrafine) guess=(read,tcheck) s
 table=(opt,rrhf)
 ----------------------------------------------------------------------
 -----
 title
 -----
 Symbolic Z-matrix:
 Charge =  0 Multiplicity = 1

 SCF Done:  E(RHF) =  -626.436313444     A.U. after   13 cycles
 Normal termination of Gaussian 16 at Wed Apr  9 19:40:51 2025.
 Gaussian 16:  ES64L-G16RevC.01  3-Jul-2019

 ----------------------------------------------------------------------
 #t hf aug-cc-pvdz iop(5/13=1,5/36=2,99/5=2) pseudo=read geom=check gue
 ss=(read,tcheck) scf=(maxcycle=1)
 ----------------------------------------------------------------------
 -----
 title
 -----
 Structure from the checkpoint file:  "HB300SPXx10_1391_5.02_0.80_dimethylsulfone_phosphineF2_dimer_mol2.chk"
 Charge =  0 Multiplicity = 1

                         Standard orientation:
 ---------------------------------------------------------------------
 Center     Atomic      Atomic             Coordinates (Angstroms)
 Number     Number       Type             X           Y           Z
 ---------------------------------------------------------------------
      1          1           0        1.405013    1.479897   -0.937814
      2          1           0        2.282375    0.271315    0.036119
      3          1           0        1.360859    1.560944    0.856701
      4          1           0       -1.372662    1.541372    0.869906
      5          1           0       -2.280871    0.276920   -0.004221
      6          1           0       -1.381671    1.506724   -0.928737
      7          8           0        0.001755   -0.943097   -1.224829
      8         16           0       -0.000362   -0.184562   -0.001688
      9          8           0       -0.005351   -0.888445    1.263901
     10          6           0        1.405234    0.911692   -0.012286
     11          6           0       -1.401647    0.916333   -0.017300
 ---------------------------------------------------------------------

 SCF Done:  E(RHF) =  -627.752002268     A.U. after    2 cycles

 The electronic state is 1-A.
 Alpha  occ. eigenvalues --  -75.87795 -21.03765 -21.03407 -13.50575 -13.40418
 Alpha  occ. eigenvalues --  -13.33034 -11.43521 -11.41957  -8.23208  -1.82903
 Alpha  occ. eigenvalues --   -1.64089  -1.19484  -1.09167  -0.87297  -0.65405
 Alpha  occ. eigenvalues --   -0.64929  -0.64815  -0.61970  -0.55563  -0.53973
 Alpha  occ. eigenvalues --   -0.42724  -0.38696  -0.38654  -0.36280  -0.34398
 Alpha virt. eigenvalues --    0.02060   0.04240   0.04791   0.05666   0.06918
 Alpha virt. eigenvalues --    0.06972   0.09741   0.12647   0.12750   0.13262
 Alpha virt. eigenvalues --    0.14265   0.15251   0.15715   0.16385   0.16783

 Mulliken charges:
               1
     1  H    1.327162
     2  H    1.344870
     3  H    1.326079
     4  H    1.327236
     5  H    1.344063
     6  H    1.325620
     7  O   -2.525341
     8  S    6.067384
     9  O   -2.502759
    10  C   -4.517214
    11  C   -4.517101
 Sum of Mulliken charges =  -0.00000

 Dipole moment (field-independent basis, Debye):
    X=              0.0043    Y=              2.4976    Z=             -0.0759  Tot=              2.4987

 Test job not archived.
 1\1\GINC-SE045\SP\RHF\Aug-CC-pVDZ\C2H6O2S1\OHZDE\09-Apr-2025\0\\#t hf
 aug-cc-pvdz iop(5/13=1,5/36=2,99/5=2) pseudo=read geom=check guess=(re
 ad,tcheck) scf=(maxcycle=1)\\title\\0,1\H,0,1.82037896,-1.1252997,2.45
 423408\H,0,2.45327614,-0.04590354,1.18406648\H,0,1.26048817,-1.3027848
 1,0.75605091\H,0,-1.35656486,-1.06874241,1.510339\H,0,-1.8999986,0.310
 18714,2.5058364\H,0,-0.84910966,-0.93302114,3.2309401\O,0,0.70477422,1
 .412934,2.93921594\S,0,0.30796869,0.58975017,1.82729483\O,0,-0.0164970
 6,1.22000253,0.56448154\C,0,1.58998555,-0.61149627,1.52558836\C,0,-1.0

 Normal termination of Gaussian 16 at Wed Apr  9 19:40:54 2025.
