 Gaussian 16, Revision C.01,

 ----------------------------------------------------------------------
 #t hf aug-cc-pvdz symm=none int=(grid=ultrafine) guess=(read,tcheck) s
 table=(opt,rrhf)
 ----------------------------------------------------------------------
 -----
 title
 -----
 Symbolic Z-matrix:
 Charge =  0 Multiplicity = 1

 SCF Done:  E(RHF) =  -648.897413430     A.U. after   13 cycles
 Normal termination of Gaussian 16 at Wed Apr  9 19:36:48 2025.
 Gaussian 16:  ES64L-G16RevC.01  3-Jul-2019

 ----------------------------------------------------------------------
 #t hf aug-cc-pvdz iop(5/13=1,5/36=2,99/5=2) pseudo=read geom=check gue
 ss=(read,tcheck) scf=(maxcycle=1)
 ----------------------------------------------------------------------
 -----
 title
 -----
 Structure from the checkpoint file:  "HB300SPXx10_1081_4.12_0.80_methylamine_tetrahydrothiophene_dimer_mol1.chk"
 Charge =  0 Multiplicity = 1

                         Standard orientation:
 ---------------------------------------------------------------------
 Center     Atomic      Atomic             Coordinates (Angstroms)
 Number     Number       Type             X           Y           Z
 ---------------------------------------------------------------------
      1          7           0       -1.867375   -0.292622   -0.857999
      2          1           0       -1.207400   -0.892260   -0.373836
      3          1           0       -2.379692   -0.874559   -1.507171
      4          6           0       -2.777690    0.337837    0.096510
      5          1           0       -3.492870    0.961939   -0.438468
      6          1           0       -3.342614   -0.359273    0.726468
      7          1           0       -2.209878    0.994151    0.756144
      8          1           0        1.195297    0.603906    2.074049
      9          1           0       -0.545348    0.516786    1.788872
     10          1           0        0.840959    2.453543    0.550879
     11          1           0        0.531674   -0.625049   -1.783582
     12          1           0       -0.351779    1.541556   -0.380888
     13          1           0        2.158465   -1.151734   -1.318192
     14          1           0        1.732124    1.468733   -1.687822
     15          1           0        2.640943    0.963117   -0.264212
     16         16           0        0.640319   -1.206121    0.565354
     17          6           0        0.430317    0.463335    1.312973
     18          6           0        0.585441    1.464586    0.169544
     19          6           0        1.667678    0.908646   -0.754854
     20          6           0        1.303692   -0.550163   -1.021157
 ---------------------------------------------------------------------

 SCF Done:  E(RHF) =  -650.427400797     A.U. after    2 cycles

 The electronic state is 1-A.
 Alpha  occ. eigenvalues --  -75.66172 -15.70343 -13.11815 -13.11564 -13.09747
 Alpha  occ. eigenvalues --  -11.43497 -11.42293 -11.38813 -11.37515 -11.35759
 Alpha  occ. eigenvalues --   -8.00365  -1.33220  -1.29494  -1.07251  -1.06926
 Alpha  occ. eigenvalues --   -0.94366  -0.84421  -0.82639  -0.67755  -0.65210
 Alpha  occ. eigenvalues --   -0.63791  -0.60994  -0.58440  -0.54388  -0.51727
 Alpha  occ. eigenvalues --   -0.50738  -0.48092  -0.46426  -0.44888  -0.41726
 Alpha  occ. eigenvalues --   -0.35200  -0.33312  -0.21368
 Alpha virt. eigenvalues --    0.03958   0.04473   0.04863   0.05581   0.05840
 Alpha virt. eigenvalues --    0.05979   0.06193   0.06504   0.06976   0.08427
 Alpha virt. eigenvalues --    0.08965   0.09390   0.09913   0.11569   0.12793

 Mulliken charges:
               1
     1  N   -2.134747
     2  H    1.961190
     3  H    0.447990
     4  C   -3.550143
     5  H    1.242259
     6  H    1.186473
     7  H    1.840488
     8  H    1.346226
     9  H    1.765423
    10  H    1.219812
    11  H    1.547688
    12  H    2.139540
    13  H    1.368432
    14  H    1.313377
    15  H    1.423410
    16  S   -0.051545
    17  C   -3.561852
    18  C   -3.241856
    19  C   -2.659203
    20  C   -3.602965
 Sum of Mulliken charges =   0.00000

 Dipole moment (field-independent basis, Debye):
    X=             -0.3755    Y=             -0.4245    Z=              0.0982  Tot=              0.5752

 Test job not archived.
 1\1\GINC-SE222\SP\RHF\Aug-CC-pVDZ\C5H13N1S1\OHZDE\09-Apr-2025\0\\#t hf
  aug-cc-pvdz iop(5/13=1,5/36=2,99/5=2) pseudo=read geom=check guess=(r
 ead,tcheck) scf=(maxcycle=1)\\title\\0,1\N,0,-0.48023551,2.04199658,1.
 33183501\H,0,-0.98136805,1.22913012,0.98881982\H,0,-1.14375731,2.80345
 765,1.38144373\C,0,0.08991425,1.76981847,2.65020044\H,0,0.60698078,2.6
 5693888,3.01468146\H,0,-0.63523497,1.46399211,3.41346792\H,0,0.8338340
 5,0.97768014,2.5643137\H,0,0.87882826,-1.95557088,0.35560396\H,0,0.589
 0062,-0.81296124,1.67059715\H,0,2.60705799,-0.30150184,-0.02391735\H,0

 Normal termination of Gaussian 16 at Wed Apr  9 19:36:56 2025.
