 Gaussian 16, Revision C.01,

 ----------------------------------------------------------------------
 #t hf aug-cc-pvdz symm=none int=(grid=ultrafine) guess=(read,tcheck) s
 table=(opt,rrhf)
 ----------------------------------------------------------------------
 -----
 title
 -----
 Symbolic Z-matrix:
 Charge =  0 Multiplicity = 1

 SCF Done:  E(RHF) =  -645.418447495     A.U. after   14 cycles
 Normal termination of Gaussian 16 at Wed Apr  9 04:10:34 2025.
 Gaussian 16:  ES64L-G16RevC.01  3-Jul-2019

 ----------------------------------------------------------------------
 #t hf aug-cc-pvdz iop(5/13=1,5/36=2,99/5=2) pseudo=read geom=check gue
 ss=(read,tcheck) scf=(maxcycle=1)
 ----------------------------------------------------------------------
 -----
 title
 -----
 Structure from the checkpoint file:  "HB300SPXx10_122_1.13_0.85_sulfane_pyridine_dimer_mol1.chk"
 Charge =  0 Multiplicity = 1

                         Standard orientation:
 ---------------------------------------------------------------------
 Center     Atomic      Atomic             Coordinates (Angstroms)
 Number     Number       Type             X           Y           Z
 ---------------------------------------------------------------------
      1          1           0        1.821584   -0.306285   -0.025929
      2          1           0        3.278477   -0.040417    1.252572
      3         16           0        3.139584    0.011496   -0.079969
      4          1           0       -2.951333   -1.819416   -0.002037
      5          1           0       -0.512484   -2.292321   -0.001679
      6          6           0       -2.656736    0.316589    0.000969
      7          6           0       -2.239505   -1.007155   -0.000340
      8          6           0       -0.876515   -1.272600    0.000024
      9          7           0        0.050368   -0.315327    0.001855
     10          6           0       -0.357207    0.953392    0.002908
     11          6           0       -1.696951    1.318796    0.002578
     12          1           0        0.424192    1.703446    0.003250
     13          1           0       -1.975571    2.362234    0.003148
     14          1           0       -3.709307    0.561981    0.000372
 ---------------------------------------------------------------------

 SCF Done:  E(RHF) =  -646.828650412     A.U. after    2 cycles

 The electronic state is 1-A.
 Alpha  occ. eigenvalues --  -75.65820 -15.75196 -13.12083 -13.06952 -12.98424
 Alpha  occ. eigenvalues --  -11.50115 -11.46292 -11.44916 -11.42316 -11.39215
 Alpha  occ. eigenvalues --   -7.99672  -1.46892  -1.20720  -1.12908  -1.07623
 Alpha  occ. eigenvalues --   -0.90439  -0.90252  -0.75425  -0.67040  -0.61806
 Alpha  occ. eigenvalues --   -0.60676  -0.59417  -0.55740  -0.51026  -0.48720
 Alpha  occ. eigenvalues --   -0.43000  -0.38568  -0.35439  -0.32315  -0.23118
 Alpha virt. eigenvalues --    0.02459   0.04652   0.04846   0.05264   0.05538
 Alpha virt. eigenvalues --    0.06881   0.07989   0.09444   0.10073   0.10264
 Alpha virt. eigenvalues --    0.11975   0.12799   0.13239   0.13454   0.13708

 Mulliken charges:
               1
     1  H    1.552641
     2  H    0.983133
     3  S   -2.651688
     4  H    1.451510
     5  H    1.609512
     6  C    0.002978
     7  C   -0.886829
     8  C   -1.428464
     9  N   -3.267311
    10  C   -1.429898
    11  C   -0.662009
    12  H    1.772005
    13  H    1.413967
    14  H    1.540453
 Sum of Mulliken charges =  -0.00000

 Dipole moment (field-independent basis, Debye):
    X=             -3.0825    Y=              0.4140    Z=             -0.8727  Tot=              3.2303

 Test job not archived.
 1\1\GINC-SE051\SP\RHF\Aug-CC-pVDZ\C5H7N1S1\OHZDE\09-Apr-2025\0\\#t hf
 aug-cc-pvdz iop(5/13=1,5/36=2,99/5=2) pseudo=read geom=check guess=(re
 ad,tcheck) scf=(maxcycle=1)\\title\\0,1\H,0,1.25021154,1.5960457,0.136
 91261\H,0,3.15091491,1.84193998,0.53016902\S,0,2.02337536,2.53859467,0
 .73260516\H,0,-1.67361023,-1.62115216,-2.34739386\H,0,-0.13522788,0.32
 849842,-2.2852108\C,0,-1.54632918,-1.93907232,-0.21853489\C,0,-1.24972
 916,-1.29209571,-1.4101013\C,0,-0.38981931,-0.20231181,-1.37648874\N,0
 ,0.16461254,0.25163793,-0.25309189\C,0,-0.12462223,-0.37409328,0.88733

 Normal termination of Gaussian 16 at Wed Apr  9 04:10:38 2025.
