 Gaussian 16, Revision C.01,

 ----------------------------------------------------------------------
 #t hf aug-cc-pvdz symm=none int=(grid=ultrafine) guess=(read,tcheck) s
 table=(opt,rrhf)
 ----------------------------------------------------------------------
 -----
 title
 -----
 Symbolic Z-matrix:
 Charge =  0 Multiplicity = 1

 SCF Done:  E(RHF) =  -609.885429252     A.U. after   13 cycles
 Normal termination of Gaussian 16 at Wed Apr  9 19:36:18 2025.
 Gaussian 16:  ES64L-G16RevC.01  3-Jul-2019

 ----------------------------------------------------------------------
 #t hf aug-cc-pvdz iop(5/13=1,5/36=2,99/5=2) pseudo=read geom=check gue
 ss=(read,tcheck) scf=(maxcycle=1)
 ----------------------------------------------------------------------
 -----
 title
 -----
 Structure from the checkpoint file:  "HB300SPXx10_1053_4.09_0.90_ammonia_tetrahydrothiophene_dimer_mol1.chk"
 Charge =  0 Multiplicity = 1

                         Standard orientation:
 ---------------------------------------------------------------------
 Center     Atomic      Atomic             Coordinates (Angstroms)
 Number     Number       Type             X           Y           Z
 ---------------------------------------------------------------------
      1          7           0        2.570457   -0.602060   -0.266393
      2          1           0        2.014216    0.232745   -0.101987
      3          1           0        3.263182   -0.651464    0.470132
      4          1           0        3.074200   -0.462730   -1.133335
      5          1           0       -1.303479    0.215606    1.970694
      6          1           0        0.418977   -0.170332    2.061567
      7          1           0       -1.246165   -2.040877    1.093624
      8          1           0        0.261248    0.023061   -1.821658
      9          1           0        0.286124   -1.743440    0.264226
     10          1           0       -1.211393    1.001593   -1.901291
     11          1           0       -1.467488   -1.630079   -1.467756
     12          1           0       -2.415299   -0.524911   -0.474041
     13         16           0       -0.063269    1.311716    0.205253
     14          6           0       -0.425375   -0.053735    1.387176
     15          6           0       -0.670684   -1.300057    0.537899
     16          6           0       -1.399568   -0.837143   -0.722617
     17          6           0       -0.613544    0.353901   -1.265702
 ---------------------------------------------------------------------

 SCF Done:  E(RHF) =  -611.207602084     A.U. after    2 cycles

 The electronic state is 1-A.
 Alpha  occ. eigenvalues --  -75.66104 -15.72899 -13.10619 -13.09631 -13.08816
 Alpha  occ. eigenvalues --  -11.43198 -11.42042 -11.38533 -11.35474  -8.00226
 Alpha  occ. eigenvalues --   -1.32149  -1.23870  -1.06824  -1.06699  -0.84191
 Alpha  occ. eigenvalues --   -0.82462  -0.65986  -0.64919  -0.60857  -0.60693
 Alpha  occ. eigenvalues --   -0.59688  -0.53466  -0.48301  -0.46471  -0.44850
 Alpha  occ. eigenvalues --   -0.41647  -0.37817  -0.34378  -0.21882
 Alpha virt. eigenvalues --    0.03841   0.04611   0.04806   0.05803   0.06052
 Alpha virt. eigenvalues --    0.06256   0.06450   0.07017   0.07481   0.08905
 Alpha virt. eigenvalues --    0.09310   0.11314   0.12993   0.14389   0.14735

 Mulliken charges:
               1
     1  N   -2.028127
     2  H    1.454328
     3  H    0.529305
     4  H    0.519020
     5  H    1.395289
     6  H    1.416748
     7  H    1.264068
     8  H    1.550340
     9  H    1.767861
    10  H    1.355294
    11  H    1.289173
    12  H    1.405077
    13  S    0.410638
    14  C   -3.381330
    15  C   -2.883692
    16  C   -2.636213
    17  C   -3.427778
 Sum of Mulliken charges =  -0.00000

 Dipole moment (field-independent basis, Debye):
    X=              0.4197    Y=              0.5556    Z=              0.0121  Tot=              0.6964

 Test job not archived.
 1\1\GINC-SE018\SP\RHF\Aug-CC-pVDZ\C4H11N1S1\OHZDE\09-Apr-2025\0\\#t hf
  aug-cc-pvdz iop(5/13=1,5/36=2,99/5=2) pseudo=read geom=check guess=(r
 ead,tcheck) scf=(maxcycle=1)\\title\\0,1\N,0,-1.82627315,2.2398073,0.1
 9813908\H,0,-1.3275361,1.71497926,-0.51540753\H,0,-2.80551666,2.240204
 76,-0.05849198\H,0,-1.50884454,3.19950412,0.14356214\H,0,-0.61438384,-
 2.12147625,-0.23895243\H,0,-1.91603485,-0.92585365,-0.25483789\H,0,-0.
 71870319,-1.45984478,2.08819411\H,0,0.94954185,1.61804372,0.42249148\H
 ,0,-1.05016943,0.22198872,1.65709516\H,0,2.25859231,0.59169541,-0.1821

 Normal termination of Gaussian 16 at Wed Apr  9 19:36:24 2025.
