 Gaussian 16, Revision C.01,

 ----------------------------------------------------------------------
 #t hf aug-cc-pvdz symm=none int=(grid=ultrafine) guess=(read,tcheck) s
 table=(opt,rrhf)
 ----------------------------------------------------------------------
 -----
 title
 -----
 Symbolic Z-matrix:
 Charge =  0 Multiplicity = 1

 SCF Done:  E(RHF) =  -645.426092224     A.U. after   14 cycles
 Normal termination of Gaussian 16 at Wed Apr  9 04:10:50 2025.
 Gaussian 16:  ES64L-G16RevC.01  3-Jul-2019

 ----------------------------------------------------------------------
 #t hf aug-cc-pvdz iop(5/13=1,5/36=2,99/5=2) pseudo=read geom=check gue
 ss=(read,tcheck) scf=(maxcycle=1)
 ----------------------------------------------------------------------
 -----
 title
 -----
 Structure from the checkpoint file:  "HB300SPXx10_127_1.13_1.10_sulfane_pyridine_dimer_mol1.chk"
 Charge =  0 Multiplicity = 1

                         Standard orientation:
 ---------------------------------------------------------------------
 Center     Atomic      Atomic             Coordinates (Angstroms)
 Number     Number       Type             X           Y           Z
 ---------------------------------------------------------------------
      1          1           0        2.186212   -0.304998   -0.028340
      2          1           0        3.641241   -0.039484    1.252354
      3         16           0        3.504375    0.012437   -0.080397
      4          1           0       -3.108091   -1.819399   -0.004241
      5          1           0       -0.669370   -2.292943   -0.000189
      6          6           0       -2.812939    0.316529   -0.000835
      7          6           0       -2.396054   -1.007324   -0.001486
      8          6           0       -1.033135   -1.273127    0.000943
      9          7           0       -0.106005   -0.316097    0.004153
     10          6           0       -0.513248    0.952729    0.004564
     11          6           0       -1.852895    1.318484    0.002202
     12          1           0        0.268346    1.702578    0.006070
     13          1           0       -2.131241    2.361995    0.002330
     14          1           0       -3.865444    0.562197   -0.003028
 ---------------------------------------------------------------------

 SCF Done:  E(RHF) =  -646.830560319     A.U. after    2 cycles

 The electronic state is 1-A.
 Alpha  occ. eigenvalues --  -75.68042 -15.74592 -13.13753 -13.07280 -12.99933
 Alpha  occ. eigenvalues --  -11.49321 -11.45600 -11.44153 -11.41684 -11.38586
 Alpha  occ. eigenvalues --   -8.01739  -1.45812  -1.19774  -1.12229  -1.09034
 Alpha  occ. eigenvalues --   -0.89665  -0.89550  -0.74524  -0.66323  -0.61020
 Alpha  occ. eigenvalues --   -0.59930  -0.56868  -0.54950  -0.52394  -0.48144
 Alpha  occ. eigenvalues --   -0.42077  -0.37782  -0.35849  -0.34864  -0.24081
 Alpha virt. eigenvalues --    0.02620   0.04505   0.04939   0.05068   0.05691
 Alpha virt. eigenvalues --    0.06855   0.07719   0.09866   0.10495   0.10624
 Alpha virt. eigenvalues --    0.11912   0.12654   0.13265   0.13657   0.13751

 Mulliken charges:
               1
     1  H    1.478940
     2  H    0.990165
     3  S   -2.519560
     4  H    1.448168
     5  H    1.614540
     6  C   -0.007664
     7  C   -0.881676
     8  C   -1.288318
     9  N   -3.332338
    10  C   -1.528876
    11  C   -0.589660
    12  H    1.660099
    13  H    1.428638
    14  H    1.527541
 Sum of Mulliken charges =  -0.00000

 Dipole moment (field-independent basis, Debye):
    X=             -2.0567    Y=              0.5394    Z=             -0.8755  Tot=              2.2994

 Test job not archived.
 1\1\GINC-SE083\SP\RHF\Aug-CC-pVDZ\C5H7N1S1\OHZDE\09-Apr-2025\0\\#t hf
 aug-cc-pvdz iop(5/13=1,5/36=2,99/5=2) pseudo=read geom=check guess=(re
 ad,tcheck) scf=(maxcycle=1)\\title\\0,1\H,0,1.25021154,1.5960457,0.136
 91261\H,0,3.15091491,1.84193998,0.53016902\S,0,2.02337536,2.53859467,0
 .73260516\H,0,-1.99290405,-2.01656621,-2.46210106\H,0,-0.4545217,-0.06
 691563,-2.399918\C,0,-1.865623,-2.33448637,-0.33324209\C,0,-1.56902298
 ,-1.68750976,-1.5248085\C,0,-0.70911313,-0.59772586,-1.49119594\N,0,-0
 .15468128,-0.14377613,-0.36779909\C,0,-0.44391605,-0.76950733,0.772626

 Normal termination of Gaussian 16 at Wed Apr  9 04:10:57 2025.
