 Gaussian 16, Revision C.01,

 ----------------------------------------------------------------------
 #t hf aug-cc-pvdz symm=none int=(grid=ultrafine) guess=(read,tcheck) s
 table=(opt,rrhf)
 ----------------------------------------------------------------------
 -----
 title
 -----
 Symbolic Z-matrix:
 Charge =  0 Multiplicity = 1

 SCF Done:  E(RHF) =  -3015.76584216     A.U. after   14 cycles
 Normal termination of Gaussian 16 at Wed Apr  9 19:39:14 2025.
 Gaussian 16:  ES64L-G16RevC.01  3-Jul-2019

 ----------------------------------------------------------------------
 #t hf aug-cc-pvdz iop(5/13=1,5/36=2,99/5=2) pseudo=read geom=check gue
 ss=(read,tcheck) scf=(maxcycle=1)
 ----------------------------------------------------------------------
 -----
 title
 -----
 Structure from the checkpoint file:  "HB300SPXx10_1347_4.39_1.10_hydrogenchloride_P4S3_dimer_mol1.chk"
 Charge =  0 Multiplicity = 1

                         Standard orientation:
 ---------------------------------------------------------------------
 Center     Atomic      Atomic             Coordinates (Angstroms)
 Number     Number       Type             X           Y           Z
 ---------------------------------------------------------------------
      1          1           0       -2.809622   -0.474605   -0.479107
      2         17           0       -3.900903    0.005188    0.015759
      3         16           0       -0.326928   -0.721209   -1.584621
      4         15           0       -0.090232    1.321835   -1.091740
      5         16           0       -0.213545   -0.739553    1.647461
      6         16           0        2.525455   -0.649844   -0.079817
      7         15           0        1.897958    1.364083   -0.036190
      8         15           0       -0.012058    1.301612    1.157610
      9         15           0        0.695349   -1.710457    0.002510
 ---------------------------------------------------------------------

 SCF Done:  E(RHF) =  -3017.43061479     A.U. after    2 cycles

 The electronic state is 1-A.
 Alpha  occ. eigenvalues -- -105.26802-105.24017-105.23957-105.23125 -99.90133
 Alpha  occ. eigenvalues --  -75.73232 -75.72896 -75.72769 -13.16931 -13.16122
 Alpha  occ. eigenvalues --  -13.14290 -13.13883 -13.13558 -13.10823 -13.07745
 Alpha  occ. eigenvalues --  -13.07041 -13.05323 -10.47246  -9.67378  -9.66480
 Alpha  occ. eigenvalues --   -9.66447  -8.07401  -8.07150  -8.06931  -2.84933
 Alpha  occ. eigenvalues --   -2.82179  -2.81063  -2.81026  -1.63999  -1.54769
 Alpha  occ. eigenvalues --   -1.54635  -1.54120  -1.52066  -1.51838  -1.51216
 Alpha  occ. eigenvalues --   -1.48761  -1.48703  -1.36447  -1.36303  -1.35313
 Alpha  occ. eigenvalues --   -1.29532  -1.11360  -1.01568  -1.01161  -0.79390
 Alpha  occ. eigenvalues --   -0.68767  -0.62816  -0.52167  -0.52110  -0.51814
 Alpha  occ. eigenvalues --   -0.51685  -0.37186  -0.36390  -0.26076  -0.25428
 Alpha  occ. eigenvalues --   -0.22037  -0.21614  -0.11493  -0.11196  -0.03615
 Alpha  occ. eigenvalues --    0.00004   0.03881   0.04882
 Alpha virt. eigenvalues --    0.05000   0.06796   0.07989   0.08083   0.08563
 Alpha virt. eigenvalues --    0.08803   0.09094   0.09973   0.10561   0.10778
 Alpha virt. eigenvalues --    0.11685   0.11854   0.13018   0.13592   0.14081

 Mulliken charges:
               1
     1  H   -1.371649
     2  Cl  -0.037684
     3  S   -3.384632
     4  P    2.222753
     5  S   -3.254628
     6  S   -2.984808
     7  P    2.545298
     8  P    2.253002
     9  P    4.012347
 Sum of Mulliken charges =  -0.00000

 Dipole moment (field-independent basis, Debye):
    X=              8.0633    Y=             25.6157    Z=              4.6781  Tot=             27.2592

 Test job not archived.
 1\1\GINC-SE173\SP\RHF\Aug-CC-pVDZ\Cl1H1P4S3\OHZDE\09-Apr-2025\0\\#t hf
  aug-cc-pvdz iop(5/13=1,5/36=2,99/5=2) pseudo=read geom=check guess=(r
 ead,tcheck) scf=(maxcycle=1)\\title\\0,1\H,0,-0.57388532,0.23171594,-0
 .00983813\Cl,0,-1.31085335,0.72448843,-0.94794305\S,0,1.05092099,-0.04
 67332,2.16483794\P,0,0.5438991,1.96227319,2.58887854\S,0,-2.07708017,-
 0.21812737,2.9684416\S,0,0.19701587,-0.14069554,5.27412033\P,0,-0.0575
 0962,1.88898769,4.75724411\P,0,-1.63289217,1.83557185,3.14710753\P,0,-
 0.23893971,-1.14197247,3.46073858\\Version=ES64L-G16RevC.01\State=1-A\

 Normal termination of Gaussian 16 at Wed Apr  9 19:39:20 2025.
