 Gaussian 16, Revision C.01,

 ----------------------------------------------------------------------
 #t hf aug-cc-pvdz symm=none int=(grid=ultrafine) guess=(read,tcheck) s
 table=(opt,rrhf)
 ----------------------------------------------------------------------
 -----
 title
 -----
 Symbolic Z-matrix:
 Charge =  0 Multiplicity = 1

 SCF Done:  E(RHF) =  -952.360888478     A.U. after   15 cycles

 1\1\GINC-SE035\Stability\RHF\Aug-CC-pVDZ\C4H10S2\OHZDE\09-Apr-2025\0\\
 #t hf aug-cc-pvdz symm=none int=(grid=ultrafine) guess=(read,tcheck) s
 table=(opt,rrhf)\\title\\0,1\H,0,1.94048627,-0.28311522,0.30003006\H,0
 ,2.70886397,-1.74966836,-0.33633756\H,0,2.5169729,-1.54996222,1.410513
 58\H,0,-0.19256655,-1.5118813,1.21090974\C,0,2.06439688,-1.35234501,0.
 4434425\S,0,0.46794236,-2.21627191,0.2804649\H,0,-2.76786656,0.6912168
 9,0.37000932\H,0,-2.82583104,1.14769254,-1.34615986\H,0,-2.18395985,-0
 .4189906,-0.89268673\H,0,0.87775479,1.62337041,-1.68527767\H,0,0.10121

 Normal termination of Gaussian 16 at Wed Apr  9 19:35:21 2025.
 Gaussian 16:  ES64L-G16RevC.01  3-Jul-2019

 ----------------------------------------------------------------------
 #t hf aug-cc-pvdz iop(5/13=1,5/36=2,99/5=2) pseudo=read geom=check gue
 ss=(read,tcheck) scf=(maxcycle=1)
 ----------------------------------------------------------------------
 -----
 title
 -----
 Structure from the checkpoint file:  "HB300SPXx10_1026_4.06_1.05_methanethiol_thioacetone_dimer_mol1.chk"
 Charge =  0 Multiplicity = 1

                         Standard orientation:
 ---------------------------------------------------------------------
 Center     Atomic      Atomic             Coordinates (Angstroms)
 Number     Number       Type             X           Y           Z
 ---------------------------------------------------------------------
      1          1           0        1.366389   -1.359750    0.718848
      2          1           0        2.901935   -0.796421    1.405074
      3          1           0        2.901291   -1.691137   -0.120598
      4          1           0        1.442271    0.233338   -1.365809
      5          6           0        2.353778   -0.973933    0.483514
      6         16           0        2.234633    0.636281   -0.361835
      7          1           0       -1.871126    1.300690   -1.639830
      8          1           0       -2.547899    2.013850   -0.159848
      9          1           0       -0.826753    2.138266   -0.466945
     10          1           0       -1.092035   -0.562634    2.142327
     11          1           0       -0.214174    0.924894    1.722665
     12          6           0       -1.692587    1.482855   -0.585645
     13          6           0       -1.460283    0.210438    0.168630
     14         16           0       -1.507865   -1.252205   -0.543218
     15          6           0       -1.161370    0.388028    1.624747
     16          1           0       -1.925416    1.009353    2.097497
 ---------------------------------------------------------------------

 SCF Done:  E(RHF) =  -953.627887361     A.U. after    2 cycles

 The electronic state is 1-A.
 Alpha  occ. eigenvalues --  -75.68473 -75.66025 -13.15495 -13.12276 -13.07503
 Alpha  occ. eigenvalues --  -13.04167 -13.02319 -12.99636 -11.47942 -11.40416
 Alpha  occ. eigenvalues --  -11.39504 -11.38389  -8.02359  -8.00276  -1.28526
 Alpha  occ. eigenvalues --   -1.18324  -1.04385  -1.03534  -0.93987  -0.75149
 Alpha  occ. eigenvalues --   -0.61681  -0.60974  -0.60138  -0.59863  -0.58627
 Alpha  occ. eigenvalues --   -0.55335  -0.50407  -0.49149  -0.41665  -0.39288
 Alpha  occ. eigenvalues --   -0.32186  -0.24117  -0.21776
 Alpha virt. eigenvalues --    0.02522   0.03453   0.04677   0.05461   0.06025
 Alpha virt. eigenvalues --    0.06570   0.06853   0.07436   0.07934   0.08482
 Alpha virt. eigenvalues --    0.09140   0.10616   0.10958   0.12117   0.12706

 Mulliken charges:
               1
     1  H    1.530519
     2  H    1.473115
     3  H    1.356608
     4  H    0.971052
     5  C   -4.744002
     6  S   -0.740288
     7  H    1.472567
     8  H    1.181114
     9  H    1.232488
    10  H    1.513516
    11  H    1.282104
    12  C   -4.652737
    13  C    1.019224
    14  S    0.581880
    15  C   -4.659264
    16  H    1.182103
 Sum of Mulliken charges =  -0.00000

 Dipole moment (field-independent basis, Debye):
    X=              0.6635    Y=              0.1870    Z=              0.6519  Tot=              0.9488

 Test job not archived.
 1\1\GINC-SE035\SP\RHF\Aug-CC-pVDZ\C4H10S2\OHZDE\09-Apr-2025\0\\#t hf a
 ug-cc-pvdz iop(5/13=1,5/36=2,99/5=2) pseudo=read geom=check guess=(rea
 d,tcheck) scf=(maxcycle=1)\\title\\0,1\H,0,1.94048627,-0.28311522,0.30
 003006\H,0,2.70886397,-1.74966836,-0.33633756\H,0,2.5169729,-1.5499622
 2,1.41051358\H,0,-0.19256655,-1.5118813,1.21090974\C,0,2.06439688,-1.3
 5234501,0.4434425\S,0,0.46794236,-2.21627191,0.2804649\H,0,-2.76786656
 ,0.69121689,0.37000932\H,0,-2.82583104,1.14769254,-1.34615986\H,0,-2.1
 8395985,-0.4189906,-0.89268673\H,0,0.87775479,1.62337041,-1.68527767\H

 Normal termination of Gaussian 16 at Wed Apr  9 19:35:26 2025.
