 Gaussian 16, Revision C.01,

 ----------------------------------------------------------------------
 #t hf aug-cc-pvdz symm=none int=(grid=ultrafine) guess=(read,tcheck) s
 table=(opt,rrhf)
 ----------------------------------------------------------------------
 -----
 title
 -----
 Symbolic Z-matrix:
 Charge =  0 Multiplicity = 1

 SCF Done:  E(RHF) =  -1166.69836995     A.U. after   13 cycles
 Normal termination of Gaussian 16 at Wed Apr  9 19:41:27 2025.
 Gaussian 16:  ES64L-G16RevC.01  3-Jul-2019

 ----------------------------------------------------------------------
 #t hf aug-cc-pvdz iop(5/13=1,5/36=2,99/5=2) pseudo=read geom=check gue
 ss=(read,tcheck) scf=(maxcycle=1)
 ----------------------------------------------------------------------
 -----
 title
 -----
 Structure from the checkpoint file:  "HB300SPXx10_1392_5.02_0.85_dimethylsulfone_phosphineF2_dimer_mol1.chk"
 Charge =  0 Multiplicity = 1

                         Standard orientation:
 ---------------------------------------------------------------------
 Center     Atomic      Atomic             Coordinates (Angstroms)
 Number     Number       Type             X           Y           Z
 ---------------------------------------------------------------------
      1          1           0        2.147494    0.484510    2.079746
      2          1           0        1.382081   -1.124317    2.010462
      3          1           0        0.366817    0.338550    1.888195
      4          1           0        0.402030    1.886816   -0.364431
      5          1           0        1.495711    1.499503   -1.721499
      6          1           0        2.179650    2.101310   -0.189910
      7          8           0        2.870642   -0.633943   -0.399877
      8         16           0        1.535309   -0.180504   -0.112244
      9          8           0        0.410165   -0.914091   -0.653626
     10          6           0        1.333820   -0.097423    1.656961
     11          6           0        1.384008    1.514857   -0.640138
     12         15           0       -1.948164   -0.443943   -0.051016
     13          9           0       -3.509428   -0.071569   -0.048810
     14          9           0       -1.389703    1.019680    0.342147
     15          1           0       -1.777505   -0.292483   -1.454376
 ---------------------------------------------------------------------

 SCF Done:  E(RHF) =  -1168.88330529     A.U. after    2 cycles

 The electronic state is 1-A.
 Alpha  occ. eigenvalues -- -105.28175 -75.89136 -29.28818 -29.27133 -21.05401
 Alpha  occ. eigenvalues --  -21.04979 -13.52348 -13.42002 -13.34599 -11.44007
 Alpha  occ. eigenvalues --  -11.42435  -8.24596  -2.87316  -1.85114  -1.67003
 Alpha  occ. eigenvalues --   -1.61267  -1.58216  -1.52147  -1.20452  -1.10048
 Alpha  occ. eigenvalues --   -0.90811  -0.87355  -0.67092  -0.66331  -0.65650
 Alpha  occ. eigenvalues --   -0.63272  -0.56779  -0.56429  -0.55114  -0.46652
 Alpha  occ. eigenvalues --   -0.45056  -0.41748  -0.41019  -0.38636  -0.38095
 Alpha  occ. eigenvalues --   -0.37180  -0.35414  -0.33594  -0.27290  -0.24881
 Alpha  occ. eigenvalues --   -0.19481   0.00877
 Alpha virt. eigenvalues --    0.03021   0.04539   0.05212   0.06436   0.06798
 Alpha virt. eigenvalues --    0.07152   0.07966   0.09946   0.10931   0.12515
 Alpha virt. eigenvalues --    0.13040   0.13694   0.14207   0.14752   0.15253

 Mulliken charges:
               1
     1  H    1.139485
     2  H    0.783386
     3  H    1.067286
     4  H    1.322959
     5  H    1.384752
     6  H    1.174798
     7  O   -2.449104
     8  S    6.225349
     9  O   -2.324436
    10  C   -4.225018
    11  C   -4.344837
    12  P    2.145981
    13  F   -0.099513
    14  F   -0.747180
    15  H   -1.053907
 Sum of Mulliken charges =   0.00000

 Dipole moment (field-independent basis, Debye):
    X=             -5.2001    Y=              4.7375    Z=             -3.3307  Tot=              7.7833

 Test job not archived.
 1\1\GINC-SE048\SP\RHF\Aug-CC-pVDZ\C2H7F2O2P1S1\OHZDE\09-Apr-2025\0\\#t
  hf aug-cc-pvdz iop(5/13=1,5/36=2,99/5=2) pseudo=read geom=check guess
 =(read,tcheck) scf=(maxcycle=1)\\title\\0,1\H,0,1.82037896,-1.1252997,
 2.45423408\H,0,2.45327614,-0.04590354,1.18406648\H,0,1.26048817,-1.302
 78481,0.75605091\H,0,-1.35656486,-1.06874241,1.510339\H,0,-1.8999986,0
 .31018714,2.5058364\H,0,-0.84910966,-0.93302114,3.2309401\O,0,0.704774
 22,1.412934,2.93921594\S,0,0.30796869,0.58975017,1.82729483\O,0,-0.016
 49706,1.22000253,0.56448154\C,0,1.58998555,-0.61149627,1.52558836\C,0,

 Normal termination of Gaussian 16 at Wed Apr  9 19:41:33 2025.
