 Gaussian 16, Revision C.01,

 ----------------------------------------------------------------------
 #t hf aug-cc-pvdz symm=none int=(grid=ultrafine) guess=(read,tcheck) s
 table=(opt,rrhf)
 ----------------------------------------------------------------------
 -----
 title
 -----
 Symbolic Z-matrix:
 Charge =  0 Multiplicity = 1

 SCF Done:  E(RHF) =  -991.414149193     A.U. after   12 cycles

 1\1\GINC-SE108\Stability\RHF\Aug-CC-pVDZ\C5H12S2\OHZDE\09-Apr-2025\0\\
 #t hf aug-cc-pvdz symm=none int=(grid=ultrafine) guess=(read,tcheck) s
 table=(opt,rrhf)\\title\\0,1\H,0,2.75511322,-2.75302781,-0.03281769\H,
 0,2.23328443,-3.6609344,1.39160682\H,0,2.88304587,-2.02859561,1.588775
 53\H,0,0.87227038,-0.86572365,0.25189781\C,0,2.28978938,-2.67174858,0.
 94522466\S,0,0.57786237,-2.06107277,0.80693494\H,0,-0.74535584,0.17830
 363,-1.95284909\H,0,-0.84026908,1.64882529,-2.93220418\H,0,-2.9828624,
 0.98287058,-1.47158501\H,0,-0.69638372,3.35166908,0.66121902\H,0,-2.44

 Normal termination of Gaussian 16 at Wed Apr  9 19:39:44 2025.
 Gaussian 16:  ES64L-G16RevC.01  3-Jul-2019

 ----------------------------------------------------------------------
 #t hf aug-cc-pvdz iop(5/13=1,5/36=2,99/5=2) pseudo=read geom=check gue
 ss=(read,tcheck) scf=(maxcycle=1)
 ----------------------------------------------------------------------
 -----
 title
 -----
 Structure from the checkpoint file:  "HB300SPXx10_1208_4.25_1.25_methanethiol_tetrahydrothiophene_dimer_mol1.chk"
 Charge =  0 Multiplicity = 1

                         Standard orientation:
 ---------------------------------------------------------------------
 Center     Atomic      Atomic             Coordinates (Angstroms)
 Number     Number       Type             X           Y           Z
 ---------------------------------------------------------------------
      1          1           0        3.935766    1.237969   -0.829262
      2          1           0        4.887594   -0.013741   -0.021283
      3          1           0        3.917725    1.103780    0.946238
      4          1           0        1.584802    0.222617   -0.035471
      5          6           0        3.959976    0.551376    0.011989
      6         16           0        2.603616   -0.661803   -0.093972
      7          1           0       -0.740597   -0.084095   -1.786488
      8          1           0       -2.304859    0.701520   -2.044311
      9          1           0       -2.307885   -1.879074   -1.331475
     10          1           0       -2.491041    0.319616    1.912020
     11          1           0       -3.416857   -0.787266   -0.504039
     12          1           0       -0.738589    0.136795    2.070184
     13          1           0       -2.187055   -1.987326    1.269700
     14          1           0       -0.655235   -1.640753    0.479203
     15         16           0       -1.328442    1.362880    0.065000
     16          6           0       -1.679340    0.197784   -1.312458
     17          6           0       -2.362686   -1.009660   -0.676099
     18          6           0       -1.659498   -1.255644    0.657828
     19          6           0       -1.572877    0.091596    1.375161
 ---------------------------------------------------------------------

 SCF Done:  E(RHF) =  -992.896896479     A.U. after    2 cycles

 The electronic state is 1-A.
 Alpha  occ. eigenvalues --  -75.68023 -75.66258 -13.11925 -13.10234 -13.09180
 Alpha  occ. eigenvalues --  -13.06893 -13.03477 -13.00556 -11.43223 -11.42374
 Alpha  occ. eigenvalues --  -11.39391 -11.38797 -11.36126  -8.01871  -8.00333
 Alpha  occ. eigenvalues --   -1.32526  -1.17824  -1.06971  -1.06938  -0.93590
 Alpha  occ. eigenvalues --   -0.84340  -0.83023  -0.66377  -0.65334  -0.60659
 Alpha  occ. eigenvalues --   -0.59619  -0.58383  -0.54063  -0.48919  -0.48715
 Alpha  occ. eigenvalues --   -0.46845  -0.45441  -0.41896  -0.38853  -0.34634
 Alpha  occ. eigenvalues --   -0.23225  -0.21702
 Alpha virt. eigenvalues --    0.02754   0.03543   0.04595   0.05477   0.05766
 Alpha virt. eigenvalues --    0.06084   0.06279   0.06355   0.07272   0.07617
 Alpha virt. eigenvalues --    0.08479   0.09184   0.10622   0.12750   0.13067

 Mulliken charges:
               1
     1  H    1.407775
     2  H    1.340807
     3  H    1.416401
     4  H    1.176659
     5  C   -4.952084
     6  S   -0.411682
     7  H    1.454053
     8  H    1.387279
     9  H    1.285357
    10  H    1.417120
    11  H    1.427243
    12  H    1.426413
    13  H    1.299151
    14  H    1.526236
    15  S    0.844049
    16  C   -3.241329
    17  C   -2.812162
    18  C   -2.722729
    19  C   -3.268558
 Sum of Mulliken charges =  -0.00000

 Dipole moment (field-independent basis, Debye):
    X=              0.3793    Y=             -0.6859    Z=             -0.0296  Tot=              0.7844

 Test job not archived.
 1\1\GINC-SE108\SP\RHF\Aug-CC-pVDZ\C5H12S2\OHZDE\09-Apr-2025\0\\#t hf a
 ug-cc-pvdz iop(5/13=1,5/36=2,99/5=2) pseudo=read geom=check guess=(rea
 d,tcheck) scf=(maxcycle=1)\\title\\0,1\H,0,2.75511322,-2.75302781,-0.0
 3281769\H,0,2.23328443,-3.6609344,1.39160682\H,0,2.88304587,-2.0285956
 1,1.58877553\H,0,0.87227038,-0.86572365,0.25189781\C,0,2.28978938,-2.6
 7174858,0.94522466\S,0,0.57786237,-2.06107277,0.80693494\H,0,-0.745355
 84,0.17830363,-1.95284909\H,0,-0.84026908,1.64882529,-2.93220418\H,0,-
 2.9828624,0.98287058,-1.47158501\H,0,-0.69638372,3.35166908,0.66121902

 Normal termination of Gaussian 16 at Wed Apr  9 19:39:52 2025.
