 Gaussian 16, Revision C.01,

 ----------------------------------------------------------------------
 #t hf aug-cc-pvdz symm=none int=(grid=ultrafine) guess=(read,tcheck) s
 table=(opt,rrhf)
 ----------------------------------------------------------------------
 -----
 title
 -----
 Symbolic Z-matrix:
 Charge =  0 Multiplicity = 1

 SCF Done:  E(RHF) =  -897.823340807     A.U. after   11 cycles
 Normal termination of Gaussian 16 at Wed Apr  9 19:38:52 2025.
 Gaussian 16:  ES64L-G16RevC.01  3-Jul-2019

 ----------------------------------------------------------------------
 #t hf aug-cc-pvdz iop(5/13=1,5/36=2,99/5=2) pseudo=read geom=check gue
 ss=(read,tcheck) scf=(maxcycle=1)
 ----------------------------------------------------------------------
 -----
 title
 -----
 Structure from the checkpoint file:  "HB300SPXx10_1340_4.38_2.00_hydrogenchloride_methanethiol_dimer_mol1.chk"
 Charge =  0 Multiplicity = 1

                         Standard orientation:
 ---------------------------------------------------------------------
 Center     Atomic      Atomic             Coordinates (Angstroms)
 Number     Number       Type             X           Y           Z
 ---------------------------------------------------------------------
      1          1           0       -2.208091   -0.351096   -0.091763
      2         17           0       -3.458020    0.027308    0.004837
      3          1           0        1.554742    1.556103    0.557241
      4          1           0        2.382400    1.514449   -1.005081
      5          1           0        3.337903    1.460938    0.483644
      6          1           0        2.344822   -0.917265    1.231648
      7          6           0        2.406838    1.152569    0.018979
      8         16           0        2.308346   -0.665174   -0.085737
 ---------------------------------------------------------------------

 SCF Done:  E(RHF) =  -898.524328641     A.U. after    2 cycles

 The electronic state is 1-A.
 Alpha  occ. eigenvalues --  -99.90893 -75.68976 -13.11964 -13.07141 -13.01135
 Alpha  occ. eigenvalues --  -11.40205 -10.47903  -9.67947  -9.67110  -9.67088
 Alpha  occ. eigenvalues --   -8.02867  -1.29798  -1.18927  -0.94622  -0.68673
 Alpha  occ. eigenvalues --   -0.60620  -0.59504  -0.52488  -0.52482  -0.49802
 Alpha  occ. eigenvalues --   -0.39670  -0.24231
 Alpha virt. eigenvalues --    0.01921   0.03508   0.04341   0.05741   0.06962
 Alpha virt. eigenvalues --    0.10077   0.10742   0.11217   0.11947   0.12956
 Alpha virt. eigenvalues --    0.13285   0.14906   0.15898   0.16536   0.17383

 Mulliken charges:
               1
     1  H    0.464711
     2  Cl  -0.474277
     3  H    1.356968
     4  H    1.343793
     5  H    1.328884
     6  H    0.996082
     7  C   -4.515034
     8  S   -0.501126
 Sum of Mulliken charges =  -0.00000

 Dipole moment (field-independent basis, Debye):
    X=              1.0640    Y=              0.1335    Z=             -0.8816  Tot=              1.3882

 Test job not archived.
 1\1\GINC-SE083\SP\RHF\Aug-CC-pVDZ\C1H5Cl1S1\OHZDE\09-Apr-2025\0\\#t hf
  aug-cc-pvdz iop(5/13=1,5/36=2,99/5=2) pseudo=read geom=check guess=(r
 ead,tcheck) scf=(maxcycle=1)\\title\\0,1\H,0,-0.71323053,0.36081391,-0
 .38963987\Cl,0,-0.97574618,1.50432633,-0.9712843\H,0,2.6438253,-1.2244
 2301,1.71623911\H,0,3.16893068,-2.63025324,0.78055369\H,0,3.40118023,-
 2.62090445,2.53501155\H,0,0.76754153,-2.60188316,3.04994119\C,0,2.7480
 7349,-2.30499235,1.72783228\S,0,1.11936943,-3.11402021,1.86069132\\Ver
 sion=ES64L-G16RevC.01\State=1-A\HF=-898.5243286\RMSD=6.496e-02\Dipole=

 Normal termination of Gaussian 16 at Wed Apr  9 19:38:53 2025.
