 Gaussian 16, Revision C.01,

 ----------------------------------------------------------------------
 #t hf aug-cc-pvdz symm=none int=(grid=ultrafine) guess=(read,tcheck) s
 table=(opt,rrhf)
 ----------------------------------------------------------------------
 -----
 title
 -----
 Symbolic Z-matrix:
 Charge =  0 Multiplicity = 1

 SCF Done:  E(RHF) =  -858.792354138     A.U. after   11 cycles

 1\1\GINC-SE116\Stability\RHF\Aug-CC-pVDZ\Cl1H3S1\OHZDE\09-Apr-2025\0\\
 #t hf aug-cc-pvdz symm=none int=(grid=ultrafine) guess=(read,tcheck) s
 table=(opt,rrhf)\\title\\0,1\H,0,-0.07574771,0.51696812,0.\Cl,0,0.0020
 5903,1.81286821,0.\H,0,0.87050276,-1.93087184,0.97032462\H,0,0.8705027
 6,-1.93087184,-0.97032462\S,0,-0.05474435,-1.87735641,0.\\Version=ES64
 L-G16RevC.01\HF=-858.7923541\RMSD=3.194e-09\Dipole=0.4274991,-0.866825
 8,0.\Quadrupole=0.5129892,-1.9764073,1.4634181,-1.8248301,0.,0.\PG=Unk
 nown\\@

 Normal termination of Gaussian 16 at Wed Apr  9 19:38:50 2025.
 Gaussian 16:  ES64L-G16RevC.01  3-Jul-2019

 ----------------------------------------------------------------------
 #t hf aug-cc-pvdz iop(5/13=1,5/36=2,99/5=2) pseudo=read geom=check gue
 ss=(read,tcheck) scf=(maxcycle=1)
 ----------------------------------------------------------------------
 -----
 title
 -----
 Structure from the checkpoint file:  "HB300SPXx10_1355_4.40_1.00_hydrogenchloride_sulfane_dimer_mol1.chk"
 Charge =  0 Multiplicity = 1

                         Standard orientation:
 ---------------------------------------------------------------------
 Center     Atomic      Atomic             Coordinates (Angstroms)
 Number     Number       Type             X           Y           Z
 ---------------------------------------------------------------------
      1          1           0       -0.107687    0.586595    0.000000
      2         17           0       -0.049835    1.883539    0.000000
      3          1           0        0.876126   -1.846392    0.970325
      4          1           0        0.876126   -1.846392   -0.970325
      5         16           0       -0.049835   -1.807123   -0.000000
 ---------------------------------------------------------------------

 SCF Done:  E(RHF) =  -859.286216096     A.U. after    2 cycles

 The electronic state is 1-A'.
 Alpha  occ. eigenvalues --  -99.88919 -75.72562 -13.17330 -13.13390 -13.09489
 Alpha  occ. eigenvalues --  -10.46051  -9.66166  -9.65248  -9.65247  -8.06313
 Alpha  occ. eigenvalues --   -1.28576  -1.13898  -0.67930  -0.57183  -0.51044
 Alpha  occ. eigenvalues --   -0.51036  -0.45935  -0.29282
 Alpha virt. eigenvalues --    0.01329   0.05631   0.06004   0.09680   0.10194
 Alpha virt. eigenvalues --    0.10558   0.13435   0.14901   0.15029   0.15583
 Alpha virt. eigenvalues --    0.20365   0.22723   0.23492   0.23919   0.24087

 Mulliken charges:
               1
     1  H    0.844925
     2  Cl  -0.653411
     3  H    1.075278
     4  H    1.075278
     5  S   -2.342070
 Sum of Mulliken charges =  -0.00000

 Dipole moment (field-independent basis, Debye):
    X=             -1.0909    Y=             -2.3513    Z=             -0.0000  Tot=              2.5921

 Test job not archived.
 1\1\GINC-SE116\SP\RHF\Aug-CC-pVDZ\Cl1H3S1\OHZDE\09-Apr-2025\0\\#t hf a
 ug-cc-pvdz iop(5/13=1,5/36=2,99/5=2) pseudo=read geom=check guess=(rea
 d,tcheck) scf=(maxcycle=1)\\title\\0,1\H,0,-0.07574771,0.51696812,0.\C
 l,0,0.00205903,1.81286821,0.\H,0,0.87050276,-1.93087184,0.97032462\H,0
 ,0.87050276,-1.93087184,-0.97032462\S,0,-0.05474435,-1.87735641,0.\\Ve
 rsion=ES64L-G16RevC.01\State=1-A'\HF=-859.2862161\RMSD=9.989e-02\Dipol
 e=-0.4433946,-0.9183575,0.\Quadrupole=-0.0062427,-0.9846365,0.9908791,
 1.2845974,0.,0.\PG=CS [SG(Cl1H1S1),X(H2)]\\@

 Normal termination of Gaussian 16 at Wed Apr  9 19:38:51 2025.
