 Gaussian 16, Revision C.01,

 ----------------------------------------------------------------------
 #t hf aug-cc-pvdz symm=none int=(grid=ultrafine) guess=(read,tcheck) s
 table=(opt,rrhf)
 ----------------------------------------------------------------------
 -----
 title
 -----
 Symbolic Z-matrix:
 Charge =  0 Multiplicity = 1

 SCF Done:  E(RHF) =  -1334.39621342     A.U. after   13 cycles
 Normal termination of Gaussian 16 at Wed Apr  9 19:39:00 2025.
 Gaussian 16:  ES64L-G16RevC.01  3-Jul-2019

 ----------------------------------------------------------------------
 #t hf aug-cc-pvdz iop(5/13=1,5/36=2,99/5=2) pseudo=read geom=check gue
 ss=(read,tcheck) scf=(maxcycle=1)
 ----------------------------------------------------------------------
 -----
 title
 -----
 Structure from the checkpoint file:  "HB300SPXx10_1315_4.36_1.00_hydrogenchloride_dimethyldisulfide_dimer_mol1.chk"
 Charge =  0 Multiplicity = 1

                         Standard orientation:
 ---------------------------------------------------------------------
 Center     Atomic      Atomic             Coordinates (Angstroms)
 Number     Number       Type             X           Y           Z
 ---------------------------------------------------------------------
      1          1           0       -1.792369   -0.197114    0.378343
      2         17           0       -2.965559   -0.528273   -0.089387
      3          1           0        3.533632   -1.284656   -0.546523
      4          1           0        3.291225   -0.298927    0.911411
      5          1           0        3.169680    0.442762   -0.707740
      6          1           0       -0.571631    1.388916   -1.410829
      7          1           0        0.974829    2.194256   -1.019263
      8          1           0       -0.518255    2.680805   -0.191109
      9          6           0        2.980833   -0.449803   -0.118086
     10         16           0        1.225458   -0.924449   -0.192064
     11         16           0        0.292682    0.655249    0.727711
     12          6           0        0.025360    1.843436   -0.626092
 ---------------------------------------------------------------------

 SCF Done:  E(RHF) =  -1335.53125059     A.U. after    2 cycles

 The electronic state is 1-A.
 Alpha  occ. eigenvalues --  -99.88237 -75.71682 -75.71071 -13.16215 -13.13647
 Alpha  occ. eigenvalues --  -13.12255 -13.10700 -13.08835 -13.04633 -11.41040
 Alpha  occ. eigenvalues --  -11.40851 -10.45354  -9.65471  -9.64627  -9.64603
 Alpha  occ. eigenvalues --   -8.05726  -8.05119  -1.28742  -1.27103  -1.13940
 Alpha  occ. eigenvalues --   -0.99451  -0.88196  -0.67639  -0.61465  -0.60565
 Alpha  occ. eigenvalues --   -0.60428  -0.59660  -0.50495  -0.50460  -0.48373
 Alpha  occ. eigenvalues --   -0.44412  -0.35226  -0.27212  -0.25086
 Alpha virt. eigenvalues --    0.02184   0.03135   0.04470   0.04968   0.06840
 Alpha virt. eigenvalues --    0.07420   0.08241   0.08617   0.09492   0.11124
 Alpha virt. eigenvalues --    0.12147   0.12355   0.14206   0.14572   0.15090

 Mulliken charges:
               1
     1  H    0.896161
     2  Cl  -0.697874
     3  H    1.336538
     4  H    1.503032
     5  H    1.521147
     6  H    1.372487
     7  H    1.545864
     8  H    1.384306
     9  C   -4.752241
    10  S    0.568988
    11  S   -0.381596
    12  C   -4.296814
 Sum of Mulliken charges =  -0.00000

 Dipole moment (field-independent basis, Debye):
    X=              2.5078    Y=              0.3063    Z=              0.4965  Tot=              2.5748

 Test job not archived.
 1\1\GINC-SE222\SP\RHF\Aug-CC-pVDZ\C2H7Cl1S2\OHZDE\09-Apr-2025\0\\#t hf
  aug-cc-pvdz iop(5/13=1,5/36=2,99/5=2) pseudo=read geom=check guess=(r
 ead,tcheck) scf=(maxcycle=1)\\title\\0,1\H,0,-0.26068265,0.62653872,-1
 .61580209\Cl,0,0.10581098,1.51670262,-2.49790267\H,0,1.80887421,-2.024
 13598,2.75401213\H,0,0.21053562,-2.64273185,2.28641366\H,0,0.35574905,
 -1.09607564,3.16578335\H,0,-0.58736917,1.84862411,0.75202693\H,0,-1.27
 681916,0.97363882,2.14934462\H,0,-2.29399121,1.35170937,0.74424939\C,0
 ,0.80881751,-1.74705506,2.42350231\S,0,1.03045102,-0.87931107,0.839203

 Normal termination of Gaussian 16 at Wed Apr  9 19:39:04 2025.
