 Gaussian 16, Revision C.01,

 ----------------------------------------------------------------------
 #t hf aug-cc-pvdz symm=none int=(grid=ultrafine) guess=(read,tcheck) s
 table=(opt,rrhf)
 ----------------------------------------------------------------------
 -----
 title
 -----
 Symbolic Z-matrix:
 Charge =  0 Multiplicity = 1

 SCF Done:  E(RHF) =  -645.414128236     A.U. after   14 cycles
 Normal termination of Gaussian 16 at Wed Apr  9 19:39:20 2025.
 Gaussian 16:  ES64L-G16RevC.01  3-Jul-2019

 ----------------------------------------------------------------------
 #t hf aug-cc-pvdz iop(5/13=1,5/36=2,99/5=2) pseudo=read geom=check gue
 ss=(read,tcheck) scf=(maxcycle=1)
 ----------------------------------------------------------------------
 -----
 title
 -----
 Structure from the checkpoint file:  "HB300SPXx10_121_1.13_0.80_sulfane_pyridine_dimer_mol1.chk"
 Charge =  0 Multiplicity = 1

                         Standard orientation:
 ---------------------------------------------------------------------
 Center     Atomic      Atomic             Coordinates (Angstroms)
 Number     Number       Type             X           Y           Z
 ---------------------------------------------------------------------
      1          1           0        1.748659   -0.306569   -0.025371
      2          1           0        3.205965   -0.040633    1.252645
      3         16           0        3.066625    0.011280   -0.079850
      4          1           0       -2.919985   -1.819405   -0.001561
      5          1           0       -0.481112   -2.292186   -0.002020
      6          6           0       -2.625495    0.316615    0.001358
      7          6           0       -2.208197   -1.007107   -0.000098
      8          6           0       -0.845193   -1.272483   -0.000190
      9          7           0        0.081641   -0.315164    0.001336
     10          6           0       -0.325998    0.953535    0.002531
     11          6           0       -1.665761    1.318871    0.002651
     12          1           0        0.455363    1.703629    0.002616
     13          1           0       -1.944433    2.362295    0.003320
     14          1           0       -3.678079    0.561954    0.001113
 ---------------------------------------------------------------------

 SCF Done:  E(RHF) =  -646.826169775     A.U. after    2 cycles

 The electronic state is 1-A.
 Alpha  occ. eigenvalues --  -75.65041 -15.75396 -13.11526 -13.06674 -12.97909
 Alpha  occ. eigenvalues --  -11.50352 -11.46553 -11.45179 -11.42537 -11.39438
 Alpha  occ. eigenvalues --   -7.98960  -1.47315  -1.21080  -1.13146  -1.07221
 Alpha  occ. eigenvalues --   -0.90723  -0.90500  -0.75758  -0.67326  -0.62153
 Alpha  occ. eigenvalues --   -0.61019  -0.60141  -0.56024  -0.50804  -0.48922
 Alpha  occ. eigenvalues --   -0.43172  -0.38843  -0.35639  -0.30972  -0.22814
 Alpha virt. eigenvalues --    0.02396   0.04616   0.04806   0.05368   0.05499
 Alpha virt. eigenvalues --    0.06873   0.08072   0.09289   0.09929   0.10150
 Alpha virt. eigenvalues --    0.11983   0.12818   0.13191   0.13379   0.13689

 Mulliken charges:
               1
     1  H    1.553534
     2  H    0.981483
     3  S   -2.617673
     4  H    1.450335
     5  H    1.609225
     6  C    0.033675
     7  C   -0.906655
     8  C   -1.467021
     9  N   -3.316674
    10  C   -1.342056
    11  C   -0.722078
    12  H    1.791647
    13  H    1.411136
    14  H    1.541121
 Sum of Mulliken charges =   0.00000

 Dipole moment (field-independent basis, Debye):
    X=             -3.4699    Y=              0.3718    Z=             -0.8727  Tot=              3.5972

 Test job not archived.
 1\1\GINC-SE145\SP\RHF\Aug-CC-pVDZ\C5H7N1S1\OHZDE\09-Apr-2025\0\\#t hf
 aug-cc-pvdz iop(5/13=1,5/36=2,99/5=2) pseudo=read geom=check guess=(re
 ad,tcheck) scf=(maxcycle=1)\\title\\0,1\H,0,1.25021154,1.5960457,0.136
 91261\H,0,3.15091491,1.84193998,0.53016902\S,0,2.02337536,2.53859467,0
 .73260516\H,0,-1.60975147,-1.54206935,-2.32445242\H,0,-0.07136911,0.40
 758123,-2.26226936\C,0,-1.48247042,-1.85998951,-0.19559345\C,0,-1.1858
 7039,-1.2130129,-1.38715985\C,0,-0.32596054,-0.123229,-1.3535473\N,0,0
 .22847131,0.33072074,-0.23015045\C,0,-0.06076346,-0.29501047,0.9102755

 Normal termination of Gaussian 16 at Wed Apr  9 19:39:25 2025.
