 Gaussian 16, Revision C.01,

 ----------------------------------------------------------------------
 #t hf aug-cc-pvdz symm=none int=(grid=ultrafine) guess=(read,tcheck) s
 table=(opt,rrhf)
 ----------------------------------------------------------------------
 -----
 title
 -----
 Symbolic Z-matrix:
 Charge =  0 Multiplicity = 1

 SCF Done:  E(RHF) =  -747.036685089     A.U. after   14 cycles
 Normal termination of Gaussian 16 at Wed Apr  9 19:44:00 2025.
 Gaussian 16:  ES64L-G16RevC.01  3-Jul-2019

 ----------------------------------------------------------------------
 #t hf aug-cc-pvdz iop(5/13=1,5/36=2,99/5=2) pseudo=read geom=check gue
 ss=(read,tcheck) scf=(maxcycle=1)
 ----------------------------------------------------------------------
 -----
 title
 -----
 Structure from the checkpoint file:  "HB300SPXx10_1451_5.08_0.80_methylcyanate_phosphineF2_dimer_mol1.chk"
 Charge =  0 Multiplicity = 1

                         Standard orientation:
 ---------------------------------------------------------------------
 Center     Atomic      Atomic             Coordinates (Angstroms)
 Number     Number       Type             X           Y           Z
 ---------------------------------------------------------------------
      1          1           0       -2.510378   -1.061412    1.326183
      2          1           0       -3.096535   -1.794519   -0.194826
      3          1           0       -1.337578   -1.635593    0.100328
      4          6           0       -2.317617   -1.200019    0.265848
      5          8           0       -2.387568    0.097732   -0.406908
      6          6           0       -1.515613    0.958375   -0.041276
      7          7           0       -0.735248    1.754243    0.262414
      8         15           0        1.473789    0.319835   -0.159991
      9          9           0        0.540080   -0.992472   -0.077452
     10          9           0        2.881612   -0.410499    0.082150
     11          1           0        1.289092    0.709042    1.196839
 ---------------------------------------------------------------------

 SCF Done:  E(RHF) =  -748.804543919     A.U. after    2 cycles

 The electronic state is 1-A.
 Alpha  occ. eigenvalues -- -105.28329 -29.28856 -29.27440 -21.16253 -15.76596
 Alpha  occ. eigenvalues --  -11.50438 -11.45650  -2.87462  -1.86128  -1.61944
 Alpha  occ. eigenvalues --   -1.58536  -1.51921  -1.31641  -1.05849  -0.89560
 Alpha  occ. eigenvalues --   -0.75026  -0.68400  -0.66054  -0.57860  -0.56778
 Alpha  occ. eigenvalues --   -0.54901  -0.53339  -0.45816  -0.43095  -0.39691
 Alpha  occ. eigenvalues --   -0.36508  -0.35653  -0.33794  -0.27804  -0.24809
 Alpha  occ. eigenvalues --   -0.19544   0.01270
 Alpha virt. eigenvalues --    0.03259   0.05305   0.06995   0.07195   0.08301
 Alpha virt. eigenvalues --    0.10332   0.11130   0.12218   0.12379   0.12909
 Alpha virt. eigenvalues --    0.13441   0.14432   0.15229   0.15906   0.16770

 Mulliken charges:
               1
     1  H    1.239499
     2  H    1.036049
     3  H    1.015992
     4  C   -2.713778
     5  O   -2.698667
     6  C    4.210827
     7  N   -2.371916
     8  P    1.563115
     9  F   -0.110822
    10  F   -0.199351
    11  H   -0.970948
 Sum of Mulliken charges =  -0.00000

 Dipole moment (field-independent basis, Debye):
    X=              1.9106    Y=             -5.4239    Z=              1.7501  Tot=              6.0110

 Test job not archived.
 1\1\GINC-SE054\SP\RHF\Aug-CC-pVDZ\C2H4F2N1O1P1\OHZDE\09-Apr-2025\0\\#t
  hf aug-cc-pvdz iop(5/13=1,5/36=2,99/5=2) pseudo=read geom=check guess
 =(read,tcheck) scf=(maxcycle=1)\\title\\0,1\H,0,-2.89287834,1.38344137
 ,-2.41875402\H,0,-2.88368966,0.15494314,-3.71690786\H,0,-2.33807438,-0
 .28314113,-2.0686702\C,0,-2.39546429,0.50243917,-2.8151059\O,0,-1.0419
 8507,0.86597867,-3.23651367\C,0,-0.26338211,1.27221362,-2.30729377\N,0
 ,0.4658792,1.6354549,-1.48824768\P,0,0.26118849,-0.44369977,0.17037027
 \F,0,-1.12641375,-0.79594142,-0.57209914\F,0,0.01392836,-1.31158332,1.

 Normal termination of Gaussian 16 at Wed Apr  9 19:44:05 2025.
