 Gaussian 16, Revision C.01,

 ----------------------------------------------------------------------
 #t hf aug-cc-pvdz symm=none int=(grid=ultrafine) guess=(read,tcheck) s
 table=(opt,rrhf)
 ----------------------------------------------------------------------
 -----
 title
 -----
 Symbolic Z-matrix:
 Charge =  0 Multiplicity = 1

 SCF Done:  E(RHF) =  -605.479881595     A.U. after   13 cycles
 Normal termination of Gaussian 16 at Wed Apr  9 19:37:51 2025.
 Gaussian 16:  ES64L-G16RevC.01  3-Jul-2019

 ----------------------------------------------------------------------
 #t hf aug-cc-pvdz iop(5/13=1,5/36=2,99/5=2) pseudo=read geom=check gue
 ss=(read,tcheck) scf=(maxcycle=1)
 ----------------------------------------------------------------------
 -----
 title
 -----
 Structure from the checkpoint file:  "HB300SPXx10_115_1.12_1.00_sulfane_methylcyanate_dimer_mol1.chk"
 Charge =  0 Multiplicity = 1

                         Standard orientation:
 ---------------------------------------------------------------------
 Center     Atomic      Atomic             Coordinates (Angstroms)
 Number     Number       Type             X           Y           Z
 ---------------------------------------------------------------------
      1          1           0        1.504989    0.884261    0.020463
      2          1           0        2.581878   -0.241825    1.181929
      3         16           0        2.273095   -0.209605   -0.122742
      4          1           0       -1.749450   -1.346140    1.310714
      5          1           0       -2.005780   -2.223860   -0.224763
      6          1           0       -0.384933   -1.567865    0.169482
      7          6           0       -1.458139   -1.429448    0.266950
      8          8           0       -1.851369   -0.209273   -0.437299
      9          6           0       -1.261444    0.862838   -0.060027
     10          7           0       -0.741110    1.846137    0.251844
 ---------------------------------------------------------------------

 SCF Done:  E(RHF) =  -606.609862017     A.U. after    2 cycles

 The electronic state is 1-A.
 Alpha  occ. eigenvalues --  -75.69900 -21.15487 -15.75666 -13.15582 -13.09108
 Alpha  occ. eigenvalues --  -13.05724 -11.48885 -11.45594  -8.03648  -1.85339
 Alpha  occ. eigenvalues --   -1.29586  -1.11255  -1.05307  -0.73855  -0.66746
 Alpha  occ. eigenvalues --   -0.65390  -0.56044  -0.55857  -0.53485  -0.51339
 Alpha  occ. eigenvalues --   -0.43514  -0.40534  -0.34725  -0.26226
 Alpha virt. eigenvalues --    0.02205   0.04089   0.05393   0.06239   0.07287
 Alpha virt. eigenvalues --    0.09103   0.10862   0.11448   0.11587   0.12283
 Alpha virt. eigenvalues --    0.13557   0.13897   0.15016   0.15114   0.16210

 Mulliken charges:
               1
     1  H    1.166888
     2  H    1.072329
     3  S   -2.374311
     4  H    1.375711
     5  H    1.303889
     6  H    1.392992
     7  C   -2.783264
     8  O   -2.652507
     9  C    4.043920
    10  N   -2.545648
 Sum of Mulliken charges =   0.00000

 Dipole moment (field-independent basis, Debye):
    X=             -0.6797    Y=             -4.4514    Z=             -1.0613  Tot=              4.6264

 Test job not archived.
 1\1\GINC-SE054\SP\RHF\Aug-CC-pVDZ\C2H5N1O1S1\OHZDE\09-Apr-2025\0\\#t h
 f aug-cc-pvdz iop(5/13=1,5/36=2,99/5=2) pseudo=read geom=check guess=(
 read,tcheck) scf=(maxcycle=1)\\title\\0,1\H,0,1.70020261,0.23216325,0.
 14198181\H,0,1.83071194,2.07603691,0.74186388\S,0,1.65222468,0.8789214
 7,1.31945248\H,0,-2.28416111,1.05601784,-0.68076633\H,0,-2.96439853,0.
 08762255,0.6583651\H,0,-1.29338063,0.72538118,0.77611748\C,0,-2.065471
 8,0.34599706,0.1125121\O,0,-1.61242634,-0.91073487,-0.48313662\C,0,-0.
 50737367,-0.851899,-1.12746881\N,0,0.49091429,-0.83359543,-1.70882443\

 Normal termination of Gaussian 16 at Wed Apr  9 19:37:55 2025.
