 Gaussian 16, Revision C.01,

 ----------------------------------------------------------------------
 #t hf aug-cc-pvdz symm=none int=(grid=ultrafine) guess=(read,tcheck) s
 table=(opt,rrhf)
 ----------------------------------------------------------------------
 -----
 title
 -----
 Symbolic Z-matrix:
 Charge =  0 Multiplicity = 1

 SCF Done:  E(RHF) =  -215.881805987     A.U. after   13 cycles
 Normal termination of Gaussian 16 at Wed Apr  9 19:41:47 2025.
 Gaussian 16:  ES64L-G16RevC.01  3-Jul-2019

 ----------------------------------------------------------------------
 #t hf aug-cc-pvdz iop(5/13=1,5/36=2,99/5=2) pseudo=read geom=check gue
 ss=(read,tcheck) scf=(maxcycle=1)
 ----------------------------------------------------------------------
 -----
 title
 -----
 Structure from the checkpoint file:  "HB300SPXx10_1411_5.04_0.80_ethyne_methylfluoride_dimer_mol1.chk"
 Charge =  0 Multiplicity = 1

                         Standard orientation:
 ---------------------------------------------------------------------
 Center     Atomic      Atomic             Coordinates (Angstroms)
 Number     Number       Type             X           Y           Z
 ---------------------------------------------------------------------
      1          6           0        1.064152    0.951043    0.000000
      2          1           0        0.000000    0.960706    0.000000
      3          6           0        2.260083    0.924320    0.000000
      4          1           0        3.321161    0.907394    0.000000
      5          1           0       -1.510087   -1.818995    0.893893
      6          1           0       -1.510087   -1.818995   -0.893893
      7          1           0       -0.024284   -1.384073    0.000000
      8          6           0       -1.111702   -1.343652    0.000000
      9          9           0       -1.505767   -0.004033    0.000000
 ---------------------------------------------------------------------

 SCF Done:  E(RHF) =  -216.802202774     A.U. after    2 cycles

 The electronic state is 1-A'.
 Alpha  occ. eigenvalues --  -29.26451 -11.43903 -11.40157 -11.39637  -1.15750
 Alpha  occ. eigenvalues --   -1.08745  -0.79318  -0.69009  -0.65350  -0.63442
 Alpha  occ. eigenvalues --   -0.61281  -0.38850  -0.38104  -0.37901  -0.26401
 Alpha  occ. eigenvalues --   -0.25911
 Alpha virt. eigenvalues --    0.03515   0.04688   0.05771   0.06668   0.07395
 Alpha virt. eigenvalues --    0.11804   0.11947   0.12579   0.14273   0.14790
 Alpha virt. eigenvalues --    0.14992   0.15655   0.17676   0.17735   0.19061

 Mulliken charges:
               1
     1  C   -0.564137
     2  H    0.828618
     3  C   -1.013393
     4  H    0.551977
     5  H    1.340837
     6  H    1.340837
     7  H    1.205442
     8  C   -4.142759
     9  F    0.452578
 Sum of Mulliken charges =  -0.00000

 Dipole moment (field-independent basis, Debye):
    X=             -0.9767    Y=              0.1526    Z=              0.0000  Tot=              0.9886

 Test job not archived.
 1\1\GINC-SE056\SP\RHF\Aug-CC-pVDZ\C3H5F1\OHZDE\09-Apr-2025\0\\#t hf au
 g-cc-pvdz iop(5/13=1,5/36=2,99/5=2) pseudo=read geom=check guess=(read
 ,tcheck) scf=(maxcycle=1)\\title\\0,1\C,0,0.31595013,-1.6374503,0.\H,0
 ,0.81540337,-0.69773821,0.\C,0,-0.25942719,-2.68621438,0.\H,0,-0.76390
 634,-3.61984886,0.\H,0,-0.95430603,1.92432786,0.8938929\H,0,-0.9543060
 3,1.92432786,-0.8938929\H,0,-1.25380275,0.40542392,0.\C,0,-0.71632709,
 1.35159043,0.\F,0,0.65402786,1.08327669,0.\\Version=ES64L-G16RevC.01\S
 tate=1-A'\HF=-216.8022028\RMSD=8.564e-01\Dipole=0.2305389,0.3132536,0.

 Normal termination of Gaussian 16 at Wed Apr  9 19:41:49 2025.
