 Gaussian 16, Revision C.01,

 ----------------------------------------------------------------------
 #t hf aug-cc-pvdz symm=none int=(grid=ultrafine) guess=(read,tcheck) s
 table=(opt,rrhf)
 ----------------------------------------------------------------------
 -----
 title
 -----
 Symbolic Z-matrix:
 Charge =  0 Multiplicity = 1

 SCF Done:  E(RHF) =  -630.510521418     A.U. after   14 cycles

 1\1\GINC-SE045\Stability\RHF\Aug-CC-pVDZ\C6H10S1\OHZDE\09-Apr-2025\0\\
 #t hf aug-cc-pvdz symm=none int=(grid=ultrafine) guess=(read,tcheck) s
 table=(opt,rrhf)\\title\\0,1\C,0,2.59090187,-0.04968862,0.43961338\H,0
 ,1.93323189,0.27193926,-0.33858357\C,0,3.30609004,-0.41751171,1.325807
 27\H,0,3.94715573,-0.74121457,2.10714096\H,0,0.28752034,-1.677676,-0.5
 2770315\H,0,-1.1871398,-1.724509,-1.50318415\H,0,-1.43499141,-1.984053
 15,1.14946921\H,0,-1.75019318,1.8118317,0.22668582\H,0,-2.53202859,-0.
 88359649,0.31739442\H,0,-0.03834066,2.0024711,0.62093584\H,0,-1.543310

 Normal termination of Gaussian 16 at Wed Apr  9 19:35:27 2025.
 Gaussian 16:  ES64L-G16RevC.01  3-Jul-2019

 ----------------------------------------------------------------------
 #t hf aug-cc-pvdz iop(5/13=1,5/36=2,99/5=2) pseudo=read geom=check gue
 ss=(read,tcheck) scf=(maxcycle=1)
 ----------------------------------------------------------------------
 -----
 title
 -----
 Structure from the checkpoint file:  "HB300SPXx10_1004_4.04_0.95_ethyne_tetrahydrothiophene_dimer_mol1.chk"
 Charge =  0 Multiplicity = 1

                         Standard orientation:
 ---------------------------------------------------------------------
 Center     Atomic      Atomic             Coordinates (Angstroms)
 Number     Number       Type             X           Y           Z
 ---------------------------------------------------------------------
      1          6           0       -2.515498   -0.405522   -0.055330
      2          1           0       -1.644398   -1.022618   -0.011252
      3          6           0       -3.475323    0.307523   -0.104628
      4          1           0       -4.331578    0.932945   -0.148270
      5          1           0       -0.113514    0.036778   -1.766020
      6          1           0        1.577345   -0.376194   -2.080390
      7          1           0        1.027593    2.120694   -1.287492
      8          1           0        1.785387   -0.061468    1.878506
      9          1           0        2.372591    1.282390   -0.516085
     10          1           0        0.044582   -0.281725    2.086590
     11          1           0        0.948569    2.133565    1.316643
     12          1           0       -0.484927    1.464810    0.541942
     13         16           0        0.831923   -1.293512    0.027537
     14          6           0        0.876295   -0.043826   -1.319637
     15          6           0        1.291190    1.268839   -0.660273
     16          6           0        0.584193    1.316825    0.693382
     17          6           0        0.823739   -0.032672    1.370692
 ---------------------------------------------------------------------

 SCF Done:  E(RHF) =  -631.921813390     A.U. after    2 cycles

 The electronic state is 1-A.
 Alpha  occ. eigenvalues --  -75.66718 -13.11372 -13.10511 -13.09562 -11.43684
 Alpha  occ. eigenvalues --  -11.42871 -11.40903 -11.40533 -11.39045 -11.36248
 Alpha  occ. eigenvalues --   -8.00799  -1.32649  -1.09204  -1.07345  -1.07223
 Alpha  occ. eigenvalues --   -0.84671  -0.83137  -0.78138  -0.66735  -0.65652
 Alpha  occ. eigenvalues --   -0.64890  -0.60954  -0.54156  -0.48940  -0.47121
 Alpha  occ. eigenvalues --   -0.45534  -0.42176  -0.38403  -0.38373  -0.34980
 Alpha  occ. eigenvalues --   -0.22569
 Alpha virt. eigenvalues --    0.03482   0.04451   0.04885   0.05484   0.05741
 Alpha virt. eigenvalues --    0.05944   0.06704   0.07026   0.07412   0.08533
 Alpha virt. eigenvalues --    0.10051   0.11257   0.11987   0.13409   0.14104

 Mulliken charges:
               1
     1  C    0.020299
     2  H    1.285401
     3  C   -1.423080
     4  H    0.480847
     5  H    1.530744
     6  H    1.367358
     7  H    1.277436
     8  H    1.398357
     9  H    1.428860
    10  H    1.460433
    11  H    1.256015
    12  H    1.869829
    13  S    0.362867
    14  C   -3.306340
    15  C   -2.784445
    16  C   -2.851474
    17  C   -3.373108
 Sum of Mulliken charges =  -0.00000

 Dipole moment (field-independent basis, Debye):
    X=              0.5391    Y=              0.4558    Z=              0.0111  Tot=              0.7060

 Test job not archived.
 1\1\GINC-SE045\SP\RHF\Aug-CC-pVDZ\C6H10S1\OHZDE\09-Apr-2025\0\\#t hf a
 ug-cc-pvdz iop(5/13=1,5/36=2,99/5=2) pseudo=read geom=check guess=(rea
 d,tcheck) scf=(maxcycle=1)\\title\\0,1\C,0,2.59090187,-0.04968862,0.43
 961338\H,0,1.93323189,0.27193926,-0.33858357\C,0,3.30609004,-0.4175117
 1,1.32580727\H,0,3.94715573,-0.74121457,2.10714096\H,0,0.28752034,-1.6
 77676,-0.52770315\H,0,-1.1871398,-1.724509,-1.50318415\H,0,-1.43499141
 ,-1.98405315,1.14946921\H,0,-1.75019318,1.8118317,0.22668582\H,0,-2.53
 202859,-0.88359649,0.31739442\H,0,-0.03834066,2.0024711,0.62093584\H,0

 Normal termination of Gaussian 16 at Wed Apr  9 19:35:33 2025.
