 Gaussian 16, Revision C.01,

 ----------------------------------------------------------------------
 #t hf aug-cc-pvdz symm=none int=(grid=ultrafine) guess=(read,tcheck) s
 table=(opt,rrhf)
 ----------------------------------------------------------------------
 -----
 title
 -----
 Symbolic Z-matrix:
 Charge =  0 Multiplicity = 1

 SCF Done:  E(RHF) =  -414.905860289     A.U. after   11 cycles
 Normal termination of Gaussian 16 at Sat Apr  5 22:13:56 2025.
 Gaussian 16:  ES64L-G16RevC.01  3-Jul-2019

 ----------------------------------------------------------------------
 #t hf aug-cc-pvdz iop(5/13=1,5/36=2,99/5=2) pseudo=read geom=check gue
 ss=(read,tcheck) scf=(maxcycle=1)
 ----------------------------------------------------------------------
 -----
 title
 -----
 Structure from the checkpoint file:  "1-1-1-trifluoropropane.chk"
 Charge =  0 Multiplicity = 1

                         Standard orientation:
 ---------------------------------------------------------------------
 Center     Atomic      Atomic             Coordinates (Angstroms)
 Number     Number       Type             X           Y           Z
 ---------------------------------------------------------------------
      1          6           0       -1.755788   -1.135628    0.000000
      2          6           0       -1.135780    0.259439    0.000000
      3          6           0        0.373557    0.244819    0.000000
      4          9           0        0.879802   -0.382880    1.085643
      5          9           0        0.879802    1.498257    0.000000
      6          9           0        0.879802   -0.382880   -1.085643
      7          1           0       -1.459013   -1.700292    0.882744
      8          1           0       -2.842020   -1.057015    0.000000
      9          1           0       -1.459013   -1.700292   -0.882744
     10          1           0       -1.443277    0.826675    0.878962
     11          1           0       -1.443277    0.826675   -0.878962
 ---------------------------------------------------------------------

 SCF Done:  E(RHF) =  -415.303333873     A.U. after    2 cycles

 The electronic state is 1-A'.
 Alpha  occ. eigenvalues --  -26.49707 -26.49704 -26.49676 -11.51001 -11.27007
 Alpha  occ. eigenvalues --  -11.24866  -1.70317  -1.60246  -1.60231  -1.09664
 Alpha  occ. eigenvalues --   -0.95763  -0.87887  -0.80213  -0.79987  -0.75719
 Alpha  occ. eigenvalues --   -0.68612  -0.67930  -0.64204  -0.63068  -0.61563
 Alpha  occ. eigenvalues --   -0.61063  -0.60071  -0.55274  -0.52990  -0.52768
 Alpha virt. eigenvalues --    0.03342   0.04441   0.04644   0.05778   0.07520
 Alpha virt. eigenvalues --    0.09275   0.11116   0.11556   0.12082   0.14825
 Alpha virt. eigenvalues --    0.15247   0.16031   0.16880   0.17912   0.18198

 Mulliken charges:
               1
     1  C   -0.392731
     2  C   -0.736435
     3  C    2.565728
     4  F   -0.774144
     5  F   -0.769992
     6  F   -0.774144
     7  H    0.175500
     8  H    0.137759
     9  H    0.175500
    10  H    0.196480
    11  H    0.196480
 Sum of Mulliken charges =   0.00000

 Dipole moment (field-independent basis, Debye):
    X=             -2.5628    Y=             -0.1978    Z=             -0.0000  Tot=              2.5704

 Test job not archived.
 1\1\GINC-SE187\SP\RHF\Aug-CC-pVDZ\C3H5F3\OHZDE\05-Apr-2025\0\\#t hf au
 g-cc-pvdz iop(5/13=1,5/36=2,99/5=2) pseudo=read geom=check guess=(read
 ,tcheck) scf=(maxcycle=1)\\title\\0,1\C,0,-1.755788,-1.135628,0.\C,0,-
 1.13578,0.259439,0.\C,0,0.373557,0.244819,0.\F,0,0.879802,-0.38288,1.0
 85643\F,0,0.879802,1.498257,0.\F,0,0.879802,-0.38288,-1.085643\H,0,-1.
 459013,-1.700292,0.882744\H,0,-2.84202,-1.057015,0.\H,0,-1.459013,-1.7
 00292,-0.882744\H,0,-1.443277,0.826675,0.878962\H,0,-1.443277,0.826675
 ,-0.878962\\Version=ES64L-G16RevC.01\State=1-A'\HF=-415.3033339\RMSD=7

 Normal termination of Gaussian 16 at Sat Apr  5 22:13:59 2025.
