 Gaussian 16, Revision C.01,

 ----------------------------------------------------------------------
 #t hf aug-cc-pvdz symm=none int=(grid=ultrafine) guess=(read,tcheck) s
 table=(opt,rrhf)
 ----------------------------------------------------------------------
 -----
 title
 -----
 Symbolic Z-matrix:
 Charge =  0 Multiplicity = 1

 SCF Done:  E(RHF) =  -532.600886362     A.U. after   13 cycles

 1\1\GINC-SE145\Stability\RHF\Aug-CC-pVDZ\C6H10O4\OHZDE\05-Apr-2025\0\\
 #t hf aug-cc-pvdz symm=none int=(grid=ultrafine) guess=(read,tcheck) s
 table=(opt,rrhf)\\title\\0,1\C,0,1.958541,-0.478093,0.193954\C,0,-1.98
 5911,-0.370129,0.044281\C,0,3.315328,-0.651679,-0.427177\C,0,-2.70637,
 -1.4062,-0.772082\C,0,-0.282027,2.350782,-0.151313\C,0,0.025654,0.9063
 81,0.152375\O,0,1.466249,-1.1927,1.024364\O,0,-2.348571,0.063105,1.107
 404\O,0,1.336474,0.624435,-0.316945\O,0,-0.84702,0.027067,-0.577278\H,
 0,3.20635,-0.834642,-1.496483\H,0,3.901786,0.259171,-0.311364\H,0,3.82

 Normal termination of Gaussian 16 at Sat Apr  5 22:16:13 2025.
 Gaussian 16:  ES64L-G16RevC.01  3-Jul-2019

 ----------------------------------------------------------------------
 #t hf aug-cc-pvdz iop(5/13=1,5/36=2,99/5=2) pseudo=read geom=check gue
 ss=(read,tcheck) scf=(maxcycle=1)
 ----------------------------------------------------------------------
 -----
 title
 -----
 Structure from the checkpoint file:  "1-1-diacetoxyethane.chk"
 Charge =  0 Multiplicity = 1

                         Standard orientation:
 ---------------------------------------------------------------------
 Center     Atomic      Atomic             Coordinates (Angstroms)
 Number     Number       Type             X           Y           Z
 ---------------------------------------------------------------------
      1          6           0        1.958541   -0.478093    0.193954
      2          6           0       -1.985911   -0.370129    0.044281
      3          6           0        3.315328   -0.651679   -0.427177
      4          6           0       -2.706370   -1.406200   -0.772082
      5          6           0       -0.282027    2.350782   -0.151313
      6          6           0        0.025654    0.906381    0.152375
      7          8           0        1.466249   -1.192700    1.024364
      8          8           0       -2.348571    0.063105    1.107404
      9          8           0        1.336474    0.624435   -0.316945
     10          8           0       -0.847020    0.027067   -0.577278
     11          1           0        3.206350   -0.834642   -1.496483
     12          1           0        3.901786    0.259171   -0.311364
     13          1           0        3.823877   -1.488732    0.040209
     14          1           0       -2.793777   -1.084287   -1.808678
     15          1           0       -2.130275   -2.332268   -0.762710
     16          1           0       -3.688403   -1.585106   -0.345883
     17          1           0        0.418059    2.997677    0.375816
     18          1           0       -1.291702    2.583448    0.181303
     19          1           0       -0.200399    2.536528   -1.221464
     20          1           0       -0.053858    0.666591    1.208658
 ---------------------------------------------------------------------

 SCF Done:  E(RHF) =  -533.137041232     A.U. after    2 cycles

 The electronic state is 1-A.
 Alpha  occ. eigenvalues --  -20.59781 -20.59227 -20.54307 -20.53665 -11.39912
 Alpha  occ. eigenvalues --  -11.39478 -11.36469 -11.25722 -11.25194 -11.23970
 Alpha  occ. eigenvalues --   -1.57142  -1.53292  -1.46854  -1.44592  -1.07836
 Alpha  occ. eigenvalues --   -1.02863  -1.00675  -0.89251  -0.81741  -0.79869
 Alpha  occ. eigenvalues --   -0.71657  -0.70472  -0.70015  -0.66447  -0.65727
 Alpha  occ. eigenvalues --   -0.64266  -0.60496  -0.59269  -0.58621  -0.57619
 Alpha  occ. eigenvalues --   -0.57263  -0.55500  -0.55023  -0.53063  -0.50946
 Alpha  occ. eigenvalues --   -0.47862  -0.46346  -0.44740  -0.44178
 Alpha virt. eigenvalues --    0.03230   0.03704   0.04045   0.04662   0.05737
 Alpha virt. eigenvalues --    0.05902   0.06426   0.06761   0.07642   0.07932
 Alpha virt. eigenvalues --    0.10030   0.11325   0.12462   0.12923   0.13664

 Mulliken charges:
               1
     1  C    1.748373
     2  C    1.843866
     3  C   -0.694100
     4  C   -0.684946
     5  C   -0.410331
     6  C    1.537639
     7  O   -1.174794
     8  O   -1.204737
     9  O   -1.527001
    10  O   -1.540493
    11  H    0.246219
    12  H    0.237461
    13  H    0.186373
    14  H    0.206706
    15  H    0.253506
    16  H    0.187664
    17  H    0.160767
    18  H    0.151732
    19  H    0.227478
    20  H    0.248616
 Sum of Mulliken charges =  -0.00000

 Dipole moment (field-independent basis, Debye):
    X=              1.4767    Y=              0.7203    Z=             -2.9008  Tot=              3.3338

 Test job not archived.
 1\1\GINC-SE145\SP\RHF\Aug-CC-pVDZ\C6H10O4\OHZDE\05-Apr-2025\0\\#t hf a
 ug-cc-pvdz iop(5/13=1,5/36=2,99/5=2) pseudo=read geom=check guess=(rea
 d,tcheck) scf=(maxcycle=1)\\title\\0,1\C,0,1.958541,-0.478093,0.193954
 \C,0,-1.985911,-0.370129,0.044281\C,0,3.315328,-0.651679,-0.427177\C,0
 ,-2.70637,-1.4062,-0.772082\C,0,-0.282027,2.350782,-0.151313\C,0,0.025
 654,0.906381,0.152375\O,0,1.466249,-1.1927,1.024364\O,0,-2.348571,0.06
 3105,1.107404\O,0,1.336474,0.624435,-0.316945\O,0,-0.84702,0.027067,-0
 .577278\H,0,3.20635,-0.834642,-1.496483\H,0,3.901786,0.259171,-0.31136

 Normal termination of Gaussian 16 at Sat Apr  5 22:17:00 2025.
