 Gaussian 16, Revision C.01,

 ----------------------------------------------------------------------
 #t hf aug-cc-pvdz symm=none int=(grid=ultrafine) guess=(read,tcheck) s
 table=(opt,rrhf)
 ----------------------------------------------------------------------
 -----
 title
 -----
 Symbolic Z-matrix:
 Charge =  0 Multiplicity = 1

 SCF Done:  E(RHF) =  -413.671281676     A.U. after   12 cycles
 Normal termination of Gaussian 16 at Sat Apr  5 22:15:50 2025.
 Gaussian 16:  ES64L-G16RevC.01  3-Jul-2019

 ----------------------------------------------------------------------
 #t hf aug-cc-pvdz iop(5/13=1,5/36=2,99/5=2) pseudo=read geom=check gue
 ss=(read,tcheck) scf=(maxcycle=1)
 ----------------------------------------------------------------------
 -----
 title
 -----
 Structure from the checkpoint file:  "1-1-2-trifluoropropene.chk"
 Charge =  0 Multiplicity = 1

                         Standard orientation:
 ---------------------------------------------------------------------
 Center     Atomic      Atomic             Coordinates (Angstroms)
 Number     Number       Type             X           Y           Z
 ---------------------------------------------------------------------
      1          6           0       -0.035450   -0.681860    0.000000
      2          9           0        1.048577   -1.447157    0.000000
      3          9           0       -1.137563   -1.409159    0.000000
      4          6           0        0.000000    0.641679    0.000000
      5          9           0       -1.187405    1.293847    0.000000
      6          6           0        1.198490    1.512864    0.000000
      7          1           0        2.107235    0.915995    0.000000
      8          1           0        1.201017    2.155061    0.882809
      9          1           0        1.201017    2.155061   -0.882809
 ---------------------------------------------------------------------

 SCF Done:  E(RHF) =  -414.061785364     A.U. after    2 cycles

 The electronic state is 1-A'.
 Alpha  occ. eigenvalues --  -26.51882 -26.51571 -26.48881 -11.43275 -11.35313
 Alpha  occ. eigenvalues --  -11.26623  -1.68792  -1.62350  -1.61330  -1.10291
 Alpha  occ. eigenvalues --   -0.99047  -0.86176  -0.79603  -0.77722  -0.75521
 Alpha  occ. eigenvalues --   -0.68430  -0.68377  -0.66981  -0.66800  -0.64157
 Alpha  occ. eigenvalues --   -0.59691  -0.58906  -0.57481  -0.38282
 Alpha virt. eigenvalues --    0.03376   0.05156   0.05372   0.07263   0.09353
 Alpha virt. eigenvalues --    0.11128   0.11496   0.13108   0.13363   0.15358
 Alpha virt. eigenvalues --    0.15482   0.16922   0.16960   0.18397   0.20513

 Mulliken charges:
               1
     1  C    1.727782
     2  F   -0.770731
     3  F   -0.730086
     4  C    0.510247
     5  F   -0.906751
     6  C   -0.403438
     7  H    0.116319
     8  H    0.228328
     9  H    0.228328
 Sum of Mulliken charges =  -0.00000

 Dipole moment (field-independent basis, Debye):
    X=              1.7454    Y=              1.1421    Z=              0.0000  Tot=              2.0859

 Test job not archived.
 1\1\GINC-SE158\SP\RHF\Aug-CC-pVDZ\C3H3F3\OHZDE\05-Apr-2025\0\\#t hf au
 g-cc-pvdz iop(5/13=1,5/36=2,99/5=2) pseudo=read geom=check guess=(read
 ,tcheck) scf=(maxcycle=1)\\title\\0,1\C,0,-0.03545,-0.68186,0.\F,0,1.0
 48578,-1.447157,0.\F,0,-1.137562,-1.409159,0.\C,0,0.,0.641679,0.\F,0,-
 1.187405,1.293847,0.\C,0,1.19849,1.512864,0.\H,0,2.107235,0.915995,0.\
 H,0,1.201017,2.155061,0.882809\H,0,1.201017,2.155061,-0.882809\\Versio
 n=ES64L-G16RevC.01\State=1-A'\HF=-414.0617854\RMSD=1.078e-02\Dipole=0.
 6867099,0.449325,0.\Quadrupole=-0.6331684,-0.0456893,0.6788577,2.06477

 Normal termination of Gaussian 16 at Sat Apr  5 22:15:54 2025.
