 Gaussian 16, Revision C.01,

 ----------------------------------------------------------------------
 #t hf aug-cc-pvdz symm=none int=(grid=ultrafine) guess=(read,tcheck) s
 table=(opt,rrhf)
 ----------------------------------------------------------------------
 -----
 title
 -----
 Symbolic Z-matrix:
 Charge =  0 Multiplicity = 1

 SCF Done:  E(RHF) =  -1057.75178775     A.U. after   15 cycles
 Normal termination of Gaussian 16 at Sat Apr  5 22:17:19 2025.
 Gaussian 16:  ES64L-G16RevC.01  3-Jul-2019

 ----------------------------------------------------------------------
 #t hf aug-cc-pvdz iop(5/13=1,5/36=2,99/5=2) pseudo=read geom=check gue
 ss=(read,tcheck) scf=(maxcycle=1)
 ----------------------------------------------------------------------
 -----
 title
 -----
 Structure from the checkpoint file:  "1-1-dithiocyanatoethane.chk"
 Charge =  0 Multiplicity = 1

                         Standard orientation:
 ---------------------------------------------------------------------
 Center     Atomic      Atomic             Coordinates (Angstroms)
 Number     Number       Type             X           Y           Z
 ---------------------------------------------------------------------
      1         16           0       -0.941719   -0.587939    0.768936
      2         16           0        1.669768    0.756964    0.287950
      3          7           0       -3.415090   -0.760915   -0.639976
      4          7           0        2.817085   -1.701635   -0.585142
      5          6           0       -0.056728    0.618916   -0.342704
      6          6           0       -2.408367   -0.687899   -0.075952
      7          6           0        2.320508   -0.717745   -0.238832
      8          6           0       -0.677159    2.004219   -0.337138
      9          1           0       -0.021035    0.185721   -1.337080
     10          1           0       -1.717428    1.940023   -0.652532
     11          1           0       -0.647908    2.449729    0.656902
     12          1           0       -0.145903    2.653030   -1.033882
 ---------------------------------------------------------------------

 SCF Done:  E(RHF) =  -1058.12482259     A.U. after    2 cycles

 The electronic state is 1-A.
 Alpha  occ. eigenvalues --  -94.04361 -94.03404 -15.54608 -15.54240 -11.37520
 Alpha  occ. eigenvalues --  -11.32319 -11.32016 -11.28650  -8.32344  -8.31374
 Alpha  occ. eigenvalues --   -6.30186  -6.29959  -6.29738  -6.29209  -6.28982
 Alpha  occ. eigenvalues --   -6.28751  -1.26562  -1.26170  -1.19342  -1.09884
 Alpha  occ. eigenvalues --   -1.04149  -0.88521  -0.75120  -0.72445  -0.65982
 Alpha  occ. eigenvalues --   -0.64343  -0.63152  -0.60466  -0.59908  -0.57806
 Alpha  occ. eigenvalues --   -0.57335  -0.56254  -0.55825  -0.50853  -0.49275
 Alpha  occ. eigenvalues --   -0.42840  -0.42138
 Alpha virt. eigenvalues --    0.02673   0.03644   0.04500   0.04856   0.04927
 Alpha virt. eigenvalues --    0.07014   0.07567   0.08683   0.09437   0.09938
 Alpha virt. eigenvalues --    0.10608   0.11727   0.12676   0.13166   0.13511

 Mulliken charges:
               1
     1  S    0.824416
     2  S    0.901635
     3  N    0.751911
     4  N    0.782667
     5  C   -0.824986
     6  C   -1.510108
     7  C   -1.582140
     8  C   -0.259569
     9  H    0.308514
    10  H    0.214537
    11  H    0.228563
    12  H    0.164561
 Sum of Mulliken charges =  -0.00000

 Dipole moment (field-independent basis, Debye):
    X=              0.9288    Y=              4.9827    Z=              1.3052  Tot=              5.2339

 Test job not archived.
 1\1\GINC-SE180\SP\RHF\Aug-CC-pVDZ\C4H4N2S2\OHZDE\05-Apr-2025\0\\#t hf
 aug-cc-pvdz iop(5/13=1,5/36=2,99/5=2) pseudo=read geom=check guess=(re
 ad,tcheck) scf=(maxcycle=1)\\title\\0,1\S,0,-0.941719,-0.587939,0.7689
 36\S,0,1.669768,0.756964,0.28795\N,0,-3.41509,-0.760915,-0.639976\N,0,
 2.817085,-1.701635,-0.585142\C,0,-0.056728,0.618916,-0.342704\C,0,-2.4
 08367,-0.687899,-0.075952\C,0,2.320508,-0.717745,-0.238832\C,0,-0.6771
 59,2.004219,-0.337138\H,0,-0.021035,0.185721,-1.33708\H,0,-1.717428,1.
 940023,-0.652532\H,0,-0.647908,2.449729,0.656902\H,0,-0.145903,2.65303

 Normal termination of Gaussian 16 at Sat Apr  5 22:18:04 2025.
