 Gaussian 16, Revision C.01,

 ----------------------------------------------------------------------
 #t hf aug-cc-pvdz symm=none int=(grid=ultrafine) guess=(read,tcheck) s
 table=(opt,rrhf)
 ----------------------------------------------------------------------
 -----
 title
 -----
 Symbolic Z-matrix:
 Charge =  0 Multiplicity = 1

 SCF Done:  E(RHF) =  -1219.81157813     A.U. after   15 cycles
 Normal termination of Gaussian 16 at Sat Apr  5 22:15:47 2025.
 Gaussian 16:  ES64L-G16RevC.01  3-Jul-2019

 ----------------------------------------------------------------------
 #t hf aug-cc-pvdz iop(5/13=1,5/36=2,99/5=2) pseudo=read geom=check gue
 ss=(read,tcheck) scf=(maxcycle=1)
 ----------------------------------------------------------------------
 -----
 title
 -----
 Structure from the checkpoint file:  "1-1-dichloro-3-3-dimethylurea.chk"
 Charge =  0 Multiplicity = 1

                         Standard orientation:
 ---------------------------------------------------------------------
 Center     Atomic      Atomic             Coordinates (Angstroms)
 Number     Number       Type             X           Y           Z
 ---------------------------------------------------------------------
      1         17           0       -2.158879   -0.834991    0.460362
      2         17           0       -0.993288    1.532997   -0.682534
      3          8           0        0.277220   -1.678178   -0.719199
      4          7           0       -0.722342    0.149580    0.402406
      5          7           0        1.607764   -0.059256    0.184479
      6          6           0        0.425703   -0.637266   -0.128512
      7          6           0        2.825179   -0.632336   -0.375066
      8          6           0        1.787743    1.109351    1.035518
      9          1           0        3.457133   -1.029550    0.422266
     10          1           0        2.565217   -1.434482   -1.056315
     11          1           0        3.383450    0.138196   -0.910345
     12          1           0        2.037010    1.992083    0.442264
     13          1           0        2.608475    0.914416    1.727449
     14          1           0        0.888095    1.307890    1.605352
 ---------------------------------------------------------------------

 SCF Done:  E(RHF) =  -1220.26265714     A.U. after    2 cycles

 The electronic state is 1-A.
 Alpha  occ. eigenvalues -- -105.62037-105.60909 -20.53459 -15.64401 -15.55055
 Alpha  occ. eigenvalues --  -11.41392 -11.28676 -11.28019 -10.66509 -10.65412
 Alpha  occ. eigenvalues --   -7.83466  -7.82983  -7.82944  -7.82381  -7.81875
 Alpha  occ. eigenvalues --   -7.81837  -1.49710  -1.30356  -1.26084  -1.07425
 Alpha  occ. eigenvalues --   -1.02654  -1.00156  -0.94548  -0.78426  -0.75435
 Alpha  occ. eigenvalues --   -0.70456  -0.70387  -0.65002  -0.63716  -0.62451
 Alpha  occ. eigenvalues --   -0.59313  -0.58526  -0.56396  -0.55415  -0.51033
 Alpha  occ. eigenvalues --   -0.49929  -0.47076  -0.46383  -0.43477  -0.41948
 Alpha virt. eigenvalues --    0.03201   0.03464   0.04396   0.04703   0.05445
 Alpha virt. eigenvalues --    0.06674   0.07476   0.07779   0.08276   0.10365
 Alpha virt. eigenvalues --    0.11881   0.12511   0.13907   0.14282   0.14359

 Mulliken charges:
               1
     1  Cl   0.126475
     2  Cl   0.102181
     3  O   -1.125315
     4  N   -0.082727
     5  N    0.752191
     6  C    0.000405
     7  C   -0.220763
     8  C   -0.350261
     9  H    0.172547
    10  H    0.008696
    11  H    0.236300
    12  H    0.178230
    13  H    0.139354
    14  H    0.062687
 Sum of Mulliken charges =  -0.00000

 Dipole moment (field-independent basis, Debye):
    X=              2.7643    Y=              2.1376    Z=              0.9131  Tot=              3.6118

 Test job not archived.
 1\1\GINC-SE225\SP\RHF\Aug-CC-pVDZ\C3H6Cl2N2O1\OHZDE\05-Apr-2025\0\\#t
 hf aug-cc-pvdz iop(5/13=1,5/36=2,99/5=2) pseudo=read geom=check guess=
 (read,tcheck) scf=(maxcycle=1)\\title\\0,1\Cl,0,-2.158879,-0.834991,0.
 460362\Cl,0,-0.993288,1.532997,-0.682534\O,0,0.27722,-1.678178,-0.7191
 99\N,0,-0.722342,0.14958,0.402406\N,0,1.607764,-0.059256,0.184479\C,0,
 0.425703,-0.637266,-0.128512\C,0,2.825179,-0.632336,-0.375066\C,0,1.78
 7743,1.109351,1.035518\H,0,3.457133,-1.02955,0.422266\H,0,2.565217,-1.
 434482,-1.056315\H,0,3.38345,0.138196,-0.910345\H,0,2.03701,1.992083,0

 Normal termination of Gaussian 16 at Sat Apr  5 22:15:53 2025.
