 Gaussian 16, Revision C.01,

 ----------------------------------------------------------------------
 #t hf aug-cc-pvdz symm=none int=(grid=ultrafine) guess=(read,tcheck) s
 table=(opt,rrhf)
 ----------------------------------------------------------------------
 -----
 title
 -----
 Symbolic Z-matrix:
 Charge =  0 Multiplicity = 1

 SCF Done:  E(RHF) =  -192.714784050     A.U. after   10 cycles
 Normal termination of Gaussian 16 at Sat Apr  5 22:13:55 2025.
 Gaussian 16:  ES64L-G16RevC.01  3-Jul-2019

 ----------------------------------------------------------------------
 #t hf aug-cc-pvdz iop(5/13=1,5/36=2,99/5=2) pseudo=read geom=check gue
 ss=(read,tcheck) scf=(maxcycle=1)
 ----------------------------------------------------------------------
 -----
 title
 -----
 Structure from the checkpoint file:  "1-1-1-propellane.chk"
 Charge =  0 Multiplicity = 1

                         Standard orientation:
 ---------------------------------------------------------------------
 Center     Atomic      Atomic             Coordinates (Angstroms)
 Number     Number       Type             X           Y           Z
 ---------------------------------------------------------------------
      1          6           0       -0.000000   -0.000000    1.297147
      2          6           0       -0.783698    0.000000    0.000000
      3          6           0        0.783698   -0.000000    0.000000
      4          6           0       -0.000000    1.123362   -0.648574
      5          6           0       -0.000000   -1.123362   -0.648574
      6          1           0        0.000000   -0.913369    1.877008
      7          1           0        0.000000    0.913369    1.877008
      8          1           0       -0.000000    2.082221   -0.147503
      9          1           0       -0.000000    1.168852   -1.729505
     10          1           0       -0.000000   -2.082221   -0.147503
     11          1           0       -0.000000   -1.168852   -1.729505
 ---------------------------------------------------------------------

 SCF Done:  E(RHF) =  -192.920426515     A.U. after    2 cycles

 The electronic state is 1-A1.
 Alpha  occ. eigenvalues --  -11.26672 -11.26672 -11.26648 -11.26473 -11.26377
 Alpha  occ. eigenvalues --   -1.28713  -0.95221  -0.95221  -0.78436  -0.73455
 Alpha  occ. eigenvalues --   -0.66295  -0.66295  -0.54880  -0.52772  -0.52772
 Alpha  occ. eigenvalues --   -0.45435  -0.45435  -0.37612
 Alpha virt. eigenvalues --    0.03958   0.04006   0.04006   0.06182   0.06182
 Alpha virt. eigenvalues --    0.06427   0.09242   0.10364   0.12814   0.12814
 Alpha virt. eigenvalues --    0.12877   0.14375   0.14375   0.14544   0.16559

 Mulliken charges:
               1
     1  C    0.223100
     2  C   -0.193103
     3  C   -0.193103
     4  C    0.223099
     5  C    0.223099
     6  H   -0.047182
     7  H   -0.047182
     8  H   -0.047181
     9  H   -0.047183
    10  H   -0.047181
    11  H   -0.047183
 Sum of Mulliken charges =  -0.00000

 Dipole moment (field-independent basis, Debye):
    X=             -0.0000    Y=             -0.0000    Z=              0.0000  Tot=              0.0000

 Test job not archived.
 1\1\GINC-SE175\SP\RHF\Aug-CC-pVDZ\C5H6\OHZDE\05-Apr-2025\0\\#t hf aug-
 cc-pvdz iop(5/13=1,5/36=2,99/5=2) pseudo=read geom=check guess=(read,t
 check) scf=(maxcycle=1)\\title\\0,1\C,0,0.,1.297147,0.\C,0,0.,0.,0.783
 698\C,0,0.,0.,-0.783698\C,0,-1.123362,-0.648574,0.\C,0,1.123362,-0.648
 574,0.\H,0,0.913369,1.877008,0.\H,0,-0.913369,1.877008,0.\H,0,-2.08222
 1,-0.147503,0.\H,0,-1.168852,-1.729505,0.\H,0,2.082221,-0.147503,0.\H,
 0,1.168852,-1.729505,0.\\Version=ES64L-G16RevC.01\State=1-A1\HF=-192.9
 204265\RMSD=1.389e-02\Dipole=0.,0.,0.\Quadrupole=2.4503017,2.4503131,-

 Normal termination of Gaussian 16 at Sat Apr  5 22:13:57 2025.
