 Gaussian 16, Revision C.01,

 ----------------------------------------------------------------------
 #t hf aug-cc-pvdz symm=none int=(grid=ultrafine) guess=(read,tcheck) s
 table=(opt,rrhf)
 ----------------------------------------------------------------------
 -----
 title
 -----
 Symbolic Z-matrix:
 Charge =  0 Multiplicity = 1

 SCF Done:  E(RHF) =  -995.883036168     A.U. after   12 cycles

 1\1\GINC-SE231\Stability\RHF\Aug-CC-pVDZ\C2H2Cl2\OHZDE\05-Apr-2025\0\\
 #t hf aug-cc-pvdz symm=none int=(grid=ultrafine) guess=(read,tcheck) s
 table=(opt,rrhf)\\title\\0,1\C,0,0.,0.,1.747016\C,0,0.,0.,0.425505\H,0
 ,0.,0.930182,2.293878\H,0,0.,-0.930182,2.293878\Cl,0,0.,1.459069,-0.51
 832\Cl,0,0.,-1.459069,-0.51832\\Version=ES64L-G16RevC.01\HF=-995.88303
 62\RMSD=9.161e-09\Dipole=0.,0.,0.6659725\Quadrupole=-1.9648544,-0.2097
 053,2.1745597,0.,0.,0.\PG=Unknown\\@
 The archive entry for this job was punched.

 Normal termination of Gaussian 16 at Sat Apr  5 22:15:47 2025.
 Gaussian 16:  ES64L-G16RevC.01  3-Jul-2019

 ----------------------------------------------------------------------
 #t hf aug-cc-pvdz iop(5/13=1,5/36=2,99/5=2) pseudo=read geom=check gue
 ss=(read,tcheck) scf=(maxcycle=1)
 ----------------------------------------------------------------------
 -----
 title
 -----
 Structure from the checkpoint file:  "1-1-dichloroethene.chk"
 Charge =  0 Multiplicity = 1

                         Standard orientation:
 ---------------------------------------------------------------------
 Center     Atomic      Atomic             Coordinates (Angstroms)
 Number     Number       Type             X           Y           Z
 ---------------------------------------------------------------------
      1          6           0        0.000000   -0.000000    1.747016
      2          6           0        0.000000   -0.000000    0.425505
      3          1           0        0.000000    0.930182    2.293878
      4          1           0       -0.000000   -0.930182    2.293878
      5         17           0        0.000000    1.459069   -0.518320
      6         17           0       -0.000000   -1.459069   -0.518320
 ---------------------------------------------------------------------

 SCF Done:  E(RHF) =  -996.114314620     A.U. after    2 cycles

 The electronic state is 1-A1.
 Alpha  occ. eigenvalues -- -105.59401-105.59401 -11.37682 -11.27232 -10.64231
 Alpha  occ. eigenvalues --  -10.64227  -7.81198  -7.81190  -7.80763  -7.80762
 Alpha  occ. eigenvalues --   -7.80751  -7.80749  -1.19190  -1.06978  -1.01685
 Alpha  occ. eigenvalues --   -0.77446  -0.67594  -0.65805  -0.57586  -0.56102
 Alpha  occ. eigenvalues --   -0.50407  -0.48884  -0.46720  -0.38586
 Alpha virt. eigenvalues --    0.03756   0.05023   0.07318   0.07910   0.09080
 Alpha virt. eigenvalues --    0.10833   0.13921   0.14557   0.15679   0.16025
 Alpha virt. eigenvalues --    0.16940   0.16949   0.18212   0.18262   0.19326

 Mulliken charges:
               1
     1  C    0.327980
     2  C   -0.165458
     3  H    0.020637
     4  H    0.020637
     5  Cl  -0.101897
     6  Cl  -0.101897
 Sum of Mulliken charges =  -0.00000

 Dipole moment (field-independent basis, Debye):
    X=              0.0000    Y=             -0.0000    Z=              1.6967  Tot=              1.6967

 Test job not archived.
 1\1\GINC-SE231\SP\RHF\Aug-CC-pVDZ\C2H2Cl2\OHZDE\05-Apr-2025\0\\#t hf a
 ug-cc-pvdz iop(5/13=1,5/36=2,99/5=2) pseudo=read geom=check guess=(rea
 d,tcheck) scf=(maxcycle=1)\\title\\0,1\C,0,0.,0.,1.747016\C,0,0.,0.,0.
 425505\H,0,0.,0.930182,2.293878\H,0,0.,-0.930182,2.293878\Cl,0,0.,1.45
 9069,-0.51832\Cl,0,0.,-1.459069,-0.51832\\Version=ES64L-G16RevC.01\Sta
 te=1-A1\HF=-996.1143146\RMSD=8.251e-03\Dipole=0.,0.,0.6675381\Quadrupo
 le=-2.0789682,-0.1575251,2.2364933,0.,0.,0.\PG=C02V [C2(C1C1),SGV(H2Cl
 2)]\\@

 Normal termination of Gaussian 16 at Sat Apr  5 22:15:50 2025.
