 Gaussian 16, Revision C.01,

 ----------------------------------------------------------------------
 #t hf aug-cc-pvdz symm=none int=(grid=ultrafine) guess=(read,tcheck) s
 table=(opt,rrhf)
 ----------------------------------------------------------------------
 -----
 title
 -----
 Symbolic Z-matrix:
 Charge =  0 Multiplicity = 1

 SCF Done:  E(RHF) =  -710.272757041     A.U. after   13 cycles
 Normal termination of Gaussian 16 at Sat Apr  5 22:14:04 2025.
 Gaussian 16:  ES64L-G16RevC.01  3-Jul-2019

 ----------------------------------------------------------------------
 #t hf aug-cc-pvdz iop(5/13=1,5/36=2,99/5=2) pseudo=read geom=check gue
 ss=(read,tcheck) scf=(maxcycle=1)
 ----------------------------------------------------------------------
 -----
 title
 -----
 Structure from the checkpoint file:  "1-1-2-3-3-3-hexafluoroprop-1-ene.chk"
 Charge =  0 Multiplicity = 1

                         Standard orientation:
 ---------------------------------------------------------------------
 Center     Atomic      Atomic             Coordinates (Angstroms)
 Number     Number       Type             X           Y           Z
 ---------------------------------------------------------------------
      1          6           0        0.245890   -0.471484   -0.000001
      2          6           0        1.412981    0.161547    0.000001
      3          6           0       -1.126370    0.134384   -0.000001
      4          9           0        0.234429   -1.812633    0.000002
      5          9           0        2.559922   -0.475620    0.000002
      6          9           0        1.575610    1.460961   -0.000000
      7          9           0       -1.821022   -0.263524    1.082021
      8          9           0       -1.082861    1.471534   -0.000098
      9          9           0       -1.821079   -0.263683   -1.081926
 ---------------------------------------------------------------------

 SCF Done:  E(RHF) =  -710.920436307     A.U. after    2 cycles

 The electronic state is 1-A.
 Alpha  occ. eigenvalues --  -26.55683 -26.55465 -26.53433 -26.52679 -26.52675
 Alpha  occ. eigenvalues --  -26.52631 -11.56008 -11.49055 -11.39153  -1.74176
 Alpha  occ. eigenvalues --   -1.73172  -1.66639  -1.65406  -1.64021  -1.63354
 Alpha  occ. eigenvalues --   -1.13874  -1.01131  -0.91527  -0.87526  -0.84775
 Alpha  occ. eigenvalues --   -0.83635  -0.82335  -0.79227  -0.78668  -0.72585
 Alpha  occ. eigenvalues --   -0.70826  -0.70612  -0.70303  -0.69571  -0.69156
 Alpha  occ. eigenvalues --   -0.67878  -0.65559  -0.65455  -0.64087  -0.59904
 Alpha  occ. eigenvalues --   -0.43319
 Alpha virt. eigenvalues --    0.06276   0.07935   0.08003   0.08661   0.10477
 Alpha virt. eigenvalues --    0.10978   0.11249   0.13489   0.13613   0.13995
 Alpha virt. eigenvalues --    0.15415   0.20418   0.20637   0.23036   0.24361

 Mulliken charges:
               1
     1  C    0.203038
     2  C    1.785189
     3  C    2.426054
     4  F   -0.892341
     5  F   -0.683664
     6  F   -0.712481
     7  F   -0.689737
     8  F   -0.746316
     9  F   -0.689742
 Sum of Mulliken charges =  -0.00000

 Dipole moment (field-independent basis, Debye):
    X=              1.0700    Y=              0.3903    Z=             -0.0000  Tot=              1.1389

 Test job not archived.
 1\1\GINC-SE084\SP\RHF\Aug-CC-pVDZ\C3F6\OHZDE\05-Apr-2025\0\\#t hf aug-
 cc-pvdz iop(5/13=1,5/36=2,99/5=2) pseudo=read geom=check guess=(read,t
 check) scf=(maxcycle=1)\\title\\0,1\C,0,0.24589,-0.471484,-0.000001\C,
 0,1.412981,0.161547,0.000001\C,0,-1.12637,0.134384,-0.000001\F,0,0.234
 429,-1.812633,0.000002\F,0,2.559922,-0.47562,0.000002\F,0,1.57561,1.46
 0961,0.\F,0,-1.821022,-0.263524,1.082021\F,0,-1.082861,1.471534,-0.000
 098\F,0,-1.821079,-0.263683,-1.081926\\Version=ES64L-G16RevC.01\State=
 1-A\HF=-710.9204363\RMSD=1.104e-02\Dipole=0.4209687,0.1535441,-0.00000

 Normal termination of Gaussian 16 at Sat Apr  5 22:14:40 2025.
