 Gaussian 16, Revision C.01,

 ----------------------------------------------------------------------
 #t hf aug-cc-pvdz symm=none int=(grid=ultrafine) guess=(read,tcheck) s
 table=(opt,rrhf)
 ----------------------------------------------------------------------
 -----
 title
 -----
 Symbolic Z-matrix:
 Charge =  0 Multiplicity = 1

 SCF Done:  E(RHF) =  -189.260201139     A.U. after   12 cycles
 Normal termination of Gaussian 16 at Sat Apr  5 22:16:59 2025.
 Gaussian 16:  ES64L-G16RevC.01  3-Jul-2019

 ----------------------------------------------------------------------
 #t hf aug-cc-pvdz iop(5/13=1,5/36=2,99/5=2) pseudo=read geom=check gue
 ss=(read,tcheck) scf=(maxcycle=1)
 ----------------------------------------------------------------------
 -----
 title
 -----
 Structure from the checkpoint file:  "1-1-dimethylhydrazine.chk"
 Charge =  0 Multiplicity = 1

                         Standard orientation:
 ---------------------------------------------------------------------
 Center     Atomic      Atomic             Coordinates (Angstroms)
 Number     Number       Type             X           Y           Z
 ---------------------------------------------------------------------
      1          6           0        0.327267   -0.588904    1.198224
      2          7           0        0.327267    0.236816   -0.000000
      3          7           0       -0.931112    0.994972    0.000000
      4          1           0       -0.869402    1.616300    0.803103
      5          1           0       -0.869402    1.616300   -0.803103
      6          1           0        0.334815    0.048085    2.083911
      7          1           0       -0.549984   -1.250736    1.251362
      8          1           0        1.234428   -1.191485    1.209716
      9          6           0        0.327267   -0.588904   -1.198224
     10          1           0        0.334815    0.048085   -2.083911
     11          1           0       -0.549984   -1.250736   -1.251362
     12          1           0        1.234428   -1.191485   -1.209716
 ---------------------------------------------------------------------

 SCF Done:  E(RHF) =  -189.468475954     A.U. after    2 cycles

 The electronic state is 1-A'.
 Alpha  occ. eigenvalues --  -15.51558 -15.51130 -11.24977 -11.24966  -1.27021
 Alpha  occ. eigenvalues --   -1.08382  -0.96386  -0.84243  -0.70450  -0.68391
 Alpha  occ. eigenvalues --   -0.64920  -0.59137  -0.54813  -0.54058  -0.52492
 Alpha  occ. eigenvalues --   -0.51467  -0.38129
 Alpha virt. eigenvalues --    0.03609   0.05102   0.05104   0.05931   0.05937
 Alpha virt. eigenvalues --    0.06152   0.07182   0.10217   0.10666   0.13950
 Alpha virt. eigenvalues --    0.15296   0.15794   0.16998   0.17761   0.18007

 Mulliken charges:
               1
     1  C   -0.402242
     2  N   -0.307477
     3  N   -0.052464
     4  H    0.150063
     5  H    0.150063
     6  H    0.065458
     7  H    0.242495
     8  H    0.124196
     9  C   -0.402242
    10  H    0.065458
    11  H    0.242495
    12  H    0.124196
 Sum of Mulliken charges =  -0.00000

 Dipole moment (field-independent basis, Debye):
    X=              0.4297    Y=              0.1204    Z=             -0.0000  Tot=              0.4463

 Test job not archived.
 1\1\GINC-SE146\SP\RHF\Aug-CC-pVDZ\C2H8N2\OHZDE\05-Apr-2025\0\\#t hf au
 g-cc-pvdz iop(5/13=1,5/36=2,99/5=2) pseudo=read geom=check guess=(read
 ,tcheck) scf=(maxcycle=1)\\title\\0,1\C,0,0.327267,-0.588904,1.198224\
 N,0,0.327267,0.236816,0.\N,0,-0.931112,0.994972,0.\H,0,-0.869402,1.616
 3,0.803103\H,0,-0.869402,1.6163,-0.803103\H,0,0.334815,0.048085,2.0839
 11\H,0,-0.549984,-1.250736,1.251362\H,0,1.234428,-1.191485,1.209716\C,
 0,0.327267,-0.588904,-1.198224\H,0,0.334815,0.048085,-2.083911\H,0,-0.
 549984,-1.250736,-1.251362\H,0,1.234428,-1.191485,-1.209716\\Version=E

 Normal termination of Gaussian 16 at Sat Apr  5 22:18:01 2025.
