 Gaussian 16, Revision C.01,

 ----------------------------------------------------------------------
 #t hf aug-cc-pvdz symm=none int=(grid=ultrafine) guess=(read,tcheck) s
 table=(opt,rrhf)
 ----------------------------------------------------------------------
 -----
 title
 -----
 Symbolic Z-matrix:
 Charge =  0 Multiplicity = 1

 SCF Done:  E(RHF) =  -1953.96422480     A.U. after   12 cycles

 1\1\GINC-SE185\Stability\RHF\Aug-CC-pVDZ\C3H4Cl4\OHZDE\05-Apr-2025\0\\
 #t hf aug-cc-pvdz symm=none int=(grid=ultrafine) guess=(read,tcheck) s
 table=(opt,rrhf)\\title\\0,1\C,0,0.,0.,0.7318\C,0,0.,1.274009,-0.09780
 4\C,0,0.,-1.274009,-0.097804\Cl,0,0.132799,2.700697,0.986148\Cl,0,-1.4
 83724,1.397852,-1.115518\Cl,0,1.483724,-1.397852,-1.115518\Cl,0,-0.132
 799,-2.700697,0.986148\H,0,-0.881449,-0.008441,1.372394\H,0,0.881449,0
 .008441,1.372394\H,0,0.836615,1.32875,-0.78169\H,0,-0.836615,-1.32875,
 -0.78169\\Version=ES64L-G16RevC.01\HF=-1953.9642248\RMSD=7.584e-09\Dip

 Normal termination of Gaussian 16 at Sat Apr  5 22:16:03 2025.
 Gaussian 16:  ES64L-G16RevC.01  3-Jul-2019

 ----------------------------------------------------------------------
 #t hf aug-cc-pvdz iop(5/13=1,5/36=2,99/5=2) pseudo=read geom=check gue
 ss=(read,tcheck) scf=(maxcycle=1)
 ----------------------------------------------------------------------
 -----
 title
 -----
 Structure from the checkpoint file:  "1-1-3-3-tetrachloropropane.chk"
 Charge =  0 Multiplicity = 1

                         Standard orientation:
 ---------------------------------------------------------------------
 Center     Atomic      Atomic             Coordinates (Angstroms)
 Number     Number       Type             X           Y           Z
 ---------------------------------------------------------------------
      1          6           0       -0.000000    0.000000    0.731800
      2          6           0        0.000000    1.274009   -0.097804
      3          6           0       -0.000000   -1.274009   -0.097804
      4         17           0        0.132799    2.700697    0.986148
      5         17           0       -1.483724    1.397852   -1.115518
      6         17           0        1.483724   -1.397852   -1.115518
      7         17           0       -0.132799   -2.700697    0.986148
      8          1           0       -0.881449   -0.008441    1.372394
      9          1           0        0.881449    0.008441    1.372394
     10          1           0        0.836615    1.328750   -0.781690
     11          1           0       -0.836615   -1.328750   -0.781690
 ---------------------------------------------------------------------

 SCF Done:  E(RHF) =  -1954.38865956     A.U. after    2 cycles

 The electronic state is 1-A.
 Alpha  occ. eigenvalues -- -105.59024-105.59024-105.58979-105.58979 -11.39622
 Alpha  occ. eigenvalues --  -11.39613 -11.29679 -10.63846 -10.63846 -10.63787
 Alpha  occ. eigenvalues --  -10.63786  -7.80787  -7.80785  -7.80735  -7.80730
 Alpha  occ. eigenvalues --   -7.80402  -7.80400  -7.80382  -7.80382  -7.80331
 Alpha  occ. eigenvalues --   -7.80330  -7.80321  -7.80321  -1.21331  -1.16341
 Alpha  occ. eigenvalues --   -1.06176  -1.05990  -1.02837  -0.88887  -0.83672
 Alpha  occ. eigenvalues --   -0.72245  -0.66018  -0.65938  -0.64105  -0.58880
 Alpha  occ. eigenvalues --   -0.57748  -0.55737  -0.50341  -0.49765  -0.48842
 Alpha  occ. eigenvalues --   -0.48759  -0.47311  -0.46530  -0.46376  -0.45873
 Alpha virt. eigenvalues --    0.04438   0.04682   0.04928   0.05908   0.07245
 Alpha virt. eigenvalues --    0.08316   0.09199   0.09207   0.11719   0.12444
 Alpha virt. eigenvalues --    0.13357   0.14625   0.15073   0.15553   0.15728

 Mulliken charges:
               1
     1  C    0.212467
     2  C   -0.666100
     3  C   -0.666100
     4  Cl   0.016487
     5  Cl  -0.018910
     6  Cl  -0.018910
     7  Cl   0.016487
     8  H    0.254604
     9  H    0.254604
    10  H    0.307686
    11  H    0.307686
 Sum of Mulliken charges =  -0.00000

 Dipole moment (field-independent basis, Debye):
    X=             -0.0000    Y=              0.0000    Z=              0.1698  Tot=              0.1698

 Test job not archived.
 1\1\GINC-SE185\SP\RHF\Aug-CC-pVDZ\C3H4Cl4\OHZDE\05-Apr-2025\0\\#t hf a
 ug-cc-pvdz iop(5/13=1,5/36=2,99/5=2) pseudo=read geom=check guess=(rea
 d,tcheck) scf=(maxcycle=1)\\title\\0,1\C,0,0.,0.,0.7318\C,0,0.,1.27400
 9,-0.097804\C,0,0.,-1.274009,-0.097804\Cl,0,0.132799,2.700697,0.986148
 \Cl,0,-1.483724,1.397852,-1.115518\Cl,0,1.483724,-1.397852,-1.115518\C
 l,0,-0.132799,-2.700697,0.986148\H,0,-0.881449,-0.008441,1.372394\H,0,
 0.881449,0.008441,1.372394\H,0,0.836615,1.32875,-0.78169\H,0,-0.836615
 ,-1.32875,-0.78169\\Version=ES64L-G16RevC.01\State=1-A\HF=-1954.388659

 Normal termination of Gaussian 16 at Sat Apr  5 22:16:54 2025.
