 Gaussian 16, Revision C.01,

 ----------------------------------------------------------------------
 #t hf aug-cc-pvdz symm=none int=(grid=ultrafine) guess=(read,tcheck) s
 table=(opt,rrhf)
 ----------------------------------------------------------------------
 -----
 title
 -----
 Symbolic Z-matrix:
 Charge =  0 Multiplicity = 1

 SCF Done:  E(RHF) =  -1752.58189045     A.U. after   12 cycles

 1\1\GINC-SE036\Stability\RHF\Aug-CC-pVDZ\C2Cl3F3\OHZDE\05-Apr-2025\0\\
 #t hf aug-cc-pvdz symm=none int=(grid=ultrafine) guess=(read,tcheck) s
 table=(opt,rrhf)\\title\\0,1\C,0,0.578488,0.148776,0.311897\C,0,-0.726
 971,-0.530081,-0.225129\F,0,0.477526,0.252431,1.648651\Cl,0,1.977285,-
 0.887503,-0.077159\Cl,0,0.78875,1.76724,-0.389497\Cl,0,-2.180351,0.394
 434,0.227356\F,0,-0.665283,-0.645666,-1.55547\F,0,-0.819545,-1.759329,
 0.300984\\Version=ES64L-G16RevC.01\HF=-1752.5818904\RMSD=9.486e-09\Dip
 ole=0.0516755,0.2053616,-0.081339\Quadrupole=1.3014889,0.3938928,-1.69

 Normal termination of Gaussian 16 at Sat Apr  5 22:15:58 2025.
 Gaussian 16:  ES64L-G16RevC.01  3-Jul-2019

 ----------------------------------------------------------------------
 #t hf aug-cc-pvdz iop(5/13=1,5/36=2,99/5=2) pseudo=read geom=check gue
 ss=(read,tcheck) scf=(maxcycle=1)
 ----------------------------------------------------------------------
 -----
 title
 -----
 Structure from the checkpoint file:  "1-1-2-trichloro-1-2-2-trifluoroethane.chk"
 Charge =  0 Multiplicity = 1

                         Standard orientation:
 ---------------------------------------------------------------------
 Center     Atomic      Atomic             Coordinates (Angstroms)
 Number     Number       Type             X           Y           Z
 ---------------------------------------------------------------------
      1          6           0        0.578488    0.148776    0.311897
      2          6           0       -0.726971   -0.530081   -0.225129
      3          9           0        0.477526    0.252431    1.648651
      4         17           0        1.977285   -0.887503   -0.077159
      5         17           0        0.788750    1.767240   -0.389497
      6         17           0       -2.180351    0.394434    0.227356
      7          9           0       -0.665283   -0.645666   -1.555470
      8          9           0       -0.819545   -1.759329    0.300984
 ---------------------------------------------------------------------

 SCF Done:  E(RHF) =  -1753.14726531     A.U. after    2 cycles

 The electronic state is 1-A.
 Alpha  occ. eigenvalues -- -105.61691-105.61492-105.61332 -26.53742 -26.53640
 Alpha  occ. eigenvalues --  -26.53516 -11.53802 -11.51027 -10.66558 -10.66350
 Alpha  occ. eigenvalues --  -10.66220  -7.83509  -7.83299  -7.83169  -7.83061
 Alpha  occ. eigenvalues --   -7.83053  -7.82854  -7.82843  -7.82729  -7.82719
 Alpha  occ. eigenvalues --   -1.71853  -1.67783  -1.64260  -1.20470  -1.14227
 Alpha  occ. eigenvalues --   -1.09536  -0.99841  -0.89610  -0.83112  -0.81701
 Alpha  occ. eigenvalues --   -0.78740  -0.75164  -0.74032  -0.70045  -0.69324
 Alpha  occ. eigenvalues --   -0.65904  -0.63746  -0.59393  -0.57780  -0.52995
 Alpha  occ. eigenvalues --   -0.52201  -0.51662  -0.50516  -0.50030  -0.48222
 Alpha virt. eigenvalues --    0.06266   0.06966   0.08024   0.09135   0.09952
 Alpha virt. eigenvalues --    0.10823   0.11364   0.12145   0.12696   0.13594
 Alpha virt. eigenvalues --    0.14484   0.16142   0.16835   0.17803   0.18086

 Mulliken charges:
               1
     1  C    0.377198
     2  C    1.655668
     3  F   -0.717196
     4  Cl   0.047445
     5  Cl   0.030173
     6  Cl  -0.041912
     7  F   -0.680365
     8  F   -0.671011
 Sum of Mulliken charges =  -0.00000

 Dipole moment (field-independent basis, Debye):
    X=              0.1187    Y=              0.3512    Z=             -0.1330  Tot=              0.3938

 Test job not archived.
 1\1\GINC-SE036\SP\RHF\Aug-CC-pVDZ\C2Cl3F3\OHZDE\05-Apr-2025\0\\#t hf a
 ug-cc-pvdz iop(5/13=1,5/36=2,99/5=2) pseudo=read geom=check guess=(rea
 d,tcheck) scf=(maxcycle=1)\\title\\0,1\C,0,0.578488,0.148776,0.311897\
 C,0,-0.726971,-0.530081,-0.225129\F,0,0.477526,0.252431,1.648651\Cl,0,
 1.977285,-0.887503,-0.077159\Cl,0,0.78875,1.76724,-0.389497\Cl,0,-2.18
 0351,0.394434,0.227356\F,0,-0.665283,-0.645666,-1.55547\F,0,-0.819545,
 -1.759329,0.300984\\Version=ES64L-G16RevC.01\State=1-A\HF=-1753.147265
 3\RMSD=4.979e-03\Dipole=0.0467093,0.1381675,-0.0523271\Quadrupole=1.03

 Normal termination of Gaussian 16 at Sat Apr  5 22:16:03 2025.
