 Gaussian 16, Revision C.01,

 ----------------------------------------------------------------------
 #t hf aug-cc-pvdz symm=none int=(grid=ultrafine) guess=(read,tcheck) s
 table=(opt,rrhf)
 ----------------------------------------------------------------------
 -----
 title
 -----
 Symbolic Z-matrix:
 Charge =  0 Multiplicity = 1

 SCF Done:  E(RHF) =  -195.153236864     A.U. after   11 cycles
 Normal termination of Gaussian 16 at Sat Apr  5 22:17:10 2025.
 Gaussian 16:  ES64L-G16RevC.01  3-Jul-2019

 ----------------------------------------------------------------------
 #t hf aug-cc-pvdz iop(5/13=1,5/36=2,99/5=2) pseudo=read geom=check gue
 ss=(read,tcheck) scf=(maxcycle=1)
 ----------------------------------------------------------------------
 -----
 title
 -----
 Structure from the checkpoint file:  "1-1-dimethylcyclopropane.chk"
 Charge =  0 Multiplicity = 1

                         Standard orientation:
 ---------------------------------------------------------------------
 Center     Atomic      Atomic             Coordinates (Angstroms)
 Number     Number       Type             X           Y           Z
 ---------------------------------------------------------------------
      1          6           0        0.000000    0.000000    0.149260
      2          6           0        0.755342   -0.000000   -1.153405
      3          6           0       -0.755342    0.000000   -1.153405
      4          6           0        0.000000    1.272527    0.969653
      5          6           0       -0.000000   -1.272527    0.969653
      6          1           0        1.261720    0.908062   -1.451789
      7          1           0        1.261720   -0.908062   -1.451789
      8          1           0       -1.261720   -0.908062   -1.451789
      9          1           0       -1.261720    0.908062   -1.451789
     10          1           0       -0.882277    1.324395    1.612690
     11          1           0       -0.882277   -1.324395    1.612690
     12          1           0        0.882277   -1.324395    1.612690
     13          1           0        0.882277    1.324395    1.612690
     14          1           0        0.000000    2.158152    0.332929
     15          1           0       -0.000000   -2.158152    0.332929
 ---------------------------------------------------------------------

 SCF Done:  E(RHF) =  -195.372433212     A.U. after    2 cycles

 The electronic state is 1-A1.
 Alpha  occ. eigenvalues --  -11.23714 -11.22387 -11.22351 -11.22208 -11.22193
 Alpha  occ. eigenvalues --   -1.15338  -0.97882  -0.93765  -0.82236  -0.74422
 Alpha  occ. eigenvalues --   -0.65813  -0.62855  -0.59184  -0.55887  -0.54591
 Alpha  occ. eigenvalues --   -0.53299  -0.50983  -0.48645  -0.41480  -0.39759
 Alpha virt. eigenvalues --    0.03921   0.03988   0.04042   0.04146   0.06192
 Alpha virt. eigenvalues --    0.06658   0.06740   0.06748   0.09636   0.10020
 Alpha virt. eigenvalues --    0.10180   0.13837   0.13858   0.14815   0.15260

 Mulliken charges:
               1
     1  C   -0.005404
     2  C    0.297766
     3  C    0.297766
     4  C   -0.521892
     5  C   -0.521892
     6  H   -0.134271
     7  H   -0.134271
     8  H   -0.134271
     9  H   -0.134271
    10  H    0.207548
    11  H    0.207548
    12  H    0.207548
    13  H    0.207548
    14  H    0.080273
    15  H    0.080273
 Sum of Mulliken charges =  -0.00000

 Dipole moment (field-independent basis, Debye):
    X=              0.0000    Y=              0.0000    Z=              0.1294  Tot=              0.1294

 Test job not archived.
 1\1\GINC-SE115\SP\RHF\Aug-CC-pVDZ\C5H10\OHZDE\05-Apr-2025\0\\#t hf aug
 -cc-pvdz iop(5/13=1,5/36=2,99/5=2) pseudo=read geom=check guess=(read,
 tcheck) scf=(maxcycle=1)\\title\\0,1\C,0,0.,0.,0.14926\C,0,0.755342,0.
 ,-1.153405\C,0,-0.755342,0.,-1.153405\C,0,0.,1.272527,0.969653\C,0,0.,
 -1.272527,0.969653\H,0,1.26172,0.908062,-1.451789\H,0,1.26172,-0.90806
 2,-1.451789\H,0,-1.26172,-0.908062,-1.451789\H,0,-1.26172,0.908062,-1.
 451789\H,0,-0.882277,1.324395,1.61269\H,0,-0.882277,-1.324395,1.61269\
 H,0,0.882277,-1.324395,1.61269\H,0,0.882277,1.324395,1.61269\H,0,0.,2.

 Normal termination of Gaussian 16 at Sat Apr  5 22:18:01 2025.
