 Gaussian 16, Revision C.01,

 ----------------------------------------------------------------------
 #t hf aug-cc-pvdz symm=none int=(grid=ultrafine) guess=(read,tcheck) s
 table=(opt,rrhf)
 ----------------------------------------------------------------------
 -----
 title
 -----
 Symbolic Z-matrix:
 Charge =  0 Multiplicity = 1

 SCF Done:  E(RHF) =  -411.201127199     A.U. after   15 cycles
 Normal termination of Gaussian 16 at Sat Apr  5 22:17:08 2025.
 Gaussian 16:  ES64L-G16RevC.01  3-Jul-2019

 ----------------------------------------------------------------------
 #t hf aug-cc-pvdz iop(5/13=1,5/36=2,99/5=2) pseudo=read geom=check gue
 ss=(read,tcheck) scf=(maxcycle=1)
 ----------------------------------------------------------------------
 -----
 title
 -----
 Structure from the checkpoint file:  "1-1-ethenediyl_dicyanate.chk"
 Charge =  0 Multiplicity = 1

                         Standard orientation:
 ---------------------------------------------------------------------
 Center     Atomic      Atomic             Coordinates (Angstroms)
 Number     Number       Type             X           Y           Z
 ---------------------------------------------------------------------
      1          8           0        1.086627   -0.768894   -0.000019
      2          8           0       -1.086627   -0.768894   -0.000018
      3          7           0        3.344570    0.172429    0.000005
      4          7           0       -3.344570    0.172429    0.000011
      5          6           0        0.000000    0.087074   -0.000001
      6          6           0        2.270510   -0.244533   -0.000005
      7          6           0       -2.270510   -0.244533   -0.000002
      8          6           0        0.000000    1.401601    0.000027
      9          1           0       -0.931172    1.945319    0.000038
     10          1           0        0.931172    1.945319    0.000038
 ---------------------------------------------------------------------

 SCF Done:  E(RHF) =  -411.593846156     A.U. after    2 cycles

 The electronic state is 1-A.
 Alpha  occ. eigenvalues --  -20.70789 -20.70787 -15.54988 -15.54967 -11.45613
 Alpha  occ. eigenvalues --  -11.38053 -11.38041 -11.29695  -1.67619  -1.61678
 Alpha  occ. eigenvalues --   -1.27411  -1.26935  -1.12839  -1.01642  -0.87079
 Alpha  occ. eigenvalues --   -0.79417  -0.76952  -0.76574  -0.69978  -0.68987
 Alpha  occ. eigenvalues --   -0.64433  -0.64103  -0.63626  -0.54484  -0.53487
 Alpha  occ. eigenvalues --   -0.53364  -0.51137  -0.43052
 Alpha virt. eigenvalues --    0.02954   0.04816   0.05403   0.06957   0.07802
 Alpha virt. eigenvalues --    0.08803   0.09462   0.10303   0.11001   0.11983
 Alpha virt. eigenvalues --    0.12964   0.13755   0.14033   0.14117   0.15236

 Mulliken charges:
               1
     1  O   -1.262535
     2  O   -1.262535
     3  N    1.021377
     4  N    1.021377
     5  C    2.990007
     6  C   -1.125147
     7  C   -1.125147
     8  C   -0.243699
     9  H   -0.006849
    10  H   -0.006849
 Sum of Mulliken charges =  -0.00000

 Dipole moment (field-independent basis, Debye):
    X=             -0.0000    Y=             -0.0653    Z=             -0.0000  Tot=              0.0653

 Test job not archived.
 1\1\GINC-SE040\SP\RHF\Aug-CC-pVDZ\C4H2N2O2\OHZDE\05-Apr-2025\0\\#t hf
 aug-cc-pvdz iop(5/13=1,5/36=2,99/5=2) pseudo=read geom=check guess=(re
 ad,tcheck) scf=(maxcycle=1)\\title\\0,1\O,0,1.086627,-0.768894,-0.0000
 19\O,0,-1.086627,-0.768894,-0.000018\N,0,3.34457,0.172429,0.000005\N,0
 ,-3.34457,0.172429,0.000011\C,0,0.,0.087074,-0.000001\C,0,2.27051,-0.2
 44533,-0.000005\C,0,-2.27051,-0.244533,-0.000002\C,0,0.,1.401601,0.000
 027\H,0,-0.931172,1.945319,0.000038\H,0,0.931172,1.945319,0.000038\\Ve
 rsion=ES64L-G16RevC.01\State=1-A\HF=-411.5938462\RMSD=2.112e-02\Dipole

 Normal termination of Gaussian 16 at Sat Apr  5 22:18:02 2025.
