 Gaussian 16, Revision C.01,

 ----------------------------------------------------------------------
 #t hf aug-cc-pvdz symm=none int=(grid=ultrafine) guess=(read,tcheck) s
 table=(opt,rrhf)
 ----------------------------------------------------------------------
 -----
 title
 -----
 Symbolic Z-matrix:
 Charge =  0 Multiplicity = 1

 SCF Done:  E(RHF) =  -1456.00004835     A.U. after   12 cycles

 1\1\GINC-SE047\Stability\RHF\Aug-CC-pVDZ\C2H3Cl3\OHZDE\05-Apr-2025\0\\
 #t hf aug-cc-pvdz symm=none int=(grid=ultrafine) guess=(read,tcheck) s
 table=(opt,rrhf)\\title\\0,1\C,0,1.056688,-0.825383,0.\C,0,0.623146,0.
 625677,0.\Cl,0,-0.291928,-2.006932,0.\Cl,0,-0.291928,1.061629,1.479874
 \Cl,0,-0.291928,1.061629,-1.479874\H,0,1.650902,-1.016853,-0.889604\H,
 0,1.650902,-1.016853,0.889604\H,0,1.507532,1.254404,0.\\Version=ES64L-
 G16RevC.01\HF=-1456.0000484\RMSD=6.255e-09\Dipole=1.1887889,0.0993363,
 0.\Quadrupole=3.3579642,-2.3251431,-1.0328211,-0.1746405,0.,0.\PG=Unkn

 Normal termination of Gaussian 16 at Sat Apr  5 22:14:44 2025.
 Gaussian 16:  ES64L-G16RevC.01  3-Jul-2019

 ----------------------------------------------------------------------
 #t hf aug-cc-pvdz iop(5/13=1,5/36=2,99/5=2) pseudo=read geom=check gue
 ss=(read,tcheck) scf=(maxcycle=1)
 ----------------------------------------------------------------------
 -----
 title
 -----
 Structure from the checkpoint file:  "1-1-2-trichloroethane.chk"
 Charge =  0 Multiplicity = 1

                         Standard orientation:
 ---------------------------------------------------------------------
 Center     Atomic      Atomic             Coordinates (Angstroms)
 Number     Number       Type             X           Y           Z
 ---------------------------------------------------------------------
      1          6           0        1.056688   -0.825383    0.000000
      2          6           0        0.623146    0.625677    0.000000
      3         17           0       -0.291928   -2.006932    0.000000
      4         17           0       -0.291928    1.061629    1.479874
      5         17           0       -0.291928    1.061629   -1.479874
      6          1           0        1.650902   -1.016853   -0.889604
      7          1           0        1.650902   -1.016853    0.889604
      8          1           0        1.507532    1.254404    0.000000
 ---------------------------------------------------------------------

 SCF Done:  E(RHF) =  -1456.30964139     A.U. after    2 cycles

 The electronic state is 1-A'.
 Alpha  occ. eigenvalues -- -105.58537-105.58536-105.57300 -11.39666 -11.33855
 Alpha  occ. eigenvalues --  -10.63361 -10.63360 -10.62109  -7.80307  -7.80305
 Alpha  occ. eigenvalues --   -7.79901  -7.79898  -7.79887  -7.79886  -7.79058
 Alpha  occ. eigenvalues --   -7.78661  -7.78649  -1.19914  -1.10007  -1.05744
 Alpha  occ. eigenvalues --   -0.96963  -0.83180  -0.69990  -0.68348  -0.62888
 Alpha  occ. eigenvalues --   -0.57752  -0.56519  -0.49506  -0.48773  -0.46387
 Alpha  occ. eigenvalues --   -0.46190  -0.46152  -0.45692
 Alpha virt. eigenvalues --    0.03018   0.04893   0.04938   0.06770   0.09054
 Alpha virt. eigenvalues --    0.09344   0.11751   0.13071   0.13237   0.13884
 Alpha virt. eigenvalues --    0.15427   0.15816   0.16587   0.17215   0.17565

 Mulliken charges:
               1
     1  C   -0.299253
     2  C   -0.684474
     3  Cl  -0.005978
     4  Cl   0.024413
     5  Cl   0.024413
     6  H    0.290926
     7  H    0.290926
     8  H    0.359025
 Sum of Mulliken charges =   0.00000

 Dipole moment (field-independent basis, Debye):
    X=              3.0182    Y=              0.2595    Z=              0.0000  Tot=              3.0293

 Test job not archived.
 1\1\GINC-SE047\SP\RHF\Aug-CC-pVDZ\C2H3Cl3\OHZDE\05-Apr-2025\0\\#t hf a
 ug-cc-pvdz iop(5/13=1,5/36=2,99/5=2) pseudo=read geom=check guess=(rea
 d,tcheck) scf=(maxcycle=1)\\title\\0,1\C,0,1.056688,-0.825383,0.\C,0,0
 .623146,0.625677,0.\Cl,0,-0.291928,-2.006932,0.\Cl,0,-0.291928,1.06162
 9,1.479874\Cl,0,-0.291928,1.061629,-1.479874\H,0,1.650902,-1.016853,-0
 .889604\H,0,1.650902,-1.016853,0.889604\H,0,1.507532,1.254404,0.\\Vers
 ion=ES64L-G16RevC.01\State=1-A'\HF=-1456.3096414\RMSD=5.905e-03\Dipole
 =1.1874383,0.1020912,0.\Quadrupole=3.340166,-2.3088402,-1.0313258,-0.1

 Normal termination of Gaussian 16 at Sat Apr  5 22:15:45 2025.
