 Gaussian 16, Revision C.01,

 ----------------------------------------------------------------------
 #t hf aug-cc-pvdz symm=none int=(grid=ultrafine) guess=(read,tcheck) s
 table=(opt,rrhf)
 ----------------------------------------------------------------------
 -----
 title
 -----
 Symbolic Z-matrix:
 Charge =  0 Multiplicity = 1

 SCF Done:  E(RHF) =  -1392.54454157     A.U. after   12 cycles

 1\1\GINC-SE226\Stability\RHF\Aug-CC-pVDZ\C2Cl2F4\OHZDE\05-Apr-2025\0\\
 #t hf aug-cc-pvdz symm=none int=(grid=ultrafine) guess=(read,tcheck) s
 table=(opt,rrhf)\\title\\0,1\C,0,0.396947,-0.334365,0.\C,0,-0.354044,1
 .033767,0.\F,0,1.717331,-0.069343,0.\Cl,0,-0.01232,-1.251697,1.466556\
 Cl,0,-0.01232,-1.251697,-1.466556\F,0,-1.674751,0.856796,0.\F,0,-0.012
 32,1.737455,1.082744\F,0,-0.01232,1.737455,-1.082744\\Version=ES64L-G1
 6RevC.01\HF=-1392.5445416\RMSD=7.297e-09\Dipole=-0.089333,-0.2902791,0
 .\Quadrupole=-1.2361903,0.1268773,1.109313,0.1715815,0.,0.\PG=Unknown\

 Normal termination of Gaussian 16 at Sat Apr  5 22:14:49 2025.
 Gaussian 16:  ES64L-G16RevC.01  3-Jul-2019

 ----------------------------------------------------------------------
 #t hf aug-cc-pvdz iop(5/13=1,5/36=2,99/5=2) pseudo=read geom=check gue
 ss=(read,tcheck) scf=(maxcycle=1)
 ----------------------------------------------------------------------
 -----
 title
 -----
 Structure from the checkpoint file:  "1-1-dichloro-tetrafluoroethane.chk"
 Charge =  0 Multiplicity = 1

                         Standard orientation:
 ---------------------------------------------------------------------
 Center     Atomic      Atomic             Coordinates (Angstroms)
 Number     Number       Type             X           Y           Z
 ---------------------------------------------------------------------
      1          6           0        0.396947   -0.334365    0.000000
      2          6           0       -0.354044    1.033767   -0.000000
      3          9           0        1.717331   -0.069343   -0.000000
      4         17           0       -0.012320   -1.251697    1.466556
      5         17           0       -0.012320   -1.251697   -1.466556
      6          9           0       -1.674751    0.856796   -0.000000
      7          9           0       -0.012320    1.737455    1.082744
      8          9           0       -0.012320    1.737455   -1.082744
 ---------------------------------------------------------------------

 SCF Done:  E(RHF) =  -1393.12471769     A.U. after    2 cycles

 The electronic state is 1-A'.
 Alpha  occ. eigenvalues -- -105.61895-105.61895 -26.53923 -26.53790 -26.53714
 Alpha  occ. eigenvalues --  -26.53710 -11.56457 -11.51073 -10.66765 -10.66752
 Alpha  occ. eigenvalues --   -7.83712  -7.83704  -7.83261  -7.83259  -7.83251
 Alpha  occ. eigenvalues --   -7.83250  -1.75236  -1.67862  -1.64933  -1.64759
 Alpha  occ. eigenvalues --   -1.20315  -1.10018  -1.03090  -0.91828  -0.85004
 Alpha  occ. eigenvalues --   -0.84508  -0.84008  -0.75754  -0.74634  -0.71364
 Alpha  occ. eigenvalues --   -0.70864  -0.70049  -0.66797  -0.66739  -0.65012
 Alpha  occ. eigenvalues --   -0.60080  -0.59675  -0.53143  -0.51196  -0.51124
 Alpha  occ. eigenvalues --   -0.48970
 Alpha virt. eigenvalues --    0.06303   0.07772   0.08017   0.09229   0.10102
 Alpha virt. eigenvalues --    0.11329   0.12075   0.12836   0.12966   0.14861
 Alpha virt. eigenvalues --    0.16510   0.17402   0.18105   0.18726   0.19805

 Mulliken charges:
               1
     1  C    0.146955
     2  C    2.578316
     3  F   -0.728413
     4  Cl   0.018316
     5  Cl   0.018316
     6  F   -0.678986
     7  F   -0.677252
     8  F   -0.677252
 Sum of Mulliken charges =  -0.00000

 Dipole moment (field-independent basis, Debye):
    X=             -0.1285    Y=             -0.5405    Z=              0.0000  Tot=              0.5555

 Test job not archived.
 1\1\GINC-SE226\SP\RHF\Aug-CC-pVDZ\C2Cl2F4\OHZDE\05-Apr-2025\0\\#t hf a
 ug-cc-pvdz iop(5/13=1,5/36=2,99/5=2) pseudo=read geom=check guess=(rea
 d,tcheck) scf=(maxcycle=1)\\title\\0,1\C,0,0.396947,-0.334365,0.\C,0,-
 0.354044,1.033767,0.\F,0,1.717331,-0.069343,0.\Cl,0,-0.01232,-1.251697
 ,1.466556\Cl,0,-0.01232,-1.251697,-1.466556\F,0,-1.674751,0.856796,0.\
 F,0,-0.01232,1.737455,1.082744\F,0,-0.01232,1.737455,-1.082744\\Versio
 n=ES64L-G16RevC.01\State=1-A'\HF=-1393.1247177\RMSD=4.784e-03\Dipole=-
 0.050565,-0.2126316,0.\Quadrupole=-1.0806795,0.0864231,0.9942563,0.154

 Normal termination of Gaussian 16 at Sat Apr  5 22:15:46 2025.
