 Gaussian 16, Revision C.01,

 ----------------------------------------------------------------------
 #t hf aug-cc-pvdz symm=none int=(grid=ultrafine) guess=(read,tcheck) s
 table=(opt,rrhf)
 ----------------------------------------------------------------------
 -----
 title
 -----
 Symbolic Z-matrix:
 Charge =  0 Multiplicity = 1

 SCF Done:  E(RHF) =  -426.728492335     A.U. after   12 cycles
 Normal termination of Gaussian 16 at Sat Apr  5 22:15:53 2025.
 Gaussian 16:  ES64L-G16RevC.01  3-Jul-2019

 ----------------------------------------------------------------------
 #t hf aug-cc-pvdz iop(5/13=1,5/36=2,99/5=2) pseudo=read geom=check gue
 ss=(read,tcheck) scf=(maxcycle=1)
 ----------------------------------------------------------------------
 -----
 title
 -----
 Structure from the checkpoint file:  "1-1-difluoro-2-2-ethanediol.chk"
 Charge =  0 Multiplicity = 1

                         Standard orientation:
 ---------------------------------------------------------------------
 Center     Atomic      Atomic             Coordinates (Angstroms)
 Number     Number       Type             X           Y           Z
 ---------------------------------------------------------------------
      1          9           0        0.936726   -0.752395    1.002357
      2          9           0        1.646645    0.548458   -0.624816
      3          8           0       -1.587352   -0.834466   -0.382371
      4          8           0       -0.934596    1.174393    0.623606
      5          6           0       -0.691510    0.252835   -0.394390
      6          6           0        0.702183   -0.374100   -0.292984
      7          1           0       -0.754108    0.816515   -1.328274
      8          1           0        0.817745   -1.249022   -0.931294
      9          1           0       -2.484848   -0.486276   -0.414125
     10          1           0       -0.717580    0.762386    1.470180
 ---------------------------------------------------------------------

 SCF Done:  E(RHF) =  -427.138946990     A.U. after    2 cycles

 The electronic state is 1-A.
 Alpha  occ. eigenvalues --  -26.48763 -26.48479 -20.58114 -20.57869 -11.42593
 Alpha  occ. eigenvalues --  -11.37325  -1.65214  -1.58418  -1.52220  -1.45325
 Alpha  occ. eigenvalues --   -1.02891  -0.88976  -0.79406  -0.78276  -0.75507
 Alpha  occ. eigenvalues --   -0.71886  -0.68009  -0.64742  -0.63255  -0.61527
 Alpha  occ. eigenvalues --   -0.60924  -0.57901  -0.51354  -0.50755  -0.47842
 Alpha virt. eigenvalues --    0.03423   0.04504   0.05123   0.05742   0.10447
 Alpha virt. eigenvalues --    0.10954   0.11333   0.12700   0.14430   0.15197
 Alpha virt. eigenvalues --    0.16719   0.19881   0.20823   0.21227   0.22006

 Mulliken charges:
               1
     1  F   -0.756679
     2  F   -0.715094
     3  O   -1.213693
     4  O   -1.193031
     5  C    1.681139
     6  C    1.459070
     7  H    0.105329
     8  H    0.083468
     9  H    0.282778
    10  H    0.266714
 Sum of Mulliken charges =   0.00000

 Dipole moment (field-independent basis, Debye):
    X=             -1.6346    Y=             -0.5244    Z=             -0.9104  Tot=              1.9431

 Test job not archived.
 1\1\GINC-SE168\SP\RHF\Aug-CC-pVDZ\C2H4F2O2\OHZDE\05-Apr-2025\0\\#t hf
 aug-cc-pvdz iop(5/13=1,5/36=2,99/5=2) pseudo=read geom=check guess=(re
 ad,tcheck) scf=(maxcycle=1)\\title\\0,1\F,0,0.936726,-0.752395,1.00235
 7\F,0,1.646645,0.548458,-0.624816\O,0,-1.587352,-0.834466,-0.382371\O,
 0,-0.934596,1.174393,0.623606\C,0,-0.69151,0.252835,-0.39439\C,0,0.702
 183,-0.3741,-0.292984\H,0,-0.754108,0.816515,-1.328274\H,0,0.817745,-1
 .249022,-0.931294\H,0,-2.484848,-0.486276,-0.414125\H,0,-0.71758,0.762
 386,1.47018\\Version=ES64L-G16RevC.01\State=1-A\HF=-427.138947\RMSD=8.

 Normal termination of Gaussian 16 at Sat Apr  5 22:15:57 2025.
