 Gaussian 16, Revision C.01,

 ----------------------------------------------------------------------
 #t hf aug-cc-pvdz symm=none int=(grid=ultrafine) guess=(read,tcheck) s
 table=(opt,rrhf)
 ----------------------------------------------------------------------
 -----
 title
 -----
 Symbolic Z-matrix:
 Charge =  0 Multiplicity = 1

 SCF Done:  E(RHF) =  -534.827154846     A.U. after   12 cycles

 1\1\GINC-SE107\Stability\RHF\Aug-CC-pVDZ\C6H14O4\OHZDE\05-Apr-2025\0\\
 #t hf aug-cc-pvdz symm=none int=(grid=ultrafine) guess=(read,tcheck) s
 table=(opt,rrhf)\\title\\0,1\C,0,-3.230761,-0.667661,0.267528\C,0,1.61
 3648,-1.548109,-1.362053\C,0,1.930118,0.02852,1.827269\C,0,-0.095597,2
 .218883,-0.923603\C,0,-0.975112,-0.563177,-0.37163\C,0,0.386263,0.0496
 56,-0.003455\O,0,-1.977896,-0.047508,0.468903\O,0,1.332271,-0.191322,-
 1.040678\O,0,0.777361,-0.532375,1.194775\O,0,0.352154,1.427453,0.17117
 5\H,0,-3.588767,-0.528974,-0.760344\H,0,-3.934183,-0.201346,0.95391\H,

 Normal termination of Gaussian 16 at Sat Apr  5 22:17:00 2025.
 Gaussian 16:  ES64L-G16RevC.01  3-Jul-2019

 ----------------------------------------------------------------------
 #t hf aug-cc-pvdz iop(5/13=1,5/36=2,99/5=2) pseudo=read geom=check gue
 ss=(read,tcheck) scf=(maxcycle=1)
 ----------------------------------------------------------------------
 -----
 title
 -----
 Structure from the checkpoint file:  "1-1-1-2-tetramethoxyethane.chk"
 Charge =  0 Multiplicity = 1

                         Standard orientation:
 ---------------------------------------------------------------------
 Center     Atomic      Atomic             Coordinates (Angstroms)
 Number     Number       Type             X           Y           Z
 ---------------------------------------------------------------------
      1          6           0       -3.230761   -0.667660    0.267528
      2          6           0        1.613648   -1.548109   -1.362053
      3          6           0        1.930118    0.028520    1.827269
      4          6           0       -0.095597    2.218883   -0.923603
      5          6           0       -0.975112   -0.563177   -0.371630
      6          6           0        0.386263    0.049656   -0.003455
      7          8           0       -1.977896   -0.047508    0.468903
      8          8           0        1.332271   -0.191322   -1.040678
      9          8           0        0.777361   -0.532375    1.194775
     10          8           0        0.352154    1.427453    0.171175
     11          1           0       -3.588767   -0.528973   -0.760344
     12          1           0       -3.934183   -0.201345    0.953910
     13          1           0       -3.183230   -1.742605    0.478392
     14          1           0        1.786633   -2.144110   -0.464434
     15          1           0        2.519368   -1.537660   -1.964779
     16          1           0        0.811054   -2.004198   -1.948597
     17          1           0        2.760884    0.121924    1.126655
     18          1           0        2.196807   -0.665495    2.620743
     19          1           0        1.704697    1.005239    2.252683
     20          1           0       -1.160540    2.065114   -1.111288
     21          1           0        0.478256    2.010258   -1.826711
     22          1           0        0.061973    3.253034   -0.626958
     23          1           0       -0.901685   -1.650429   -0.263497
     24          1           0       -1.193741   -0.339419   -1.423512
 ---------------------------------------------------------------------

 SCF Done:  E(RHF) =  -535.378726162     A.U. after    2 cycles

 The electronic state is 1-A.
 Alpha  occ. eigenvalues --  -20.54746 -20.54526 -20.54449 -20.54388 -11.39236
 Alpha  occ. eigenvalues --  -11.28597 -11.28345 -11.28244 -11.27529 -11.27045
 Alpha  occ. eigenvalues --   -1.53561  -1.46331  -1.43631  -1.43418  -1.02731
 Alpha  occ. eigenvalues --   -0.96260  -0.93493  -0.93002  -0.89449  -0.78598
 Alpha  occ. eigenvalues --   -0.71755  -0.71115  -0.70296  -0.66539  -0.65278
 Alpha  occ. eigenvalues --   -0.62412  -0.61901  -0.60680  -0.59956  -0.58722
 Alpha  occ. eigenvalues --   -0.58128  -0.56201  -0.54611  -0.51943  -0.49832
 Alpha  occ. eigenvalues --   -0.48303  -0.47065  -0.43939  -0.43169  -0.42289
 Alpha  occ. eigenvalues --   -0.41856
 Alpha virt. eigenvalues --    0.03440   0.03728   0.04024   0.04324   0.05545
 Alpha virt. eigenvalues --    0.05671   0.06116   0.06421   0.06689   0.08332
 Alpha virt. eigenvalues --    0.08741   0.09132   0.09670   0.09788   0.12516

 Mulliken charges:
               1
     1  C    0.055877
     2  C    0.260602
     3  C    0.082668
     4  C    0.124382
     5  C    0.412707
     6  C    3.918410
     7  O   -1.294492
     8  O   -1.770684
     9  O   -1.695789
    10  O   -1.737830
    11  H    0.197999
    12  H   -0.054312
    13  H    0.188731
    14  H    0.190516
    15  H   -0.029815
    16  H    0.129546
    17  H    0.188409
    18  H   -0.011484
    19  H    0.167628
    20  H    0.145120
    21  H    0.188834
    22  H   -0.032524
    23  H    0.096802
    24  H    0.278698
 Sum of Mulliken charges =  -0.00000

 Dipole moment (field-independent basis, Debye):
    X=             -0.4779    Y=             -1.2585    Z=             -1.6991  Tot=              2.1678

 Test job not archived.
 1\1\GINC-SE107\SP\RHF\Aug-CC-pVDZ\C6H14O4\OHZDE\05-Apr-2025\0\\#t hf a
 ug-cc-pvdz iop(5/13=1,5/36=2,99/5=2) pseudo=read geom=check guess=(rea
 d,tcheck) scf=(maxcycle=1)\\title\\0,1\C,0,-3.230761,-0.667661,0.26752
 8\C,0,1.613648,-1.548109,-1.362053\C,0,1.930118,0.02852,1.827269\C,0,-
 0.095597,2.218883,-0.923603\C,0,-0.975112,-0.563177,-0.37163\C,0,0.386
 263,0.049656,-0.003455\O,0,-1.977896,-0.047508,0.468903\O,0,1.332271,-
 0.191322,-1.040678\O,0,0.777361,-0.532375,1.194775\O,0,0.352154,1.4274
 53,0.171175\H,0,-3.588767,-0.528974,-0.760344\H,0,-3.934183,-0.201346,

 Normal termination of Gaussian 16 at Sat Apr  5 22:18:13 2025.
