 Gaussian 16, Revision C.01,

 ----------------------------------------------------------------------
 #t hf aug-cc-pvdz symm=none int=(grid=ultrafine) guess=(read,tcheck) s
 table=(opt,rrhf)
 ----------------------------------------------------------------------
 -----
 title
 -----
 Symbolic Z-matrix:
 Charge =  0 Multiplicity = 1

 SCF Done:  E(RHF) =  -933.636002707     A.U. after   12 cycles
 Normal termination of Gaussian 16 at Sat Apr  5 22:13:56 2025.
 Gaussian 16:  ES64L-G16RevC.01  3-Jul-2019

 ----------------------------------------------------------------------
 #t hf aug-cc-pvdz iop(5/13=1,5/36=2,99/5=2) pseudo=read geom=check gue
 ss=(read,tcheck) scf=(maxcycle=1)
 ----------------------------------------------------------------------
 -----
 title
 -----
 Structure from the checkpoint file:  "1-1-1-2-tetrafluorochloroethane.chk"
 Charge =  0 Multiplicity = 1

                         Standard orientation:
 ---------------------------------------------------------------------
 Center     Atomic      Atomic             Coordinates (Angstroms)
 Number     Number       Type             X           Y           Z
 ---------------------------------------------------------------------
      1          6           0        0.451706    0.483657   -0.467135
      2          6           0       -0.861674   -0.168523   -0.001224
      3          1           0        0.454491    0.558887   -1.551837
      4          9           0        0.530176    1.727520    0.073771
      5         17           0        1.858333   -0.488147    0.023923
      6          9           0       -0.920875   -0.298900    1.324534
      7          9           0       -1.892087    0.597920   -0.396345
      8          9           0       -1.004585   -1.376672   -0.562482
 ---------------------------------------------------------------------

 SCF Done:  E(RHF) =  -934.145781041     A.U. after    2 cycles

 The electronic state is 1-A.
 Alpha  occ. eigenvalues -- -105.60467 -26.53199 -26.52954 -26.52933 -26.51602
 Alpha  occ. eigenvalues --  -11.55106 -11.44367 -10.65329  -7.82276  -7.81854
 Alpha  occ. eigenvalues --   -7.81840  -1.74212  -1.65035  -1.64031  -1.63755
 Alpha  occ. eigenvalues --   -1.15680  -1.03157  -0.92571  -0.84661  -0.83763
 Alpha  occ. eigenvalues --   -0.82782  -0.76484  -0.72800  -0.70537  -0.69780
 Alpha  occ. eigenvalues --   -0.68414  -0.65948  -0.65880  -0.64287  -0.59285
 Alpha  occ. eigenvalues --   -0.56993  -0.50359  -0.49253
 Alpha virt. eigenvalues --    0.03690   0.07244   0.07889   0.09217   0.10976
 Alpha virt. eigenvalues --    0.11709   0.12776   0.12885   0.14776   0.15192
 Alpha virt. eigenvalues --    0.17281   0.19128   0.20061   0.23208   0.25690

 Mulliken charges:
               1
     1  C    0.169131
     2  C    2.439209
     3  H    0.232041
     4  F   -0.692165
     5  Cl  -0.053797
     6  F   -0.683101
     7  F   -0.708816
     8  F   -0.702501
 Sum of Mulliken charges =   0.00000

 Dipole moment (field-independent basis, Debye):
    X=              0.3555    Y=              0.0844    Z=             -1.4576  Tot=              1.5027

 Test job not archived.
 1\1\GINC-SE052\SP\RHF\Aug-CC-pVDZ\C2H1Cl1F4\OHZDE\05-Apr-2025\0\\#t hf
  aug-cc-pvdz iop(5/13=1,5/36=2,99/5=2) pseudo=read geom=check guess=(r
 ead,tcheck) scf=(maxcycle=1)\\title\\0,1\C,0,0.451706,0.483657,-0.4671
 35\C,0,-0.861674,-0.168523,-0.001224\H,0,0.454491,0.558887,-1.551837\F
 ,0,0.530176,1.72752,0.073771\Cl,0,1.858333,-0.488147,0.023923\F,0,-0.9
 20875,-0.2989,1.324534\F,0,-1.892087,0.59792,-0.396345\F,0,-1.004585,-
 1.376672,-0.562482\\Version=ES64L-G16RevC.01\State=1-A\HF=-934.145781\
 RMSD=5.036e-03\Dipole=0.1398576,0.033194,-0.5734573\Quadrupole=-0.6043

 Normal termination of Gaussian 16 at Sat Apr  5 22:14:00 2025.
