 Gaussian 16, Revision C.01,

 ----------------------------------------------------------------------
 #t hf aug-cc-pvdz symm=none int=(grid=ultrafine) guess=(read,tcheck) s
 table=(opt,rrhf)
 ----------------------------------------------------------------------
 -----
 title
 -----
 Symbolic Z-matrix:
 Charge =  0 Multiplicity = 1

 SCF Done:  E(RHF) =  -1095.94701297     A.U. after   12 cycles
 Normal termination of Gaussian 16 at Sat Apr  5 22:14:42 2025.
 Gaussian 16:  ES64L-G16RevC.01  3-Jul-2019

 ----------------------------------------------------------------------
 #t hf aug-cc-pvdz iop(5/13=1,5/36=2,99/5=2) pseudo=read geom=check gue
 ss=(read,tcheck) scf=(maxcycle=1)
 ----------------------------------------------------------------------
 -----
 title
 -----
 Structure from the checkpoint file:  "1-1-dichloro-1-fluoroethane.chk"
 Charge =  0 Multiplicity = 1

                         Standard orientation:
 ---------------------------------------------------------------------
 Center     Atomic      Atomic             Coordinates (Angstroms)
 Number     Number       Type             X           Y           Z
 ---------------------------------------------------------------------
      1          6           0        0.016027    0.345002   -0.000000
      2          6           0       -1.158543    1.289602   -0.000000
      3          9           0        1.179679    1.042816   -0.000000
      4         17           0        0.016027   -0.698667    1.468731
      5         17           0        0.016027   -0.698667   -1.468731
      6          1           0       -2.090468    0.731884    0.000000
      7          1           0       -1.108226    1.914914    0.889721
      8          1           0       -1.108226    1.914914   -0.889721
 ---------------------------------------------------------------------

 SCF Done:  E(RHF) =  -1096.27070252     A.U. after    2 cycles

 The electronic state is 1-A'.
 Alpha  occ. eigenvalues -- -105.58887-105.58887 -26.50498 -11.47471 -11.27336
 Alpha  occ. eigenvalues --  -10.63754 -10.63747  -7.80695  -7.80687  -7.80275
 Alpha  occ. eigenvalues --   -7.80275  -7.80275  -7.80272  -1.64298  -1.17045
 Alpha  occ. eigenvalues --   -1.06560  -1.02490  -0.85221  -0.72619  -0.72558
 Alpha  occ. eigenvalues --   -0.71554  -0.62252  -0.59607  -0.58103  -0.54239
 Alpha  occ. eigenvalues --   -0.50370  -0.48263  -0.48209  -0.46248
 Alpha virt. eigenvalues --    0.03625   0.05421   0.05475   0.07679   0.09398
 Alpha virt. eigenvalues --    0.09478   0.12777   0.13120   0.13482   0.14387
 Alpha virt. eigenvalues --    0.15885   0.16954   0.17233   0.18253   0.18316

 Mulliken charges:
               1
     1  C    0.313030
     2  C   -0.125417
     3  F   -0.742678
     4  Cl  -0.024856
     5  Cl  -0.024856
     6  H    0.207108
     7  H    0.198834
     8  H    0.198834
 Sum of Mulliken charges =  -0.00000

 Dipole moment (field-independent basis, Debye):
    X=             -1.7085    Y=              1.3815    Z=              0.0000  Tot=              2.1971

 Test job not archived.
 1\1\GINC-SE146\SP\RHF\Aug-CC-pVDZ\C2H3Cl2F1\OHZDE\05-Apr-2025\0\\#t hf
  aug-cc-pvdz iop(5/13=1,5/36=2,99/5=2) pseudo=read geom=check guess=(r
 ead,tcheck) scf=(maxcycle=1)\\title\\0,1\C,0,0.016027,0.345002,0.\C,0,
 -1.158543,1.289602,0.\F,0,1.179679,1.042816,0.\Cl,0,0.016027,-0.698667
 ,1.468731\Cl,0,0.016027,-0.698667,-1.468731\H,0,-2.090468,0.731884,0.\
 H,0,-1.108226,1.914914,0.889721\H,0,-1.108226,1.914914,-0.889721\\Vers
 ion=ES64L-G16RevC.01\State=1-A'\HF=-1096.2707025\RMSD=6.277e-03\Dipole
 =-0.6721623,0.5435146,0.\Quadrupole=-0.1389639,0.7668914,-0.6279275,-1

 Normal termination of Gaussian 16 at Sat Apr  5 22:15:45 2025.
