 Gaussian 16, Revision C.01,

 ----------------------------------------------------------------------
 #t hf aug-cc-pvdz symm=none int=(grid=ultrafine) guess=(read,tcheck) s
 table=(opt,rrhf)
 ----------------------------------------------------------------------
 -----
 title
 -----
 Symbolic Z-matrix:
 Charge =  0 Multiplicity = 1

 SCF Done:  E(RHF) =  -307.026867825     A.U. after   11 cycles

 1\1\GINC-SE047\Stability\RHF\Aug-CC-pVDZ\C4H10O2\OHZDE\05-Apr-2025\0\\
 #t hf aug-cc-pvdz symm=none int=(grid=ultrafine) guess=(read,tcheck) s
 table=(opt,rrhf)\\title\\0,1\O,0,-0.475052,-0.494394,1.113221\O,0,-0.4
 75052,-0.494394,-1.113221\C,0,-0.475052,0.274157,2.299349\C,0,-0.47505
 2,0.274157,-2.299349\C,0,0.108864,0.139234,0.\C,0,1.624653,-0.011059,0
 .\H,0,0.536031,0.457395,2.678474\H,0,0.536031,0.457395,-2.678474\H,0,-
 1.025623,-0.297309,3.043115\H,0,-1.025623,-0.297309,-3.043115\H,0,-0.9
 74551,1.238607,2.149797\H,0,-0.974551,1.238607,-2.149797\H,0,-0.175109

 Normal termination of Gaussian 16 at Sat Apr  5 22:17:17 2025.
 Gaussian 16:  ES64L-G16RevC.01  3-Jul-2019

 ----------------------------------------------------------------------
 #t hf aug-cc-pvdz iop(5/13=1,5/36=2,99/5=2) pseudo=read geom=check gue
 ss=(read,tcheck) scf=(maxcycle=1)
 ----------------------------------------------------------------------
 -----
 title
 -----
 Structure from the checkpoint file:  "1-1-dimethoxyethane.chk"
 Charge =  0 Multiplicity = 1

                         Standard orientation:
 ---------------------------------------------------------------------
 Center     Atomic      Atomic             Coordinates (Angstroms)
 Number     Number       Type             X           Y           Z
 ---------------------------------------------------------------------
      1          8           0       -0.475052   -0.494394    1.113221
      2          8           0       -0.475052   -0.494394   -1.113221
      3          6           0       -0.475052    0.274157    2.299349
      4          6           0       -0.475052    0.274157   -2.299349
      5          6           0        0.108864    0.139234    0.000000
      6          6           0        1.624653   -0.011059    0.000000
      7          1           0        0.536031    0.457395    2.678474
      8          1           0        0.536031    0.457395   -2.678474
      9          1           0       -1.025623   -0.297309    3.043115
     10          1           0       -1.025623   -0.297309   -3.043115
     11          1           0       -0.974551    1.238607    2.149797
     12          1           0       -0.974551    1.238607   -2.149797
     13          1           0       -0.175109    1.205677   -0.000000
     14          1           0        1.876897   -1.070780    0.000000
     15          1           0        2.063428    0.459549   -0.880282
     16          1           0        2.063428    0.459549    0.880282
 ---------------------------------------------------------------------

 SCF Done:  E(RHF) =  -307.350614686     A.U. after    2 cycles

 The electronic state is 1-A'.
 Alpha  occ. eigenvalues --  -20.54232 -20.54228 -11.33915 -11.28346 -11.28345
 Alpha  occ. eigenvalues --  -11.22627  -1.49725  -1.43143  -1.02410  -0.95297
 Alpha  occ. eigenvalues --   -0.91650  -0.82426  -0.69628  -0.68810  -0.66201
 Alpha  occ. eigenvalues --   -0.62865  -0.59843  -0.57546  -0.57129  -0.55168
 Alpha  occ. eigenvalues --   -0.53530  -0.49595  -0.46827  -0.43289  -0.40972
 Alpha virt. eigenvalues --    0.03529   0.04015   0.04213   0.04640   0.06049
 Alpha virt. eigenvalues --    0.06703   0.07143   0.07453   0.08373   0.09947
 Alpha virt. eigenvalues --    0.11596   0.13303   0.14179   0.14918   0.15741

 Mulliken charges:
               1
     1  O   -1.411626
     2  O   -1.411626
     3  C    0.090774
     4  C    0.090774
     5  C    1.840965
     6  C   -0.420528
     7  H    0.173565
     8  H    0.173565
     9  H   -0.036632
    10  H   -0.036632
    11  H    0.154467
    12  H    0.154467
    13  H    0.187692
    14  H    0.196270
    15  H    0.127253
    16  H    0.127253
 Sum of Mulliken charges =   0.00000

 Dipole moment (field-independent basis, Debye):
    X=              1.0459    Y=              2.4007    Z=              0.0000  Tot=              2.6186

 Test job not archived.
 1\1\GINC-SE047\SP\RHF\Aug-CC-pVDZ\C4H10O2\OHZDE\05-Apr-2025\0\\#t hf a
 ug-cc-pvdz iop(5/13=1,5/36=2,99/5=2) pseudo=read geom=check guess=(rea
 d,tcheck) scf=(maxcycle=1)\\title\\0,1\O,0,-0.475052,-0.494394,1.11322
 1\O,0,-0.475052,-0.494394,-1.113221\C,0,-0.475052,0.274157,2.299349\C,
 0,-0.475052,0.274157,-2.299349\C,0,0.108864,0.139234,0.\C,0,1.624653,-
 0.011059,0.\H,0,0.536031,0.457395,2.678474\H,0,0.536031,0.457395,-2.67
 8474\H,0,-1.025623,-0.297309,3.043115\H,0,-1.025623,-0.297309,-3.04311
 5\H,0,-0.974551,1.238607,2.149797\H,0,-0.974551,1.238607,-2.149797\H,0

 Normal termination of Gaussian 16 at Sat Apr  5 22:18:01 2025.
