 Gaussian 16, Revision C.01,

 ----------------------------------------------------------------------
 #t hf aug-cc-pvdz symm=none int=(grid=ultrafine) guess=(read,tcheck) s
 table=(opt,rrhf)
 ----------------------------------------------------------------------
 -----
 title
 -----
 Symbolic Z-matrix:
 Charge =  0 Multiplicity = 1

 SCF Done:  E(RHF) =  -420.941009173     A.U. after   12 cycles

 1\1\GINC-SE198\Stability\RHF\Aug-CC-pVDZ\C5H12O3\OHZDE\05-Apr-2025\0\\
 #t hf aug-cc-pvdz symm=none int=(grid=ultrafine) guess=(read,tcheck) s
 table=(opt,rrhf)\\title\\0,1\C,0,0.396763,-0.84941,1.557707\C,0,-1.307
 595,1.844297,-0.284042\C,0,-1.397054,-1.675296,-0.631754\C,0,2.299456,
 0.07518,-0.646213\C,0,0.083784,-0.016254,0.319117\O,0,-0.932476,0.8648
 57,0.686795\O,0,-0.287293,-0.80478,-0.801289\O,0,1.175176,0.756275,-0.
 102867\H,0,1.120921,-1.627964,1.326124\H,0,0.801114,-0.194836,2.326325
 \H,0,-0.507613,-1.314379,1.943099\H,0,-0.521991,2.587274,-0.415187\H,0

 Normal termination of Gaussian 16 at Sat Apr  5 22:14:53 2025.
 Gaussian 16:  ES64L-G16RevC.01  3-Jul-2019

 ----------------------------------------------------------------------
 #t hf aug-cc-pvdz iop(5/13=1,5/36=2,99/5=2) pseudo=read geom=check gue
 ss=(read,tcheck) scf=(maxcycle=1)
 ----------------------------------------------------------------------
 -----
 title
 -----
 Structure from the checkpoint file:  "1-1-1-trimethoxyethane.chk"
 Charge =  0 Multiplicity = 1

                         Standard orientation:
 ---------------------------------------------------------------------
 Center     Atomic      Atomic             Coordinates (Angstroms)
 Number     Number       Type             X           Y           Z
 ---------------------------------------------------------------------
      1          6           0        0.396762   -0.849410    1.557707
      2          6           0       -1.307594    1.844298   -0.284042
      3          6           0       -1.397055   -1.675295   -0.631754
      4          6           0        2.299456    0.075179   -0.646213
      5          6           0        0.083784   -0.016254    0.319117
      6          8           0       -0.932476    0.864857    0.686795
      7          8           0       -0.287294   -0.804780   -0.801289
      8          8           0        1.175176    0.756274   -0.102867
      9          1           0        1.120920   -1.627965    1.326124
     10          1           0        0.801114   -0.194837    2.326325
     11          1           0       -0.507614   -1.314379    1.943099
     12          1           0       -0.521990    2.587274   -0.415187
     13          1           0       -2.202109    2.321103    0.109521
     14          1           0       -1.531942    1.383741   -1.247020
     15          1           0       -1.666307   -2.024171   -1.626421
     16          1           0       -2.250043   -1.156135   -0.190361
     17          1           0       -1.144458   -2.540689   -0.013310
     18          1           0        2.776750   -0.573023    0.093646
     19          1           0        3.004868    0.850808   -0.935557
     20          1           0        2.025435   -0.513637   -1.520874
 ---------------------------------------------------------------------

 SCF Done:  E(RHF) =  -421.378885671     A.U. after    2 cycles

 The electronic state is 1-A.
 Alpha  occ. eigenvalues --  -20.54673 -20.54449 -20.54440 -11.39178 -11.28216
 Alpha  occ. eigenvalues --  -11.27760 -11.27083 -11.22663  -1.53241  -1.43532
 Alpha  occ. eigenvalues --   -1.43345  -1.02932  -0.95580  -0.93349  -0.92061
 Alpha  occ. eigenvalues --   -0.78522  -0.71142  -0.70730  -0.68224  -0.64063
 Alpha  occ. eigenvalues --   -0.62457  -0.60173  -0.58799  -0.58266  -0.56840
 Alpha  occ. eigenvalues --   -0.55713  -0.54086  -0.51845  -0.48734  -0.47237
 Alpha  occ. eigenvalues --   -0.44031  -0.43177  -0.42403
 Alpha virt. eigenvalues --    0.03720   0.04030   0.04150   0.04346   0.05940
 Alpha virt. eigenvalues --    0.06147   0.06227   0.06900   0.07238   0.09086
 Alpha virt. eigenvalues --    0.09534   0.09727   0.11501   0.13321   0.14107

 Mulliken charges:
               1
     1  C   -0.337585
     2  C    0.138889
     3  C    0.248683
     4  C    0.091209
     5  C    3.441211
     6  O   -1.633263
     7  O   -1.712694
     8  O   -1.722664
     9  H    0.209333
    10  H    0.164069
    11  H    0.151441
    12  H    0.175541
    13  H   -0.007915
    14  H    0.185615
    15  H   -0.016796
    16  H    0.189839
    17  H    0.133460
    18  H    0.135152
    19  H   -0.014070
    20  H    0.180545
 Sum of Mulliken charges =  -0.00000

 Dipole moment (field-independent basis, Debye):
    X=             -0.0527    Y=             -1.3085    Z=             -0.3115  Tot=              1.3461

 Test job not archived.
 1\1\GINC-SE198\SP\RHF\Aug-CC-pVDZ\C5H12O3\OHZDE\05-Apr-2025\0\\#t hf a
 ug-cc-pvdz iop(5/13=1,5/36=2,99/5=2) pseudo=read geom=check guess=(rea
 d,tcheck) scf=(maxcycle=1)\\title\\0,1\C,0,0.396763,-0.84941,1.557707\
 C,0,-1.307595,1.844297,-0.284042\C,0,-1.397054,-1.675296,-0.631754\C,0
 ,2.299456,0.07518,-0.646213\C,0,0.083784,-0.016254,0.319117\O,0,-0.932
 476,0.864857,0.686795\O,0,-0.287293,-0.80478,-0.801289\O,0,1.175176,0.
 756275,-0.102867\H,0,1.120921,-1.627964,1.326124\H,0,0.801114,-0.19483
 6,2.326325\H,0,-0.507613,-1.314379,1.943099\H,0,-0.521991,2.587274,-0.

 Normal termination of Gaussian 16 at Sat Apr  5 22:15:52 2025.
