 Gaussian 16, Revision C.01,

 ----------------------------------------------------------------------
 #t hf aug-cc-pvdz symm=none int=(grid=ultrafine) guess=(read,tcheck) s
 table=(opt,rrhf)
 ----------------------------------------------------------------------
 -----
 title
 -----
 Symbolic Z-matrix:
 Charge =  0 Multiplicity = 1

 SCF Done:  E(RHF) =  -426.633851795     A.U. after   13 cycles
 Normal termination of Gaussian 16 at Sat Apr  5 22:14:46 2025.
 Gaussian 16:  ES64L-G16RevC.01  3-Jul-2019

 ----------------------------------------------------------------------
 #t hf aug-cc-pvdz iop(5/13=1,5/36=2,99/5=2) pseudo=read geom=check gue
 ss=(read,tcheck) scf=(maxcycle=1)
 ----------------------------------------------------------------------
 -----
 title
 -----
 Structure from the checkpoint file:  "1-1-difluoro-1-hydroperoxyethane.chk"
 Charge =  0 Multiplicity = 1

                         Standard orientation:
 ---------------------------------------------------------------------
 Center     Atomic      Atomic             Coordinates (Angstroms)
 Number     Number       Type             X           Y           Z
 ---------------------------------------------------------------------
      1          9           0       -0.357644   -0.471312    1.292576
      2          9           0       -1.367380   -0.721561   -0.632011
      3          8           0        0.767788   -0.495627   -0.659306
      4          8           0        1.909998    0.165753   -0.077280
      5          6           0       -0.382758   -0.035679   -0.006307
      6          6           0       -0.624405    1.447497   -0.059329
      7          1           0        2.203516   -0.500296    0.562031
      8          1           0       -0.689198    1.760727   -1.098748
      9          1           0       -1.559522    1.670655    0.449572
     10          1           0        0.191108    1.972855    0.428559
 ---------------------------------------------------------------------

 SCF Done:  E(RHF) =  -427.042151524     A.U. after    2 cycles

 The electronic state is 1-A.
 Alpha  occ. eigenvalues --  -26.49299 -26.48825 -20.64865 -20.64784 -11.48464
 Alpha  occ. eigenvalues --  -11.25867  -1.68324  -1.60888  -1.59261  -1.32739
 Alpha  occ. eigenvalues --   -1.05320  -0.88745  -0.78284  -0.78104  -0.75977
 Alpha  occ. eigenvalues --   -0.71640  -0.66933  -0.64278  -0.62396  -0.60020
 Alpha  occ. eigenvalues --   -0.59372  -0.58059  -0.56846  -0.51096  -0.50340
 Alpha virt. eigenvalues --    0.03689   0.04362   0.05652   0.06099   0.09302
 Alpha virt. eigenvalues --    0.11388   0.11631   0.13246   0.15245   0.16200
 Alpha virt. eigenvalues --    0.16743   0.17204   0.19589   0.20904   0.23188

 Mulliken charges:
               1
     1  F   -0.799110
     2  F   -0.786165
     3  O   -0.898777
     4  O   -0.515383
     5  C    2.599664
     6  C   -0.604931
     7  H    0.372752
     8  H    0.210390
     9  H    0.198051
    10  H    0.223509
 Sum of Mulliken charges =  -0.00000

 Dipole moment (field-independent basis, Debye):
    X=              0.6156    Y=              1.3615    Z=              0.9762  Tot=              1.7848

 Test job not archived.
 1\1\GINC-SE170\SP\RHF\Aug-CC-pVDZ\C2H4F2O2\OHZDE\05-Apr-2025\0\\#t hf
 aug-cc-pvdz iop(5/13=1,5/36=2,99/5=2) pseudo=read geom=check guess=(re
 ad,tcheck) scf=(maxcycle=1)\\title\\0,1\F,0,-0.357644,-0.471312,1.2925
 76\F,0,-1.36738,-0.721561,-0.632011\O,0,0.767788,-0.495627,-0.659306\O
 ,0,1.909998,0.165753,-0.07728\C,0,-0.382758,-0.035679,-0.006307\C,0,-0
 .624405,1.447497,-0.059329\H,0,2.203516,-0.500296,0.562031\H,0,-0.6891
 98,1.760727,-1.098748\H,0,-1.559522,1.670655,0.449572\H,0,0.191108,1.9
 72855,0.428559\\Version=ES64L-G16RevC.01\State=1-A\HF=-427.0421515\RMS

 Normal termination of Gaussian 16 at Sat Apr  5 22:15:46 2025.
