 Gaussian 16, Revision C.01,

 ----------------------------------------------------------------------
 #t hf aug-cc-pvdz symm=none int=(grid=ultrafine) guess=(read,tcheck) s
 table=(opt,rrhf)
 ----------------------------------------------------------------------
 -----
 title
 -----
 Symbolic Z-matrix:
 Charge =  0 Multiplicity = 1

 SCF Done:  E(RHF) =  -513.757362581     A.U. after   11 cycles
 Normal termination of Gaussian 16 at Sat Apr  5 22:15:57 2025.
 Gaussian 16:  ES64L-G16RevC.01  3-Jul-2019

 ----------------------------------------------------------------------
 #t hf aug-cc-pvdz iop(5/13=1,5/36=2,99/5=2) pseudo=read geom=check gue
 ss=(read,tcheck) scf=(maxcycle=1)
 ----------------------------------------------------------------------
 -----
 title
 -----
 Structure from the checkpoint file:  "1-1-3-3-tetrafluoropropane.chk"
 Charge =  0 Multiplicity = 1

                         Standard orientation:
 ---------------------------------------------------------------------
 Center     Atomic      Atomic             Coordinates (Angstroms)
 Number     Number       Type             X           Y           Z
 ---------------------------------------------------------------------
      1          6           0        0.448354   -0.545579    0.000000
      2          6           0       -0.285414   -0.171763    1.270135
      3          6           0       -0.285414   -0.171763   -1.270135
      4          9           0        0.361469   -0.731547    2.340045
      5          9           0       -0.285414    1.179129    1.461730
      6          9           0       -0.285414    1.179129   -1.461730
      7          9           0        0.361469   -0.731547   -2.340045
      8          1           0        0.581940   -1.627632    0.000000
      9          1           0        1.431669   -0.074796    0.000000
     10          1           0       -1.323885   -0.509706    1.300971
     11          1           0       -1.323885   -0.509706   -1.300971
 ---------------------------------------------------------------------

 SCF Done:  E(RHF) =  -514.241061638     A.U. after    2 cycles

 The electronic state is 1-A'.
 Alpha  occ. eigenvalues --  -26.48818 -26.48818 -26.48594 -26.48593 -11.43812
 Alpha  occ. eigenvalues --  -11.43805 -11.28227  -1.65478  -1.64995  -1.58554
 Alpha  occ. eigenvalues --   -1.58363  -1.10866  -0.95980  -0.89376  -0.79290
 Alpha  occ. eigenvalues --   -0.78318  -0.76811  -0.75642  -0.73633  -0.69756
 Alpha  occ. eigenvalues --   -0.65370  -0.64612  -0.63538  -0.61717  -0.60670
 Alpha  occ. eigenvalues --   -0.59653  -0.58582  -0.53697  -0.52703
 Alpha virt. eigenvalues --    0.02918   0.04259   0.05060   0.05586   0.10086
 Alpha virt. eigenvalues --    0.10444   0.10468   0.11426   0.12292   0.14080
 Alpha virt. eigenvalues --    0.15530   0.15651   0.16389   0.18524   0.19112

 Mulliken charges:
               1
     1  C   -0.940675
     2  C    1.662662
     3  C    1.662662
     4  F   -0.737538
     5  F   -0.717750
     6  F   -0.717750
     7  F   -0.737538
     8  H    0.265166
     9  H    0.213673
    10  H    0.023544
    11  H    0.023544
 Sum of Mulliken charges =  -0.00000

 Dipole moment (field-independent basis, Debye):
    X=             -1.2776    Y=             -2.0352    Z=              0.0000  Tot=              2.4030

 Test job not archived.
 1\1\GINC-SE188\SP\RHF\Aug-CC-pVDZ\C3H4F4\OHZDE\05-Apr-2025\0\\#t hf au
 g-cc-pvdz iop(5/13=1,5/36=2,99/5=2) pseudo=read geom=check guess=(read
 ,tcheck) scf=(maxcycle=1)\\title\\0,1\C,0,0.448354,-0.545579,0.\C,0,-0
 .285414,-0.171763,1.270135\C,0,-0.285414,-0.171763,-1.270135\F,0,0.361
 469,-0.731547,2.340045\F,0,-0.285414,1.179129,1.46173\F,0,-0.285414,1.
 179129,-1.46173\F,0,0.361469,-0.731547,-2.340045\H,0,0.58194,-1.627632
 ,0.\H,0,1.431669,-0.074796,0.\H,0,-1.323885,-0.509706,1.300971\H,0,-1.
 323885,-0.509706,-1.300971\\Version=ES64L-G16RevC.01\State=1-A'\HF=-51

 Normal termination of Gaussian 16 at Sat Apr  5 22:16:49 2025.
