 Gaussian 16, Revision C.01,

 ----------------------------------------------------------------------
 #t hf aug-cc-pvdz symm=none int=(grid=ultrafine) guess=(read,tcheck) s
 table=(opt,rrhf)
 ----------------------------------------------------------------------
 -----
 title
 -----
 Symbolic Z-matrix:
 Charge =  0 Multiplicity = 1

 SCF Done:  E(RHF) =  -374.622839270     A.U. after   12 cycles
 Normal termination of Gaussian 16 at Sat Apr  5 22:14:41 2025.
 Gaussian 16:  ES64L-G16RevC.01  3-Jul-2019

 ----------------------------------------------------------------------
 #t hf aug-cc-pvdz iop(5/13=1,5/36=2,99/5=2) pseudo=read geom=check gue
 ss=(read,tcheck) scf=(maxcycle=1)
 ----------------------------------------------------------------------
 -----
 title
 -----
 Structure from the checkpoint file:  "1-1-2-trifluoroethene.chk"
 Charge =  0 Multiplicity = 1

                         Standard orientation:
 ---------------------------------------------------------------------
 Center     Atomic      Atomic             Coordinates (Angstroms)
 Number     Number       Type             X           Y           Z
 ---------------------------------------------------------------------
      1          6           0        0.000000    0.430631    0.000000
      2          6           0       -0.704353   -0.686847    0.000000
      3          9           0        1.314791    0.500587    0.000000
      4          9           0       -0.554822    1.630861    0.000000
      5          9           0       -0.092517   -1.882156    0.000000
      6          1           0       -1.780948   -0.706341    0.000000
 ---------------------------------------------------------------------

 SCF Done:  E(RHF) =  -374.969201788     A.U. after    2 cycles

 The electronic state is 1-A'.
 Alpha  occ. eigenvalues --  -26.52855 -26.52756 -26.49914 -11.44908 -11.35617
 Alpha  occ. eigenvalues --   -1.70039  -1.63471  -1.62522  -1.08414  -0.88848
 Alpha  occ. eigenvalues --   -0.81515  -0.80112  -0.76405  -0.72012  -0.68734
 Alpha  occ. eigenvalues --   -0.67843  -0.67756  -0.65086  -0.59958  -0.40125
 Alpha virt. eigenvalues --    0.03670   0.07116   0.09050   0.09693   0.11563
 Alpha virt. eigenvalues --    0.12040   0.12260   0.15078   0.18283   0.20507
 Alpha virt. eigenvalues --    0.24167   0.26126   0.26763   0.27879   0.29769

 Mulliken charges:
               1
     1  C    1.494619
     2  C    0.565520
     3  F   -0.692477
     4  F   -0.706885
     5  F   -0.718066
     6  H    0.057288
 Sum of Mulliken charges =  -0.00000

 Dipole moment (field-independent basis, Debye):
    X=             -1.3503    Y=              0.1383    Z=              0.0000  Tot=              1.3574

 Test job not archived.
 1\1\GINC-SE107\SP\RHF\Aug-CC-pVDZ\C2H1F3\OHZDE\05-Apr-2025\0\\#t hf au
 g-cc-pvdz iop(5/13=1,5/36=2,99/5=2) pseudo=read geom=check guess=(read
 ,tcheck) scf=(maxcycle=1)\\title\\0,1\C,0,0.,0.430631,0.\C,0,-0.704353
 ,-0.686847,0.\F,0,1.314791,0.500587,0.\F,0,-0.554822,1.630861,0.\F,0,-
 0.092517,-1.882156,0.\H,0,-1.780948,-0.706341,0.\\Version=ES64L-G16Rev
 C.01\State=1-A'\HF=-374.9692018\RMSD=9.744e-03\Dipole=-0.5312495,0.054
 4185,0.\Quadrupole=1.5960018,-1.9962815,0.4002797,1.060734,0.,0.\PG=CS
  [SG(C2H1F3)]\\@

 Normal termination of Gaussian 16 at Sat Apr  5 22:15:45 2025.
