 Gaussian 16, Revision C.01,

 ----------------------------------------------------------------------
 #t hf aug-cc-pvdz symm=none int=(grid=ultrafine) guess=(read,tcheck) s
 table=(opt,rrhf)
 ----------------------------------------------------------------------
 -----
 title
 -----
 Symbolic Z-matrix:
 Charge =  0 Multiplicity = 1

 SCF Done:  E(RHF) =  -443.599496310     A.U. after   14 cycles
 Normal termination of Gaussian 16 at Sat Apr  5 22:15:57 2025.
 Gaussian 16:  ES64L-G16RevC.01  3-Jul-2019

 ----------------------------------------------------------------------
 #t hf aug-cc-pvdz iop(5/13=1,5/36=2,99/5=2) pseudo=read geom=check gue
 ss=(read,tcheck) scf=(maxcycle=1)
 ----------------------------------------------------------------------
 -----
 title
 -----
 Structure from the checkpoint file:  "1-1-difluoro-2-isocyanatoethane.chk"
 Charge =  0 Multiplicity = 1

                         Standard orientation:
 ---------------------------------------------------------------------
 Center     Atomic      Atomic             Coordinates (Angstroms)
 Number     Number       Type             X           Y           Z
 ---------------------------------------------------------------------
      1          9           0        0.892126   -1.165198   -0.729105
      2          9           0        1.581051   -0.215516    1.129974
      3          8           0       -2.608785   -0.637675    0.169502
      4          7           0       -0.853328    0.946099    0.096004
      5          6           0        1.403870   -0.009908   -0.206195
      6          6           0        0.452351    1.146753   -0.457655
      7          6           0       -1.702891    0.095842    0.092826
      8          1           0        2.382805    0.162893   -0.658127
      9          1           0        0.888228    2.041357   -0.014086
     10          1           0        0.393969    1.304768   -1.537510
 ---------------------------------------------------------------------

 SCF Done:  E(RHF) =  -444.022271215     A.U. after    2 cycles

 The electronic state is 1-A.
 Alpha  occ. eigenvalues --  -26.49358 -26.49070 -20.60034 -15.53700 -11.43899
 Alpha  occ. eigenvalues --  -11.41859 -11.33040  -1.65783  -1.59007  -1.54635
 Alpha  occ. eigenvalues --   -1.29545  -1.08542  -0.93893  -0.80315  -0.78610
 Alpha  occ. eigenvalues --   -0.76504  -0.73680  -0.71294  -0.69372  -0.66331
 Alpha  occ. eigenvalues --   -0.64839  -0.62163  -0.60739  -0.60327  -0.55920
 Alpha  occ. eigenvalues --   -0.47709  -0.45826
 Alpha virt. eigenvalues --    0.02666   0.04264   0.04520   0.07351   0.09629
 Alpha virt. eigenvalues --    0.10278   0.10400   0.10488   0.10790   0.13272
 Alpha virt. eigenvalues --    0.13530   0.14668   0.16235   0.16752   0.18751

 Mulliken charges:
               1
     1  F   -0.740506
     2  F   -0.718316
     3  O   -0.827596
     4  N    0.743019
     5  C    1.653677
     6  C   -0.674182
     7  C    0.223387
     8  H    0.048063
     9  H    0.128153
    10  H    0.164301
 Sum of Mulliken charges =  -0.00000

 Dipole moment (field-independent basis, Debye):
    X=              2.5404    Y=              2.1610    Z=             -1.9458  Tot=              3.8613

 Test job not archived.
 1\1\GINC-SE168\SP\RHF\Aug-CC-pVDZ\C3H3F2N1O1\OHZDE\05-Apr-2025\0\\#t h
 f aug-cc-pvdz iop(5/13=1,5/36=2,99/5=2) pseudo=read geom=check guess=(
 read,tcheck) scf=(maxcycle=1)\\title\\0,1\F,0,0.892126,-1.165198,-0.72
 9105\F,0,1.581051,-0.215516,1.129974\O,0,-2.608785,-0.637675,0.169502\
 N,0,-0.853328,0.946099,0.096004\C,0,1.40387,-0.009908,-0.206195\C,0,0.
 452351,1.146753,-0.457655\C,0,-1.702891,0.095842,0.092826\H,0,2.382805
 ,0.162893,-0.658127\H,0,0.888228,2.041357,-0.014086\H,0,0.393969,1.304
 768,-1.53751\\Version=ES64L-G16RevC.01\State=1-A\HF=-444.0222712\RMSD=

 Normal termination of Gaussian 16 at Sat Apr  5 22:16:01 2025.
