 Gaussian 16, Revision C.01,

 ----------------------------------------------------------------------
 #t hf aug-cc-pvdz symm=none int=(grid=ultrafine) guess=(read,tcheck) s
 table=(opt,rrhf)
 ----------------------------------------------------------------------
 -----
 title
 -----
 Symbolic Z-matrix:
 Charge =  0 Multiplicity = 1

 SCF Done:  E(RHF) =  -413.673911988     A.U. after   13 cycles
 Normal termination of Gaussian 16 at Sat Apr  5 22:15:52 2025.
 Gaussian 16:  ES64L-G16RevC.01  3-Jul-2019

 ----------------------------------------------------------------------
 #t hf aug-cc-pvdz iop(5/13=1,5/36=2,99/5=2) pseudo=read geom=check gue
 ss=(read,tcheck) scf=(maxcycle=1)
 ----------------------------------------------------------------------
 -----
 title
 -----
 Structure from the checkpoint file:  "1-1-3-trifluoropropene.chk"
 Charge =  0 Multiplicity = 1

                         Standard orientation:
 ---------------------------------------------------------------------
 Center     Atomic      Atomic             Coordinates (Angstroms)
 Number     Number       Type             X           Y           Z
 ---------------------------------------------------------------------
      1          6           0       -0.000000    0.862132    0.000000
      2          9           0       -1.305149    0.683741    0.000000
      3          9           0        0.270153    2.162974    0.000000
      4          6           0        0.934721   -0.068353    0.000000
      5          1           0        1.955306    0.288216    0.000000
      6          6           0        0.754530   -1.551413    0.000000
      7          9           0       -0.579844   -1.931007    0.000000
      8          1           0        1.221377   -1.991895    0.885372
      9          1           0        1.221377   -1.991895   -0.885372
 ---------------------------------------------------------------------

 SCF Done:  E(RHF) =  -414.064680201     A.U. after    2 cycles

 The electronic state is 1-A'.
 Alpha  occ. eigenvalues --  -26.51208 -26.51147 -26.45797 -11.44065 -11.34783
 Alpha  occ. eigenvalues --  -11.26857  -1.68617  -1.61527  -1.58049  -1.10458
 Alpha  occ. eigenvalues --   -0.96807  -0.86290  -0.79234  -0.74706  -0.74386
 Alpha  occ. eigenvalues --   -0.70514  -0.69836  -0.66813  -0.66146  -0.63602
 Alpha  occ. eigenvalues --   -0.61155  -0.54889  -0.54468  -0.39309
 Alpha virt. eigenvalues --    0.03028   0.04716   0.04802   0.07423   0.10476
 Alpha virt. eigenvalues --    0.11014   0.11371   0.12006   0.12574   0.14970
 Alpha virt. eigenvalues --    0.15745   0.16589   0.17048   0.18768   0.20355

 Mulliken charges:
               1
     1  C    1.680180
     2  F   -0.739994
     3  F   -0.744801
     4  C   -0.275427
     5  H   -0.143471
     6  C    0.615457
     7  F   -0.700070
     8  H    0.154063
     9  H    0.154063
 Sum of Mulliken charges =  -0.00000

 Dipole moment (field-independent basis, Debye):
    X=              2.6348    Y=             -0.6569    Z=              0.0000  Tot=              2.7154

 Test job not archived.
 1\1\GINC-SE040\SP\RHF\Aug-CC-pVDZ\C3H3F3\OHZDE\05-Apr-2025\0\\#t hf au
 g-cc-pvdz iop(5/13=1,5/36=2,99/5=2) pseudo=read geom=check guess=(read
 ,tcheck) scf=(maxcycle=1)\\title\\0,1\C,0,0.,0.862132,0.\F,0,-1.305149
 ,0.683741,0.\F,0,0.270153,2.162974,0.\C,0,0.934721,-0.068353,0.\H,0,1.
 955306,0.288216,0.\C,0,0.75453,-1.551413,0.\F,0,-0.579844,-1.931007,0.
 \H,0,1.221377,-1.991895,0.885372\H,0,1.221377,-1.991895,-0.885372\\Ver
 sion=ES64L-G16RevC.01\State=1-A'\HF=-414.0646802\RMSD=1.190e-02\Dipole
 =1.0365992,-0.2584565,0.\Quadrupole=1.1726,-1.5995336,0.4269336,-2.607

 Normal termination of Gaussian 16 at Sat Apr  5 22:15:55 2025.
