 Gaussian 16, Revision C.01,

 ----------------------------------------------------------------------
 #t hf aug-cc-pvdz symm=none int=(grid=ultrafine) guess=(read,tcheck) s
 table=(opt,rrhf)
 ----------------------------------------------------------------------
 -----
 title
 -----
 Symbolic Z-matrix:
 Charge =  0 Multiplicity = 1

 SCF Done:  E(RHF) =  -997.084423537     A.U. after   12 cycles

 1\1\GINC-SE232\Stability\RHF\Aug-CC-pVDZ\C2H4Cl2\OHZDE\05-Apr-2025\0\\
 #t hf aug-cc-pvdz symm=none int=(grid=ultrafine) guess=(read,tcheck) s
 table=(opt,rrhf)\\title\\0,1\C,0,0.965471,1.453203,0.\C,0,-0.209585,0.
 507329,0.\Cl,0,-0.209585,-0.525034,1.4797\Cl,0,-0.209585,-0.525034,-1.
 4797\H,0,1.90327,0.90156,0.\H,0,0.925876,2.084439,-0.887319\H,0,0.9258
 76,2.084439,0.887319\H,0,-1.16445,1.017543,0.\\Version=ES64L-G16RevC.0
 1\HF=-997.0844235\RMSD=3.928e-09\Dipole=0.1229733,0.9283301,0.\Quadrup
 ole=0.6647456,1.3847096,-2.0494553,-0.0435575,0.,0.\PG=Unknown\\@

 Normal termination of Gaussian 16 at Sat Apr  5 22:14:43 2025.
 Gaussian 16:  ES64L-G16RevC.01  3-Jul-2019

 ----------------------------------------------------------------------
 #t hf aug-cc-pvdz iop(5/13=1,5/36=2,99/5=2) pseudo=read geom=check gue
 ss=(read,tcheck) scf=(maxcycle=1)
 ----------------------------------------------------------------------
 -----
 title
 -----
 Structure from the checkpoint file:  "1-1-dichloroethane.chk"
 Charge =  0 Multiplicity = 1

                         Standard orientation:
 ---------------------------------------------------------------------
 Center     Atomic      Atomic             Coordinates (Angstroms)
 Number     Number       Type             X           Y           Z
 ---------------------------------------------------------------------
      1          6           0        0.965471    1.453203   -0.000000
      2          6           0       -0.209585    0.507329    0.000000
      3         17           0       -0.209585   -0.525034    1.479700
      4         17           0       -0.209585   -0.525034   -1.479700
      5          1           0        1.903270    0.901560   -0.000000
      6          1           0        0.925876    2.084439   -0.887319
      7          1           0        0.925876    2.084439    0.887319
      8          1           0       -1.164450    1.017543    0.000000
 ---------------------------------------------------------------------

 SCF Done:  E(RHF) =  -997.322658269     A.U. after    2 cycles

 The electronic state is 1-A'.
 Alpha  occ. eigenvalues -- -105.57439-105.57438 -11.38181 -11.26227 -10.62268
 Alpha  occ. eigenvalues --  -10.62267  -7.79208  -7.79204  -7.78814  -7.78812
 Alpha  occ. eigenvalues --   -7.78807  -7.78805  -1.17147  -1.04462  -1.00158
 Alpha  occ. eigenvalues --   -0.83664  -0.67521  -0.63816  -0.61088  -0.55926
 Alpha  occ. eigenvalues --   -0.54455  -0.47727  -0.47495  -0.45409  -0.44987
 Alpha virt. eigenvalues --    0.03486   0.04500   0.05337   0.06151   0.08392
 Alpha virt. eigenvalues --    0.09496   0.11717   0.13576   0.13854   0.14100
 Alpha virt. eigenvalues --    0.16517   0.16949   0.16967   0.17801   0.18710

 Mulliken charges:
               1
     1  C   -0.034861
     2  C   -0.835963
     3  Cl  -0.006786
     4  Cl  -0.006786
     5  H    0.207459
     6  H    0.191337
     7  H    0.191337
     8  H    0.294264
 Sum of Mulliken charges =  -0.00000

 Dipole moment (field-independent basis, Debye):
    X=              0.3059    Y=              2.3474    Z=             -0.0000  Tot=              2.3673

 Test job not archived.
 1\1\GINC-SE232\SP\RHF\Aug-CC-pVDZ\C2H4Cl2\OHZDE\05-Apr-2025\0\\#t hf a
 ug-cc-pvdz iop(5/13=1,5/36=2,99/5=2) pseudo=read geom=check guess=(rea
 d,tcheck) scf=(maxcycle=1)\\title\\0,1\C,0,0.965471,1.453203,0.\C,0,-0
 .209585,0.507329,0.\Cl,0,-0.209585,-0.525034,1.4797\Cl,0,-0.209585,-0.
 525034,-1.4797\H,0,1.90327,0.90156,0.\H,0,0.925876,2.084439,-0.887319\
 H,0,0.925876,2.084439,0.887319\H,0,-1.16445,1.017543,0.\\Version=ES64L
 -G16RevC.01\State=1-A'\HF=-997.3226583\RMSD=6.563e-03\Dipole=0.1203443
 ,0.9235488,0.\Quadrupole=0.6433689,1.3861752,-2.0295441,-0.0257542,0.,

 Normal termination of Gaussian 16 at Sat Apr  5 22:15:45 2025.
