 Gaussian 16, Revision C.01,

 ----------------------------------------------------------------------
 #t hf aug-cc-pvdz symm=none int=(grid=ultrafine) guess=(read,tcheck) s
 table=(opt,rrhf)
 ----------------------------------------------------------------------
 -----
 title
 -----
 Symbolic Z-matrix:
 Charge =  0 Multiplicity = 1

 SCF Done:  E(RHF) =  -474.719798148     A.U. after   12 cycles
 Normal termination of Gaussian 16 at Sat Apr  5 22:13:53 2025.
 Gaussian 16:  ES64L-G16RevC.01  3-Jul-2019

 ----------------------------------------------------------------------
 #t hf aug-cc-pvdz iop(5/13=1,5/36=2,99/5=2) pseudo=read geom=check gue
 ss=(read,tcheck) scf=(maxcycle=1)
 ----------------------------------------------------------------------
 -----
 title
 -----
 Structure from the checkpoint file:  "1-1-1-2-tetrafluoroethane.chk"
 Charge =  0 Multiplicity = 1

                         Standard orientation:
 ---------------------------------------------------------------------
 Center     Atomic      Atomic             Coordinates (Angstroms)
 Number     Number       Type             X           Y           Z
 ---------------------------------------------------------------------
      1          6           0        0.361772    0.190165    0.000000
      2          6           0       -1.157274    0.243325    0.000000
      3          9           0        0.843210    1.450981    0.000000
      4          9           0        0.843210   -0.436999    1.084078
      5          9           0        0.843210   -0.436999   -1.084078
      6          9           0       -1.667677   -1.036067    0.000000
      7          1           0       -1.492284    0.765414    0.895748
      8          1           0       -1.492284    0.765414   -0.895748
 ---------------------------------------------------------------------

 SCF Done:  E(RHF) =  -475.159263107     A.U. after    2 cycles

 The electronic state is 1-A'.
 Alpha  occ. eigenvalues --  -26.52032 -26.51618 -26.51614 -26.48590 -11.53269
 Alpha  occ. eigenvalues --  -11.36907  -1.72649  -1.62681  -1.62441  -1.60911
 Alpha  occ. eigenvalues --   -1.07057  -0.92600  -0.82698  -0.82610  -0.80880
 Alpha  occ. eigenvalues --   -0.73431  -0.71969  -0.68846  -0.68814  -0.65873
 Alpha  occ. eigenvalues --   -0.64562  -0.64505  -0.63071  -0.56550  -0.55104
 Alpha virt. eigenvalues --    0.03427   0.04899   0.07787   0.08905   0.11395
 Alpha virt. eigenvalues --    0.11533   0.12015   0.15584   0.16020   0.19952
 Alpha virt. eigenvalues --    0.21872   0.22904   0.25330   0.27633   0.28756

 Mulliken charges:
               1
     1  C    2.245701
     2  C    0.307721
     3  F   -0.726444
     4  F   -0.715714
     5  F   -0.715714
     6  F   -0.677266
     7  H    0.140858
     8  H    0.140858
 Sum of Mulliken charges =  -0.00000

 Dipole moment (field-independent basis, Debye):
    X=             -1.4101    Y=              1.6118    Z=              0.0000  Tot=              2.1416

 Test job not archived.
 1\1\GINC-SE085\SP\RHF\Aug-CC-pVDZ\C2H2F4\OHZDE\05-Apr-2025\0\\#t hf au
 g-cc-pvdz iop(5/13=1,5/36=2,99/5=2) pseudo=read geom=check guess=(read
 ,tcheck) scf=(maxcycle=1)\\title\\0,1\C,0,0.361772,0.190165,0.\C,0,-1.
 157274,0.243325,0.\F,0,0.84321,1.450981,0.\F,0,0.84321,-0.436999,1.084
 078\F,0,0.84321,-0.436999,-1.084078\F,0,-1.667677,-1.036067,0.\H,0,-1.
 492284,0.765414,0.895748\H,0,-1.492284,0.765414,-0.895748\\Version=ES6
 4L-G16RevC.01\State=1-A'\HF=-475.1592631\RMSD=5.518e-03\Dipole=-0.5547
 829,0.6341408,0.\Quadrupole=0.2625871,-0.8790858,0.6164987,-2.4836762,

 Normal termination of Gaussian 16 at Sat Apr  5 22:13:56 2025.
