 Gaussian 16, Revision C.01,

 ----------------------------------------------------------------------
 #t hf aug-cc-pvdz symm=none int=(grid=ultrafine) guess=(read,tcheck) s
 table=(opt,rrhf)
 ----------------------------------------------------------------------
 -----
 title
 -----
 Symbolic Z-matrix:
 Charge =  0 Multiplicity = 1

 SCF Done:  E(RHF) =  -305.848176895     A.U. after   13 cycles
 Normal termination of Gaussian 16 at Sat Apr  5 22:17:13 2025.
 Gaussian 16:  ES64L-G16RevC.01  3-Jul-2019

 ----------------------------------------------------------------------
 #t hf aug-cc-pvdz iop(5/13=1,5/36=2,99/5=2) pseudo=read geom=check gue
 ss=(read,tcheck) scf=(maxcycle=1)
 ----------------------------------------------------------------------
 -----
 title
 -----
 Structure from the checkpoint file:  "1-1-dimethoxyethene.chk"
 Charge =  0 Multiplicity = 1

                         Standard orientation:
 ---------------------------------------------------------------------
 Center     Atomic      Atomic             Coordinates (Angstroms)
 Number     Number       Type             X           Y           Z
 ---------------------------------------------------------------------
      1          6           0       -0.000000   -0.000000    1.419313
      2          6           0       -0.000000   -0.000000    0.079174
      3          1           0        0.000000    0.919976    1.976204
      4          1           0       -0.000000   -0.919976    1.976204
      5          8           0        0.000000    1.079169   -0.727837
      6          8           0       -0.000000   -1.079169   -0.727837
      7          6           0        0.000000    2.361498   -0.117979
      8          6           0       -0.000000   -2.361498   -0.117979
      9          1           0        0.000000    3.078298   -0.933962
     10          1           0       -0.000000   -3.078298   -0.933962
     11          1           0       -0.891567    2.503674    0.496436
     12          1           0        0.891567    2.503674    0.496436
     13          1           0        0.891567   -2.503674    0.496436
     14          1           0       -0.891567   -2.503674    0.496436
 ---------------------------------------------------------------------

 SCF Done:  E(RHF) =  -306.164816439     A.U. after    2 cycles

 The electronic state is 1-A1.
 Alpha  occ. eigenvalues --  -20.57575 -20.57574 -11.36305 -11.29413 -11.29413
 Alpha  occ. eigenvalues --  -11.20788  -1.54319  -1.46868  -1.03010  -0.98531
 Alpha  occ. eigenvalues --   -0.93448  -0.77266  -0.72834  -0.68943  -0.68071
 Alpha  occ. eigenvalues --   -0.63828  -0.61891  -0.59291  -0.55917  -0.53270
 Alpha  occ. eigenvalues --   -0.52221  -0.50234  -0.45486  -0.33460
 Alpha virt. eigenvalues --    0.03743   0.03981   0.04455   0.05124   0.05955
 Alpha virt. eigenvalues --    0.06810   0.07475   0.08785   0.09676   0.11640
 Alpha virt. eigenvalues --    0.12238   0.14139   0.15875   0.16118   0.16171

 Mulliken charges:
               1
     1  C   -0.054952
     2  C    2.397448
     3  H   -0.154134
     4  H   -0.154134
     5  O   -1.460910
     6  O   -1.460910
     7  C    0.140149
     8  C    0.140149
     9  H   -0.059244
    10  H   -0.059244
    11  H    0.181446
    12  H    0.181446
    13  H    0.181446
    14  H    0.181446
 Sum of Mulliken charges =   0.00000

 Dipole moment (field-independent basis, Debye):
    X=              0.0000    Y=             -0.0000    Z=              1.1967  Tot=              1.1967

 Test job not archived.
 1\1\GINC-SE115\SP\RHF\Aug-CC-pVDZ\C4H8O2\OHZDE\05-Apr-2025\0\\#t hf au
 g-cc-pvdz iop(5/13=1,5/36=2,99/5=2) pseudo=read geom=check guess=(read
 ,tcheck) scf=(maxcycle=1)\\title\\0,1\C,0,0.,0.,1.419313\C,0,0.,0.,0.0
 79174\H,0,0.,0.919976,1.976204\H,0,0.,-0.919976,1.976204\O,0,0.,1.0791
 69,-0.727837\O,0,0.,-1.079169,-0.727837\C,0,0.,2.361498,-0.117979\C,0,
 0.,-2.361498,-0.117979\H,0,0.,3.078298,-0.933962\H,0,0.,-3.078298,-0.9
 33962\H,0,-0.891567,2.503674,0.496436\H,0,0.891567,2.503674,0.496436\H
 ,0,0.891567,-2.503674,0.496436\H,0,-0.891567,-2.503674,0.496436\\Versi

 Normal termination of Gaussian 16 at Sat Apr  5 22:18:01 2025.
