 Gaussian 16, Revision C.01,

 ----------------------------------------------------------------------
 #t hf aug-cc-pvdz symm=none int=(grid=ultrafine) guess=(read,tcheck) s
 table=(opt,rrhf)
 ----------------------------------------------------------------------
 -----
 title
 -----
 Symbolic Z-matrix:
 Charge =  0 Multiplicity = 1

 SCF Done:  E(RHF) =  -1239.60287809     A.U. after   15 cycles
 Normal termination of Gaussian 16 at Sat Apr  5 22:17:01 2025.
 Gaussian 16:  ES64L-G16RevC.01  3-Jul-2019

 ----------------------------------------------------------------------
 #t hf aug-cc-pvdz iop(5/13=1,5/36=2,99/5=2) pseudo=read geom=check gue
 ss=(read,tcheck) scf=(maxcycle=1)
 ----------------------------------------------------------------------
 -----
 title
 -----
 Structure from the checkpoint file:  "1-1-dichloro-1-nitropropane.chk"
 Charge =  0 Multiplicity = 1

                         Standard orientation:
 ---------------------------------------------------------------------
 Center     Atomic      Atomic             Coordinates (Angstroms)
 Number     Number       Type             X           Y           Z
 ---------------------------------------------------------------------
      1         17           0        0.249784   -0.974350    1.469255
      2         17           0        0.249795   -0.974958   -1.468853
      3          8           0       -2.276486   -0.317705    0.000014
      4          8           0       -1.578642    1.732450   -0.000305
      5          7           0       -1.417338    0.529360   -0.000112
      6          6           0        1.046188    1.203382   -0.000248
      7          6           0        0.088165    0.027254   -0.000009
      8          6           0        2.523780    0.818478   -0.000164
      9          1           0        0.809962    1.806954    0.875296
     10          1           0        0.809968    1.806595   -0.876042
     11          1           0        3.125160    1.726672   -0.000357
     12          1           0        2.787839    0.239740   -0.883469
     13          1           0        2.787837    0.240117    0.883389
 ---------------------------------------------------------------------

 SCF Done:  E(RHF) =  -1240.07106642     A.U. after    2 cycles

 The electronic state is 1-A.
 Alpha  occ. eigenvalues -- -105.60958-105.60958 -20.61384 -20.61241 -15.81109
 Alpha  occ. eigenvalues --  -11.45864 -11.28396 -11.25546 -10.65791 -10.65767
 Alpha  occ. eigenvalues --   -7.82739  -7.82727  -7.82305  -7.82303  -7.82292
 Alpha  occ. eigenvalues --   -7.82291  -1.69929  -1.53908  -1.23208  -1.08633
 Alpha  occ. eigenvalues --   -1.07095  -1.03454  -0.91900  -0.84064  -0.77173
 Alpha  occ. eigenvalues --   -0.77142  -0.76891  -0.68062  -0.65481  -0.60677
 Alpha  occ. eigenvalues --   -0.59078  -0.55946  -0.54389  -0.53259  -0.50728
 Alpha  occ. eigenvalues --   -0.50696  -0.49788  -0.48063  -0.48044  -0.46462
 Alpha virt. eigenvalues --    0.03278   0.03905   0.04309   0.04544   0.05462
 Alpha virt. eigenvalues --    0.07096   0.08602   0.09240   0.10227   0.11692
 Alpha virt. eigenvalues --    0.12248   0.13788   0.14770   0.15567   0.16119

 Mulliken charges:
               1
     1  Cl   0.060234
     2  Cl   0.060240
     3  O   -1.426687
     4  O   -1.291442
     5  N    2.740704
     6  C    0.165806
     7  C   -0.950827
     8  C   -0.368937
     9  H    0.245631
    10  H    0.245624
    11  H    0.145471
    12  H    0.187091
    13  H    0.187092
 Sum of Mulliken charges =  -0.00000

 Dipole moment (field-independent basis, Debye):
    X=              3.5945    Y=              0.6649    Z=             -0.0002  Tot=              3.6555

 Test job not archived.
 1\1\GINC-SE176\SP\RHF\Aug-CC-pVDZ\C3H5Cl2N1O2\OHZDE\05-Apr-2025\0\\#t
 hf aug-cc-pvdz iop(5/13=1,5/36=2,99/5=2) pseudo=read geom=check guess=
 (read,tcheck) scf=(maxcycle=1)\\title\\0,1\Cl,0,0.249784,-0.97435,1.46
 9255\Cl,0,0.249795,-0.974958,-1.468853\O,0,-2.276486,-0.317705,0.00001
 4\O,0,-1.578642,1.73245,-0.000305\N,0,-1.417338,0.52936,-0.000112\C,0,
 1.046188,1.203382,-0.000248\C,0,0.088165,0.027254,-0.000009\C,0,2.5237
 8,0.818478,-0.000164\H,0,0.809962,1.806954,0.875296\H,0,0.809968,1.806
 595,-0.876042\H,0,3.12516,1.726672,-0.000357\H,0,2.787839,0.23974,-0.8

 Normal termination of Gaussian 16 at Sat Apr  5 22:18:03 2025.
