 Gaussian 16, Revision C.01,

 ----------------------------------------------------------------------
 #t hf aug-cc-pvdz symm=none int=(grid=ultrafine) guess=(read,tcheck) s
 table=(opt,rrhf)
 ----------------------------------------------------------------------
 -----
 title
 -----
 Symbolic Z-matrix:
 Charge =  0 Multiplicity = 1

 SCF Done:  E(RHF) =  -1455.99397284     A.U. after   12 cycles

 1\1\GINC-SE185\Stability\RHF\Aug-CC-pVDZ\C2H3Cl3\OHZDE\05-Apr-2025\0\\
 #t hf aug-cc-pvdz symm=none int=(grid=ultrafine) guess=(read,tcheck) s
 table=(opt,rrhf)\\title\\0,1\C,0,0.,0.,1.770041\C,0,0.,0.,0.257391\Cl,
 0,0.,1.68935,-0.363984\Cl,0,1.46302,-0.844675,-0.363984\Cl,0,-1.46302,
 -0.844675,-0.363984\H,0,0.,-1.025689,2.132856\H,0,0.888273,0.512844,2.
 132856\H,0,-0.888273,0.512844,2.132856\\Version=ES64L-G16RevC.01\HF=-1
 455.9939728\RMSD=4.197e-09\Dipole=0.,-0.0000002,0.8004392\Quadrupole=-
 0.9076984,-0.9077006,1.815399,0.,0.,-0.0000008\PG=Unknown\\@

 Normal termination of Gaussian 16 at Sat Apr  5 22:13:53 2025.
 Gaussian 16:  ES64L-G16RevC.01  3-Jul-2019

 ----------------------------------------------------------------------
 #t hf aug-cc-pvdz iop(5/13=1,5/36=2,99/5=2) pseudo=read geom=check gue
 ss=(read,tcheck) scf=(maxcycle=1)
 ----------------------------------------------------------------------
 -----
 title
 -----
 Structure from the checkpoint file:  "1-1-1-trichloroethane.chk"
 Charge =  0 Multiplicity = 1

                         Standard orientation:
 ---------------------------------------------------------------------
 Center     Atomic      Atomic             Coordinates (Angstroms)
 Number     Number       Type             X           Y           Z
 ---------------------------------------------------------------------
      1          6           0        0.000000    1.770041    0.000000
      2          6           0        0.000000    0.257391    0.000000
      3         17           0        1.689350   -0.363984    0.000000
      4         17           0       -0.844675   -0.363984    1.463020
      5         17           0       -0.844675   -0.363984   -1.463020
      6          1           0       -1.025689    2.132856    0.000000
      7          1           0        0.512844    2.132856    0.888273
      8          1           0        0.512844    2.132856   -0.888273
 ---------------------------------------------------------------------

 SCF Done:  E(RHF) =  -1456.30340727     A.U. after    2 cycles

 The electronic state is 1-A'.
 Alpha  occ. eigenvalues -- -105.59136-105.59136-105.59136 -11.45012 -11.27401
 Alpha  occ. eigenvalues --  -10.63971 -10.63971 -10.63959  -7.80915  -7.80915
 Alpha  occ. eigenvalues --   -7.80904  -7.80489  -7.80488  -7.80488  -7.80485
 Alpha  occ. eigenvalues --   -7.80485  -7.80485  -1.21731  -1.06400  -1.06400
 Alpha  occ. eigenvalues --   -1.01433  -0.80336  -0.66461  -0.66461  -0.64323
 Alpha  occ. eigenvalues --   -0.57228  -0.57228  -0.50611  -0.50611  -0.47813
 Alpha  occ. eigenvalues --   -0.46733  -0.46733  -0.45550
 Alpha virt. eigenvalues --    0.03752   0.05524   0.05524   0.07112   0.09158
 Alpha virt. eigenvalues --    0.09158   0.09455   0.12980   0.14426   0.14426
 Alpha virt. eigenvalues --    0.15663   0.15663   0.17470   0.17638   0.18421

 Mulliken charges:
               1
     1  C    0.268450
     2  C   -1.188771
     3  Cl   0.107317
     4  Cl   0.107317
     5  Cl   0.107317
     6  H    0.199457
     7  H    0.199457
     8  H    0.199457
 Sum of Mulliken charges =  -0.00000

 Dipole moment (field-independent basis, Debye):
    X=             -0.0000    Y=              2.0173    Z=              0.0000  Tot=              2.0173

 Test job not archived.
 1\1\GINC-SE185\SP\RHF\Aug-CC-pVDZ\C2H3Cl3\OHZDE\05-Apr-2025\0\\#t hf a
 ug-cc-pvdz iop(5/13=1,5/36=2,99/5=2) pseudo=read geom=check guess=(rea
 d,tcheck) scf=(maxcycle=1)\\title\\0,1\C,0,0.,0.,1.770041\C,0,0.,0.,0.
 257391\Cl,0,0.,1.68935,-0.363984\Cl,0,1.46302,-0.844675,-0.363984\Cl,0
 ,-1.46302,-0.844675,-0.363984\H,0,0.,-1.025689,2.132856\H,0,0.888273,0
 .512844,2.132856\H,0,-0.888273,0.512844,2.132856\\Version=ES64L-G16Rev
 C.01\State=1-A'\HF=-1456.3034073\RMSD=6.274e-03\Dipole=0.,-0.0000002,0
 .7936606\Quadrupole=-0.9043332,-0.9043354,1.8086686,0.,0.,-0.0000008\P

 Normal termination of Gaussian 16 at Sat Apr  5 22:13:56 2025.
