 Gaussian 16, Revision C.01,

 ----------------------------------------------------------------------
 #t hf aug-cc-pvdz symm=none int=(grid=ultrafine) guess=(read,tcheck) s
 table=(opt,rrhf)
 ----------------------------------------------------------------------
 -----
 title
 -----
 Symbolic Z-matrix:
 Charge =  0 Multiplicity = 1

 SCF Done:  E(RHF) =  -2030.86394318     A.U. after   13 cycles

 1\1\GINC-SE040\Stability\RHF\Aug-CC-pVDZ\C5H6Cl4\OHZDE\05-Apr-2025\0\\
 #t hf aug-cc-pvdz symm=none int=(grid=ultrafine) guess=(read,tcheck) s
 table=(opt,rrhf)\\title\\0,1\C,0,0.,0.,2.379326\C,0,-0.540152,1.120038
 ,1.453423\C,0,0.540152,-1.120038,1.453423\C,0,0.,0.780705,0.063279\C,0
 ,0.,-0.780705,0.063279\Cl,0,-0.918814,1.53037,-1.269894\Cl,0,1.722064,
 1.361119,-0.048861\Cl,0,-1.722064,-1.361119,-0.048861\Cl,0,0.918814,-1
 .53037,-1.269894\H,0,0.795834,0.369632,3.021692\H,0,-0.795834,-0.36963
 2,3.021692\H,0,-1.626332,1.099741,1.409111\H,0,-0.232881,2.118369,1.74

 Normal termination of Gaussian 16 at Sat Apr  5 22:15:07 2025.
 Gaussian 16:  ES64L-G16RevC.01  3-Jul-2019

 ----------------------------------------------------------------------
 #t hf aug-cc-pvdz iop(5/13=1,5/36=2,99/5=2) pseudo=read geom=check gue
 ss=(read,tcheck) scf=(maxcycle=1)
 ----------------------------------------------------------------------
 -----
 title
 -----
 Structure from the checkpoint file:  "1-1-2-2-tetrachlorocyclopentane.chk"
 Charge =  0 Multiplicity = 1

                         Standard orientation:
 ---------------------------------------------------------------------
 Center     Atomic      Atomic             Coordinates (Angstroms)
 Number     Number       Type             X           Y           Z
 ---------------------------------------------------------------------
      1          6           0       -0.000000   -0.000000    2.379326
      2          6           0       -0.540152    1.120038    1.453423
      3          6           0        0.540152   -1.120038    1.453423
      4          6           0       -0.000000    0.780705    0.063279
      5          6           0       -0.000000   -0.780705    0.063279
      6         17           0       -0.918814    1.530370   -1.269894
      7         17           0        1.722064    1.361119   -0.048861
      8         17           0       -1.722064   -1.361119   -0.048861
      9         17           0        0.918814   -1.530370   -1.269894
     10          1           0        0.795834    0.369632    3.021692
     11          1           0       -0.795834   -0.369632    3.021692
     12          1           0       -1.626332    1.099741    1.409111
     13          1           0       -0.232881    2.118369    1.749841
     14          1           0        1.626332   -1.099741    1.409111
     15          1           0        0.232881   -2.118369    1.749841
 ---------------------------------------------------------------------

 SCF Done:  E(RHF) =  -2031.36788245     A.U. after    2 cycles

 The electronic state is 1-A.
 Alpha  occ. eigenvalues -- -105.58282-105.58282-105.58219-105.58219 -11.40272
 Alpha  occ. eigenvalues --  -11.40250 -11.27046 -11.27035 -11.26305 -10.63097
 Alpha  occ. eigenvalues --  -10.63096 -10.63037 -10.63036  -7.80054  -7.80050
 Alpha  occ. eigenvalues --   -7.79977  -7.79972  -7.79639  -7.79638  -7.79635
 Alpha  occ. eigenvalues --   -7.79635  -7.79589  -7.79588  -7.79575  -7.79573
 Alpha  occ. eigenvalues --   -1.24215  -1.13854  -1.09346  -1.06434  -1.04077
 Alpha  occ. eigenvalues --   -0.98564  -0.93613  -0.83147  -0.75882  -0.69230
 Alpha  occ. eigenvalues --   -0.69084  -0.65886  -0.63050  -0.59355  -0.57808
 Alpha  occ. eigenvalues --   -0.56551  -0.54003  -0.53457  -0.51874  -0.49521
 Alpha  occ. eigenvalues --   -0.48663  -0.48587  -0.47383  -0.46758  -0.45486
 Alpha  occ. eigenvalues --   -0.44876  -0.44238
 Alpha virt. eigenvalues --    0.03343   0.04079   0.04229   0.05268   0.06234
 Alpha virt. eigenvalues --    0.07679   0.08057   0.09109   0.09586   0.09596
 Alpha virt. eigenvalues --    0.11688   0.12100   0.13371   0.13775   0.14649

 Mulliken charges:
               1
     1  C   -0.065148
     2  C    0.160874
     3  C    0.160874
     4  C   -0.555900
     5  C   -0.555900
     6  Cl  -0.060320
     7  Cl   0.026908
     8  Cl   0.026908
     9  Cl  -0.060320
    10  H    0.160870
    11  H    0.160870
    12  H    0.173810
    13  H    0.126331
    14  H    0.173810
    15  H    0.126331
 Sum of Mulliken charges =   0.00000

 Dipole moment (field-independent basis, Debye):
    X=             -0.0000    Y=              0.0000    Z=              3.3236  Tot=              3.3236

 Test job not archived.
 1\1\GINC-SE040\SP\RHF\Aug-CC-pVDZ\C5H6Cl4\OHZDE\05-Apr-2025\0\\#t hf a
 ug-cc-pvdz iop(5/13=1,5/36=2,99/5=2) pseudo=read geom=check guess=(rea
 d,tcheck) scf=(maxcycle=1)\\title\\0,1\C,0,0.,0.,2.379326\C,0,-0.54015
 2,1.120038,1.453423\C,0,0.540152,-1.120038,1.453423\C,0,0.,0.780705,0.
 063279\C,0,0.,-0.780705,0.063279\Cl,0,-0.918814,1.53037,-1.269894\Cl,0
 ,1.722064,1.361119,-0.048861\Cl,0,-1.722064,-1.361119,-0.048861\Cl,0,0
 .918814,-1.53037,-1.269894\H,0,0.795834,0.369632,3.021692\H,0,-0.79583
 4,-0.369632,3.021692\H,0,-1.626332,1.099741,1.409111\H,0,-0.232881,2.1

 Normal termination of Gaussian 16 at Sat Apr  5 22:15:49 2025.
