 Gaussian 16, Revision C.01,

 ----------------------------------------------------------------------
 #t hf aug-cc-pvdz symm=none int=(grid=ultrafine) guess=(read,tcheck) s
 table=(opt,rrhf)
 ----------------------------------------------------------------------
 -----
 title
 -----
 Symbolic Z-matrix:
 Charge =  0 Multiplicity = 1

 SCF Done:  E(RHF) =  -275.776214531     A.U. after   12 cycles
 Normal termination of Gaussian 16 at Sat Apr  5 22:16:55 2025.
 Gaussian 16:  ES64L-G16RevC.01  3-Jul-2019

 ----------------------------------------------------------------------
 #t hf aug-cc-pvdz iop(5/13=1,5/36=2,99/5=2) pseudo=read geom=check gue
 ss=(read,tcheck) scf=(maxcycle=1)
 ----------------------------------------------------------------------
 -----
 title
 -----
 Structure from the checkpoint file:  "1-1-difluoroethene.chk"
 Charge =  0 Multiplicity = 1

                         Standard orientation:
 ---------------------------------------------------------------------
 Center     Atomic      Atomic             Coordinates (Angstroms)
 Number     Number       Type             X           Y           Z
 ---------------------------------------------------------------------
      1          9           0        0.000000    1.080780   -0.696531
      2          9           0       -0.000000   -1.080780   -0.696531
      3          6           0        0.000000   -0.000000    0.067620
      4          6           0        0.000000   -0.000000    1.382761
      5          1           0        0.000000    0.934350    1.917633
      6          1           0       -0.000000   -0.934350    1.917633
 ---------------------------------------------------------------------

 SCF Done:  E(RHF) =  -276.036381602     A.U. after    2 cycles

 The electronic state is 1-A1.
 Alpha  occ. eigenvalues --  -26.51322 -26.51321 -11.43951 -11.25629  -1.68700
 Alpha  occ. eigenvalues --   -1.61639  -1.07416  -0.87509  -0.79128  -0.74513
 Alpha  occ. eigenvalues --   -0.74501  -0.66301  -0.64236  -0.63440  -0.60257
 Alpha  occ. eigenvalues --   -0.39981
 Alpha virt. eigenvalues --    0.03797   0.04986   0.07455   0.10054   0.11607
 Alpha virt. eigenvalues --    0.11704   0.12134   0.15606   0.17774   0.19629
 Alpha virt. eigenvalues --    0.21340   0.24601   0.26915   0.28433   0.28863

 Mulliken charges:
               1
     1  F   -0.703467
     2  F   -0.703467
     3  C    1.701127
     4  C   -0.222082
     5  H   -0.036056
     6  H   -0.036056
 Sum of Mulliken charges =  -0.00000

 Dipole moment (field-independent basis, Debye):
    X=              0.0000    Y=              0.0000    Z=              1.3996  Tot=              1.3996

 Test job not archived.
 1\1\GINC-SE164\SP\RHF\Aug-CC-pVDZ\C2H2F2\OHZDE\05-Apr-2025\0\\#t hf au
 g-cc-pvdz iop(5/13=1,5/36=2,99/5=2) pseudo=read geom=check guess=(read
 ,tcheck) scf=(maxcycle=1)\\title\\0,1\F,0,0.,1.08078,-0.696531\F,0,0.,
 -1.08078,-0.696531\C,0,0.,0.,0.06762\C,0,0.,0.,1.382761\H,0,0.,0.93435
 ,1.917633\H,0,0.,-0.93435,1.917633\\Version=ES64L-G16RevC.01\State=1-A
 1\HF=-276.0363816\RMSD=9.663e-03\Dipole=0.,0.,0.5506338\Quadrupole=-0.
 7702898,-0.3551616,1.1254514,0.,0.,0.\PG=C02V [C2(C1C1),SGV(H2F2)]\\@

 Normal termination of Gaussian 16 at Sat Apr  5 22:17:59 2025.
