 Gaussian 16, Revision C.01,

 ----------------------------------------------------------------------
 #t hf aug-cc-pvdz symm=none int=(grid=ultrafine) guess=(read,tcheck) s
 table=(opt,rrhf)
 ----------------------------------------------------------------------
 -----
 title
 -----
 Symbolic Z-matrix:
 Charge =  0 Multiplicity = 1

 SCF Done:  E(RHF) =  -375.866638507     A.U. after   11 cycles
 Normal termination of Gaussian 16 at Sat Apr  5 22:13:52 2025.
 Gaussian 16:  ES64L-G16RevC.01  3-Jul-2019

 ----------------------------------------------------------------------
 #t hf aug-cc-pvdz iop(5/13=1,5/36=2,99/5=2) pseudo=read geom=check gue
 ss=(read,tcheck) scf=(maxcycle=1)
 ----------------------------------------------------------------------
 -----
 title
 -----
 Structure from the checkpoint file:  "1-1-1-trifluoroethane.chk"
 Charge =  0 Multiplicity = 1

                         Standard orientation:
 ---------------------------------------------------------------------
 Center     Atomic      Atomic             Coordinates (Angstroms)
 Number     Number       Type             X           Y           Z
 ---------------------------------------------------------------------
      1          6           0       -1.478573    0.000000    0.000000
      2          6           0        0.023472    0.000000   -0.000000
      3          1           0       -1.838151   -1.026225    0.000000
      4          1           0       -1.838151    0.513112    0.888737
      5          1           0       -1.838151    0.513112   -0.888737
      6          9           0        0.527595    1.253973   -0.000000
      7          9           0        0.527595   -0.626987   -1.085973
      8          9           0        0.527595   -0.626987    1.085973
 ---------------------------------------------------------------------

 SCF Done:  E(RHF) =  -376.220074054     A.U. after    2 cycles

 The electronic state is 1-A'.
 Alpha  occ. eigenvalues --  -26.49938 -26.49938 -26.49932 -11.51575 -11.27073
 Alpha  occ. eigenvalues --   -1.70601  -1.60510  -1.60509  -1.06960  -0.91003
 Alpha  occ. eigenvalues --   -0.80450  -0.80450  -0.76838  -0.68355  -0.68355
 Alpha  occ. eigenvalues --   -0.63416  -0.63416  -0.61346  -0.59184  -0.59184
 Alpha  occ. eigenvalues --   -0.56209
 Alpha virt. eigenvalues --    0.03375   0.05351   0.05351   0.08148   0.11335
 Alpha virt. eigenvalues --    0.11767   0.11767   0.15133   0.15133   0.16106
 Alpha virt. eigenvalues --    0.21186   0.23619   0.23619   0.28159   0.28292

 Mulliken charges:
               1
     1  C   -0.619572
     2  C    2.260696
     3  H    0.187771
     4  H    0.187770
     5  H    0.187770
     6  F   -0.734812
     7  F   -0.734812
     8  F   -0.734812
 Sum of Mulliken charges =  -0.00000

 Dipole moment (field-independent basis, Debye):
    X=             -2.4426    Y=              0.0000    Z=             -0.0000  Tot=              2.4426

 Test job not archived.
 1\1\GINC-SE047\SP\RHF\Aug-CC-pVDZ\C2H3F3\OHZDE\05-Apr-2025\0\\#t hf au
 g-cc-pvdz iop(5/13=1,5/36=2,99/5=2) pseudo=read geom=check guess=(read
 ,tcheck) scf=(maxcycle=1)\\title\\0,1\C,0,0.,0.,1.478573\C,0,0.,0.,-0.
 023472\H,0,0.,-1.026225,1.838151\H,0,0.888737,0.513112,1.838151\H,0,-0
 .888737,0.513112,1.838151\F,0,0.,1.253973,-0.527595\F,0,-1.085973,-0.6
 26987,-0.527595\F,0,1.085973,-0.626987,-0.527595\\Version=ES64L-G16Rev
 C.01\State=1-A'\HF=-376.2200741\RMSD=5.919e-03\Dipole=0.,0.0000012,0.9
 60998\Quadrupole=-0.7887036,-0.7887023,1.5774059,0.,0.,-0.0000017\PG=C

 Normal termination of Gaussian 16 at Sat Apr  5 22:13:54 2025.
