 Gaussian 16, Revision C.01,

 ----------------------------------------------------------------------
 #t hf aug-cc-pvdz symm=none int=(grid=ultrafine) guess=(read,tcheck) s
 table=(opt,rrhf)
 ----------------------------------------------------------------------
 -----
 title
 -----
 Symbolic Z-matrix:
 Charge =  0 Multiplicity = 1

 SCF Done:  E(RHF) =  -810.016854968     A.U. after   14 cycles
 Normal termination of Gaussian 16 at Sat Apr  5 22:17:58 2025.
 Gaussian 16:  ES64L-G16RevC.01  3-Jul-2019

 ----------------------------------------------------------------------
 #t hf aug-cc-pvdz iop(5/13=1,5/36=2,99/5=2) pseudo=read geom=check gue
 ss=(read,tcheck) scf=(maxcycle=1)
 ----------------------------------------------------------------------
 -----
 title
 -----
 Structure from the checkpoint file:  "1-1-diisocyanato-2-sulfanylethane.chk"
 Charge =  0 Multiplicity = 1

                         Standard orientation:
 ---------------------------------------------------------------------
 Center     Atomic      Atomic             Coordinates (Angstroms)
 Number     Number       Type             X           Y           Z
 ---------------------------------------------------------------------
      1         16           0       -1.960908   -0.984786   -0.704762
      2          8           0       -0.911149    2.680262   -0.504844
      3          8           0        3.424680   -0.179183   -0.597952
      4          7           0       -0.053917    1.049338    0.982459
      5          7           0        1.194387   -0.739778   -0.030324
      6          6           0        0.229652   -0.361475    0.989131
      7          6           0       -1.027868   -1.225362    0.844298
      8          6           0       -0.515341    1.815052    0.167561
      9          6           0        2.331372   -0.414621   -0.267512
     10          1           0       -1.018139   -1.475813   -1.529627
     11          1           0        0.662672   -0.584117    1.965684
     12          1           0       -1.719705   -0.969386    1.644141
     13          1           0       -0.748716   -2.271237    0.952542
 ---------------------------------------------------------------------

 SCF Done:  E(RHF) =  -810.478111998     A.U. after    2 cycles

 The electronic state is 1-A.
 Alpha  occ. eigenvalues --  -93.96971 -20.61849 -20.61041 -15.54559 -15.53941
 Alpha  occ. eigenvalues --  -11.43269 -11.42775 -11.38422 -11.30252  -8.25051
 Alpha  occ. eigenvalues --   -6.22896  -6.22753  -6.22530  -1.56431  -1.55701
 Alpha  occ. eigenvalues --   -1.32922  -1.27666  -1.12338  -1.03213  -0.90347
 Alpha  occ. eigenvalues --   -0.86256  -0.75487  -0.74517  -0.73880  -0.70761
 Alpha  occ. eigenvalues --   -0.67576  -0.66550  -0.65440  -0.63331  -0.62016
 Alpha  occ. eigenvalues --   -0.55689  -0.53096  -0.49357  -0.48572  -0.47261
 Alpha  occ. eigenvalues --   -0.46297  -0.38977
 Alpha virt. eigenvalues --    0.02601   0.04139   0.04390   0.04909   0.07337
 Alpha virt. eigenvalues --    0.07816   0.08097   0.08773   0.09437   0.10303
 Alpha virt. eigenvalues --    0.12016   0.12720   0.13010   0.13264   0.13492

 Mulliken charges:
               1
     1  S    0.029807
     2  O   -0.829488
     3  O   -0.869040
     4  N    1.079357
     5  N    1.148909
     6  C   -1.664487
     7  C   -0.391409
     8  C    0.325825
     9  C    0.330740
    10  H    0.390857
    11  H    0.024924
    12  H    0.249209
    13  H    0.174796
 Sum of Mulliken charges =  -0.00000

 Dipole moment (field-independent basis, Debye):
    X=             -0.0853    Y=             -2.2625    Z=              1.8807  Tot=              2.9433

 Test job not archived.
 1\1\GINC-SE196\SP\RHF\Aug-CC-pVDZ\C4H4N2O2S1\OHZDE\05-Apr-2025\0\\#t h
 f aug-cc-pvdz iop(5/13=1,5/36=2,99/5=2) pseudo=read geom=check guess=(
 read,tcheck) scf=(maxcycle=1)\\title\\0,1\S,0,-1.960908,-0.984786,-0.7
 04762\O,0,-0.911149,2.680262,-0.504844\O,0,3.42468,-0.179183,-0.597952
 \N,0,-0.053917,1.049338,0.982459\N,0,1.194387,-0.739778,-0.030324\C,0,
 0.229652,-0.361475,0.989131\C,0,-1.027868,-1.225362,0.844298\C,0,-0.51
 5341,1.815052,0.167561\C,0,2.331372,-0.414621,-0.267512\H,0,-1.018139,
 -1.475813,-1.529627\H,0,0.662672,-0.584117,1.965684\H,0,-1.719705,-0.9

 Normal termination of Gaussian 16 at Sat Apr  5 22:18:04 2025.
