 Gaussian 16, Revision C.01,

 ----------------------------------------------------------------------
 #t hf aug-cc-pvdz symm=none int=(grid=ultrafine) guess=(read,tcheck) s
 table=(opt,rrhf)
 ----------------------------------------------------------------------
 -----
 title
 -----
 Symbolic Z-matrix:
 Charge =  0 Multiplicity = 1

 SCF Done:  E(RHF) =  -228.295066913     A.U. after   12 cycles

 1\1\GINC-SE165\Stability\RHF\Aug-CC-pVDZ\C3H10N2\OHZDE\05-Apr-2025\0\\
 #t hf aug-cc-pvdz symm=none int=(grid=ultrafine) guess=(read,tcheck) s
 table=(opt,rrhf)\\title\\0,1\C,0,1.979205,-0.084993,-0.208488\C,0,-1.5
 23606,-0.931315,-0.078157\C,0,-0.762496,1.356133,0.045941\N,0,0.728676
 ,-0.487073,0.41836\N,0,-0.413231,-0.017131,-0.292792\H,0,2.801931,-0.4
 42661,0.411618\H,0,2.096531,0.998915,-0.34016\H,0,2.053124,-0.556251,-
 1.187265\H,0,-1.22329,-1.932786,-0.375989\H,0,-2.371774,-0.616432,-0.6
 8676\H,0,-1.848711,-0.963839,0.974835\H,0,-1.044241,1.465794,1.107744\

 Normal termination of Gaussian 16 at Sat Apr  5 22:16:04 2025.
 Gaussian 16:  ES64L-G16RevC.01  3-Jul-2019

 ----------------------------------------------------------------------
 #t hf aug-cc-pvdz iop(5/13=1,5/36=2,99/5=2) pseudo=read geom=check gue
 ss=(read,tcheck) scf=(maxcycle=1)
 ----------------------------------------------------------------------
 -----
 title
 -----
 Structure from the checkpoint file:  "1-1-2-trimethylhydrazine.chk"
 Charge =  0 Multiplicity = 1

                         Standard orientation:
 ---------------------------------------------------------------------
 Center     Atomic      Atomic             Coordinates (Angstroms)
 Number     Number       Type             X           Y           Z
 ---------------------------------------------------------------------
      1          6           0        1.979205   -0.084993   -0.208488
      2          6           0       -1.523606   -0.931315   -0.078157
      3          6           0       -0.762496    1.356133    0.045941
      4          7           0        0.728676   -0.487073    0.418360
      5          7           0       -0.413231   -0.017131   -0.292792
      6          1           0        2.801931   -0.442661    0.411618
      7          1           0        2.096531    0.998915   -0.340160
      8          1           0        2.053124   -0.556251   -1.187265
      9          1           0       -1.223290   -1.932786   -0.375989
     10          1           0       -2.371774   -0.616432   -0.686760
     11          1           0       -1.848711   -0.963839    0.974835
     12          1           0       -1.044241    1.465794    1.107744
     13          1           0       -1.603731    1.682831   -0.565341
     14          1           0        0.077866    2.017471   -0.159362
     15          1           0        0.695565   -0.162564    1.385928
 ---------------------------------------------------------------------

 SCF Done:  E(RHF) =  -228.547923338     A.U. after    2 cycles

 The electronic state is 1-A.
 Alpha  occ. eigenvalues --  -15.51131 -15.50542 -11.25215 -11.24750 -11.24477
 Alpha  occ. eigenvalues --   -1.28170  -1.10523  -0.96259  -0.91970  -0.83609
 Alpha  occ. eigenvalues --   -0.70704  -0.67043  -0.65677  -0.60957  -0.56809
 Alpha  occ. eigenvalues --   -0.55976  -0.54766  -0.52743  -0.52552  -0.41878
 Alpha  occ. eigenvalues --   -0.40396
 Alpha virt. eigenvalues --    0.03809   0.04815   0.05014   0.05144   0.05673
 Alpha virt. eigenvalues --    0.06013   0.06262   0.07061   0.07603   0.10089
 Alpha virt. eigenvalues --    0.13230   0.13483   0.14712   0.15206   0.15870

 Mulliken charges:
               1
     1  C   -0.320890
     2  C   -0.319163
     3  C   -0.328634
     4  N   -0.035838
     5  N   -0.151294
     6  H    0.049137
     7  H    0.114372
     8  H    0.095134
     9  H    0.054459
    10  H    0.103321
    11  H    0.196078
    12  H    0.188076
    13  H    0.090416
    14  H    0.039058
    15  H    0.225768
 Sum of Mulliken charges =  -0.00000

 Dipole moment (field-independent basis, Debye):
    X=             -0.1851    Y=              1.2332    Z=              0.8913  Tot=              1.5328

 Test job not archived.
 1\1\GINC-SE165\SP\RHF\Aug-CC-pVDZ\C3H10N2\OHZDE\05-Apr-2025\0\\#t hf a
 ug-cc-pvdz iop(5/13=1,5/36=2,99/5=2) pseudo=read geom=check guess=(rea
 d,tcheck) scf=(maxcycle=1)\\title\\0,1\C,0,1.979205,-0.084993,-0.20848
 8\C,0,-1.523606,-0.931315,-0.078157\C,0,-0.762496,1.356133,0.045941\N,
 0,0.728676,-0.487073,0.41836\N,0,-0.413231,-0.017131,-0.292792\H,0,2.8
 01931,-0.442661,0.411618\H,0,2.096531,0.998915,-0.34016\H,0,2.053124,-
 0.556251,-1.187265\H,0,-1.22329,-1.932786,-0.375989\H,0,-2.371774,-0.6
 16432,-0.68676\H,0,-1.848711,-0.963839,0.974835\H,0,-1.044241,1.465794

 Normal termination of Gaussian 16 at Sat Apr  5 22:16:53 2025.
