 Gaussian 16, Revision C.01,

 ----------------------------------------------------------------------
 #t hf aug-cc-pvdz symm=none int=(grid=ultrafine) guess=(read,tcheck) s
 table=(opt,rrhf)
 ----------------------------------------------------------------------
 -----
 title
 -----
 Symbolic Z-matrix:
 Charge =  0 Multiplicity = 1

 SCF Done:  E(RHF) =  -766.243409450     A.U. after   14 cycles
 Normal termination of Gaussian 16 at Sat Apr  5 22:14:50 2025.
 Gaussian 16:  ES64L-G16RevC.01  3-Jul-2019

 ----------------------------------------------------------------------
 #t hf aug-cc-pvdz iop(5/13=1,5/36=2,99/5=2) pseudo=read geom=check gue
 ss=(read,tcheck) scf=(maxcycle=1)
 ----------------------------------------------------------------------
 -----
 title
 -----
 Structure from the checkpoint file:  "1-1-difluoro-2-isothiocyanatoethane.chk"
 Charge =  0 Multiplicity = 1

                         Standard orientation:
 ---------------------------------------------------------------------
 Center     Atomic      Atomic             Coordinates (Angstroms)
 Number     Number       Type             X           Y           Z
 ---------------------------------------------------------------------
      1         16           0        3.207011    0.103485   -0.057042
      2          9           0       -1.915460    1.328253   -0.160483
      3          9           0       -3.079188   -0.540242   -0.097326
      4          7           0        0.482209   -0.239691    0.285694
      5          6           0       -1.923576    0.054593    0.324835
      6          6           0       -0.750694   -0.732182   -0.236127
      7          6           0        1.650101   -0.112516    0.094338
      8          1           0       -1.934452    0.106448    1.414038
      9          1           0       -0.774486   -0.657000   -1.325535
     10          1           0       -0.881854   -1.778836    0.046326
 ---------------------------------------------------------------------

 SCF Done:  E(RHF) =  -766.651201349     A.U. after    2 cycles

 The electronic state is 1-A.
 Alpha  occ. eigenvalues --  -93.95771 -26.49595 -26.49199 -15.56263 -11.44080
 Alpha  occ. eigenvalues --  -11.39849 -11.33862  -8.24051  -6.21947  -6.21520
 Alpha  occ. eigenvalues --   -6.21481  -1.65971  -1.59200  -1.31827  -1.11690
 Alpha  occ. eigenvalues --   -1.06619  -0.93618  -0.82347  -0.78181  -0.76299
 Alpha  occ. eigenvalues --   -0.72809  -0.68728  -0.65158  -0.63642  -0.62305
 Alpha  occ. eigenvalues --   -0.61662  -0.59720  -0.56402  -0.53298  -0.39769
 Alpha  occ. eigenvalues --   -0.38720
 Alpha virt. eigenvalues --    0.02954   0.04072   0.05102   0.06833   0.07485
 Alpha virt. eigenvalues --    0.08258   0.09821   0.10010   0.10155   0.10866
 Alpha virt. eigenvalues --    0.12256   0.13596   0.14622   0.15151   0.15991

 Mulliken charges:
               1
     1  S    0.302527
     2  F   -0.730618
     3  F   -0.730509
     4  N    0.734938
     5  C    1.739331
     6  C   -0.533120
     7  C   -1.107169
     8  H    0.069014
     9  H    0.105810
    10  H    0.149796
 Sum of Mulliken charges =   0.00000

 Dipole moment (field-independent basis, Debye):
    X=             -0.6984    Y=             -1.7315    Z=              0.2578  Tot=              1.8848

 Test job not archived.
 1\1\GINC-SE045\SP\RHF\Aug-CC-pVDZ\C3H3F2N1S1\OHZDE\05-Apr-2025\0\\#t h
 f aug-cc-pvdz iop(5/13=1,5/36=2,99/5=2) pseudo=read geom=check guess=(
 read,tcheck) scf=(maxcycle=1)\\title\\0,1\S,0,3.207011,0.103485,-0.057
 042\F,0,-1.91546,1.328253,-0.160483\F,0,-3.079188,-0.540242,-0.097326\
 N,0,0.482209,-0.239691,0.285694\C,0,-1.923576,0.054593,0.324835\C,0,-0
 .750694,-0.732182,-0.236127\C,0,1.650101,-0.112516,0.094338\H,0,-1.934
 452,0.106448,1.414038\H,0,-0.774486,-0.657,-1.325535\H,0,-0.881854,-1.
 778836,0.046326\\Version=ES64L-G16RevC.01\State=1-A\HF=-766.6512013\RM

 Normal termination of Gaussian 16 at Sat Apr  5 22:15:47 2025.
