 Gaussian 16, Revision C.01,

 ----------------------------------------------------------------------
 #t hf aug-cc-pvdz symm=none int=(grid=ultrafine) guess=(read,tcheck) s
 table=(opt,rrhf)
 ----------------------------------------------------------------------
 -----
 title
 -----
 Symbolic Z-matrix:
 Charge =  0 Multiplicity = 1

 SCF Done:  E(RHF) =  -1293.68979987     A.U. after   12 cycles
 Normal termination of Gaussian 16 at Sat Apr  5 22:15:53 2025.
 Gaussian 16:  ES64L-G16RevC.01  3-Jul-2019

 ----------------------------------------------------------------------
 #t hf aug-cc-pvdz iop(5/13=1,5/36=2,99/5=2) pseudo=read geom=check gue
 ss=(read,tcheck) scf=(maxcycle=1)
 ----------------------------------------------------------------------
 -----
 title
 -----
 Structure from the checkpoint file:  "1-1-dichloro-2-2-2-trifluoroethane.chk"
 Charge =  0 Multiplicity = 1

                         Standard orientation:
 ---------------------------------------------------------------------
 Center     Atomic      Atomic             Coordinates (Angstroms)
 Number     Number       Type             X           Y           Z
 ---------------------------------------------------------------------
      1          6           0        0.566910   -0.338873   -0.000000
      2          6           0       -0.170872    1.010509    0.000000
      3          1           0        1.633086   -0.144099   -0.000000
      4         17           0        0.182082   -1.256529    1.476575
      5         17           0        0.182082   -1.256529   -1.476575
      6          9           0       -1.497512    0.873510    0.000000
      7          9           0        0.182082    1.720816    1.083344
      8          9           0        0.182082    1.720816   -1.083344
 ---------------------------------------------------------------------

 SCF Done:  E(RHF) =  -1294.18526210     A.U. after    2 cycles

 The electronic state is 1-A'.
 Alpha  occ. eigenvalues -- -105.60558-105.60558 -26.52800 -26.52796 -26.52735
 Alpha  occ. eigenvalues --  -11.55227 -11.41666 -10.65381 -10.65379  -7.82334
 Alpha  occ. eigenvalues --   -7.82330  -7.81902  -7.81900  -7.81888  -7.81887
 Alpha  occ. eigenvalues --   -1.73961  -1.63817  -1.63622  -1.20688  -1.07918
 Alpha  occ. eigenvalues --   -1.01522  -0.90976  -0.83890  -0.83307  -0.79820
 Alpha  occ. eigenvalues --   -0.71412  -0.70923  -0.67477  -0.66075  -0.64762
 Alpha  occ. eigenvalues --   -0.64062  -0.61574  -0.61456  -0.50888  -0.50558
 Alpha  occ. eigenvalues --   -0.48333  -0.47811
 Alpha virt. eigenvalues --    0.03802   0.06926   0.07685   0.08182   0.10459
 Alpha virt. eigenvalues --    0.11639   0.11934   0.13063   0.13548   0.15397
 Alpha virt. eigenvalues --    0.15943   0.16880   0.17134   0.18054   0.19211

 Mulliken charges:
               1
     1  C   -1.097328
     2  C    2.758272
     3  H    0.341254
     4  Cl   0.049072
     5  Cl   0.049072
     6  F   -0.689082
     7  F   -0.705630
     8  F   -0.705630
 Sum of Mulliken charges =  -0.00000

 Dipole moment (field-independent basis, Debye):
    X=              1.3702    Y=             -0.2460    Z=              0.0000  Tot=              1.3922

 Test job not archived.
 1\1\GINC-SE176\SP\RHF\Aug-CC-pVDZ\C2H1Cl2F3\OHZDE\05-Apr-2025\0\\#t hf
  aug-cc-pvdz iop(5/13=1,5/36=2,99/5=2) pseudo=read geom=check guess=(r
 ead,tcheck) scf=(maxcycle=1)\\title\\0,1\C,0,0.56691,-0.338873,0.\C,0,
 -0.170872,1.010509,0.\H,0,1.633086,-0.144099,0.\Cl,0,0.182082,-1.25652
 9,1.476575\Cl,0,0.182082,-1.256529,-1.476575\F,0,-1.497512,0.87351,0.\
 F,0,0.182082,1.720816,1.083344\F,0,0.182082,1.720816,-1.083344\\Versio
 n=ES64L-G16RevC.01\State=1-A'\HF=-1294.1852621\RMSD=5.159e-03\Dipole=0
 .5390955,-0.0967933,0.\Quadrupole=1.473623,-1.1748115,-0.2988115,0.213

 Normal termination of Gaussian 16 at Sat Apr  5 22:15:57 2025.
