 Gaussian 16, Revision C.01,

 ----------------------------------------------------------------------
 #t hf aug-cc-pvdz symm=none int=(grid=ultrafine) guess=(read,tcheck) s
 table=(opt,rrhf)
 ----------------------------------------------------------------------
 -----
 title
 -----
 Symbolic Z-matrix:
 Charge =  0 Multiplicity = 1

 SCF Done:  E(RHF) =  -1495.03171242     A.U. after   13 cycles

 1\1\GINC-SE196\Stability\RHF\Aug-CC-pVDZ\C3H5Cl3\OHZDE\05-Apr-2025\0\\
 #t hf aug-cc-pvdz symm=none int=(grid=ultrafine) guess=(read,tcheck) s
 table=(opt,rrhf)\\title\\0,1\C,0,2.201897,-1.170837,0.\C,0,1.510358,0.
 188385,0.\C,0,-0.01435,0.15262,0.\Cl,0,-0.646271,1.840726,0.\Cl,0,-0.6
 46271,-0.685884,1.463336\Cl,0,-0.646271,-0.685884,-1.463336\H,0,1.9421
 56,-1.75156,-0.883333\H,0,3.281345,-1.02085,0.\H,0,1.942156,-1.75156,0
 .883333\H,0,1.803357,0.765336,-0.877934\H,0,1.803357,0.765336,0.877934
 \\Version=ES64L-G16RevC.01\HF=-1495.0317124\RMSD=3.210e-09\Dipole=0.88

 Normal termination of Gaussian 16 at Sat Apr  5 22:14:00 2025.
 Gaussian 16:  ES64L-G16RevC.01  3-Jul-2019

 ----------------------------------------------------------------------
 #t hf aug-cc-pvdz iop(5/13=1,5/36=2,99/5=2) pseudo=read geom=check gue
 ss=(read,tcheck) scf=(maxcycle=1)
 ----------------------------------------------------------------------
 -----
 title
 -----
 Structure from the checkpoint file:  "1-1-1-trichloropropane.chk"
 Charge =  0 Multiplicity = 1

                         Standard orientation:
 ---------------------------------------------------------------------
 Center     Atomic      Atomic             Coordinates (Angstroms)
 Number     Number       Type             X           Y           Z
 ---------------------------------------------------------------------
      1          6           0        2.201897   -1.170837   -0.000000
      2          6           0        1.510358    0.188385   -0.000000
      3          6           0       -0.014350    0.152620    0.000000
      4         17           0       -0.646271    1.840726    0.000000
      5         17           0       -0.646271   -0.685884    1.463336
      6         17           0       -0.646271   -0.685884   -1.463336
      7          1           0        1.942156   -1.751560   -0.883333
      8          1           0        3.281345   -1.020850   -0.000000
      9          1           0        1.942156   -1.751560    0.883333
     10          1           0        1.803357    0.765336   -0.877934
     11          1           0        1.803357    0.765336    0.877934
 ---------------------------------------------------------------------

 SCF Done:  E(RHF) =  -1495.38463837     A.U. after    2 cycles

 The electronic state is 1-A'.
 Alpha  occ. eigenvalues -- -105.58920-105.58919-105.58882 -11.44649 -11.27512
 Alpha  occ. eigenvalues --  -11.24479 -10.63753 -10.63749 -10.63702  -7.80698
 Alpha  occ. eigenvalues --   -7.80692  -7.80647  -7.80279  -7.80277  -7.80276
 Alpha  occ. eigenvalues --   -7.80272  -7.80228  -7.80225  -1.21607  -1.06268
 Alpha  occ. eigenvalues --   -1.06205  -1.05690  -0.91316  -0.78822  -0.67591
 Alpha  occ. eigenvalues --   -0.66461  -0.63508  -0.60467  -0.56206  -0.54398
 Alpha  occ. eigenvalues --   -0.52080  -0.50529  -0.50006  -0.47271  -0.46551
 Alpha  occ. eigenvalues --   -0.46473  -0.45297
 Alpha virt. eigenvalues --    0.03546   0.04617   0.04853   0.05615   0.07015
 Alpha virt. eigenvalues --    0.08656   0.09379   0.09862   0.10233   0.12693
 Alpha virt. eigenvalues --    0.13744   0.14970   0.15429   0.15857   0.16098

 Mulliken charges:
               1
     1  C   -0.314330
     2  C    0.139310
     3  C   -0.988837
     4  Cl   0.109689
     5  Cl   0.076370
     6  Cl   0.076370
     7  H    0.184768
     8  H    0.156159
     9  H    0.184768
    10  H    0.187867
    11  H    0.187867
 Sum of Mulliken charges =   0.00000

 Dipole moment (field-independent basis, Debye):
    X=              2.2332    Y=             -0.1870    Z=              0.0000  Tot=              2.2410

 Test job not archived.
 1\1\GINC-SE196\SP\RHF\Aug-CC-pVDZ\C3H5Cl3\OHZDE\05-Apr-2025\0\\#t hf a
 ug-cc-pvdz iop(5/13=1,5/36=2,99/5=2) pseudo=read geom=check guess=(rea
 d,tcheck) scf=(maxcycle=1)\\title\\0,1\C,0,2.201897,-1.170837,0.\C,0,1
 .510358,0.188385,0.\C,0,-0.01435,0.15262,0.\Cl,0,-0.646271,1.840726,0.
 \Cl,0,-0.646271,-0.685884,1.463336\Cl,0,-0.646271,-0.685884,-1.463336\
 H,0,1.942156,-1.75156,-0.883333\H,0,3.281345,-1.02085,0.\H,0,1.942156,
 -1.75156,0.883333\H,0,1.803357,0.765336,-0.877934\H,0,1.803357,0.76533
 6,0.877934\\Version=ES64L-G16RevC.01\State=1-A'\HF=-1495.3846384\RMSD=

 Normal termination of Gaussian 16 at Sat Apr  5 22:14:40 2025.
