 Gaussian 16, Revision C.01,

 ----------------------------------------------------------------------
 #t hf aug-cc-pvdz symm=none int=(grid=ultrafine) guess=(read,tcheck) s
 table=(opt,rrhf)
 ----------------------------------------------------------------------
 -----
 title
 -----
 Symbolic Z-matrix:
 Charge =  0 Multiplicity = 1

 SCF Done:  E(RHF) =  -1056.55323492     A.U. after   16 cycles
 Normal termination of Gaussian 16 at Sat Apr  5 22:17:13 2025.
 Gaussian 16:  ES64L-G16RevC.01  3-Jul-2019

 ----------------------------------------------------------------------
 #t hf aug-cc-pvdz iop(5/13=1,5/36=2,99/5=2) pseudo=read geom=check gue
 ss=(read,tcheck) scf=(maxcycle=1)
 ----------------------------------------------------------------------
 -----
 title
 -----
 Structure from the checkpoint file:  "1-1-dithiocyanatoethene.chk"
 Charge =  0 Multiplicity = 1

                         Standard orientation:
 ---------------------------------------------------------------------
 Center     Atomic      Atomic             Coordinates (Angstroms)
 Number     Number       Type             X           Y           Z
 ---------------------------------------------------------------------
      1         16           0        0.913405   -0.731150   -0.602876
      2         16           0       -1.659560    0.749648   -0.498267
      3          7           0        3.513666   -0.356225    0.501355
      4          7           0       -2.753361   -1.506382    0.868888
      5          6           0        0.061580    0.725895    0.003060
      6          6           0        2.453147   -0.497661    0.065289
      7          6           0       -2.270244   -0.603474    0.334802
      8          6           0        0.589938    1.764744    0.634480
      9          1           0        1.649607    1.825737    0.840445
     10          1           0       -0.039790    2.579515    0.960377
 ---------------------------------------------------------------------

 SCF Done:  E(RHF) =  -1056.91885326     A.U. after    2 cycles

 The electronic state is 1-A.
 Alpha  occ. eigenvalues --  -94.05215 -94.04873 -15.55150 -15.54715 -11.36604
 Alpha  occ. eigenvalues --  -11.32780 -11.32400 -11.30653  -8.33142  -8.32865
 Alpha  occ. eigenvalues --   -6.30979  -6.30770  -6.30709  -6.30535  -6.30479
 Alpha  occ. eigenvalues --   -6.30234  -1.27136  -1.26632  -1.20481  -1.11121
 Alpha  occ. eigenvalues --   -1.05460  -0.84763  -0.74900  -0.72262  -0.67286
 Alpha  occ. eigenvalues --   -0.64642  -0.62544  -0.60562  -0.58181  -0.57692
 Alpha  occ. eigenvalues --   -0.57450  -0.52844  -0.50606  -0.49942  -0.43449
 Alpha  occ. eigenvalues --   -0.39760
 Alpha virt. eigenvalues --    0.02783   0.04405   0.04630   0.05095   0.05686
 Alpha virt. eigenvalues --    0.07036   0.07404   0.08596   0.09362   0.10495
 Alpha virt. eigenvalues --    0.11071   0.11471   0.12723   0.13198   0.13318

 Mulliken charges:
               1
     1  S    0.992900
     2  S    0.695914
     3  N    0.830915
     4  N    0.751750
     5  C   -0.280704
     6  C   -1.687703
     7  C   -1.456554
     8  C    0.135825
     9  H    0.068399
    10  H   -0.050741
 Sum of Mulliken charges =  -0.00000

 Dipole moment (field-independent basis, Debye):
    X=             -0.8940    Y=              4.0621    Z=             -1.9666  Tot=              4.6008

 Test job not archived.
 1\1\GINC-SE041\SP\RHF\Aug-CC-pVDZ\C4H2N2S2\OHZDE\05-Apr-2025\0\\#t hf
 aug-cc-pvdz iop(5/13=1,5/36=2,99/5=2) pseudo=read geom=check guess=(re
 ad,tcheck) scf=(maxcycle=1)\\title\\0,1\S,0,0.913405,-0.73115,-0.60287
 6\S,0,-1.65956,0.749648,-0.498267\N,0,3.513666,-0.356225,0.501355\N,0,
 -2.753361,-1.506382,0.868888\C,0,0.06158,0.725895,0.00306\C,0,2.453147
 ,-0.497661,0.065289\C,0,-2.270244,-0.603474,0.334802\C,0,0.589938,1.76
 4744,0.63448\H,0,1.649607,1.825737,0.840445\H,0,-0.03979,2.579515,0.96
 0377\\Version=ES64L-G16RevC.01\State=1-A\HF=-1056.9188533\RMSD=1.688e-

 Normal termination of Gaussian 16 at Sat Apr  5 22:18:03 2025.
