 Gaussian 16, Revision C.01,

 ----------------------------------------------------------------------
 #t hf aug-cc-pvdz symm=none int=(grid=ultrafine) guess=(read,tcheck) s
 table=(opt,rrhf)
 ----------------------------------------------------------------------
 -----
 title
 -----
 Symbolic Z-matrix:
 Charge =  0 Multiplicity = 1

 SCF Done:  E(RHF) =  -276.982402730     A.U. after   11 cycles
 Normal termination of Gaussian 16 at Sat Apr  5 22:16:54 2025.
 Gaussian 16:  ES64L-G16RevC.01  3-Jul-2019

 ----------------------------------------------------------------------
 #t hf aug-cc-pvdz iop(5/13=1,5/36=2,99/5=2) pseudo=read geom=check gue
 ss=(read,tcheck) scf=(maxcycle=1)
 ----------------------------------------------------------------------
 -----
 title
 -----
 Structure from the checkpoint file:  "1-1-difluoroethane.chk"
 Charge =  0 Multiplicity = 1

                         Standard orientation:
 ---------------------------------------------------------------------
 Center     Atomic      Atomic             Coordinates (Angstroms)
 Number     Number       Type             X           Y           Z
 ---------------------------------------------------------------------
      1          6           0        0.898943    1.042679   -0.000000
      2          6           0       -0.321603    0.166943    0.000000
      3          9           0       -0.321603   -0.652153    1.102135
      4          9           0       -0.321603   -0.652153   -1.102135
      5          1           0        1.793325    0.421274   -0.000000
      6          1           0        0.899762    1.674835   -0.886681
      7          1           0        0.899762    1.674835    0.886681
      8          1           0       -1.268028    0.710080    0.000000
 ---------------------------------------------------------------------

 SCF Done:  E(RHF) =  -277.250029855     A.U. after    2 cycles

 The electronic state is 1-A'.
 Alpha  occ. eigenvalues --  -26.46926 -26.46924 -11.41644 -11.25315  -1.63210
 Alpha  occ. eigenvalues --   -1.56532  -1.05063  -0.88634  -0.76377  -0.73686
 Alpha  occ. eigenvalues --   -0.71208  -0.63625  -0.60625  -0.59797  -0.57174
 Alpha  occ. eigenvalues --   -0.56489  -0.51575
 Alpha virt. eigenvalues --    0.03475   0.04252   0.05247   0.06315   0.10816
 Alpha virt. eigenvalues --    0.11563   0.11581   0.14189   0.15449   0.15852
 Alpha virt. eigenvalues --    0.16786   0.20759   0.24035   0.25953   0.28306

 Mulliken charges:
               1
     1  C   -0.571381
     2  C    1.412520
     3  F   -0.718760
     4  F   -0.718760
     5  H    0.182302
     6  H    0.186209
     7  H    0.186209
     8  H    0.041659
 Sum of Mulliken charges =   0.00000

 Dipole moment (field-independent basis, Debye):
    X=              0.3429    Y=              2.3614    Z=              0.0000  Tot=              2.3861

 Test job not archived.
 1\1\GINC-SE158\SP\RHF\Aug-CC-pVDZ\C2H4F2\OHZDE\05-Apr-2025\0\\#t hf au
 g-cc-pvdz iop(5/13=1,5/36=2,99/5=2) pseudo=read geom=check guess=(read
 ,tcheck) scf=(maxcycle=1)\\title\\0,1\C,0,0.898943,1.042679,0.\C,0,-0.
 321603,0.166943,0.\F,0,-0.321603,-0.652153,1.102135\F,0,-0.321603,-0.6
 52153,-1.102135\H,0,1.793325,0.421274,0.\H,0,0.899762,1.674835,-0.8866
 81\H,0,0.899762,1.674835,0.886681\H,0,-1.268028,0.71008,0.\\Version=ES
 64L-G16RevC.01\State=1-A'\HF=-277.2500299\RMSD=6.576e-03\Dipole=0.1349
 239,0.9290286,0.\Quadrupole=1.453057,0.2664381,-1.7194951,-0.4082397,0

 Normal termination of Gaussian 16 at Sat Apr  5 22:18:00 2025.
