 Gaussian 16, Revision C.01,

 ----------------------------------------------------------------------
 #t hf aug-cc-pvdz symm=none int=(grid=ultrafine) guess=(read,tcheck) s
 table=(opt,rrhf)
 ----------------------------------------------------------------------
 -----
 title
 -----
 Symbolic Z-matrix:
 Charge =  0 Multiplicity = 1

 SCF Done:  E(RHF) =  -559.233399239     A.U. after   15 cycles
 Normal termination of Gaussian 16 at Sat Apr  5 22:15:54 2025.
 Gaussian 16:  ES64L-G16RevC.01  3-Jul-2019

 ----------------------------------------------------------------------
 #t hf aug-cc-pvdz iop(5/13=1,5/36=2,99/5=2) pseudo=read geom=check gue
 ss=(read,tcheck) scf=(maxcycle=1)
 ----------------------------------------------------------------------
 -----
 title
 -----
 Structure from the checkpoint file:  "1-1-3-4-oxadiazol-2-yl-3H-imidazol-2-one.chk"
 Charge =  0 Multiplicity = 1

                         Standard orientation:
 ---------------------------------------------------------------------
 Center     Atomic      Atomic             Coordinates (Angstroms)
 Number     Number       Type             X           Y           Z
 ---------------------------------------------------------------------
      1          6           0       -0.749149   -2.765389    0.000000
      2          6           0       -0.579479   -0.671889    0.000000
      3          6           0        0.123559    2.779879    0.000000
      4          6           0       -0.748568    1.763546    0.000000
      5          6           0        1.389116    0.865788    0.000000
      6          7           0       -1.948842   -2.317880    0.000000
      7          7           0       -1.848213   -0.922014    0.000000
      8          7           0        1.407751    2.245729    0.000000
      9          7           0        0.000000    0.571384    0.000000
     10          8           0        2.321679    0.097408    0.000000
     11          8           0        0.193548   -1.775534    0.000000
     12          1           0       -0.403540   -3.783062    0.000000
     13          1           0       -0.057518    3.838204    0.000000
     14          1           0       -1.820876    1.742621    0.000000
     15          1           0        2.272372    2.755109    0.000000
 ---------------------------------------------------------------------

 SCF Done:  E(RHF) =  -559.781829255     A.U. after    2 cycles

 The electronic state is 1-A'.
 Alpha  occ. eigenvalues --  -20.65250 -20.52866 -15.59183 -15.57081 -15.54989
 Alpha  occ. eigenvalues --  -15.53634 -11.41680 -11.40430 -11.35300 -11.30837
 Alpha  occ. eigenvalues --  -11.30083  -1.61182  -1.48976  -1.36805  -1.32858
 Alpha  occ. eigenvalues --   -1.26724  -1.14339  -1.06348  -0.97113  -0.92808
 Alpha  occ. eigenvalues --   -0.87431  -0.85070  -0.78704  -0.76911  -0.73498
 Alpha  occ. eigenvalues --   -0.71480  -0.68239  -0.66708  -0.66632  -0.65074
 Alpha  occ. eigenvalues --   -0.64707  -0.56057  -0.54615  -0.52511  -0.51880
 Alpha  occ. eigenvalues --   -0.51504  -0.46573  -0.41849  -0.34708
 Alpha virt. eigenvalues --    0.02364   0.03696   0.04391   0.05219   0.07913
 Alpha virt. eigenvalues --    0.08214   0.08622   0.09114   0.09290   0.10080
 Alpha virt. eigenvalues --    0.11081   0.11914   0.12336   0.13181   0.13415

 Mulliken charges:
               1
     1  C    0.483760
     2  C   -0.210357
     3  C   -0.091900
     4  C    0.264393
     5  C    0.424612
     6  N    0.409992
     7  N    0.082943
     8  N    0.660748
     9  N    0.772372
    10  O   -1.165325
    11  O   -1.237011
    12  H   -0.075502
    13  H   -0.166181
    14  H   -0.182200
    15  H    0.029656
 Sum of Mulliken charges =  -0.00000

 Dipole moment (field-independent basis, Debye):
    X=              1.9899    Y=              3.4281    Z=              0.0000  Tot=              3.9638

 Test job not archived.
 1\1\GINC-SE196\SP\RHF\Aug-CC-pVDZ\C5H4N4O2\OHZDE\05-Apr-2025\0\\#t hf
 aug-cc-pvdz iop(5/13=1,5/36=2,99/5=2) pseudo=read geom=check guess=(re
 ad,tcheck) scf=(maxcycle=1)\\title\\0,1\C,0,-0.749149,-2.765389,0.\C,0
 ,-0.579479,-0.671889,0.\C,0,0.123559,2.779879,0.\C,0,-0.748568,1.76354
 6,0.\C,0,1.389116,0.865788,0.\N,0,-1.948842,-2.31788,0.\N,0,-1.848213,
 -0.922014,0.\N,0,1.407751,2.245729,0.\N,0,0.,0.571384,0.\O,0,2.321679,
 0.097408,0.\O,0,0.193548,-1.775534,0.\H,0,-0.40354,-3.783062,0.\H,0,-0
 .057518,3.838204,0.\H,0,-1.820876,1.742621,0.\H,0,2.272372,2.755109,0.

 Normal termination of Gaussian 16 at Sat Apr  5 22:16:49 2025.
