 Gaussian 16, Revision C.01,

 ----------------------------------------------------------------------
 #t hf aug-cc-pvdz symm=none int=(grid=ultrafine) guess=(read,tcheck) s
 table=(opt,rrhf)
 ----------------------------------------------------------------------
 -----
 title
 -----
 Symbolic Z-matrix:
 Charge =  0 Multiplicity = 1

 SCF Done:  E(RHF) =  -717.554207036     A.U. after   12 cycles
 Normal termination of Gaussian 16 at Sat Apr  5 22:16:50 2025.
 Gaussian 16:  ES64L-G16RevC.01  3-Jul-2019

 ----------------------------------------------------------------------
 #t hf aug-cc-pvdz iop(5/13=1,5/36=2,99/5=2) pseudo=read geom=check gue
 ss=(read,tcheck) scf=(maxcycle=1)
 ----------------------------------------------------------------------
 -----
 title
 -----
 Structure from the checkpoint file:  "1-1-1-trifluoro-2-2-2-trimethoxyethane.chk"
 Charge =  0 Multiplicity = 1

                         Standard orientation:
 ---------------------------------------------------------------------
 Center     Atomic      Atomic             Coordinates (Angstroms)
 Number     Number       Type             X           Y           Z
 ---------------------------------------------------------------------
      1          6           0        0.258551    2.382485    0.824917
      2          6           0        2.419735   -0.329564   -1.144869
      3          6           0        0.651201   -1.608396    1.651249
      4          6           0        0.344674    0.105814   -0.045876
      5          6           0       -1.170238   -0.211734   -0.324776
      6          8           0        0.585596    1.459026   -0.221890
      7          8           0        1.018793   -0.603637   -1.020083
      8          8           0        0.713817   -0.233280    1.257402
      9          9           0       -1.581732    0.353568   -1.464232
     10          9           0       -1.943092    0.265656    0.672940
     11          9           0       -1.406608   -1.532927   -0.413131
     12          1           0       -0.817667    2.438539    0.985805
     13          1           0        0.620818    3.344736    0.473213
     14          1           0        0.757168    2.116247    1.753875
     15          1           0        2.924788   -0.411859   -0.181994
     16          1           0        2.583857    0.662860   -1.559989
     17          1           0        2.802661   -1.084795   -1.825432
     18          1           0        1.042908   -2.260936    0.872164
     19          1           0       -0.370180   -1.902674    1.893061
     20          1           0        1.269350   -1.687276    2.541803
 ---------------------------------------------------------------------

 SCF Done:  E(RHF) =  -718.249727545     A.U. after    2 cycles

 The electronic state is 1-A.
 Alpha  occ. eigenvalues --  -26.50286 -26.50203 -26.49940 -20.57518 -20.57170
 Alpha  occ. eigenvalues --  -20.57045 -11.51336 -11.43341 -11.29667 -11.29244
 Alpha  occ. eigenvalues --  -11.29090  -1.71137  -1.60939  -1.60888  -1.56392
 Alpha  occ. eigenvalues --   -1.46703  -1.46138  -1.04606  -0.96644  -0.95358
 Alpha  occ. eigenvalues --   -0.94413  -0.85976  -0.80748  -0.80528  -0.78454
 Alpha  occ. eigenvalues --   -0.73174  -0.72795  -0.67981  -0.67711  -0.66728
 Alpha  occ. eigenvalues --   -0.65548  -0.64226  -0.63096  -0.62729  -0.61583
 Alpha  occ. eigenvalues --   -0.61456  -0.60547  -0.59847  -0.57341  -0.54359
 Alpha  occ. eigenvalues --   -0.51084  -0.49800  -0.46756  -0.45876  -0.44747
 Alpha virt. eigenvalues --    0.03370   0.04064   0.04226   0.05008   0.06112
 Alpha virt. eigenvalues --    0.06247   0.07012   0.07314   0.08864   0.08997
 Alpha virt. eigenvalues --    0.11332   0.12371   0.13002   0.13887   0.14315

 Mulliken charges:
               1
     1  C    0.066102
     2  C    0.051321
     3  C    0.183488
     4  C    3.328222
     5  C    2.860808
     6  O   -1.729187
     7  O   -1.647300
     8  O   -1.715888
     9  F   -0.802322
    10  F   -0.834370
    11  F   -0.793928
    12  H    0.133052
    13  H   -0.008525
    14  H    0.158971
    15  H    0.196364
    16  H    0.184545
    17  H    0.001494
    18  H    0.206615
    19  H    0.134279
    20  H    0.026259
 Sum of Mulliken charges =  -0.00000

 Dipole moment (field-independent basis, Debye):
    X=              2.3519    Y=              0.0041    Z=              1.7163  Tot=              2.9116

 Test job not archived.
 1\1\GINC-SE225\SP\RHF\Aug-CC-pVDZ\C5H9F3O3\OHZDE\05-Apr-2025\0\\#t hf
 aug-cc-pvdz iop(5/13=1,5/36=2,99/5=2) pseudo=read geom=check guess=(re
 ad,tcheck) scf=(maxcycle=1)\\title\\0,1\C,0,0.25855,2.382485,0.824917\
 C,0,2.419735,-0.329563,-1.144869\C,0,0.651202,-1.608396,1.651249\C,0,0
 .344674,0.105814,-0.045876\C,0,-1.170238,-0.211734,-0.324776\O,0,0.585
 595,1.459026,-0.22189\O,0,1.018793,-0.603637,-1.020083\O,0,0.713817,-0
 .23328,1.257402\F,0,-1.581732,0.353567,-1.464232\F,0,-1.943092,0.26565
 5,0.67294\F,0,-1.406607,-1.532928,-0.413131\H,0,-0.817668,2.438539,0.9

 Normal termination of Gaussian 16 at Sat Apr  5 22:17:03 2025.
