 Gaussian 16, Revision C.01,

 ----------------------------------------------------------------------
 #t hf aug-cc-pvdz symm=none int=(grid=ultrafine) guess=(read,tcheck) s
 table=(opt,rrhf)
 ----------------------------------------------------------------------
 -----
 title
 -----
 Symbolic Z-matrix:
 Charge =  0 Multiplicity = 1

 SCF Done:  E(RHF) =  -507.425402708     A.U. after   16 cycles
 Normal termination of Gaussian 16 at Sat Apr  5 22:19:30 2025.
 Gaussian 16:  ES64L-G16RevC.01  3-Jul-2019

 ----------------------------------------------------------------------
 #t hf aug-cc-pvdz iop(5/13=1,5/36=2,99/5=2) pseudo=read geom=check gue
 ss=(read,tcheck) scf=(maxcycle=1)
 ----------------------------------------------------------------------
 -----
 title
 -----
 Structure from the checkpoint file:  "1-1H-pyrrol-2-yl-3H-imidazol-2-one.chk"
 Charge =  0 Multiplicity = 1

                         Standard orientation:
 ---------------------------------------------------------------------
 Center     Atomic      Atomic             Coordinates (Angstroms)
 Number     Number       Type             X           Y           Z
 ---------------------------------------------------------------------
      1          6           0        2.000783   -2.375333   -0.000000
      2          6           0        1.952841   -0.953690   -0.000000
      3          6           0        0.709392   -2.839143    0.000000
      4          6           0        0.619213   -0.612080   -0.000000
      5          6           0       -0.282242    2.841230   -0.000000
      6          6           0        0.654875    1.876810   -0.000000
      7          6           0       -1.378739    0.841614    0.000000
      8          7           0       -0.129515   -1.752458    0.000000
      9          7           0       -1.520850    2.212219    0.000000
     10          7           0        0.000000    0.643566   -0.000000
     11          8           0       -2.261036   -0.010039    0.000000
     12          1           0        2.889351   -2.982383   -0.000000
     13          1           0        2.791003   -0.279563   -0.000000
     14          1           0        0.317417   -3.839971    0.000000
     15          1           0       -0.176176    3.909258   -0.000000
     16          1           0        1.724825    1.950503   -0.000000
     17          1           0       -1.139214   -1.728251    0.000000
     18          1           0       -2.423096    2.650993    0.000000
 ---------------------------------------------------------------------

 SCF Done:  E(RHF) =  -507.936958236     A.U. after    2 cycles

 The electronic state is 1-A'.
 Alpha  occ. eigenvalues --  -20.51649 -15.57194 -15.56249 -15.53831 -11.39913
 Alpha  occ. eigenvalues --  -11.30848 -11.29629 -11.29212 -11.25328 -11.21822
 Alpha  occ. eigenvalues --  -11.21760  -1.47395  -1.35672  -1.29998  -1.23235
 Alpha  occ. eigenvalues --   -1.05734  -1.05408  -1.00206  -0.90516  -0.88720
 Alpha  occ. eigenvalues --   -0.81720  -0.79654  -0.76842  -0.75785  -0.69646
 Alpha  occ. eigenvalues --   -0.67390  -0.65654  -0.63830  -0.63515  -0.61962
 Alpha  occ. eigenvalues --   -0.60815  -0.56943  -0.55072  -0.52453  -0.50687
 Alpha  occ. eigenvalues --   -0.45711  -0.37193  -0.35084  -0.28815
 Alpha virt. eigenvalues --    0.02608   0.03769   0.04004   0.04417   0.05309
 Alpha virt. eigenvalues --    0.07387   0.07999   0.08800   0.09178   0.09505
 Alpha virt. eigenvalues --    0.10808   0.11669   0.11818   0.12630   0.13485

 Mulliken charges:
               1
     1  C    0.290176
     2  C    1.396624
     3  C    0.085419
     4  C   -2.870005
     5  C   -0.252113
     6  C    0.620582
     7  C    0.224835
     8  N    1.160538
     9  N    0.832694
    10  N    1.038507
    11  O   -1.340809
    12  H   -0.174401
    13  H   -0.253427
    14  H   -0.254628
    15  H   -0.171926
    16  H   -0.329182
    17  H   -0.012173
    18  H    0.009288
 Sum of Mulliken charges =  -0.00000

 Dipole moment (field-independent basis, Debye):
    X=              0.8116    Y=              3.4765    Z=             -0.0000  Tot=              3.5700

 Test job not archived.
 1\1\GINC-SE052\SP\RHF\Aug-CC-pVDZ\C7H7N3O1\OHZDE\05-Apr-2025\0\\#t hf
 aug-cc-pvdz iop(5/13=1,5/36=2,99/5=2) pseudo=read geom=check guess=(re
 ad,tcheck) scf=(maxcycle=1)\\title\\0,1\C,0,2.000783,-2.375333,0.\C,0,
 1.952841,-0.95369,0.\C,0,0.709392,-2.839143,0.\C,0,0.619213,-0.61208,0
 .\C,0,-0.282242,2.84123,0.\C,0,0.654875,1.87681,0.\C,0,-1.378739,0.841
 614,0.\N,0,-0.129515,-1.752458,0.\N,0,-1.52085,2.212219,0.\N,0,0.,0.64
 3566,0.\O,0,-2.261036,-0.010039,0.\H,0,2.889351,-2.982383,0.\H,0,2.791
 003,-0.279563,0.\H,0,0.317417,-3.839971,0.\H,0,-0.176176,3.909258,0.\H

 Normal termination of Gaussian 16 at Sat Apr  5 22:20:45 2025.
