 Gaussian 16, Revision C.01,

 ----------------------------------------------------------------------
 #t hf aug-cc-pvdz symm=none int=(grid=ultrafine) guess=(read,tcheck) s
 table=(opt,rrhf)
 ----------------------------------------------------------------------
 -----
 title
 -----
 Symbolic Z-matrix:
 Charge =  0 Multiplicity = 1

 SCF Done:  E(RHF) =  -1181.65845865     A.U. after   16 cycles
 Normal termination of Gaussian 16 at Sat Apr  5 22:20:54 2025.
 Gaussian 16:  ES64L-G16RevC.01  3-Jul-2019

 ----------------------------------------------------------------------
 #t hf aug-cc-pvdz iop(5/13=1,5/36=2,99/5=2) pseudo=read geom=check gue
 ss=(read,tcheck) scf=(maxcycle=1)
 ----------------------------------------------------------------------
 -----
 title
 -----
 Structure from the checkpoint file:  "1-2-dichloro-1-2-dihydropyrimidine.chk"
 Charge =  0 Multiplicity = 1

                         Standard orientation:
 ---------------------------------------------------------------------
 Center     Atomic      Atomic             Coordinates (Angstroms)
 Number     Number       Type             X           Y           Z
 ---------------------------------------------------------------------
      1         17           0        0.166446    2.029748   -0.534405
      2         17           0       -2.226375   -0.504117    0.180096
      3          7           0       -0.509875   -0.569838    0.156783
      4          7           0        1.549944    0.221170    0.996445
      5          6           0        0.208766    0.520260    0.714401
      6          6           0        0.106052   -1.471911   -0.652182
      7          6           0        1.460676   -1.542010   -0.638384
      8          6           0        2.129257   -0.705879    0.304895
      9          1           0       -0.325278    0.953353    1.547915
     10          1           0       -0.533226   -2.118979   -1.232017
     11          1           0        1.984941   -2.262604   -1.244494
     12          1           0        3.183372   -0.869602    0.506885
 ---------------------------------------------------------------------

 SCF Done:  E(RHF) =  -1182.07509918     A.U. after    2 cycles

 The electronic state is 1-A.
 Alpha  occ. eigenvalues -- -105.63858-105.52699 -15.61965 -15.51702 -11.39368
 Alpha  occ. eigenvalues --  -11.34343 -11.32087 -11.25986 -10.68297 -10.57508
 Alpha  occ. eigenvalues --   -7.85283  -7.84782  -7.84725  -7.74394  -7.74080
 Alpha  occ. eigenvalues --   -7.74074  -1.36143  -1.25122  -1.12444  -1.08257
 Alpha  occ. eigenvalues --   -1.00775  -0.94517  -0.92085  -0.78240  -0.76574
 Alpha  occ. eigenvalues --   -0.71494  -0.69579  -0.65809  -0.64801  -0.60140
 Alpha  occ. eigenvalues --   -0.56956  -0.52240  -0.49878  -0.48155  -0.47113
 Alpha  occ. eigenvalues --   -0.43472  -0.43149  -0.35827
 Alpha virt. eigenvalues --    0.02731   0.03640   0.04158   0.04624   0.05578
 Alpha virt. eigenvalues --    0.05829   0.09049   0.09286   0.10297   0.11105
 Alpha virt. eigenvalues --    0.11994   0.12303   0.12450   0.12664   0.13969

 Mulliken charges:
               1
     1  Cl  -0.144057
     2  Cl   0.118499
     3  N    0.645337
     4  N    0.923799
     5  C   -1.017172
     6  C   -0.221390
     7  C    0.891348
     8  C   -0.816884
     9  H    0.060926
    10  H   -0.206114
    11  H   -0.142218
    12  H   -0.092074
 Sum of Mulliken charges =  -0.00000

 Dipole moment (field-independent basis, Debye):
    X=             -0.4073    Y=             -4.7579    Z=             -0.6727  Tot=              4.8224

 Test job not archived.
 1\1\GINC-SE164\SP\RHF\Aug-CC-pVDZ\C4H4Cl2N2\OHZDE\05-Apr-2025\0\\#t hf
  aug-cc-pvdz iop(5/13=1,5/36=2,99/5=2) pseudo=read geom=check guess=(r
 ead,tcheck) scf=(maxcycle=1)\\title\\0,1\Cl,0,0.166446,2.029748,-0.534
 405\Cl,0,-2.226375,-0.504117,0.180096\N,0,-0.509875,-0.569838,0.156783
 \N,0,1.549944,0.22117,0.996445\C,0,0.208766,0.52026,0.714401\C,0,0.106
 052,-1.471911,-0.652182\C,0,1.460676,-1.54201,-0.638384\C,0,2.129257,-
 0.705879,0.304895\H,0,-0.325278,0.953353,1.547915\H,0,-0.533226,-2.118
 979,-1.232017\H,0,1.984941,-2.262604,-1.244494\H,0,3.183372,-0.869602,

 Normal termination of Gaussian 16 at Sat Apr  5 22:21:01 2025.
