 Gaussian 16, Revision C.01,

 ----------------------------------------------------------------------
 #t hf aug-cc-pvdz symm=none int=(grid=ultrafine) guess=(read,tcheck) s
 table=(opt,rrhf)
 ----------------------------------------------------------------------
 -----
 title
 -----
 Symbolic Z-matrix:
 Charge =  0 Multiplicity = 1

 SCF Done:  E(RHF) =  -302.566604446     A.U. after   13 cycles
 Normal termination of Gaussian 16 at Sat Apr  5 22:18:28 2025.
 Gaussian 16:  ES64L-G16RevC.01  3-Jul-2019

 ----------------------------------------------------------------------
 #t hf aug-cc-pvdz iop(5/13=1,5/36=2,99/5=2) pseudo=read geom=check gue
 ss=(read,tcheck) scf=(maxcycle=1)
 ----------------------------------------------------------------------
 -----
 title
 -----
 Structure from the checkpoint file:  "1-2-4-trioxolane.chk"
 Charge =  0 Multiplicity = 1

                         Standard orientation:
 ---------------------------------------------------------------------
 Center     Atomic      Atomic             Coordinates (Angstroms)
 Number     Number       Type             X           Y           Z
 ---------------------------------------------------------------------
      1          8           0        0.000000   -0.000000    1.185426
      2          6           0        0.000000    1.126270    0.321884
      3          6           0       -0.000000   -1.126270    0.321884
      4          8           0       -0.368242   -0.630282   -0.948481
      5          8           0        0.368242    0.630282   -0.948481
      6          1           0       -0.997388    1.574227    0.297170
      7          1           0        0.997388   -1.574227    0.297170
      8          1           0        0.765842    1.843110    0.617669
      9          1           0       -0.765842   -1.843110    0.617669
 ---------------------------------------------------------------------

 SCF Done:  E(RHF) =  -302.866169726     A.U. after    2 cycles

 The electronic state is 1-A.
 Alpha  occ. eigenvalues --  -20.63271 -20.63267 -20.57402 -11.36078 -11.35996
 Alpha  occ. eigenvalues --   -1.63647  -1.47163  -1.32978  -0.94828  -0.90045
 Alpha  occ. eigenvalues --   -0.75253  -0.74184  -0.67560  -0.65199  -0.60309
 Alpha  occ. eigenvalues --   -0.58214  -0.53825  -0.53191  -0.45371  -0.44755
 Alpha virt. eigenvalues --    0.03788   0.04478   0.04674   0.06335   0.08822
 Alpha virt. eigenvalues --    0.09900   0.11016   0.14494   0.15721   0.16525
 Alpha virt. eigenvalues --    0.17471   0.18117   0.18208   0.20213   0.23389

 Mulliken charges:
               1
     1  O   -1.186323
     2  C    1.160719
     3  C    1.160719
     4  O   -0.727827
     5  O   -0.727827
     6  H    0.099509
     7  H    0.099509
     8  H    0.060761
     9  H    0.060761
 Sum of Mulliken charges =  -0.00000

 Dipole moment (field-independent basis, Debye):
    X=             -0.0000    Y=              0.0000    Z=              1.1692  Tot=              1.1692

 Test job not archived.
 1\1\GINC-SE050\SP\RHF\Aug-CC-pVDZ\C2H4O3\OHZDE\05-Apr-2025\0\\#t hf au
 g-cc-pvdz iop(5/13=1,5/36=2,99/5=2) pseudo=read geom=check guess=(read
 ,tcheck) scf=(maxcycle=1)\\title\\0,1\O,0,0.,0.,1.185426\C,0,0.,1.1262
 7,0.321884\C,0,0.,-1.12627,0.321884\O,0,-0.368242,-0.630282,-0.948481\
 O,0,0.368242,0.630282,-0.948481\H,0,-0.997388,1.574227,0.29717\H,0,0.9
 97388,-1.574227,0.29717\H,0,0.765842,1.84311,0.617669\H,0,-0.765842,-1
 .84311,0.617669\\Version=ES64L-G16RevC.01\State=1-A\HF=-302.8661697\RM
 SD=7.586e-03\Dipole=0.,0.,0.459983\Quadrupole=0.1338961,4.1076874,-4.2

 Normal termination of Gaussian 16 at Sat Apr  5 22:18:31 2025.
