 Gaussian 16, Revision C.01,

 ----------------------------------------------------------------------
 #t hf aug-cc-pvdz symm=none int=(grid=ultrafine) guess=(read,tcheck) s
 table=(opt,rrhf)
 ----------------------------------------------------------------------
 -----
 title
 -----
 Symbolic Z-matrix:
 Charge =  0 Multiplicity = 1

 SCF Done:  E(RHF) =  -294.650424409     A.U. after   14 cycles
 Normal termination of Gaussian 16 at Sat Apr  5 22:16:58 2025.
 Gaussian 16:  ES64L-G16RevC.01  3-Jul-2019

 ----------------------------------------------------------------------
 #t hf aug-cc-pvdz iop(5/13=1,5/36=2,99/5=2) pseudo=read geom=check gue
 ss=(read,tcheck) scf=(maxcycle=1)
 ----------------------------------------------------------------------
 -----
 title
 -----
 Structure from the checkpoint file:  "1-2-3-5-tetrazine.chk"
 Charge =  0 Multiplicity = 1

                         Standard orientation:
 ---------------------------------------------------------------------
 Center     Atomic      Atomic             Coordinates (Angstroms)
 Number     Number       Type             X           Y           Z
 ---------------------------------------------------------------------
      1          7           0        0.000000    1.144299   -0.704266
      2          7           0       -0.000000    0.000000   -1.359116
      3          7           0       -0.000000   -1.144299   -0.704266
      4          6           0        0.000000   -1.104612    0.629854
      5          7           0        0.000000   -0.000000    1.362678
      6          6           0        0.000000    1.104612    0.629854
      7          1           0        0.000000   -2.061100    1.138272
      8          1           0        0.000000    2.061100    1.138272
 ---------------------------------------------------------------------

 SCF Done:  E(RHF) =  -294.939323175     A.U. after    2 cycles

 The electronic state is 1-A1.
 Alpha  occ. eigenvalues --  -15.63974 -15.57785 -15.57737 -15.56110 -11.36350
 Alpha  occ. eigenvalues --  -11.36335  -1.44567  -1.29635  -1.25982  -1.04693
 Alpha  occ. eigenvalues --   -1.00725  -0.85530  -0.79723  -0.68979  -0.66761
 Alpha  occ. eigenvalues --   -0.66630  -0.60619  -0.53018  -0.51844  -0.49541
 Alpha  occ. eigenvalues --   -0.48670
 Alpha virt. eigenvalues --    0.00087   0.03078   0.03919   0.04553   0.08117
 Alpha virt. eigenvalues --    0.08249   0.09127   0.09898   0.11299   0.14045
 Alpha virt. eigenvalues --    0.14723   0.14933   0.17435   0.17924   0.19570

 Mulliken charges:
               1
     1  N    0.354035
     2  N   -0.411168
     3  N    0.354035
     4  C   -0.427739
     5  N    0.495922
     6  C   -0.427739
     7  H    0.031327
     8  H    0.031327
 Sum of Mulliken charges =  -0.00000

 Dipole moment (field-independent basis, Debye):
    X=              0.0000    Y=              0.0000    Z=              3.0972  Tot=              3.0972

 Test job not archived.
 1\1\GINC-SE188\SP\RHF\Aug-CC-pVDZ\C2H2N4\OHZDE\05-Apr-2025\0\\#t hf au
 g-cc-pvdz iop(5/13=1,5/36=2,99/5=2) pseudo=read geom=check guess=(read
 ,tcheck) scf=(maxcycle=1)\\title\\0,1\N,0,0.,1.144299,-0.704266\N,0,0.
 ,0.,-1.359116\N,0,0.,-1.144299,-0.704266\C,0,0.,-1.104612,0.629854\N,0
 ,0.,0.,1.362678\C,0,0.,1.104612,0.629854\H,0,0.,-2.0611,1.138272\H,0,0
 .,2.0611,1.138272\\Version=ES64L-G16RevC.01\State=1-A1\HF=-294.9393232
 \RMSD=3.678e-02\Dipole=0.,0.,1.2185441\Quadrupole=0.7461159,3.220651,-
 3.9667669,0.,0.,0.\PG=C02V [C2(N1N1),SGV(C2H2N2)]\\@

 Normal termination of Gaussian 16 at Sat Apr  5 22:18:00 2025.
