 Gaussian 16, Revision C.01,

 ----------------------------------------------------------------------
 #t hf aug-cc-pvdz symm=none int=(grid=ultrafine) guess=(read,tcheck) s
 table=(opt,rrhf)
 ----------------------------------------------------------------------
 -----
 title
 -----
 Symbolic Z-matrix:
 Charge =  0 Multiplicity = 1

 SCF Done:  E(RHF) =  -1495.04622018     A.U. after   13 cycles

 1\1\GINC-SE232\Stability\RHF\Aug-CC-pVDZ\C3H5Cl3\OHZDE\05-Apr-2025\0\\
 #t hf aug-cc-pvdz symm=none int=(grid=ultrafine) guess=(read,tcheck) s
 table=(opt,rrhf)\\title\\0,1\C,0,0.430741,0.570041,0.\C,0,-0.305104,0.
 279695,1.300643\C,0,-0.305104,0.279695,-1.300643\Cl,0,0.726567,2.38202
 3,0.\Cl,0,-0.305104,-1.475215,-1.736081\Cl,0,-0.305104,-1.475215,1.736
 081\H,0,1.416453,0.11506,0.\H,0,0.183833,0.788707,-2.122928\H,0,0.1838
 33,0.788707,2.122928\H,0,-1.342701,0.596935,-1.244192\H,0,-1.342701,0.
 596935,1.244192\\Version=ES64L-G16RevC.01\HF=-1495.0462202\RMSD=3.674e

 Normal termination of Gaussian 16 at Sat Apr  5 22:17:06 2025.
 Gaussian 16:  ES64L-G16RevC.01  3-Jul-2019

 ----------------------------------------------------------------------
 #t hf aug-cc-pvdz iop(5/13=1,5/36=2,99/5=2) pseudo=read geom=check gue
 ss=(read,tcheck) scf=(maxcycle=1)
 ----------------------------------------------------------------------
 -----
 title
 -----
 Structure from the checkpoint file:  "1-2-3-trichloropropane.chk"
 Charge =  0 Multiplicity = 1

                         Standard orientation:
 ---------------------------------------------------------------------
 Center     Atomic      Atomic             Coordinates (Angstroms)
 Number     Number       Type             X           Y           Z
 ---------------------------------------------------------------------
      1          6           0        0.430741    0.570041    0.000000
      2          6           0       -0.305104    0.279695    1.300643
      3          6           0       -0.305104    0.279695   -1.300643
      4         17           0        0.726567    2.382023    0.000000
      5         17           0       -0.305104   -1.475215   -1.736081
      6         17           0       -0.305104   -1.475215    1.736081
      7          1           0        1.416453    0.115060   -0.000000
      8          1           0        0.183833    0.788707   -2.122928
      9          1           0        0.183833    0.788707    2.122928
     10          1           0       -1.342701    0.596935   -1.244192
     11          1           0       -1.342701    0.596935    1.244192
 ---------------------------------------------------------------------

 SCF Done:  E(RHF) =  -1495.39912701     A.U. after    2 cycles

 The electronic state is 1-A'.
 Alpha  occ. eigenvalues -- -105.58122-105.56905-105.56904 -11.34862 -11.33039
 Alpha  occ. eigenvalues --  -11.33029 -10.62915 -10.61710 -10.61706  -7.79843
 Alpha  occ. eigenvalues --   -7.79484  -7.79469  -7.78653  -7.78651  -7.78269
 Alpha  occ. eigenvalues --   -7.78268  -7.78259  -7.78255  -1.18759  -1.10521
 Alpha  occ. eigenvalues --   -1.08072  -0.97321  -0.92545  -0.83655  -0.70611
 Alpha  occ. eigenvalues --   -0.66389  -0.63675  -0.59879  -0.59012  -0.57758
 Alpha  occ. eigenvalues --   -0.52625  -0.48381  -0.47948  -0.47099  -0.45953
 Alpha  occ. eigenvalues --   -0.45232  -0.43699
 Alpha virt. eigenvalues --    0.03749   0.04337   0.04383   0.06027   0.06701
 Alpha virt. eigenvalues --    0.06905   0.09674   0.09706   0.12607   0.13270
 Alpha virt. eigenvalues --    0.13399   0.14954   0.15128   0.15404   0.15975

 Mulliken charges:
               1
     1  C   -0.351312
     2  C   -0.380586
     3  C   -0.380586
     4  Cl  -0.039676
     5  Cl  -0.033858
     6  Cl  -0.033858
     7  H    0.143320
     8  H    0.238966
     9  H    0.238966
    10  H    0.299311
    11  H    0.299311
 Sum of Mulliken charges =  -0.00000

 Dipole moment (field-independent basis, Debye):
    X=             -0.2894    Y=              1.7395    Z=              0.0000  Tot=              1.7634

 Test job not archived.
 1\1\GINC-SE232\SP\RHF\Aug-CC-pVDZ\C3H5Cl3\OHZDE\05-Apr-2025\0\\#t hf a
 ug-cc-pvdz iop(5/13=1,5/36=2,99/5=2) pseudo=read geom=check guess=(rea
 d,tcheck) scf=(maxcycle=1)\\title\\0,1\C,0,0.430741,0.570041,0.\C,0,-0
 .305104,0.279695,1.300643\C,0,-0.305104,0.279695,-1.300643\Cl,0,0.7265
 67,2.382023,0.\Cl,0,-0.305104,-1.475215,-1.736081\Cl,0,-0.305104,-1.47
 5215,1.736081\H,0,1.416453,0.11506,0.\H,0,0.183833,0.788707,-2.122928\
 H,0,0.183833,0.788707,2.122928\H,0,-1.342701,0.596935,-1.244192\H,0,-1
 .342701,0.596935,1.244192\\Version=ES64L-G16RevC.01\State=1-A'\HF=-149

 Normal termination of Gaussian 16 at Sat Apr  5 22:18:02 2025.
