 Gaussian 16, Revision C.01,

 ----------------------------------------------------------------------
 #t hf aug-cc-pvdz symm=none int=(grid=ultrafine) guess=(read,tcheck) s
 table=(opt,rrhf)
 ----------------------------------------------------------------------
 -----
 title
 -----
 Symbolic Z-matrix:
 Charge =  0 Multiplicity = 1

 SCF Done:  E(RHF) =  -676.149699419     A.U. after   16 cycles
 Normal termination of Gaussian 16 at Sat Apr  5 22:17:05 2025.
 Gaussian 16:  ES64L-G16RevC.01  3-Jul-2019

 ----------------------------------------------------------------------
 #t hf aug-cc-pvdz iop(5/13=1,5/36=2,99/5=2) pseudo=read geom=check gue
 ss=(read,tcheck) scf=(maxcycle=1)
 ----------------------------------------------------------------------
 -----
 title
 -----
 Structure from the checkpoint file:  "1-2-3-thiadiazole-23H-carbonitrile.chk"
 Charge =  0 Multiplicity = 1

                         Standard orientation:
 ---------------------------------------------------------------------
 Center     Atomic      Atomic             Coordinates (Angstroms)
 Number     Number       Type             X           Y           Z
 ---------------------------------------------------------------------
      1         16           0        0.596501   -1.254311   -0.215908
      2          7           0       -0.521489    0.078464   -0.630668
      3          7           0        0.161630    1.335417   -0.521980
      4          7           0       -2.690102    0.007425    0.617646
      5          6           0        1.600362   -0.083701    0.655744
      6          6           0        1.269049    1.169256    0.363538
      7          6           0       -1.667835    0.056671    0.083610
      8          1           0        0.450648    1.618461   -1.455320
      9          1           0        2.392643   -0.412715    1.306776
     10          1           0        1.752966    2.060731    0.730728
 ---------------------------------------------------------------------

 SCF Done:  E(RHF) =  -676.484323445     A.U. after    2 cycles

 The electronic state is 1-A.
 Alpha  occ. eigenvalues --  -94.02385 -15.61989 -15.58526 -15.50953 -11.31224
 Alpha  occ. eigenvalues --  -11.30987 -11.30113  -8.30140  -6.27910  -6.27756
 Alpha  occ. eigenvalues --   -6.27459  -1.37813  -1.23557  -1.16748  -1.12217
 Alpha  occ. eigenvalues --   -0.97138  -0.85153  -0.81259  -0.76421  -0.69865
 Alpha  occ. eigenvalues --   -0.65257  -0.61423  -0.60609  -0.56070  -0.52808
 Alpha  occ. eigenvalues --   -0.50182  -0.47802  -0.45719  -0.35657
 Alpha virt. eigenvalues --    0.02616   0.03110   0.04181   0.05630   0.06991
 Alpha virt. eigenvalues --    0.08444   0.09040   0.10372   0.10948   0.11049
 Alpha virt. eigenvalues --    0.12124   0.13060   0.13884   0.13947   0.14500

 Mulliken charges:
               1
     1  S    0.498424
     2  N   -0.091825
     3  N    0.278870
     4  N    0.901022
     5  C    0.108090
     6  C   -0.223874
     7  C   -1.455330
     8  H    0.230414
     9  H   -0.143361
    10  H   -0.102428
 Sum of Mulliken charges =  -0.00000

 Dipole moment (field-independent basis, Debye):
    X=              6.4067    Y=              0.7805    Z=             -1.0314  Tot=              6.5360

 Test job not archived.
 1\1\GINC-SE108\SP\RHF\Aug-CC-pVDZ\C3H3N3S1\OHZDE\05-Apr-2025\0\\#t hf
 aug-cc-pvdz iop(5/13=1,5/36=2,99/5=2) pseudo=read geom=check guess=(re
 ad,tcheck) scf=(maxcycle=1)\\title\\0,1\S,0,0.596501,-1.254311,-0.2159
 08\N,0,-0.521489,0.078464,-0.630668\N,0,0.16163,1.335417,-0.52198\N,0,
 -2.690102,0.007425,0.617646\C,0,1.600362,-0.083701,0.655744\C,0,1.2690
 49,1.169256,0.363538\C,0,-1.667835,0.056671,0.08361\H,0,0.450648,1.618
 461,-1.45532\H,0,2.392643,-0.412715,1.306776\H,0,1.752966,2.060731,0.7
 30728\\Version=ES64L-G16RevC.01\State=1-A\HF=-676.4843234\RMSD=2.232e-

 Normal termination of Gaussian 16 at Sat Apr  5 22:18:02 2025.
