 Gaussian 16, Revision C.01,

 ----------------------------------------------------------------------
 #t hf aug-cc-pvdz symm=none int=(grid=ultrafine) guess=(read,tcheck) s
 table=(opt,rrhf)
 ----------------------------------------------------------------------
 -----
 title
 -----
 Symbolic Z-matrix:
 Charge =  0 Multiplicity = 1

 SCF Done:  E(RHF) =  -154.918293186     A.U. after   13 cycles
 Normal termination of Gaussian 16 at Sat Apr  5 22:19:09 2025.
 Gaussian 16:  ES64L-G16RevC.01  3-Jul-2019

 ----------------------------------------------------------------------
 #t hf aug-cc-pvdz iop(5/13=1,5/36=2,99/5=2) pseudo=read geom=check gue
 ss=(read,tcheck) scf=(maxcycle=1)
 ----------------------------------------------------------------------
 -----
 title
 -----
 Structure from the checkpoint file:  "1-2-butadiene.chk"
 Charge =  0 Multiplicity = 1

                         Standard orientation:
 ---------------------------------------------------------------------
 Center     Atomic      Atomic             Coordinates (Angstroms)
 Number     Number       Type             X           Y           Z
 ---------------------------------------------------------------------
      1          6           0       -0.676877    1.824455    0.000000
      2          6           0        0.000000    0.712806    0.000000
      3          6           0        0.674729   -0.400337    0.000000
      4          6           0        0.070788   -1.779546    0.000000
      5          1           0       -0.970419    2.308430    0.924346
      6          1           0       -0.970419    2.308430   -0.924346
      7          1           0        1.759891   -0.339248    0.000000
      8          1           0       -1.016629   -1.735258    0.000000
      9          1           0        0.392869   -2.343309   -0.878652
     10          1           0        0.392869   -2.343309    0.878652
 ---------------------------------------------------------------------

 SCF Done:  E(RHF) =  -155.085931356     A.U. after    2 cycles

 The electronic state is 1-A'.
 Alpha  occ. eigenvalues --  -11.25672 -11.24769 -11.24112 -11.23845  -1.08871
 Alpha  occ. eigenvalues --   -1.00246  -0.89839  -0.71046  -0.65173  -0.61250
 Alpha  occ. eigenvalues --   -0.58511  -0.57490  -0.53533  -0.38069  -0.36898
 Alpha virt. eigenvalues --    0.03686   0.04183   0.04679   0.04725   0.06438
 Alpha virt. eigenvalues --    0.06841   0.09954   0.10679   0.12238   0.12513
 Alpha virt. eigenvalues --    0.13730   0.15675   0.16435   0.16789   0.16930

 Mulliken charges:
               1
     1  C   -0.106970
     2  C    0.075900
     3  C    0.351873
     4  C   -0.587767
     5  H   -0.041425
     6  H   -0.041425
     7  H   -0.131016
     8  H    0.081981
     9  H    0.199425
    10  H    0.199425
 Sum of Mulliken charges =  -0.00000

 Dipole moment (field-independent basis, Debye):
    X=              0.0597    Y=             -0.4550    Z=             -0.0000  Tot=              0.4589

 Test job not archived.
 1\1\GINC-SE085\SP\RHF\Aug-CC-pVDZ\C4H6\OHZDE\05-Apr-2025\0\\#t hf aug-
 cc-pvdz iop(5/13=1,5/36=2,99/5=2) pseudo=read geom=check guess=(read,t
 check) scf=(maxcycle=1)\\title\\0,1\C,0,-0.676877,1.824455,0.\C,0,0.,0
 .712806,0.\C,0,0.674729,-0.400337,0.\C,0,0.070788,-1.779546,0.\H,0,-0.
 970419,2.30843,0.924346\H,0,-0.970419,2.30843,-0.924346\H,0,1.759891,-
 0.339248,0.\H,0,-1.016629,-1.735258,0.\H,0,0.392869,-2.343309,-0.87865
 2\H,0,0.392869,-2.343309,0.878652\\Version=ES64L-G16RevC.01\State=1-A'
 \HF=-155.0859314\RMSD=1.425e-02\Dipole=0.0235069,-0.1790153,0.\Quadrup

 Normal termination of Gaussian 16 at Sat Apr  5 22:20:28 2025.
