 Gaussian 16, Revision C.01,

 ----------------------------------------------------------------------
 #t hf aug-cc-pvdz symm=none int=(grid=ultrafine) guess=(read,tcheck) s
 table=(opt,rrhf)
 ----------------------------------------------------------------------
 -----
 title
 -----
 Symbolic Z-matrix:
 Charge =  0 Multiplicity = 1

 SCF Done:  E(RHF) =  -549.094391891     A.U. after   16 cycles
 Normal termination of Gaussian 16 at Sat Apr  5 22:22:50 2025.
 Gaussian 16:  ES64L-G16RevC.01  3-Jul-2019

 ----------------------------------------------------------------------
 #t hf aug-cc-pvdz iop(5/13=1,5/36=2,99/5=2) pseudo=read geom=check gue
 ss=(read,tcheck) scf=(maxcycle=1)
 ----------------------------------------------------------------------
 -----
 title
 -----
 Structure from the checkpoint file:  "1-2-furylpyridin-2-one.chk"
 Charge =  0 Multiplicity = 1

                         Standard orientation:
 ---------------------------------------------------------------------
 Center     Atomic      Atomic             Coordinates (Angstroms)
 Number     Number       Type             X           Y           Z
 ---------------------------------------------------------------------
      1          6           0       -3.194575   -0.313665    0.532954
      2          6           0       -1.888732   -0.508814    1.083438
      3          6           0       -3.009799    0.096865   -0.744869
      4          6           0       -1.019311   -0.203012    0.091580
      5          6           0        3.135362   -0.257975   -0.067413
      6          6           0        2.506179    0.937102    0.061393
      7          6           0        2.396422   -1.469775   -0.153237
      8          6           0        1.044926   -1.406409   -0.107584
      9          6           0        1.064931    1.048883    0.123453
     10          7           0        0.385002   -0.209485    0.027326
     11          8           0        0.429863    2.079331    0.252424
     12          8           0       -1.682395    0.164204   -1.036752
     13          1           0       -4.138874   -0.452415    1.029472
     14          1           0       -1.631730   -0.812260    2.082940
     15          1           0       -3.678984    0.370087   -1.539794
     16          1           0        4.216627   -0.293566   -0.105985
     17          1           0        3.049817    1.867462    0.131301
     18          1           0        2.886862   -2.424324   -0.258784
     19          1           0        0.409095   -2.276074   -0.174091
 ---------------------------------------------------------------------

 SCF Done:  E(RHF) =  -549.642442446     A.U. after    2 cycles

 The electronic state is 1-A.
 Alpha  occ. eigenvalues --  -20.61756 -20.50714 -15.57562 -11.36596 -11.33841
 Alpha  occ. eigenvalues --  -11.31765 -11.30329 -11.28192 -11.24989 -11.24932
 Alpha  occ. eigenvalues --  -11.24911 -11.24486  -1.55851  -1.45781  -1.30387
 Alpha  occ. eigenvalues --   -1.13180  -1.10623  -1.04446  -1.01234  -0.90893
 Alpha  occ. eigenvalues --   -0.89450  -0.83287  -0.81342  -0.77280  -0.72820
 Alpha  occ. eigenvalues --   -0.71123  -0.67626  -0.65608  -0.64598  -0.63537
 Alpha  occ. eigenvalues --   -0.62819  -0.59692  -0.58033  -0.57607  -0.56383
 Alpha  occ. eigenvalues --   -0.55379  -0.49878  -0.44844  -0.43018  -0.41097
 Alpha  occ. eigenvalues --   -0.34143  -0.32545
 Alpha virt. eigenvalues --    0.02895   0.03454   0.03673   0.04095   0.04690
 Alpha virt. eigenvalues --    0.05201   0.06268   0.06432   0.09105   0.09936
 Alpha virt. eigenvalues --    0.10232   0.10749   0.11500   0.12064   0.12607

 Mulliken charges:
               1
     1  C    0.521534
     2  C    0.339656
     3  C    0.709296
     4  C   -0.306672
     5  C    0.028095
     6  C    0.601462
     7  C    0.627159
     8  C   -0.212949
     9  C    0.870388
    10  N    1.579614
    11  O   -1.454853
    12  O   -1.731902
    13  H   -0.130289
    14  H   -0.245276
    15  H   -0.157229
    16  H   -0.192196
    17  H   -0.277039
    18  H   -0.221152
    19  H   -0.347649
 Sum of Mulliken charges =  -0.00000

 Dipole moment (field-independent basis, Debye):
    X=              0.7705    Y=             -3.9965    Z=              0.1788  Tot=              4.0740

 Test job not archived.
 1\1\GINC-SE231\SP\RHF\Aug-CC-pVDZ\C9H7N1O2\OHZDE\05-Apr-2025\0\\#t hf
 aug-cc-pvdz iop(5/13=1,5/36=2,99/5=2) pseudo=read geom=check guess=(re
 ad,tcheck) scf=(maxcycle=1)\\title\\0,1\C,0,-3.194575,-0.313665,0.5329
 54\C,0,-1.888732,-0.508814,1.083438\C,0,-3.009799,0.096865,-0.744869\C
 ,0,-1.019311,-0.203012,0.09158\C,0,3.135362,-0.257975,-0.067413\C,0,2.
 506179,0.937102,0.061393\C,0,2.396422,-1.469775,-0.153237\C,0,1.044926
 ,-1.406409,-0.107584\C,0,1.064931,1.048883,0.123453\N,0,0.385002,-0.20
 9485,0.027326\O,0,0.429863,2.079331,0.252424\O,0,-1.682395,0.164204,-1

 Normal termination of Gaussian 16 at Sat Apr  5 22:23:33 2025.
