 Gaussian 16, Revision C.01,

 ----------------------------------------------------------------------
 #t hf aug-cc-pvdz symm=none int=(grid=ultrafine) guess=(read,tcheck) s
 table=(opt,rrhf)
 ----------------------------------------------------------------------
 -----
 title
 -----
 Symbolic Z-matrix:
 Charge =  0 Multiplicity = 1

 SCF Done:  E(RHF) =  -659.063850319     A.U. after   16 cycles
 Normal termination of Gaussian 16 at Sat Apr  5 22:20:38 2025.
 Gaussian 16:  ES64L-G16RevC.01  3-Jul-2019

 ----------------------------------------------------------------------
 #t hf aug-cc-pvdz iop(5/13=1,5/36=2,99/5=2) pseudo=read geom=check gue
 ss=(read,tcheck) scf=(maxcycle=1)
 ----------------------------------------------------------------------
 -----
 title
 -----
 Structure from the checkpoint file:  "1-2-thiazole-4-carbonitrile.chk"
 Charge =  0 Multiplicity = 1

                         Standard orientation:
 ---------------------------------------------------------------------
 Center     Atomic      Atomic             Coordinates (Angstroms)
 Number     Number       Type             X           Y           Z
 ---------------------------------------------------------------------
      1         16           0        1.790737   -0.475898   -0.000002
      2          7           0        1.364374    1.134172   -0.000002
      3          7           0       -3.240588   -0.146020   -0.000007
      4          6           0       -0.672756    0.008613    0.000004
      5          6           0        0.191251   -1.060988    0.000003
      6          6           0        0.060358    1.235299    0.000002
      7          6           0       -2.089661   -0.084352    0.000005
      8          1           0       -0.056134   -2.109489    0.000004
      9          1           0       -0.397308    2.215358    0.000003
 ---------------------------------------------------------------------

 SCF Done:  E(RHF) =  -659.377783385     A.U. after    2 cycles

 The electronic state is 1-A.
 Alpha  occ. eigenvalues --  -94.04146 -15.56196 -15.53146 -11.33615 -11.32684
 Alpha  occ. eigenvalues --  -11.31092 -11.30088  -8.32035  -6.29781  -6.29641
 Alpha  occ. eigenvalues --   -6.29450  -1.32592  -1.25060  -1.12512  -1.07874
 Alpha  occ. eigenvalues --   -0.88865  -0.85118  -0.79283  -0.67942  -0.64728
 Alpha  occ. eigenvalues --   -0.62744  -0.62072  -0.55289  -0.54673  -0.53272
 Alpha  occ. eigenvalues --   -0.50514  -0.43143  -0.39674
 Alpha virt. eigenvalues --    0.02867   0.03555   0.04149   0.06138   0.07072
 Alpha virt. eigenvalues --    0.07823   0.08371   0.09468   0.10215   0.11837
 Alpha virt. eigenvalues --    0.12169   0.12593   0.13286   0.13914   0.14150

 Mulliken charges:
               1
     1  S    0.630651
     2  N    0.236335
     3  N    0.991817
     4  C    1.978558
     5  C   -0.524970
     6  C   -0.583736
     7  C   -2.430936
     8  H   -0.146785
     9  H   -0.150936
 Sum of Mulliken charges =  -0.00000

 Dipole moment (field-independent basis, Debye):
    X=              2.7896    Y=             -1.7295    Z=              0.0000  Tot=              3.2822

 Test job not archived.
 1\1\GINC-SE151\SP\RHF\Aug-CC-pVDZ\C4H2N2S1\OHZDE\05-Apr-2025\0\\#t hf
 aug-cc-pvdz iop(5/13=1,5/36=2,99/5=2) pseudo=read geom=check guess=(re
 ad,tcheck) scf=(maxcycle=1)\\title\\0,1\S,0,1.790737,-0.475898,-0.0000
 02\N,0,1.364374,1.134172,-0.000002\N,0,-3.240588,-0.14602,-0.000007\C,
 0,-0.672756,0.008613,0.000004\C,0,0.191251,-1.060988,0.000003\C,0,0.06
 0358,1.235299,0.000002\C,0,-2.089661,-0.084352,0.000005\H,0,-0.056134,
 -2.109489,0.000004\H,0,-0.397308,2.215358,0.000003\\Version=ES64L-G16R
 evC.01\State=1-A\HF=-659.3777834\RMSD=3.499e-02\Dipole=1.0975059,-0.68

 Normal termination of Gaussian 16 at Sat Apr  5 22:20:50 2025.
