 Gaussian 16, Revision C.01,

 ----------------------------------------------------------------------
 #t hf aug-cc-pvdz symm=none int=(grid=ultrafine) guess=(read,tcheck) s
 table=(opt,rrhf)
 ----------------------------------------------------------------------
 -----
 title
 -----
 Symbolic Z-matrix:
 Charge =  0 Multiplicity = 1

 SCF Done:  E(RHF) =  -412.402464511     A.U. after   13 cycles
 Normal termination of Gaussian 16 at Sat Apr  5 22:19:27 2025.
 Gaussian 16:  ES64L-G16RevC.01  3-Jul-2019

 ----------------------------------------------------------------------
 #t hf aug-cc-pvdz iop(5/13=1,5/36=2,99/5=2) pseudo=read geom=check gue
 ss=(read,tcheck) scf=(maxcycle=1)
 ----------------------------------------------------------------------
 -----
 title
 -----
 Structure from the checkpoint file:  "1-2-ethanediyl_dicyanate.chk"
 Charge =  0 Multiplicity = 1

                         Standard orientation:
 ---------------------------------------------------------------------
 Center     Atomic      Atomic             Coordinates (Angstroms)
 Number     Number       Type             X           Y           Z
 ---------------------------------------------------------------------
      1          8           0       -0.194628    1.442226   -0.211553
      2          8           0        0.194628   -1.442226   -0.211553
      3          7           0        0.795033    3.647186   -0.572454
      4          7           0       -0.795033   -3.647186   -0.572454
      5          6           0        0.339745    0.667888    0.903873
      6          6           0       -0.339745   -0.667888    0.903873
      7          6           0        0.339745    2.601889   -0.389104
      8          6           0       -0.339745   -2.601889   -0.389104
      9          1           0        1.417300    0.568273    0.779108
     10          1           0        0.119945    1.195921    1.831875
     11          1           0       -1.417300   -0.568273    0.779108
     12          1           0       -0.119945   -1.195921    1.831875
 ---------------------------------------------------------------------

 SCF Done:  E(RHF) =  -412.802249491     A.U. after    2 cycles

 The electronic state is 1-A.
 Alpha  occ. eigenvalues --  -20.66747 -20.66746 -15.52533 -15.52530 -11.37601
 Alpha  occ. eigenvalues --  -11.37584 -11.35720 -11.35720  -1.60164  -1.58987
 Alpha  occ. eigenvalues --   -1.24937  -1.24701  -1.12359  -0.95644  -0.84818
 Alpha  occ. eigenvalues --   -0.83935  -0.73714  -0.73587  -0.72280  -0.67040
 Alpha  occ. eigenvalues --   -0.62971  -0.62183  -0.61066  -0.60573  -0.59379
 Alpha  occ. eigenvalues --   -0.50778  -0.50513  -0.48519  -0.48006
 Alpha virt. eigenvalues --    0.01698   0.03091   0.03944   0.04241   0.07196
 Alpha virt. eigenvalues --    0.07943   0.08956   0.09564   0.10190   0.12186
 Alpha virt. eigenvalues --    0.12579   0.12857   0.13620   0.13789   0.14026

 Mulliken charges:
               1
     1  O   -1.065591
     2  O   -1.065591
     3  N    0.824463
     4  N    0.824463
     5  C    0.462689
     6  C    0.462689
     7  C   -0.554014
     8  C   -0.554014
     9  H    0.166107
    10  H    0.166347
    11  H    0.166107
    12  H    0.166347
 Sum of Mulliken charges =  -0.00000

 Dipole moment (field-independent basis, Debye):
    X=             -0.0000    Y=             -0.0000    Z=              4.5718  Tot=              4.5718

 Test job not archived.
 1\1\GINC-SE199\SP\RHF\Aug-CC-pVDZ\C4H4N2O2\OHZDE\05-Apr-2025\0\\#t hf
 aug-cc-pvdz iop(5/13=1,5/36=2,99/5=2) pseudo=read geom=check guess=(re
 ad,tcheck) scf=(maxcycle=1)\\title\\0,1\O,0,-0.194628,1.442226,-0.2115
 53\O,0,0.194628,-1.442226,-0.211553\N,0,0.795033,3.647186,-0.572454\N,
 0,-0.795033,-3.647186,-0.572454\C,0,0.339745,0.667888,0.903873\C,0,-0.
 339745,-0.667888,0.903873\C,0,0.339745,2.601889,-0.389104\C,0,-0.33974
 5,-2.601889,-0.389104\H,0,1.4173,0.568273,0.779108\H,0,0.119945,1.1959
 21,1.831875\H,0,-1.4173,-0.568273,0.779108\H,0,-0.119945,-1.195921,1.8

 Normal termination of Gaussian 16 at Sat Apr  5 22:20:30 2025.
