 Gaussian 16, Revision C.01,

 ----------------------------------------------------------------------
 #t hf aug-cc-pvdz symm=none int=(grid=ultrafine) guess=(read,tcheck) s
 table=(opt,rrhf)
 ----------------------------------------------------------------------
 -----
 title
 -----
 Symbolic Z-matrix:
 Charge =  0 Multiplicity = 1

 SCF Done:  E(RHF) =  -228.974712492     A.U. after   12 cycles
 Normal termination of Gaussian 16 at Sat Apr  5 22:19:08 2025.
 Gaussian 16:  ES64L-G16RevC.01  3-Jul-2019

 ----------------------------------------------------------------------
 #t hf aug-cc-pvdz iop(5/13=1,5/36=2,99/5=2) pseudo=read geom=check gue
 ss=(read,tcheck) scf=(maxcycle=1)
 ----------------------------------------------------------------------
 -----
 title
 -----
 Structure from the checkpoint file:  "1-2-ethanediol.chk"
 Charge =  0 Multiplicity = 1

                         Standard orientation:
 ---------------------------------------------------------------------
 Center     Atomic      Atomic             Coordinates (Angstroms)
 Number     Number       Type             X           Y           Z
 ---------------------------------------------------------------------
      1          6           0        0.680732    0.592289   -0.291181
      2          6           0       -0.721940    0.567772    0.287742
      3          8           0        1.404236   -0.594510    0.050668
      4          8           0       -1.459811   -0.557597   -0.160898
      5          1           0        1.214042    1.489687    0.038901
      6          1           0        0.632713    0.600665   -1.379775
      7          1           0       -1.271483    1.455526   -0.029664
      8          1           0       -0.669565    0.583184    1.385698
      9          1           0        1.668590   -0.545996    0.974636
     10          1           0       -0.882437   -1.326578   -0.087321
 ---------------------------------------------------------------------

 SCF Done:  E(RHF) =  -229.213043444     A.U. after    2 cycles

 The electronic state is 1-A.
 Alpha  occ. eigenvalues --  -20.56194 -20.54455 -11.29303 -11.28780  -1.46416
 Alpha  occ. eigenvalues --   -1.43863  -1.01087  -0.85657  -0.71038  -0.69233
 Alpha  occ. eigenvalues --   -0.64926  -0.61748  -0.57466  -0.52172  -0.50882
 Alpha  occ. eigenvalues --   -0.46823  -0.43292
 Alpha virt. eigenvalues --    0.03213   0.04093   0.04783   0.05131   0.07282
 Alpha virt. eigenvalues --    0.07610   0.11755   0.12025   0.12905   0.14675
 Alpha virt. eigenvalues --    0.15875   0.16353   0.17673   0.19554   0.22597

 Mulliken charges:
               1
     1  C    0.541501
     2  C    0.654199
     3  O   -1.102078
     4  O   -1.132071
     5  H    0.149178
     6  H    0.052352
     7  H    0.100902
     8  H    0.079176
     9  H    0.302795
    10  H    0.354044
 Sum of Mulliken charges =  -0.00000

 Dipole moment (field-independent basis, Debye):
    X=              1.3923    Y=              1.3562    Z=              1.5361  Tot=              2.4774

 Test job not archived.
 1\1\GINC-SE198\SP\RHF\Aug-CC-pVDZ\C2H6O2\OHZDE\05-Apr-2025\0\\#t hf au
 g-cc-pvdz iop(5/13=1,5/36=2,99/5=2) pseudo=read geom=check guess=(read
 ,tcheck) scf=(maxcycle=1)\\title\\0,1\C,0,0.680732,0.592289,-0.291181\
 C,0,-0.72194,0.567772,0.287742\O,0,1.404236,-0.59451,0.050668\O,0,-1.4
 59811,-0.557597,-0.160898\H,0,1.214042,1.489687,0.038901\H,0,0.632713,
 0.600665,-1.379775\H,0,-1.271483,1.455526,-0.029664\H,0,-0.669565,0.58
 3184,1.385698\H,0,1.66859,-0.545996,0.974636\H,0,-0.882437,-1.326578,-
 0.087321\\Version=ES64L-G16RevC.01\State=1-A\HF=-229.2130434\RMSD=8.30

 Normal termination of Gaussian 16 at Sat Apr  5 22:20:28 2025.
