 Gaussian 16, Revision C.01,

 ----------------------------------------------------------------------
 #t hf aug-cc-pvdz symm=none int=(grid=ultrafine) guess=(read,tcheck) s
 table=(opt,rrhf)
 ----------------------------------------------------------------------
 -----
 title
 -----
 Symbolic Z-matrix:
 Charge =  0 Multiplicity = 1

 SCF Done:  E(RHF) =  -226.544873333     A.U. after   13 cycles
 Normal termination of Gaussian 16 at Sat Apr  5 22:19:07 2025.
 Gaussian 16:  ES64L-G16RevC.01  3-Jul-2019

 ----------------------------------------------------------------------
 #t hf aug-cc-pvdz iop(5/13=1,5/36=2,99/5=2) pseudo=read geom=check gue
 ss=(read,tcheck) scf=(maxcycle=1)
 ----------------------------------------------------------------------
 -----
 title
 -----
 Structure from the checkpoint file:  "1-2-acetylenediol.chk"
 Charge =  0 Multiplicity = 1

                         Standard orientation:
 ---------------------------------------------------------------------
 Center     Atomic      Atomic             Coordinates (Angstroms)
 Number     Number       Type             X           Y           Z
 ---------------------------------------------------------------------
      1          8           0       -1.911245    0.085603   -0.071095
      2          8           0        1.911245   -0.085603   -0.071094
      3          6           0       -0.597007   -0.013624    0.006112
      4          6           0        0.597007    0.013624    0.006111
      5          1           0       -2.328814   -0.541074    0.532088
      6          1           0        2.328813    0.541078    0.532085
 ---------------------------------------------------------------------

 SCF Done:  E(RHF) =  -226.769273686     A.U. after    2 cycles

 The electronic state is 1-A.
 Alpha  occ. eigenvalues --  -20.61511 -20.61492 -11.29249 -11.28886  -1.52469
 Alpha  occ. eigenvalues --   -1.52042  -1.02658  -0.81964  -0.78138  -0.66262
 Alpha  occ. eigenvalues --   -0.65331  -0.60047  -0.59884  -0.37466  -0.37284
 Alpha virt. eigenvalues --    0.02947   0.03689   0.10096   0.10776   0.12236
 Alpha virt. eigenvalues --    0.12293   0.12716   0.13522   0.15916   0.19797
 Alpha virt. eigenvalues --    0.22653   0.23812   0.25234   0.26433   0.26781

 Mulliken charges:
               1
     1  O   -1.148112
     2  O   -1.148111
     3  C    0.784458
     4  C    0.784455
     5  H    0.363655
     6  H    0.363654
 Sum of Mulliken charges =   0.00000

 Dipole moment (field-independent basis, Debye):
    X=             -0.0000    Y=              0.0000    Z=              2.0549  Tot=              2.0549

 Test job not archived.
 1\1\GINC-SE050\SP\RHF\Aug-CC-pVDZ\C2H2O2\OHZDE\05-Apr-2025\0\\#t hf au
 g-cc-pvdz iop(5/13=1,5/36=2,99/5=2) pseudo=read geom=check guess=(read
 ,tcheck) scf=(maxcycle=1)\\title\\0,1\O,0,-1.911245,0.085603,-0.071095
 \O,0,1.911245,-0.085603,-0.071094\C,0,-0.597007,-0.013624,0.006112\C,0
 ,0.597007,0.013624,0.006111\H,0,-2.328814,-0.541074,0.532088\H,0,2.328
 813,0.541078,0.532085\\Version=ES64L-G16RevC.01\State=1-A\HF=-226.7692
 737\RMSD=3.610e-02\Dipole=-0.0000004,0.0000029,0.8084575\Quadrupole=2.
 9257029,-1.4329569,-1.492746,4.4145816,-0.0000152,0.0000008\PG=C01 [X(

 Normal termination of Gaussian 16 at Sat Apr  5 22:20:28 2025.
