 Gaussian 16, Revision C.01,

 ----------------------------------------------------------------------
 #t hf aug-cc-pvdz symm=none int=(grid=ultrafine) guess=(read,tcheck) s
 table=(opt,rrhf)
 ----------------------------------------------------------------------
 -----
 title
 -----
 Symbolic Z-matrix:
 Charge =  0 Multiplicity = 1

 SCF Done:  E(RHF) =  -240.805897911     A.U. after   14 cycles
 Normal termination of Gaussian 16 at Sat Apr  5 22:16:57 2025.
 Gaussian 16:  ES64L-G16RevC.01  3-Jul-2019

 ----------------------------------------------------------------------
 #t hf aug-cc-pvdz iop(5/13=1,5/36=2,99/5=2) pseudo=read geom=check gue
 ss=(read,tcheck) scf=(maxcycle=1)
 ----------------------------------------------------------------------
 -----
 title
 -----
 Structure from the checkpoint file:  "1-2-3-triazole.chk"
 Charge =  0 Multiplicity = 1

                         Standard orientation:
 ---------------------------------------------------------------------
 Center     Atomic      Atomic             Coordinates (Angstroms)
 Number     Number       Type             X           Y           Z
 ---------------------------------------------------------------------
      1          7           0        0.000000    1.067552    0.000000
      2          7           0       -1.127818    0.334603    0.000000
      3          7           0       -0.769838   -0.912161    0.000000
      4          6           0        0.589795   -0.989098    0.000000
      5          6           0        1.100389    0.282255    0.000000
      6          1           0       -0.062722    2.071574    0.000000
      7          1           0        1.103956   -1.933077    0.000000
      8          1           0        2.101258    0.672603    0.000000
 ---------------------------------------------------------------------

 SCF Done:  E(RHF) =  -241.049087079     A.U. after    2 cycles

 The electronic state is 1-A'.
 Alpha  occ. eigenvalues --  -15.60300 -15.58301 -15.53929 -11.29762 -11.26534
 Alpha  occ. eigenvalues --   -1.43698  -1.22299  -1.10709  -0.91065  -0.88717
 Alpha  occ. eigenvalues --   -0.80322  -0.68531  -0.67057  -0.64724  -0.56584
 Alpha  occ. eigenvalues --   -0.49647  -0.47075  -0.39007
 Alpha virt. eigenvalues --    0.02679   0.04177   0.04613   0.08351   0.09568
 Alpha virt. eigenvalues --    0.10920   0.11297   0.11651   0.12337   0.13663
 Alpha virt. eigenvalues --    0.15417   0.15878   0.17553   0.18133   0.19451

 Mulliken charges:
               1
     1  N    0.565170
     2  N   -0.380015
     3  N    0.102931
     4  C    0.232646
     5  C   -0.275868
     6  H    0.010356
     7  H   -0.098299
     8  H   -0.156919
 Sum of Mulliken charges =  -0.00000

 Dipole moment (field-independent basis, Debye):
    X=              4.3244    Y=              2.4058    Z=              0.0000  Tot=              4.9486

 Test job not archived.
 1\1\GINC-SE231\SP\RHF\Aug-CC-pVDZ\C2H3N3\OHZDE\05-Apr-2025\0\\#t hf au
 g-cc-pvdz iop(5/13=1,5/36=2,99/5=2) pseudo=read geom=check guess=(read
 ,tcheck) scf=(maxcycle=1)\\title\\0,1\N,0,0.,1.067552,0.\N,0,-1.127818
 ,0.334603,0.\N,0,-0.769838,-0.912161,0.\C,0,0.589795,-0.989098,0.\C,0,
 1.100389,0.282255,0.\H,0,-0.062722,2.071574,0.\H,0,1.103956,-1.933077,
 0.\H,0,2.101258,0.672603,0.\\Version=ES64L-G16RevC.01\State=1-A'\HF=-2
 41.0490871\RMSD=4.631e-02\Dipole=1.701345,0.9465273,0.\Quadrupole=-1.3
 811475,3.8758197,-2.4946722,-0.8656311,0.,0.\PG=CS [SG(C2H3N3)]\\@

 Normal termination of Gaussian 16 at Sat Apr  5 22:18:00 2025.
