 Gaussian 16, Revision C.01,

 ----------------------------------------------------------------------
 #t hf aug-cc-pvdz symm=none int=(grid=ultrafine) guess=(read,tcheck) s
 table=(opt,rrhf)
 ----------------------------------------------------------------------
 -----
 title
 -----
 Symbolic Z-matrix:
 Charge =  0 Multiplicity = 1

 SCF Done:  E(RHF) =  -889.671804110     A.U. after   17 cycles
 Normal termination of Gaussian 16 at Sat Apr  5 22:21:45 2025.
 Gaussian 16:  ES64L-G16RevC.01  3-Jul-2019

 ----------------------------------------------------------------------
 #t hf aug-cc-pvdz iop(5/13=1,5/36=2,99/5=2) pseudo=read geom=check gue
 ss=(read,tcheck) scf=(maxcycle=1)
 ----------------------------------------------------------------------
 -----
 title
 -----
 Structure from the checkpoint file:  "1-2-chloroethyl-1-nitrosourea.chk"
 Charge =  0 Multiplicity = 1

                         Standard orientation:
 ---------------------------------------------------------------------
 Center     Atomic      Atomic             Coordinates (Angstroms)
 Number     Number       Type             X           Y           Z
 ---------------------------------------------------------------------
      1         17           0       -2.331716    0.385323   -0.842661
      2          8           0        0.800067    1.956894    0.684740
      3          8           0        1.924475   -1.710939   -0.590900
      4          7           0        0.559473   -0.319605    0.435360
      5          7           0        0.933917   -1.565968    0.100956
      6          7           0        2.266673    0.888042   -0.680548
      7          6           0        1.219264    0.950722    0.158620
      8          6           0       -0.659018   -0.298092    1.257074
      9          6           0       -1.897922   -0.742235    0.503473
     10          1           0        2.749788    1.749947   -0.864293
     11          1           0        2.588978   -0.000540   -1.031486
     12          1           0       -0.513599   -0.974263    2.100509
     13          1           0       -0.765445    0.714099    1.630691
     14          1           0       -2.748841   -0.765557    1.178688
     15          1           0       -1.762439   -1.721470    0.055027
 ---------------------------------------------------------------------

 SCF Done:  E(RHF) =  -890.173377307     A.U. after    2 cycles

 The electronic state is 1-A.
 Alpha  occ. eigenvalues -- -105.56316 -20.61297 -20.53299 -15.70658 -15.60348
 Alpha  occ. eigenvalues --  -15.54258 -11.42196 -11.32050 -11.30653 -10.61113
 Alpha  occ. eigenvalues --   -7.78055  -7.77685  -7.77671  -1.61629  -1.49691
 Alpha  occ. eigenvalues --   -1.33500  -1.24849  -1.12927  -1.04674  -1.00262
 Alpha  occ. eigenvalues --   -0.89414  -0.84803  -0.79779  -0.78321  -0.74095
 Alpha  occ. eigenvalues --   -0.72770  -0.66727  -0.66162  -0.64339  -0.62271
 Alpha  occ. eigenvalues --   -0.61701  -0.59184  -0.54113  -0.48674  -0.47754
 Alpha  occ. eigenvalues --   -0.46023  -0.45495  -0.45231  -0.44176
 Alpha virt. eigenvalues --    0.02968   0.03977   0.04384   0.04909   0.05145
 Alpha virt. eigenvalues --    0.06289   0.06699   0.08297   0.10174   0.11234
 Alpha virt. eigenvalues --    0.12527   0.12800   0.13511   0.14410   0.15114

 Mulliken charges:
               1
     1  Cl  -0.067790
     2  O   -1.120251
     3  O   -1.174292
     4  N    0.102269
     5  N    1.247116
     6  N    0.741965
     7  C    0.064009
     8  C   -0.463315
     9  C   -0.374425
    10  H    0.223450
    11  H    0.104653
    12  H    0.166327
    13  H    0.079221
    14  H    0.226311
    15  H    0.244752
 Sum of Mulliken charges =   0.00000

 Dipole moment (field-independent basis, Debye):
    X=              0.8467    Y=             -1.3513    Z=              1.0377  Tot=              1.9025

 Test job not archived.
 1\1\GINC-SE220\SP\RHF\Aug-CC-pVDZ\C3H6Cl1N3O2\OHZDE\05-Apr-2025\0\\#t
 hf aug-cc-pvdz iop(5/13=1,5/36=2,99/5=2) pseudo=read geom=check guess=
 (read,tcheck) scf=(maxcycle=1)\\title\\0,1\Cl,0,-2.331716,0.385323,-0.
 842661\O,0,0.800067,1.956894,0.68474\O,0,1.924475,-1.710939,-0.5909\N,
 0,0.559473,-0.319605,0.43536\N,0,0.933917,-1.565968,0.100956\N,0,2.266
 673,0.888042,-0.680548\C,0,1.219264,0.950722,0.15862\C,0,-0.659018,-0.
 298092,1.257074\C,0,-1.897922,-0.742235,0.503473\H,0,2.749788,1.749947
 ,-0.864293\H,0,2.588978,-0.00054,-1.031486\H,0,-0.513599,-0.974263,2.1

 Normal termination of Gaussian 16 at Sat Apr  5 22:22:20 2025.
