 Gaussian 16, Revision C.01,

 ----------------------------------------------------------------------
 #t hf aug-cc-pvdz symm=none int=(grid=ultrafine) guess=(read,tcheck) s
 table=(opt,rrhf)
 ----------------------------------------------------------------------
 -----
 title
 -----
 Symbolic Z-matrix:
 Charge =  0 Multiplicity = 1

 SCF Done:  E(RHF) =  -642.093149691     A.U. after   17 cycles
 Normal termination of Gaussian 16 at Sat Apr  5 22:20:36 2025.
 Gaussian 16:  ES64L-G16RevC.01  3-Jul-2019

 ----------------------------------------------------------------------
 #t hf aug-cc-pvdz iop(5/13=1,5/36=2,99/5=2) pseudo=read geom=check gue
 ss=(read,tcheck) scf=(maxcycle=1)
 ----------------------------------------------------------------------
 -----
 title
 -----
 Structure from the checkpoint file:  "1-2-6-oxathiazine.chk"
 Charge =  0 Multiplicity = 1

                         Standard orientation:
 ---------------------------------------------------------------------
 Center     Atomic      Atomic             Coordinates (Angstroms)
 Number     Number       Type             X           Y           Z
 ---------------------------------------------------------------------
      1         16           0       -1.333869   -0.074841   -0.191279
      2          8           0       -0.280808   -1.189269    0.481817
      3          7           0        1.033450   -1.218918   -0.164297
      4          6           0       -0.367982    1.345481    0.076452
      5          6           0        1.577197   -0.062059   -0.172578
      6          6           0        0.965100    1.208069    0.174489
      7          1           0       -0.880250    2.298065    0.110510
      8          1           0        2.586562   -0.065980   -0.571412
      9          1           0        1.602013    2.063015    0.346729
 ---------------------------------------------------------------------

 SCF Done:  E(RHF) =  -642.391547329     A.U. after    2 cycles

 The electronic state is 1-A.
 Alpha  occ. eigenvalues --  -94.02465 -20.61098 -15.57964 -11.31312 -11.31161
 Alpha  occ. eigenvalues --  -11.27366  -8.30038  -6.27846  -6.27649  -6.27380
 Alpha  occ. eigenvalues --   -1.50246  -1.21186  -1.13445  -0.97716  -0.89682
 Alpha  occ. eigenvalues --   -0.75348  -0.71851  -0.70527  -0.64902  -0.62115
 Alpha  occ. eigenvalues --   -0.56544  -0.51788  -0.51230  -0.46509  -0.44403
 Alpha  occ. eigenvalues --   -0.34622
 Alpha virt. eigenvalues --    0.02882   0.03494   0.04006   0.04816   0.07978
 Alpha virt. eigenvalues --    0.08623   0.10711   0.10947   0.11817   0.13052
 Alpha virt. eigenvalues --    0.13527   0.14147   0.14662   0.14956   0.15324

 Mulliken charges:
               1
     1  S    0.977631
     2  O   -1.395366
     3  N    1.146583
     4  C   -0.352834
     5  C   -1.016347
     6  C    0.977606
     7  H   -0.154075
     8  H   -0.073122
     9  H   -0.110076
 Sum of Mulliken charges =  -0.00000

 Dipole moment (field-independent basis, Debye):
    X=              0.6966    Y=              4.4287    Z=             -0.2848  Tot=              4.4922

 Test job not archived.
 1\1\GINC-SE028\SP\RHF\Aug-CC-pVDZ\C3H3N1O1S1\OHZDE\05-Apr-2025\0\\#t h
 f aug-cc-pvdz iop(5/13=1,5/36=2,99/5=2) pseudo=read geom=check guess=(
 read,tcheck) scf=(maxcycle=1)\\title\\0,1\S,0,-1.333869,-0.074841,-0.1
 91279\O,0,-0.280808,-1.189269,0.481817\N,0,1.03345,-1.218918,-0.164297
 \C,0,-0.367982,1.345481,0.076452\C,0,1.577197,-0.062059,-0.172578\C,0,
 0.9651,1.208069,0.174489\H,0,-0.88025,2.298065,0.11051\H,0,2.586562,-0
 .06598,-0.571412\H,0,1.602013,2.063015,0.346729\\Version=ES64L-G16RevC
 .01\State=1-A\HF=-642.3915473\RMSD=1.903e-02\Dipole=0.2740459,1.742375

 Normal termination of Gaussian 16 at Sat Apr  5 22:20:51 2025.
