 Gaussian 16, Revision C.01,

 ----------------------------------------------------------------------
 #t hf aug-cc-pvdz symm=none int=(grid=ultrafine) guess=(read,tcheck) s
 table=(opt,rrhf)
 ----------------------------------------------------------------------
 -----
 title
 -----
 Symbolic Z-matrix:
 Charge =  0 Multiplicity = 1

 SCF Done:  E(RHF) =  -302.473774387     A.U. after   13 cycles
 Normal termination of Gaussian 16 at Sat Apr  5 22:16:57 2025.
 Gaussian 16:  ES64L-G16RevC.01  3-Jul-2019

 ----------------------------------------------------------------------
 #t hf aug-cc-pvdz iop(5/13=1,5/36=2,99/5=2) pseudo=read geom=check gue
 ss=(read,tcheck) scf=(maxcycle=1)
 ----------------------------------------------------------------------
 -----
 title
 -----
 Structure from the checkpoint file:  "1-2-3-trioxolane.chk"
 Charge =  0 Multiplicity = 1

                         Standard orientation:
 ---------------------------------------------------------------------
 Center     Atomic      Atomic             Coordinates (Angstroms)
 Number     Number       Type             X           Y           Z
 ---------------------------------------------------------------------
      1          8           0       -0.557524   -1.069370    0.000000
      2          8           0        0.138457   -0.482273    1.115905
      3          8           0        0.138457   -0.482273   -1.115905
      4          6           0        0.138457    0.901420    0.775632
      5          6           0        0.138457    0.901420   -0.775632
      6          1           0        1.040255    1.327083    1.210950
      7          1           0        1.040255    1.327083   -1.210950
      8          1           0       -0.748557    1.400059    1.169152
      9          1           0       -0.748557    1.400059   -1.169152
 ---------------------------------------------------------------------

 SCF Done:  E(RHF) =  -302.773155736     A.U. after    2 cycles

 The electronic state is 1-A'.
 Alpha  occ. eigenvalues --  -20.67984 -20.63207 -20.63189 -11.31686 -11.31683
 Alpha  occ. eigenvalues --   -1.67340  -1.45410  -1.24322  -0.99543  -0.87986
 Alpha  occ. eigenvalues --   -0.73668  -0.72842  -0.67330  -0.65604  -0.60936
 Alpha  occ. eigenvalues --   -0.54614  -0.54398  -0.53295  -0.47481  -0.44265
 Alpha virt. eigenvalues --    0.03235   0.04276   0.04398   0.06723   0.08690
 Alpha virt. eigenvalues --    0.11103   0.11413   0.14375   0.14474   0.15945
 Alpha virt. eigenvalues --    0.17461   0.18589   0.18985   0.19918   0.22295

 Mulliken charges:
               1
     1  O   -0.137536
     2  O   -0.702260
     3  O   -0.702260
     4  C    0.573064
     5  C    0.573064
     6  H    0.092524
     7  H    0.092524
     8  H    0.105441
     9  H    0.105441
 Sum of Mulliken charges =   0.00000

 Dipole moment (field-independent basis, Debye):
    X=              0.2998    Y=              3.6281    Z=              0.0000  Tot=              3.6404

 Test job not archived.
 1\1\GINC-SE013\SP\RHF\Aug-CC-pVDZ\C2H4O3\OHZDE\05-Apr-2025\0\\#t hf au
 g-cc-pvdz iop(5/13=1,5/36=2,99/5=2) pseudo=read geom=check guess=(read
 ,tcheck) scf=(maxcycle=1)\\title\\0,1\O,0,-0.557524,-1.06937,0.\O,0,0.
 138457,-0.482273,1.115905\O,0,0.138457,-0.482273,-1.115905\C,0,0.13845
 7,0.90142,0.775632\C,0,0.138457,0.90142,-0.775632\H,0,1.040255,1.32708
 3,1.21095\H,0,1.040255,1.327083,-1.21095\H,0,-0.748557,1.400059,1.1691
 52\H,0,-0.748557,1.400059,-1.169152\\Version=ES64L-G16RevC.01\State=1-
 A'\HF=-302.7731557\RMSD=9.894e-03\Dipole=0.1179598,1.4273968,0.\Quadru

 Normal termination of Gaussian 16 at Sat Apr  5 22:18:00 2025.
