 Gaussian 16, Revision C.01,

 ----------------------------------------------------------------------
 #t hf aug-cc-pvdz symm=none int=(grid=ultrafine) guess=(read,tcheck) s
 table=(opt,rrhf)
 ----------------------------------------------------------------------
 -----
 title
 -----
 Symbolic Z-matrix:
 Charge =  0 Multiplicity = 1

 SCF Done:  E(RHF) =  -601.590745981     A.U. after   15 cycles
 Normal termination of Gaussian 16 at Sat Apr  5 22:16:58 2025.
 Gaussian 16:  ES64L-G16RevC.01  3-Jul-2019

 ----------------------------------------------------------------------
 #t hf aug-cc-pvdz iop(5/13=1,5/36=2,99/5=2) pseudo=read geom=check gue
 ss=(read,tcheck) scf=(maxcycle=1)
 ----------------------------------------------------------------------
 -----
 title
 -----
 Structure from the checkpoint file:  "1-2-3-5-thiatriazolidine.chk"
 Charge =  0 Multiplicity = 1

                         Standard orientation:
 ---------------------------------------------------------------------
 Center     Atomic      Atomic             Coordinates (Angstroms)
 Number     Number       Type             X           Y           Z
 ---------------------------------------------------------------------
      1         16           0        1.269184    0.021996   -0.048659
      2          7           0       -0.119170    1.321785   -0.175767
      3          7           0        0.137738   -1.247091    0.185652
      4          7           0       -1.310756    0.631312    0.167212
      5          6           0       -1.144327   -0.729143   -0.328537
      6          1           0        0.047791    2.004441    0.559957
      7          1           0        0.046505   -1.444294    1.177121
      8          1           0       -1.422605    0.577580    1.179868
      9          1           0       -1.098327   -0.703318   -1.415165
     10          1           0       -1.969029   -1.353521    0.008300
 ---------------------------------------------------------------------

 SCF Done:  E(RHF) =  -601.860588984     A.U. after    2 cycles

 The electronic state is 1-A.
 Alpha  occ. eigenvalues --  -93.99080 -15.56075 -15.54311 -15.53375 -11.30976
 Alpha  occ. eigenvalues --   -8.26612  -6.24355  -6.24224  -6.23907  -1.32948
 Alpha  occ. eigenvalues --   -1.20690  -1.09097  -0.91529  -0.89866  -0.77634
 Alpha  occ. eigenvalues --   -0.70687  -0.68562  -0.62386  -0.57734  -0.56237
 Alpha  occ. eigenvalues --   -0.52158  -0.48590  -0.42040  -0.35443
 Alpha virt. eigenvalues --    0.02856   0.04693   0.04874   0.05629   0.06304
 Alpha virt. eigenvalues --    0.07867   0.09015   0.10262   0.11444   0.13727
 Alpha virt. eigenvalues --    0.14456   0.16221   0.17056   0.17793   0.18278

 Mulliken charges:
               1
     1  S    0.538679
     2  N   -0.158192
     3  N   -0.130670
     4  N   -0.280208
     5  C   -0.787695
     6  H    0.158024
     7  H    0.246438
     8  H    0.293796
     9  H    0.056435
    10  H    0.063392
 Sum of Mulliken charges =  -0.00000

 Dipole moment (field-independent basis, Debye):
    X=             -1.0021    Y=             -0.5700    Z=              2.8353  Tot=              3.0607

 Test job not archived.
 1\1\GINC-SE199\SP\RHF\Aug-CC-pVDZ\C1H5N3S1\OHZDE\05-Apr-2025\0\\#t hf
 aug-cc-pvdz iop(5/13=1,5/36=2,99/5=2) pseudo=read geom=check guess=(re
 ad,tcheck) scf=(maxcycle=1)\\title\\0,1\S,0,1.269184,0.021994,-0.04865
 9\N,0,-0.119168,1.321785,-0.175767\N,0,0.137736,-1.247091,0.185652\N,0
 ,-1.310755,0.631314,0.167212\C,0,-1.144328,-0.729142,-0.328537\H,0,0.0
 47793,2.004441,0.559957\H,0,0.046503,-1.444294,1.177121\H,0,-1.422604,
 0.577582,1.179868\H,0,-1.098328,-0.703317,-1.415165\H,0,-1.969031,-1.3
 53519,0.0083\\Version=ES64L-G16RevC.01\State=1-A\HF=-601.860589\RMSD=1

 Normal termination of Gaussian 16 at Sat Apr  5 22:18:01 2025.
