 Gaussian 16, Revision C.01,

 ----------------------------------------------------------------------
 #t hf aug-cc-pvdz symm=none int=(grid=ultrafine) guess=(read,tcheck) s
 table=(opt,rrhf)
 ----------------------------------------------------------------------
 -----
 title
 -----
 Symbolic Z-matrix:
 Charge =  0 Multiplicity = 1

 SCF Done:  E(RHF) =  -964.854160221     A.U. after   15 cycles
 Normal termination of Gaussian 16 at Sat Apr  5 22:19:14 2025.
 Gaussian 16:  ES64L-G16RevC.01  3-Jul-2019

 ----------------------------------------------------------------------
 #t hf aug-cc-pvdz iop(5/13=1,5/36=2,99/5=2) pseudo=read geom=check gue
 ss=(read,tcheck) scf=(maxcycle=1)
 ----------------------------------------------------------------------
 -----
 title
 -----
 Structure from the checkpoint file:  "1-2-thiazole-32H-thione.chk"
 Charge =  0 Multiplicity = 1

                         Standard orientation:
 ---------------------------------------------------------------------
 Center     Atomic      Atomic             Coordinates (Angstroms)
 Number     Number       Type             X           Y           Z
 ---------------------------------------------------------------------
      1         16           0       -1.852923   -0.547135    0.000003
      2         16           0        2.341496   -0.118506    0.000003
      3          7           0       -0.197443   -0.956196   -0.000012
      4          6           0        0.689320    0.084870   -0.000004
      5          6           0       -0.074363    1.311044   -0.000004
      6          6           0       -1.409363    1.123574    0.000003
      7          1           0        0.409589    2.273247   -0.000007
      8          1           0        0.109128   -1.916200    0.000016
      9          1           0       -2.187332    1.869648    0.000005
 ---------------------------------------------------------------------

 SCF Done:  E(RHF) =  -965.141730671     A.U. after    2 cycles

 The electronic state is 1-A.
 Alpha  occ. eigenvalues --  -94.04212 -93.89484 -15.58613 -11.36084 -11.32845
 Alpha  occ. eigenvalues --  -11.27879  -8.32040  -8.17706  -6.29820  -6.29684
 Alpha  occ. eigenvalues --   -6.29397  -6.15585  -6.15259  -6.15157  -1.32954
 Alpha  occ. eigenvalues --   -1.12726  -1.09134  -0.96681  -0.87884  -0.83494
 Alpha  occ. eigenvalues --   -0.71221  -0.66768  -0.64131  -0.63575  -0.55848
 Alpha  occ. eigenvalues --   -0.52006  -0.46328  -0.42938  -0.33550  -0.31767
 Alpha virt. eigenvalues --    0.02584   0.03376   0.04297   0.04569   0.06978
 Alpha virt. eigenvalues --    0.08114   0.09211   0.09735   0.10595   0.11295
 Alpha virt. eigenvalues --    0.12738   0.13059   0.14105   0.14568   0.16210

 Mulliken charges:
               1
     1  S    0.673058
     2  S    0.071200
     3  N    0.498833
     4  C   -1.329140
     5  C    0.981856
     6  C   -0.659173
     7  H   -0.066952
     8  H   -0.050986
     9  H   -0.118696
 Sum of Mulliken charges =  -0.00000

 Dipole moment (field-independent basis, Debye):
    X=             -5.3999    Y=              0.7422    Z=              0.0000  Tot=              5.4506

 Test job not archived.
 1\1\GINC-SE046\SP\RHF\Aug-CC-pVDZ\C3H3N1S2\OHZDE\05-Apr-2025\0\\#t hf
 aug-cc-pvdz iop(5/13=1,5/36=2,99/5=2) pseudo=read geom=check guess=(re
 ad,tcheck) scf=(maxcycle=1)\\title\\0,1\S,0,-1.852923,-0.547135,0.0000
 03\S,0,2.341496,-0.118506,0.000003\N,0,-0.197443,-0.956196,-0.000012\C
 ,0,0.68932,0.08487,-0.000004\C,0,-0.074363,1.311044,-0.000004\C,0,-1.4
 09363,1.123574,0.000003\H,0,0.409589,2.273247,-0.000007\H,0,0.109128,-
 1.9162,0.000016\H,0,-2.187332,1.869648,0.000005\\Version=ES64L-G16RevC
 .01\State=1-A\HF=-965.1417307\RMSD=2.202e-02\Dipole=-2.1244664,0.29199

 Normal termination of Gaussian 16 at Sat Apr  5 22:20:29 2025.
