 Gaussian 16, Revision C.01,

 ----------------------------------------------------------------------
 #t hf aug-cc-pvdz symm=none int=(grid=ultrafine) guess=(read,tcheck) s
 table=(opt,rrhf)
 ----------------------------------------------------------------------
 -----
 title
 -----
 Symbolic Z-matrix:
 Charge =  0 Multiplicity = 1

 SCF Done:  E(RHF) =  -230.602117174     A.U. after   12 cycles
 Normal termination of Gaussian 16 at Sat Apr  5 22:17:03 2025.
 Gaussian 16:  ES64L-G16RevC.01  3-Jul-2019

 ----------------------------------------------------------------------
 #t hf aug-cc-pvdz iop(5/13=1,5/36=2,99/5=2) pseudo=read geom=check gue
 ss=(read,tcheck) scf=(maxcycle=1)
 ----------------------------------------------------------------------
 -----
 title
 -----
 Structure from the checkpoint file:  "1-2-4-5-hexatetraene.chk"
 Charge =  0 Multiplicity = 1

                         Standard orientation:
 ---------------------------------------------------------------------
 Center     Atomic      Atomic             Coordinates (Angstroms)
 Number     Number       Type             X           Y           Z
 ---------------------------------------------------------------------
      1          6           0       -1.082759    1.467406    0.000000
      2          6           0       -2.155944    2.199238    0.000000
      3          6           0        0.000000    0.731453    0.000000
      4          6           0       -0.000007   -0.731463    0.000000
      5          6           0        1.082753   -1.467415    0.000000
      6          6           0        2.155946   -2.199235    0.000000
      7          1           0       -2.623852    2.519476    0.924515
      8          1           0       -2.623852    2.519476   -0.924515
      9          1           0        0.966558    1.224888    0.000000
     10          1           0       -0.966564   -1.224897    0.000000
     11          1           0        2.623889   -2.519421   -0.924515
     12          1           0        2.623889   -2.519421    0.924515
 ---------------------------------------------------------------------

 SCF Done:  E(RHF) =  -230.842023292     A.U. after    2 cycles

 The electronic state is 1-A'.
 Alpha  occ. eigenvalues --  -11.26693 -11.26691 -11.25922 -11.25877 -11.25091
 Alpha  occ. eigenvalues --  -11.25084  -1.11650  -1.06452  -1.00109  -0.92867
 Alpha  occ. eigenvalues --   -0.73804  -0.72429  -0.66969  -0.64557  -0.62033
 Alpha  occ. eigenvalues --   -0.61705  -0.58475  -0.45632  -0.40217  -0.38544
 Alpha  occ. eigenvalues --   -0.33223
 Alpha virt. eigenvalues --    0.03694   0.03734   0.04609   0.04661   0.05453
 Alpha virt. eigenvalues --    0.05561   0.09430   0.09948   0.10158   0.11091
 Alpha virt. eigenvalues --    0.11158   0.12027   0.12522   0.14171   0.14454

 Mulliken charges:
               1
     1  C   -0.093130
     2  C   -0.037695
     3  C    0.392046
     4  C    0.392042
     5  C   -0.093143
     6  C   -0.037684
     7  H   -0.039640
     8  H   -0.039640
     9  H   -0.181939
    10  H   -0.181938
    11  H   -0.039640
    12  H   -0.039640
 Sum of Mulliken charges =  -0.00000

 Dipole moment (field-independent basis, Debye):
    X=              0.0001    Y=              0.0001    Z=              0.0000  Tot=              0.0001

 Test job not archived.
 1\1\GINC-SE220\SP\RHF\Aug-CC-pVDZ\C6H6\OHZDE\05-Apr-2025\0\\#t hf aug-
 cc-pvdz iop(5/13=1,5/36=2,99/5=2) pseudo=read geom=check guess=(read,t
 check) scf=(maxcycle=1)\\title\\0,1\C,0,0.604942,1.720376,0.\C,0,0.606
 915,3.019337,0.\C,0,0.604942,0.41118,0.\C,0,-0.604954,-0.41118,0.\C,0,
 -0.604953,-1.720376,0.\C,0,-0.606912,-3.019337,0.\H,0,0.608735,3.58633
 5,0.924515\H,0,0.608735,3.586335,-0.924515\H,0,1.556375,-0.110823,0.\H
 ,0,-1.556386,0.110823,0.\H,0,-0.608669,-3.586335,-0.924515\H,0,-0.6086
 69,-3.586335,0.924515\\Version=ES64L-G16RevC.01\State=1-A'\HF=-230.842

 Normal termination of Gaussian 16 at Sat Apr  5 22:18:02 2025.
