 Gaussian 16, Revision C.01,

 ----------------------------------------------------------------------
 #t hf aug-cc-pvdz symm=none int=(grid=ultrafine) guess=(read,tcheck) s
 table=(opt,rrhf)
 ----------------------------------------------------------------------
 -----
 title
 -----
 Symbolic Z-matrix:
 Charge =  0 Multiplicity = 1

 SCF Done:  E(RHF) =  -276.569142688     A.U. after   15 cycles
 Normal termination of Gaussian 16 at Sat Apr  5 22:16:55 2025.
 Gaussian 16:  ES64L-G16RevC.01  3-Jul-2019

 ----------------------------------------------------------------------
 #t hf aug-cc-pvdz iop(5/13=1,5/36=2,99/5=2) pseudo=read geom=check gue
 ss=(read,tcheck) scf=(maxcycle=1)
 ----------------------------------------------------------------------
 -----
 title
 -----
 Structure from the checkpoint file:  "1-2-3-5-oxatriazole.chk"
 Charge =  0 Multiplicity = 1

                         Standard orientation:
 ---------------------------------------------------------------------
 Center     Atomic      Atomic             Coordinates (Angstroms)
 Number     Number       Type             X           Y           Z
 ---------------------------------------------------------------------
      1          8           0       -0.672368   -0.891320   -0.000000
      2          7           0        0.733709   -0.902550    0.000000
      3          7           0        1.120509    0.284725    0.000000
      4          6           0       -0.000000    1.089677   -0.000000
      5          7           0       -1.090635    0.393352   -0.000000
      6          1           0        0.033864    2.163813   -0.000000
 ---------------------------------------------------------------------

 SCF Done:  E(RHF) =  -276.838505822     A.U. after    2 cycles

 The electronic state is 1-A'.
 Alpha  occ. eigenvalues --  -20.69572 -15.67708 -15.62480 -15.60508 -11.34738
 Alpha  occ. eigenvalues --   -1.65726  -1.38958  -1.25100  -0.99084  -0.94294
 Alpha  occ. eigenvalues --   -0.80580  -0.75149  -0.67283  -0.65209  -0.58901
 Alpha  occ. eigenvalues --   -0.56039  -0.55154  -0.48764
 Alpha virt. eigenvalues --    0.02371   0.03308   0.07751   0.08328   0.08894
 Alpha virt. eigenvalues --    0.12721   0.13405   0.14828   0.15472   0.16257
 Alpha virt. eigenvalues --    0.17580   0.17915   0.20050   0.20495   0.24464

 Mulliken charges:
               1
     1  O   -1.293165
     2  N    0.922719
     3  N   -0.290623
     4  C   -0.371331
     5  N    1.008925
     6  H    0.023475
 Sum of Mulliken charges =  -0.00000

 Dipole moment (field-independent basis, Debye):
    X=             -0.0439    Y=              2.2345    Z=             -0.0000  Tot=              2.2350

 Test job not archived.
 1\1\GINC-SE177\SP\RHF\Aug-CC-pVDZ\C1H1N3O1\OHZDE\05-Apr-2025\0\\#t hf
 aug-cc-pvdz iop(5/13=1,5/36=2,99/5=2) pseudo=read geom=check guess=(re
 ad,tcheck) scf=(maxcycle=1)\\title\\0,1\O,0,-0.672368,-0.89132,0.\N,0,
 0.733709,-0.90255,0.\N,0,1.120509,0.284725,0.\C,0,0.,1.089677,0.\N,0,-
 1.090635,0.393352,0.\H,0,0.033864,2.163813,0.\\Version=ES64L-G16RevC.0
 1\State=1-A'\HF=-276.8385058\RMSD=3.588e-02\Dipole=-0.0172795,0.879136
 6,0.\Quadrupole=-3.4434837,3.1452289,0.2982548,0.6752939,0.,0.\PG=CS [
 SG(C1H1N3O1)]\\@

 Normal termination of Gaussian 16 at Sat Apr  5 22:18:01 2025.
