 Gaussian 16, Revision C.01,

 ----------------------------------------------------------------------
 #t hf aug-cc-pvdz symm=none int=(grid=ultrafine) guess=(read,tcheck) s
 table=(opt,rrhf)
 ----------------------------------------------------------------------
 -----
 title
 -----
 Symbolic Z-matrix:
 Charge =  0 Multiplicity = 1

 SCF Done:  E(RHF) =  -982.020538603     A.U. after   15 cycles
 Normal termination of Gaussian 16 at Sat Apr  5 22:17:00 2025.
 Gaussian 16:  ES64L-G16RevC.01  3-Jul-2019

 ----------------------------------------------------------------------
 #t hf aug-cc-pvdz iop(5/13=1,5/36=2,99/5=2) pseudo=read geom=check gue
 ss=(read,tcheck) scf=(maxcycle=1)
 ----------------------------------------------------------------------
 -----
 title
 -----
 Structure from the checkpoint file:  "1-2-3-dithiazolidin-4-imine.chk"
 Charge =  0 Multiplicity = 1

                         Standard orientation:
 ---------------------------------------------------------------------
 Center     Atomic      Atomic             Coordinates (Angstroms)
 Number     Number       Type             X           Y           Z
 ---------------------------------------------------------------------
      1         16           0       -1.169858   -1.011282    0.175331
      2         16           0       -1.142550    1.044339   -0.322638
      3          7           0        0.518150   -1.217936   -0.077229
      4          7           0        2.527323   -0.088721   -0.233399
      5          6           0        1.295329   -0.062239    0.065703
      6          6           0        0.478211    1.133537    0.539987
      7          1           0        0.785257   -1.791625   -0.865407
      8          1           0        2.962650    0.821414   -0.123246
      9          1           0        0.970962    2.062828    0.267287
     10          1           0        0.320110    1.097290    1.618539
 ---------------------------------------------------------------------

 SCF Done:  E(RHF) =  -982.331586693     A.U. after    2 cycles

 The electronic state is 1-A.
 Alpha  occ. eigenvalues --  -94.01802 -93.99112 -15.55014 -15.49252 -11.34778
 Alpha  occ. eigenvalues --  -11.30668  -8.29420  -8.27064  -6.27172  -6.27026
 Alpha  occ. eigenvalues --   -6.26693  -6.24822  -6.24699  -6.24399  -1.30182
 Alpha  occ. eigenvalues --   -1.19701  -1.10410  -1.00536  -0.88464  -0.83336
 Alpha  occ. eigenvalues --   -0.73900  -0.68507  -0.63949  -0.62252  -0.59077
 Alpha  occ. eigenvalues --   -0.53783  -0.49312  -0.48037  -0.45175  -0.40957
 Alpha  occ. eigenvalues --   -0.35159
 Alpha virt. eigenvalues --    0.03076   0.04304   0.04898   0.05538   0.06097
 Alpha virt. eigenvalues --    0.06808   0.09579   0.10154   0.11393   0.11888
 Alpha virt. eigenvalues --    0.12692   0.13341   0.14035   0.14841   0.15564

 Mulliken charges:
               1
     1  S    0.235173
     2  S    0.229782
     3  N    0.415970
     4  N    0.708771
     5  C   -1.834525
     6  C   -0.520932
     7  H    0.104008
     8  H    0.201362
     9  H    0.201519
    10  H    0.258873
 Sum of Mulliken charges =  -0.00000

 Dipole moment (field-independent basis, Debye):
    X=             -0.7607    Y=              1.8897    Z=              0.4785  Tot=              2.0925

 Test job not archived.
 1\1\GINC-SE225\SP\RHF\Aug-CC-pVDZ\C2H4N2S2\OHZDE\05-Apr-2025\0\\#t hf
 aug-cc-pvdz iop(5/13=1,5/36=2,99/5=2) pseudo=read geom=check guess=(re
 ad,tcheck) scf=(maxcycle=1)\\title\\0,1\S,0,-1.169858,-1.011282,0.1753
 31\S,0,-1.14255,1.044339,-0.322638\N,0,0.51815,-1.217936,-0.077229\N,0
 ,2.527323,-0.088722,-0.233399\C,0,1.295329,-0.062239,0.065703\C,0,0.47
 8211,1.133537,0.539987\H,0,0.785257,-1.791625,-0.865407\H,0,2.96265,0.
 821413,-0.123246\H,0,0.970963,2.062828,0.267287\H,0,0.32011,1.09729,1.
 618539\\Version=ES64L-G16RevC.01\State=1-A\HF=-982.3315867\RMSD=1.769e

 Normal termination of Gaussian 16 at Sat Apr  5 22:18:01 2025.
