 Gaussian 16, Revision C.01,

 ----------------------------------------------------------------------
 #t hf aug-cc-pvdz symm=none int=(grid=ultrafine) guess=(read,tcheck) s
 table=(opt,rrhf)
 ----------------------------------------------------------------------
 -----
 title
 -----
 Symbolic Z-matrix:
 Charge =  0 Multiplicity = 1

 SCF Done:  E(RHF) =  -240.813167471     A.U. after   12 cycles
 Normal termination of Gaussian 16 at Sat Apr  5 22:19:08 2025.
 Gaussian 16:  ES64L-G16RevC.01  3-Jul-2019

 ----------------------------------------------------------------------
 #t hf aug-cc-pvdz iop(5/13=1,5/36=2,99/5=2) pseudo=read geom=check gue
 ss=(read,tcheck) scf=(maxcycle=1)
 ----------------------------------------------------------------------
 -----
 title
 -----
 Structure from the checkpoint file:  "1-2-5-triazole.chk"
 Charge =  0 Multiplicity = 1

                         Standard orientation:
 ---------------------------------------------------------------------
 Center     Atomic      Atomic             Coordinates (Angstroms)
 Number     Number       Type             X           Y           Z
 ---------------------------------------------------------------------
      1          7           0        0.000000    1.125330    0.353534
      2          7           0        0.000000    0.000000    1.049856
      3          7           0       -0.000000   -1.125330    0.353534
      4          6           0        0.000000   -0.700907   -0.908175
      5          6           0        0.000000    0.700907   -0.908175
      6          1           0        0.000000    0.000000    2.055597
      7          1           0        0.000000   -1.396879   -1.727982
      8          1           0        0.000000    1.396879   -1.727982
 ---------------------------------------------------------------------

 SCF Done:  E(RHF) =  -241.057517964     A.U. after    2 cycles

 The electronic state is 1-A1.
 Alpha  occ. eigenvalues --  -15.62320 -15.55986 -15.55904 -11.27412 -11.27332
 Alpha  occ. eigenvalues --   -1.44696  -1.21699  -1.13053  -0.89259  -0.89106
 Alpha  occ. eigenvalues --   -0.79600  -0.69636  -0.66185  -0.64930  -0.54596
 Alpha  occ. eigenvalues --   -0.53158  -0.44809  -0.40947
 Alpha virt. eigenvalues --    0.03230   0.04834   0.05331   0.08022   0.08406
 Alpha virt. eigenvalues --    0.11400   0.11724   0.12415   0.12507   0.13536
 Alpha virt. eigenvalues --    0.15560   0.17041   0.17755   0.17903   0.18962

 Mulliken charges:
               1
     1  N    0.195903
     2  N   -0.107457
     3  N    0.195903
     4  C   -0.034562
     5  C   -0.034562
     6  H    0.082981
     7  H   -0.149103
     8  H   -0.149103
 Sum of Mulliken charges =  -0.00000

 Dipole moment (field-independent basis, Debye):
    X=             -0.0000    Y=             -0.0000    Z=             -1.0466  Tot=              1.0466

 Test job not archived.
 1\1\GINC-SE010\SP\RHF\Aug-CC-pVDZ\C2H3N3\OHZDE\05-Apr-2025\0\\#t hf au
 g-cc-pvdz iop(5/13=1,5/36=2,99/5=2) pseudo=read geom=check guess=(read
 ,tcheck) scf=(maxcycle=1)\\title\\0,1\N,0,0.,1.12533,0.353534\N,0,0.,0
 .,1.049856\N,0,0.,-1.12533,0.353534\C,0,0.,-0.700907,-0.908175\C,0,0.,
 0.700907,-0.908175\H,0,0.,0.,2.055597\H,0,0.,-1.396879,-1.727982\H,0,0
 .,1.396879,-1.727982\\Version=ES64L-G16RevC.01\State=1-A1\HF=-241.0575
 18\RMSD=4.768e-02\Dipole=0.,0.,-0.4117538\Quadrupole=-2.4018,-3.74529,
 6.14709,0.,0.,0.\PG=C02V [C2(N1H1),SGV(C2H2N2)]\\@

 Normal termination of Gaussian 16 at Sat Apr  5 22:20:28 2025.
