 Gaussian 16, Revision C.01,

 ----------------------------------------------------------------------
 #t hf aug-cc-pvdz symm=none int=(grid=ultrafine) guess=(read,tcheck) s
 table=(opt,rrhf)
 ----------------------------------------------------------------------
 -----
 title
 -----
 Symbolic Z-matrix:
 Charge =  0 Multiplicity = 1

 SCF Done:  E(RHF) =  -276.964303918     A.U. after   11 cycles
 Normal termination of Gaussian 16 at Sat Apr  5 22:20:44 2025.
 Gaussian 16:  ES64L-G16RevC.01  3-Jul-2019

 ----------------------------------------------------------------------
 #t hf aug-cc-pvdz iop(5/13=1,5/36=2,99/5=2) pseudo=read geom=check gue
 ss=(read,tcheck) scf=(maxcycle=1)
 ----------------------------------------------------------------------
 -----
 title
 -----
 Structure from the checkpoint file:  "1-2-difluoroethane.chk"
 Charge =  0 Multiplicity = 1

                         Standard orientation:
 ---------------------------------------------------------------------
 Center     Atomic      Atomic             Coordinates (Angstroms)
 Number     Number       Type             X           Y           Z
 ---------------------------------------------------------------------
      1          6           0        0.425915    0.627157    0.000000
      2          6           0       -0.425915   -0.627157    0.000000
      3          9           0       -0.425915    1.731378    0.000000
      4          9           0        0.425915   -1.731378    0.000000
      5          1           0        1.051850    0.677105    0.891207
      6          1           0        1.051850    0.677105   -0.891207
      7          1           0       -1.051850   -0.677105    0.891207
      8          1           0       -1.051850   -0.677105   -0.891207
 ---------------------------------------------------------------------

 SCF Done:  E(RHF) =  -277.233041171     A.U. after    2 cycles

 The electronic state is 1-AG.
 Alpha  occ. eigenvalues --  -26.46032 -26.46032 -11.33471 -11.33448  -1.58419
 Alpha  occ. eigenvalues --   -1.57580  -1.03985  -0.88373  -0.73619  -0.71412
 Alpha  occ. eigenvalues --   -0.70166  -0.67225  -0.64977  -0.60654  -0.55593
 Alpha  occ. eigenvalues --   -0.51367  -0.51344
 Alpha virt. eigenvalues --    0.04051   0.04264   0.04389   0.07701   0.08546
 Alpha virt. eigenvalues --    0.11799   0.12124   0.14775   0.14935   0.16572
 Alpha virt. eigenvalues --    0.16912   0.19392   0.22073   0.25966   0.28371

 Mulliken charges:
               1
     1  C    0.433387
     2  C    0.433387
     3  F   -0.696844
     4  F   -0.696844
     5  H    0.131728
     6  H    0.131728
     7  H    0.131728
     8  H    0.131728
 Sum of Mulliken charges =  -0.00000

 Dipole moment (field-independent basis, Debye):
    X=             -0.0000    Y=              0.0000    Z=             -0.0000  Tot=              0.0000

 Test job not archived.
 1\1\GINC-SE222\SP\RHF\Aug-CC-pVDZ\C2H4F2\OHZDE\05-Apr-2025\0\\#t hf au
 g-cc-pvdz iop(5/13=1,5/36=2,99/5=2) pseudo=read geom=check guess=(read
 ,tcheck) scf=(maxcycle=1)\\title\\0,1\C,0,0.425915,0.627157,0.\C,0,-0.
 425915,-0.627157,0.\F,0,-0.425915,1.731378,0.\F,0,0.425915,-1.731378,0
 .\H,0,1.05185,0.677105,0.891207\H,0,1.05185,0.677105,-0.891207\H,0,-1.
 05185,-0.677105,0.891207\H,0,-1.05185,-0.677105,-0.891207\\Version=ES6
 4L-G16RevC.01\State=1-AG\HF=-277.2330412\RMSD=6.764e-03\Dipole=0.,0.,0
 .\Quadrupole=1.7310679,-3.9850616,2.2539937,2.5535041,0.,0.\PG=C02H [S

 Normal termination of Gaussian 16 at Sat Apr  5 22:20:49 2025.
