 Gaussian 16, Revision C.01,

 ----------------------------------------------------------------------
 #t hf aug-cc-pvdz symm=none int=(grid=ultrafine) guess=(read,tcheck) s
 table=(opt,rrhf)
 ----------------------------------------------------------------------
 -----
 title
 -----
 Symbolic Z-matrix:
 Charge =  0 Multiplicity = 1

 SCF Done:  E(RHF) =  -1075.16949446     A.U. after   13 cycles

 1\1\GINC-SE190\Stability\RHF\Aug-CC-pVDZ\C4H8Cl2\OHZDE\05-Apr-2025\0\\
 #t hf aug-cc-pvdz symm=none int=(grid=ultrafine) guess=(read,tcheck) s
 table=(opt,rrhf)\\title\\0,1\H,0,0.81997,0.970836,1.504408\H,0,-1.1665
 48,-1.746969,-0.177938\H,0,-0.984908,-0.88052,1.362012\C,0,-1.009069,-
 0.777888,0.281092\H,0,0.177283,0.021144,-1.322049\Cl,0,1.582703,-1.367
 58,-0.036028\C,0,0.252711,-0.117091,-0.245865\C,0,0.632489,1.180766,0.
 448756\H,0,2.728827,1.294378,-0.120432\H,0,2.019134,2.837293,0.35229\H
 ,0,1.638622,2.14094,-1.219876\C,0,1.825906,1.901249,-0.171533\H,0,-0.2

 Normal termination of Gaussian 16 at Sat Apr  5 22:19:32 2025.
 Gaussian 16:  ES64L-G16RevC.01  3-Jul-2019

 ----------------------------------------------------------------------
 #t hf aug-cc-pvdz iop(5/13=1,5/36=2,99/5=2) pseudo=read geom=check gue
 ss=(read,tcheck) scf=(maxcycle=1)
 ----------------------------------------------------------------------
 -----
 title
 -----
 Structure from the checkpoint file:  "1-2-dichlorobutane.chk"
 Charge =  0 Multiplicity = 1

                         Standard orientation:
 ---------------------------------------------------------------------
 Center     Atomic      Atomic             Coordinates (Angstroms)
 Number     Number       Type             X           Y           Z
 ---------------------------------------------------------------------
      1          1           0        0.819970    0.970836    1.504408
      2          1           0       -1.166548   -1.746969   -0.177938
      3          1           0       -0.984908   -0.880520    1.362012
      4          6           0       -1.009069   -0.777888    0.281092
      5          1           0        0.177283    0.021144   -1.322049
      6         17           0        1.582703   -1.367580   -0.036028
      7          6           0        0.252711   -0.117091   -0.245865
      8          6           0        0.632489    1.180766    0.448756
      9          1           0        2.728827    1.294378   -0.120432
     10          1           0        2.019134    2.837293    0.352290
     11          1           0        1.638622    2.140940   -1.219876
     12          6           0        1.825906    1.901249   -0.171533
     13          1           0       -0.246766    1.827735    0.407093
     14         17           0       -2.476694    0.215400   -0.120455
 ---------------------------------------------------------------------

 SCF Done:  E(RHF) =  -1075.49466150     A.U. after    2 cycles

 The electronic state is 1-A.
 Alpha  occ. eigenvalues -- -105.56695-105.56222 -11.32588 -11.32118 -11.25203
 Alpha  occ. eigenvalues --  -11.23491 -10.61489 -10.61023  -7.78427  -7.78064
 Alpha  occ. eigenvalues --   -7.78050  -7.77950  -7.77604  -7.77589  -1.16600
 Alpha  occ. eigenvalues --   -1.08206  -1.03397  -0.95347  -0.88400  -0.81034
 Alpha  occ. eigenvalues --   -0.67675  -0.64948  -0.64159  -0.59611  -0.58248
 Alpha  occ. eigenvalues --   -0.53833  -0.52894  -0.51683  -0.49865  -0.46795
 Alpha  occ. eigenvalues --   -0.45452  -0.45091  -0.44627
 Alpha virt. eigenvalues --    0.03743   0.03972   0.04216   0.04971   0.06059
 Alpha virt. eigenvalues --    0.06480   0.07562   0.08569   0.09216   0.11369
 Alpha virt. eigenvalues --    0.12371   0.12825   0.13975   0.15085   0.16042

 Mulliken charges:
               1
     1  H    0.153113
     2  H    0.214807
     3  H    0.272461
     4  C   -0.252040
     5  H    0.143356
     6  Cl  -0.103940
     7  C   -0.436879
     8  C   -0.249760
     9  H    0.195787
    10  H    0.127344
    11  H    0.168665
    12  C   -0.356238
    13  H    0.200958
    14  Cl  -0.077634
 Sum of Mulliken charges =  -0.00000

 Dipole moment (field-independent basis, Debye):
    X=              0.3195    Y=              0.7358    Z=              0.2959  Tot=              0.8550

 Test job not archived.
 1\1\GINC-SE190\SP\RHF\Aug-CC-pVDZ\C4H8Cl2\OHZDE\05-Apr-2025\0\\#t hf a
 ug-cc-pvdz iop(5/13=1,5/36=2,99/5=2) pseudo=read geom=check guess=(rea
 d,tcheck) scf=(maxcycle=1)\\title\\0,1\H,0,0.81997,0.970836,1.504408\H
 ,0,-1.166548,-1.746969,-0.177938\H,0,-0.984908,-0.88052,1.362012\C,0,-
 1.009069,-0.777888,0.281092\H,0,0.177283,0.021144,-1.322049\Cl,0,1.582
 703,-1.36758,-0.036028\C,0,0.252711,-0.117091,-0.245865\C,0,0.632489,1
 .180766,0.448756\H,0,2.728827,1.294378,-0.120432\H,0,2.019134,2.837293
 ,0.35229\H,0,1.638622,2.14094,-1.219876\C,0,1.825906,1.901249,-0.17153

 Normal termination of Gaussian 16 at Sat Apr  5 22:20:31 2025.
