 Gaussian 16, Revision C.01,

 ----------------------------------------------------------------------
 #t hf aug-cc-pvdz symm=none int=(grid=ultrafine) guess=(read,tcheck) s
 table=(opt,rrhf)
 ----------------------------------------------------------------------
 -----
 title
 -----
 Symbolic Z-matrix:
 Charge =  0 Multiplicity = 1

 SCF Done:  E(RHF) =  -1088.81557643     A.U. after   14 cycles
 Normal termination of Gaussian 16 at Sat Apr  5 22:19:14 2025.
 Gaussian 16:  ES64L-G16RevC.01  3-Jul-2019

 ----------------------------------------------------------------------
 #t hf aug-cc-pvdz iop(5/13=1,5/36=2,99/5=2) pseudo=read geom=check gue
 ss=(read,tcheck) scf=(maxcycle=1)
 ----------------------------------------------------------------------
 -----
 title
 -----
 Structure from the checkpoint file:  "1-2-dichloro-1-cyanoethane.chk"
 Charge =  0 Multiplicity = 1

                         Standard orientation:
 ---------------------------------------------------------------------
 Center     Atomic      Atomic             Coordinates (Angstroms)
 Number     Number       Type             X           Y           Z
 ---------------------------------------------------------------------
      1         17           0        0.551587    1.629115    0.087511
      2         17           0       -2.244644   -0.339481   -0.083117
      3          7           0        2.790232   -1.254867    0.059102
      4          6           0        0.482758   -0.120609   -0.375006
      5          6           0       -0.599970   -0.872040    0.395411
      6          6           0        1.784559   -0.732929   -0.133991
      7          1           0        0.269104   -0.138557   -1.441420
      8          1           0       -0.528062   -1.933131    0.170399
      9          1           0       -0.494775   -0.714549    1.464113
 ---------------------------------------------------------------------

 SCF Done:  E(RHF) =  -1089.13620543     A.U. after    2 cycles

 The electronic state is 1-A.
 Alpha  occ. eigenvalues -- -105.59792-105.58800 -15.54755 -11.38753 -11.35242
 Alpha  occ. eigenvalues --  -11.31199 -10.64556 -10.63597  -7.81504  -7.81092
 Alpha  occ. eigenvalues --   -7.81086  -7.80548  -7.80155  -7.80140  -1.27035
 Alpha  occ. eigenvalues --   -1.19405  -1.10639  -1.01219  -0.90556  -0.76894
 Alpha  occ. eigenvalues --   -0.70798  -0.66059  -0.63868  -0.60723  -0.58377
 Alpha  occ. eigenvalues --   -0.53363  -0.52771  -0.49241  -0.48937  -0.47446
 Alpha  occ. eigenvalues --   -0.47151
 Alpha virt. eigenvalues --    0.03179   0.04194   0.04909   0.06391   0.07163
 Alpha virt. eigenvalues --    0.08913   0.10746   0.11180   0.11656   0.12507
 Alpha virt. eigenvalues --    0.13619   0.13745   0.15067   0.15616   0.16588

 Mulliken charges:
               1
     1  Cl   0.033761
     2  Cl  -0.006133
     3  N    0.883194
     4  C    0.008551
     5  C   -0.426568
     6  C   -1.335660
     7  H    0.284981
     8  H    0.261701
     9  H    0.296174
 Sum of Mulliken charges =  -0.00000

 Dipole moment (field-independent basis, Debye):
    X=             -2.3159    Y=             -0.3199    Z=             -0.4984  Tot=              2.3904

 Test job not archived.
 1\1\GINC-SE165\SP\RHF\Aug-CC-pVDZ\C3H3Cl2N1\OHZDE\05-Apr-2025\0\\#t hf
  aug-cc-pvdz iop(5/13=1,5/36=2,99/5=2) pseudo=read geom=check guess=(r
 ead,tcheck) scf=(maxcycle=1)\\title\\0,1\Cl,0,0.551587,1.629115,0.0875
 11\Cl,0,-2.244644,-0.339481,-0.083117\N,0,2.790232,-1.254867,0.059102\
 C,0,0.482758,-0.120609,-0.375006\C,0,-0.59997,-0.87204,0.395411\C,0,1.
 784559,-0.732929,-0.133991\H,0,0.269104,-0.138557,-1.44142\H,0,-0.5280
 62,-1.933131,0.170399\H,0,-0.494775,-0.714549,1.464113\\Version=ES64L-
 G16RevC.01\State=1-A\HF=-1089.1362054\RMSD=1.648e-02\Dipole=-0.9111356

 Normal termination of Gaussian 16 at Sat Apr  5 22:20:29 2025.
