 Gaussian 16, Revision C.01,

 ----------------------------------------------------------------------
 #t hf aug-cc-pvdz symm=none int=(grid=ultrafine) guess=(read,tcheck) s
 table=(opt,rrhf)
 ----------------------------------------------------------------------
 -----
 title
 -----
 Symbolic Z-matrix:
 Charge =  0 Multiplicity = 1

 SCF Done:  E(RHF) =  -1146.72338554     A.U. after   14 cycles
 Normal termination of Gaussian 16 at Sat Apr  5 22:20:53 2025.
 Gaussian 16:  ES64L-G16RevC.01  3-Jul-2019

 ----------------------------------------------------------------------
 #t hf aug-cc-pvdz iop(5/13=1,5/36=2,99/5=2) pseudo=read geom=check gue
 ss=(read,tcheck) scf=(maxcycle=1)
 ----------------------------------------------------------------------
 -----
 title
 -----
 Structure from the checkpoint file:  "1-2-dichloroethyl_hydroperoxide.chk"
 Charge =  0 Multiplicity = 1

                         Standard orientation:
 ---------------------------------------------------------------------
 Center     Atomic      Atomic             Coordinates (Angstroms)
 Number     Number       Type             X           Y           Z
 ---------------------------------------------------------------------
      1         17           0       -0.802776    1.542890   -0.140419
      2         17           0        2.113305   -0.235887   -0.445398
      3          8           0       -0.818187   -1.131783   -0.204327
      4          8           0       -2.257807   -1.225852   -0.211671
      5          6           0       -0.450958   -0.091853    0.628640
      6          6           0        1.015455   -0.237799    0.975858
      7          1           0       -1.051458   -0.091718    1.536612
      8          1           0        1.314562    0.581471    1.620958
      9          1           0        1.157889   -1.186487    1.487459
     10          1           0       -2.479028   -0.683324   -0.985157
 ---------------------------------------------------------------------

 SCF Done:  E(RHF) =  -1147.10221690     A.U. after    2 cycles

 The electronic state is 1-A.
 Alpha  occ. eigenvalues -- -105.57143-105.57041 -20.65272 -20.64552 -11.39352
 Alpha  occ. eigenvalues --  -11.33370 -10.61979 -10.61842  -7.78905  -7.78793
 Alpha  occ. eigenvalues --   -7.78551  -7.78526  -7.78396  -7.78384  -1.62955
 Alpha  occ. eigenvalues --   -1.34267  -1.13903  -1.07579  -0.97314  -0.84740
 Alpha  occ. eigenvalues --   -0.76929  -0.70442  -0.69490  -0.66420  -0.61632
 Alpha  occ. eigenvalues --   -0.57147  -0.56307  -0.51941  -0.49017  -0.47354
 Alpha  occ. eigenvalues --   -0.46573  -0.45836  -0.45438
 Alpha virt. eigenvalues --    0.03404   0.04391   0.05085   0.05377   0.08017
 Alpha virt. eigenvalues --    0.09418   0.11807   0.12925   0.13792   0.14314
 Alpha virt. eigenvalues --    0.14696   0.16014   0.16636   0.17192   0.17322

 Mulliken charges:
               1
     1  Cl  -0.096014
     2  Cl  -0.014459
     3  O   -0.787349
     4  O   -0.490569
     5  C    0.640127
     6  C   -0.513378
     7  H    0.281914
     8  H    0.276642
     9  H    0.269534
    10  H    0.433552
 Sum of Mulliken charges =  -0.00000

 Dipole moment (field-independent basis, Debye):
    X=             -0.8024    Y=             -0.0406    Z=              1.9351  Tot=              2.0952

 Test job not archived.
 1\1\GINC-SE196\SP\RHF\Aug-CC-pVDZ\C2H4Cl2O2\OHZDE\05-Apr-2025\0\\#t hf
  aug-cc-pvdz iop(5/13=1,5/36=2,99/5=2) pseudo=read geom=check guess=(r
 ead,tcheck) scf=(maxcycle=1)\\title\\0,1\Cl,0,-0.802776,1.54289,-0.140
 419\Cl,0,2.113305,-0.235887,-0.445398\O,0,-0.818187,-1.131783,-0.20432
 7\O,0,-2.257807,-1.225852,-0.211671\C,0,-0.450958,-0.091853,0.62864\C,
 0,1.015455,-0.237799,0.975858\H,0,-1.051458,-0.091718,1.536612\H,0,1.3
 14562,0.581471,1.620958\H,0,1.157889,-1.186487,1.487459\H,0,-2.479028,
 -0.683324,-0.985157\\Version=ES64L-G16RevC.01\State=1-A\HF=-1147.10221

 Normal termination of Gaussian 16 at Sat Apr  5 22:20:59 2025.
