 Gaussian 16, Revision C.01,

 ----------------------------------------------------------------------
 #t hf aug-cc-pvdz symm=none int=(grid=ultrafine) guess=(read,tcheck) s
 table=(opt,rrhf)
 ----------------------------------------------------------------------
 -----
 title
 -----
 Symbolic Z-matrix:
 Charge =  0 Multiplicity = 1

 SCF Done:  E(RHF) =  -282.734519810     A.U. after   14 cycles
 Normal termination of Gaussian 16 at Sat Apr  5 22:18:07 2025.
 Gaussian 16:  ES64L-G16RevC.01  3-Jul-2019

 ----------------------------------------------------------------------
 #t hf aug-cc-pvdz iop(5/13=1,5/36=2,99/5=2) pseudo=read geom=check gue
 ss=(read,tcheck) scf=(maxcycle=1)
 ----------------------------------------------------------------------
 -----
 title
 -----
 Structure from the checkpoint file:  "1-2-4-dioxazolidine.chk"
 Charge =  0 Multiplicity = 1

                         Standard orientation:
 ---------------------------------------------------------------------
 Center     Atomic      Atomic             Coordinates (Angstroms)
 Number     Number       Type             X           Y           Z
 ---------------------------------------------------------------------
      1          8           0       -0.804675   -0.888675   -0.282832
      2          8           0        0.593730   -1.074263    0.088267
      3          7           0        0.083190    1.201711   -0.098487
      4          6           0       -1.066718    0.402828    0.261301
      5          6           0        1.178668    0.263370    0.057915
      6          1           0       -1.160115    0.336301    1.347953
      7          1           0       -1.985775    0.765929   -0.193125
      8          1           0        1.887206    0.349577   -0.766514
      9          1           0        1.686490    0.379911    1.015848
     10          1           0        0.005721    1.462625   -1.073532
 ---------------------------------------------------------------------

 SCF Done:  E(RHF) =  -283.020408343     A.U. after    2 cycles

 The electronic state is 1-A.
 Alpha  occ. eigenvalues --  -20.61216 -20.60766 -15.51767 -11.32985 -11.32936
 Alpha  occ. eigenvalues --   -1.58971  -1.29856  -1.23404  -0.92743  -0.89326
 Alpha  occ. eigenvalues --   -0.76176  -0.71568  -0.65843  -0.65339  -0.59288
 Alpha  occ. eigenvalues --   -0.56141  -0.54943  -0.51228  -0.46503  -0.42220
 Alpha virt. eigenvalues --    0.03312   0.04709   0.04796   0.06088   0.06252
 Alpha virt. eigenvalues --    0.09345   0.09903   0.12078   0.14646   0.15508
 Alpha virt. eigenvalues --    0.16141   0.16642   0.17496   0.18730   0.19515

 Mulliken charges:
               1
     1  O   -0.693397
     2  O   -0.761887
     3  N    0.138273
     4  C    0.355698
     5  C    0.327967
     6  H    0.116698
     7  H    0.040497
     8  H    0.051580
     9  H    0.078845
    10  H    0.345726
 Sum of Mulliken charges =   0.00000

 Dipole moment (field-independent basis, Debye):
    X=              0.0555    Y=              2.0852    Z=             -0.3952  Tot=              2.1230

 Test job not archived.
 1\1\GINC-SE165\SP\RHF\Aug-CC-pVDZ\C2H5N1O2\OHZDE\05-Apr-2025\0\\#t hf
 aug-cc-pvdz iop(5/13=1,5/36=2,99/5=2) pseudo=read geom=check guess=(re
 ad,tcheck) scf=(maxcycle=1)\\title\\0,1\O,0,-0.804673,-0.888677,-0.282
 832\O,0,0.593732,-1.074262,0.088267\N,0,0.083188,1.201711,-0.098487\C,
 0,-1.066719,0.402826,0.261301\C,0,1.178668,0.263372,0.057915\H,0,-1.16
 0116,0.336299,1.347953\H,0,-1.985776,0.765925,-0.193125\H,0,1.887205,0
 .34958,-0.766514\H,0,1.686489,0.379914,1.015848\H,0,0.005718,1.462625,
 -1.073532\\Version=ES64L-G16RevC.01\State=1-A\HF=-283.0204083\RMSD=1.0

 Normal termination of Gaussian 16 at Sat Apr  5 22:18:13 2025.
