 Gaussian 16, Revision C.01,

 ----------------------------------------------------------------------
 #t hf aug-cc-pvdz symm=none int=(grid=ultrafine) guess=(read,tcheck) s
 table=(opt,rrhf)
 ----------------------------------------------------------------------
 -----
 title
 -----
 Symbolic Z-matrix:
 Charge =  0 Multiplicity = 1

 SCF Done:  E(RHF) =  -278.679445031     A.U. after   15 cycles
 Normal termination of Gaussian 16 at Sat Apr  5 22:18:20 2025.
 Gaussian 16:  ES64L-G16RevC.01  3-Jul-2019

 ----------------------------------------------------------------------
 #t hf aug-cc-pvdz iop(5/13=1,5/36=2,99/5=2) pseudo=read geom=check gue
 ss=(read,tcheck) scf=(maxcycle=1)
 ----------------------------------------------------------------------
 -----
 title
 -----
 Structure from the checkpoint file:  "1-2-4-triazine.chk"
 Charge =  0 Multiplicity = 1

                         Standard orientation:
 ---------------------------------------------------------------------
 Center     Atomic      Atomic             Coordinates (Angstroms)
 Number     Number       Type             X           Y           Z
 ---------------------------------------------------------------------
      1          6           0        0.000000    1.283548    0.000000
      2          7           0        1.195886    0.688755    0.000000
      3          7           0       -1.187170    0.683937    0.000000
      4          6           0        1.154952   -0.633315    0.000000
      5          6           0       -0.067010   -1.302568    0.000000
      6          7           0       -1.219098   -0.643966    0.000000
      7          1           0       -0.131661   -2.382786    0.000000
      8          1           0        2.096736   -1.170292    0.000000
      9          1           0       -0.020059    2.366010    0.000000
 ---------------------------------------------------------------------

 SCF Done:  E(RHF) =  -278.955997760     A.U. after    2 cycles

 The electronic state is 1-A'.
 Alpha  occ. eigenvalues --  -15.58173 -15.56145 -15.54694 -11.33091 -11.32433
 Alpha  occ. eigenvalues --  -11.30219  -1.38311  -1.26654  -1.15269  -0.97771
 Alpha  occ. eigenvalues --   -0.96288  -0.79879  -0.77187  -0.69600  -0.64645
 Alpha  occ. eigenvalues --   -0.64214  -0.57502  -0.54167  -0.50509  -0.45800
 Alpha  occ. eigenvalues --   -0.42757
 Alpha virt. eigenvalues --    0.02065   0.02944   0.04322   0.04970   0.06976
 Alpha virt. eigenvalues --    0.08304   0.09570   0.09819   0.10606   0.11455
 Alpha virt. eigenvalues --    0.12855   0.14152   0.14185   0.15453   0.16186

 Mulliken charges:
               1
     1  C   -0.397456
     2  N    0.766680
     3  N    0.126913
     4  C   -0.465151
     5  C    0.021428
     6  N    0.130738
     7  H   -0.066237
     8  H   -0.098113
     9  H   -0.018802
 Sum of Mulliken charges =  -0.00000

 Dipole moment (field-independent basis, Debye):
    X=              2.8753    Y=             -1.6552    Z=              0.0000  Tot=              3.3177

 Test job not archived.
 1\1\GINC-SE190\SP\RHF\Aug-CC-pVDZ\C3H3N3\OHZDE\05-Apr-2025\0\\#t hf au
 g-cc-pvdz iop(5/13=1,5/36=2,99/5=2) pseudo=read geom=check guess=(read
 ,tcheck) scf=(maxcycle=1)\\title\\0,1\C,0,0.,1.283548,0.\N,0,1.195886,
 0.688755,0.\N,0,-1.18717,0.683937,0.\C,0,1.154952,-0.633315,0.\C,0,-0.
 06701,-1.302568,0.\N,0,-1.219098,-0.643966,0.\H,0,-0.131661,-2.382786,
 0.\H,0,2.096736,-1.170292,0.\H,0,-0.020059,2.36601,0.\\Version=ES64L-G
 16RevC.01\State=1-A'\HF=-278.9559978\RMSD=3.540e-02\Dipole=1.1312186,-
 0.6512204,0.\Quadrupole=-4.6553642,5.1770542,-0.52169,-2.6372814,0.,0.

 Normal termination of Gaussian 16 at Sat Apr  5 22:18:24 2025.
