 Gaussian 16, Revision C.01,

 ----------------------------------------------------------------------
 #t hf aug-cc-pvdz symm=none int=(grid=ultrafine) guess=(read,tcheck) s
 table=(opt,rrhf)
 ----------------------------------------------------------------------
 -----
 title
 -----
 Symbolic Z-matrix:
 Charge =  0 Multiplicity = 1

 SCF Done:  E(RHF) =  -294.609744829     A.U. after   13 cycles
 Normal termination of Gaussian 16 at Sat Apr  5 22:16:58 2025.
 Gaussian 16:  ES64L-G16RevC.01  3-Jul-2019

 ----------------------------------------------------------------------
 #t hf aug-cc-pvdz iop(5/13=1,5/36=2,99/5=2) pseudo=read geom=check gue
 ss=(read,tcheck) scf=(maxcycle=1)
 ----------------------------------------------------------------------
 -----
 title
 -----
 Structure from the checkpoint file:  "1-2-3-4-tetrazine.chk"
 Charge =  0 Multiplicity = 1

                         Standard orientation:
 ---------------------------------------------------------------------
 Center     Atomic      Atomic             Coordinates (Angstroms)
 Number     Number       Type             X           Y           Z
 ---------------------------------------------------------------------
      1          7           0        0.000000    1.355099   -0.047558
      2          7           0        0.000000    0.655407   -1.178699
      3          7           0       -0.000000   -0.655407   -1.178699
      4          7           0       -0.000000   -1.355099   -0.047558
      5          6           0        0.000000   -0.693285    1.096489
      6          6           0        0.000000    0.693285    1.096489
      7          1           0        0.000000   -1.283068    2.004868
      8          1           0        0.000000    1.283068    2.004868
 ---------------------------------------------------------------------

 SCF Done:  E(RHF) =  -294.897218047     A.U. after    2 cycles

 The electronic state is 1-A1.
 Alpha  occ. eigenvalues --  -15.62115 -15.61632 -15.59674 -15.59468 -11.33660
 Alpha  occ. eigenvalues --  -11.33582  -1.45467  -1.31464  -1.22921  -1.02977
 Alpha  occ. eigenvalues --   -1.02326  -0.84495  -0.78557  -0.71280  -0.69191
 Alpha  occ. eigenvalues --   -0.64378  -0.60311  -0.52995  -0.52101  -0.48504
 Alpha  occ. eigenvalues --   -0.47899
 Alpha virt. eigenvalues --    0.00236   0.02338   0.02557   0.03809   0.06811
 Alpha virt. eigenvalues --    0.09573   0.11053   0.11216   0.11340   0.13464
 Alpha virt. eigenvalues --    0.13658   0.15410   0.16128   0.19174   0.19631

 Mulliken charges:
               1
     1  N    0.497744
     2  N   -0.398695
     3  N   -0.398695
     4  N    0.497744
     5  C   -0.028893
     6  C   -0.028893
     7  H   -0.070156
     8  H   -0.070156
 Sum of Mulliken charges =  -0.00000

 Dipole moment (field-independent basis, Debye):
    X=              0.0000    Y=             -0.0000    Z=              5.6046  Tot=              5.6046

 Test job not archived.
 1\1\GINC-SE176\SP\RHF\Aug-CC-pVDZ\C2H2N4\OHZDE\05-Apr-2025\0\\#t hf au
 g-cc-pvdz iop(5/13=1,5/36=2,99/5=2) pseudo=read geom=check guess=(read
 ,tcheck) scf=(maxcycle=1)\\title\\0,1\N,0,0.,1.355099,-0.047558\N,0,0.
 ,0.655407,-1.178699\N,0,0.,-0.655407,-1.178699\N,0,0.,-1.355099,-0.047
 558\C,0,0.,-0.693285,1.096489\C,0,0.,0.693285,1.096489\H,0,0.,-1.28306
 8,2.004868\H,0,0.,1.283068,2.004868\\Version=ES64L-G16RevC.01\State=1-
 A1\HF=-294.897218\RMSD=6.447e-02\Dipole=0.,0.,2.2050214\Quadrupole=0.4
 52056,-3.2364518,2.7843957,0.,0.,0.\PG=C02V [SGV(C2H2N4)]\\@

 Normal termination of Gaussian 16 at Sat Apr  5 22:18:00 2025.
