 Gaussian 16, Revision C.01,

 ----------------------------------------------------------------------
 #t hf aug-cc-pvdz symm=none int=(grid=ultrafine) guess=(read,tcheck) s
 table=(opt,rrhf)
 ----------------------------------------------------------------------
 -----
 title
 -----
 Symbolic Z-matrix:
 Charge =  0 Multiplicity = 1

 SCF Done:  E(RHF) =  -1056.57479106     A.U. after   14 cycles
 Normal termination of Gaussian 16 at Sat Apr  5 22:19:22 2025.
 Gaussian 16:  ES64L-G16RevC.01  3-Jul-2019

 ----------------------------------------------------------------------
 #t hf aug-cc-pvdz iop(5/13=1,5/36=2,99/5=2) pseudo=read geom=check gue
 ss=(read,tcheck) scf=(maxcycle=1)
 ----------------------------------------------------------------------
 -----
 title
 -----
 Structure from the checkpoint file:  "1-2-dicyano-1-2-ethenedithiol.chk"
 Charge =  0 Multiplicity = 1

                         Standard orientation:
 ---------------------------------------------------------------------
 Center     Atomic      Atomic             Coordinates (Angstroms)
 Number     Number       Type             X           Y           Z
 ---------------------------------------------------------------------
      1         16           0        1.653853   -1.466360   -0.041522
      2         16           0       -1.653852    1.466360   -0.041519
      3          7           0        1.962541    2.243904    0.036069
      4          7           0       -1.962541   -2.243903    0.036069
      5          6           0        0.678815    0.016108    0.014810
      6          6           0       -0.678816   -0.016108    0.014811
      7          6           0        1.374142    1.251705    0.022854
      8          6           0       -1.374142   -1.251704    0.022855
      9          1           0        2.827783   -0.852150    0.185852
     10          1           0       -2.827783    0.852149    0.185851
 ---------------------------------------------------------------------

 SCF Done:  E(RHF) =  -1056.93852271     A.U. after    2 cycles

 The electronic state is 1-A.
 Alpha  occ. eigenvalues --  -94.01607 -94.01607 -15.55881 -15.55842 -11.37092
 Alpha  occ. eigenvalues --  -11.36994 -11.32166 -11.32159  -8.29668  -8.29662
 Alpha  occ. eigenvalues --   -6.27502  -6.27502  -6.27355  -6.27354  -6.27101
 Alpha  occ. eigenvalues --   -6.27100  -1.28177  -1.27361  -1.20376  -1.11252
 Alpha  occ. eigenvalues --   -1.01036  -0.96052  -0.79705  -0.71672  -0.64807
 Alpha  occ. eigenvalues --   -0.64791  -0.62657  -0.60903  -0.57906  -0.57055
 Alpha  occ. eigenvalues --   -0.56333  -0.53328  -0.50717  -0.49370  -0.45551
 Alpha  occ. eigenvalues --   -0.36160
 Alpha virt. eigenvalues --   -0.00247   0.03237   0.03622   0.05470   0.06128
 Alpha virt. eigenvalues --    0.08497   0.09069   0.09299   0.10276   0.10566
 Alpha virt. eigenvalues --    0.11072   0.11198   0.11695   0.12964   0.13881

 Mulliken charges:
               1
     1  S    0.173248
     2  S    0.173249
     3  N    0.943057
     4  N    0.943058
     5  C    1.031053
     6  C    1.031053
     7  C   -2.512131
     8  C   -2.512132
     9  H    0.364773
    10  H    0.364772
 Sum of Mulliken charges =  -0.00000

 Dipole moment (field-independent basis, Debye):
    X=             -0.0000    Y=             -0.0000    Z=              0.2368  Tot=              0.2368

 Test job not archived.
 1\1\GINC-SE176\SP\RHF\Aug-CC-pVDZ\C4H2N2S2\OHZDE\05-Apr-2025\0\\#t hf
 aug-cc-pvdz iop(5/13=1,5/36=2,99/5=2) pseudo=read geom=check guess=(re
 ad,tcheck) scf=(maxcycle=1)\\title\\0,1\S,0,1.653853,-1.46636,-0.04152
 2\S,0,-1.653853,1.466359,-0.041519\N,0,1.96254,2.243904,0.036069\N,0,-
 1.96254,-2.243904,0.036069\C,0,0.678815,0.016108,0.01481\C,0,-0.678816
 ,-0.016108,0.014811\C,0,1.374141,1.251705,0.022854\C,0,-1.374142,-1.25
 1705,0.022855\H,0,2.827783,-0.852149,0.185852\H,0,-2.827783,0.852148,0
 .185851\\Version=ES64L-G16RevC.01\State=1-A\HF=-1056.9385227\RMSD=5.09

 Normal termination of Gaussian 16 at Sat Apr  5 22:20:31 2025.
