 Gaussian 16, Revision C.01,

 ----------------------------------------------------------------------
 #t hf aug-cc-pvdz symm=none int=(grid=ultrafine) guess=(read,tcheck) s
 table=(opt,rrhf)
 ----------------------------------------------------------------------
 -----
 title
 -----
 Symbolic Z-matrix:
 Charge =  0 Multiplicity = 1

 SCF Done:  E(RHF) =  -997.086369292     A.U. after   11 cycles

 1\1\GINC-SE190\Stability\RHF\Aug-CC-pVDZ\C2H4Cl2\OHZDE\05-Apr-2025\0\\
 #t hf aug-cc-pvdz symm=none int=(grid=ultrafine) guess=(read,tcheck) s
 table=(opt,rrhf)\\title\\0,1\C,0,-0.299342,0.692073,0.892875\C,0,0.299
 342,-0.692073,0.892875\Cl,0,0.299342,1.715125,-0.46931\Cl,0,-0.299342,
 -1.715125,-0.46931\H,0,-1.381552,0.661641,0.812196\H,0,-0.016551,1.207
 148,1.808816\H,0,0.016551,-1.207148,1.808816\H,0,1.381552,-0.661641,0.
 812196\\Version=ES64L-G16RevC.01\HF=-997.0863693\RMSD=9.016e-09\Dipole
 =0.,0.,1.2247135\Quadrupole=0.8176572,-3.4010969,2.5834397,-1.1008203,

 Normal termination of Gaussian 16 at Sat Apr  5 22:19:08 2025.
 Gaussian 16:  ES64L-G16RevC.01  3-Jul-2019

 ----------------------------------------------------------------------
 #t hf aug-cc-pvdz iop(5/13=1,5/36=2,99/5=2) pseudo=read geom=check gue
 ss=(read,tcheck) scf=(maxcycle=1)
 ----------------------------------------------------------------------
 -----
 title
 -----
 Structure from the checkpoint file:  "1-2-dichloroethane.chk"
 Charge =  0 Multiplicity = 1

                         Standard orientation:
 ---------------------------------------------------------------------
 Center     Atomic      Atomic             Coordinates (Angstroms)
 Number     Number       Type             X           Y           Z
 ---------------------------------------------------------------------
      1          6           0       -0.299342    0.692073    0.892875
      2          6           0        0.299342   -0.692073    0.892875
      3         17           0        0.299342    1.715125   -0.469310
      4         17           0       -0.299342   -1.715125   -0.469310
      5          1           0       -1.381552    0.661641    0.812196
      6          1           0       -0.016551    1.207148    1.808816
      7          1           0        0.016551   -1.207148    1.808816
      8          1           0        1.381552   -0.661641    0.812196
 ---------------------------------------------------------------------

 SCF Done:  E(RHF) =  -997.324774448     A.U. after    2 cycles

 The electronic state is 1-A.
 Alpha  occ. eigenvalues -- -105.56428-105.56428 -11.32552 -11.32524 -10.61239
 Alpha  occ. eigenvalues --  -10.61238  -7.78180  -7.78179  -7.77801  -7.77798
 Alpha  occ. eigenvalues --   -7.77790  -7.77788  -1.15471  -1.07291  -0.96597
 Alpha  occ. eigenvalues --   -0.84665  -0.67848  -0.66571  -0.61459  -0.55463
 Alpha  occ. eigenvalues --   -0.54162  -0.46558  -0.45807  -0.44883  -0.44710
 Alpha virt. eigenvalues --    0.03000   0.04450   0.04944   0.05773   0.08334
 Alpha virt. eigenvalues --    0.09470   0.12216   0.12903   0.14392   0.14676
 Alpha virt. eigenvalues --    0.14694   0.17390   0.17542   0.17702   0.18259

 Mulliken charges:
               1
     1  C   -0.481252
     2  C   -0.481252
     3  Cl  -0.052059
     4  Cl  -0.052059
     5  H    0.274366
     6  H    0.258945
     7  H    0.258945
     8  H    0.274366
 Sum of Mulliken charges =   0.00000

 Dipole moment (field-independent basis, Debye):
    X=             -0.0000    Y=              0.0000    Z=              3.1142  Tot=              3.1142

 Test job not archived.
 1\1\GINC-SE190\SP\RHF\Aug-CC-pVDZ\C2H4Cl2\OHZDE\05-Apr-2025\0\\#t hf a
 ug-cc-pvdz iop(5/13=1,5/36=2,99/5=2) pseudo=read geom=check guess=(rea
 d,tcheck) scf=(maxcycle=1)\\title\\0,1\C,0,-0.299342,0.692073,0.892875
 \C,0,0.299342,-0.692073,0.892875\Cl,0,0.299342,1.715125,-0.46931\Cl,0,
 -0.299342,-1.715125,-0.46931\H,0,-1.381552,0.661641,0.812196\H,0,-0.01
 6551,1.207148,1.808816\H,0,0.016551,-1.207148,1.808816\H,0,1.381552,-0
 .661641,0.812196\\Version=ES64L-G16RevC.01\State=1-A\HF=-997.3247744\R
 MSD=6.122e-03\Dipole=0.,0.,1.2252366\Quadrupole=0.7870355,-3.3710123,2

 Normal termination of Gaussian 16 at Sat Apr  5 22:20:28 2025.
