 Gaussian 16, Revision C.01,

 ----------------------------------------------------------------------
 #t hf aug-cc-pvdz symm=none int=(grid=ultrafine) guess=(read,tcheck) s
 table=(opt,rrhf)
 ----------------------------------------------------------------------
 -----
 title
 -----
 Symbolic Z-matrix:
 Charge =  0 Multiplicity = 1

 SCF Done:  E(RHF) =  -626.164978976     A.U. after   12 cycles
 Normal termination of Gaussian 16 at Sat Apr  5 22:17:18 2025.
 Gaussian 16:  ES64L-G16RevC.01  3-Jul-2019

 ----------------------------------------------------------------------
 #t hf aug-cc-pvdz iop(5/13=1,5/36=2,99/5=2) pseudo=read geom=check gue
 ss=(read,tcheck) scf=(maxcycle=1)
 ----------------------------------------------------------------------
 -----
 title
 -----
 Structure from the checkpoint file:  "1-2-4-5-tetrafluorobenzene.chk"
 Charge =  0 Multiplicity = 1

                         Standard orientation:
 ---------------------------------------------------------------------
 Center     Atomic      Atomic             Coordinates (Angstroms)
 Number     Number       Type             X           Y           Z
 ---------------------------------------------------------------------
      1          6           0        0.000000    1.191371    0.693954
      2          6           0        0.000000    0.000000    1.397434
      3          6           0       -0.000000   -1.191371    0.693954
      4          6           0       -0.000000   -1.191371   -0.693954
      5          6           0        0.000000    0.000000   -1.397434
      6          6           0        0.000000    1.191371   -0.693954
      7          9           0        0.000000    2.357926    1.354335
      8          1           0        0.000000    0.000000    2.477199
      9          9           0       -0.000000   -2.357926    1.354335
     10          9           0       -0.000000   -2.357926   -1.354335
     11          1           0        0.000000    0.000000   -2.477199
     12          9           0        0.000000    2.357926   -1.354335
 ---------------------------------------------------------------------

 SCF Done:  E(RHF) =  -626.753365288     A.U. after    2 cycles

 The electronic state is 1-AG.
 Alpha  occ. eigenvalues --  -26.50635 -26.50635 -26.50633 -26.50633 -11.37234
 Alpha  occ. eigenvalues --  -11.37214 -11.37164 -11.37128 -11.29339 -11.29306
 Alpha  occ. eigenvalues --   -1.64623  -1.64463  -1.62973  -1.62904  -1.20934
 Alpha  occ. eigenvalues --   -1.07845  -1.05583  -0.92890  -0.89332  -0.80908
 Alpha  occ. eigenvalues --   -0.80172  -0.78111  -0.73997  -0.72771  -0.71146
 Alpha  occ. eigenvalues --   -0.70639  -0.69169  -0.68812  -0.68295  -0.67269
 Alpha  occ. eigenvalues --   -0.65776  -0.61987  -0.58936  -0.57887  -0.53454
 Alpha  occ. eigenvalues --   -0.39527  -0.36868
 Alpha virt. eigenvalues --    0.03542   0.03676   0.06881   0.07461   0.08087
 Alpha virt. eigenvalues --    0.08558   0.10729   0.11314   0.11538   0.12382
 Alpha virt. eigenvalues --    0.12797   0.13121   0.13329   0.14697   0.15737

 Mulliken charges:
               1
     1  C    1.137913
     2  C   -0.223577
     3  C    1.137913
     4  C    1.137913
     5  C   -0.223577
     6  C    1.137913
     7  F   -0.969433
     8  H   -0.113382
     9  F   -0.969433
    10  F   -0.969433
    11  H   -0.113382
    12  F   -0.969433
 Sum of Mulliken charges =  -0.00000

 Dipole moment (field-independent basis, Debye):
    X=              0.0000    Y=             -0.0000    Z=             -0.0000  Tot=              0.0000

 Test job not archived.
 1\1\GINC-SE036\SP\RHF\Aug-CC-pVDZ\C6H2F4\OHZDE\05-Apr-2025\0\\#t hf au
 g-cc-pvdz iop(5/13=1,5/36=2,99/5=2) pseudo=read geom=check guess=(read
 ,tcheck) scf=(maxcycle=1)\\title\\0,1\C,0,0.,1.191371,0.693954\C,0,0.,
 0.,1.397434\C,0,0.,-1.191371,0.693954\C,0,0.,-1.191371,-0.693954\C,0,0
 .,0.,-1.397434\C,0,0.,1.191371,-0.693954\F,0,0.,2.357926,1.354335\H,0,
 0.,0.,2.477199\F,0,0.,-2.357926,1.354335\F,0,0.,-2.357926,-1.354335\H,
 0,0.,0.,-2.477199\F,0,0.,2.357926,-1.354335\\Version=ES64L-G16RevC.01\
 State=1-AG\HF=-626.7533653\RMSD=2.686e-02\Dipole=0.,0.,0.\Quadrupole=1

 Normal termination of Gaussian 16 at Sat Apr  5 22:18:02 2025.
