 Gaussian 16, Revision C.01,

 ----------------------------------------------------------------------
 #t hf aug-cc-pvdz symm=none int=(grid=ultrafine) guess=(read,tcheck) s
 table=(opt,rrhf)
 ----------------------------------------------------------------------
 -----
 title
 -----
 Symbolic Z-matrix:
 Charge =  0 Multiplicity = 1

 SCF Done:  E(RHF) =  -336.361285896     A.U. after   16 cycles
 Normal termination of Gaussian 16 at Sat Apr  5 22:19:14 2025.
 Gaussian 16:  ES64L-G16RevC.01  3-Jul-2019

 ----------------------------------------------------------------------
 #t hf aug-cc-pvdz iop(5/13=1,5/36=2,99/5=2) pseudo=read geom=check gue
 ss=(read,tcheck) scf=(maxcycle=1)
 ----------------------------------------------------------------------
 -----
 title
 -----
 Structure from the checkpoint file:  "1-2-oxazole-4-carbonitrile.chk"
 Charge =  0 Multiplicity = 1

                         Standard orientation:
 ---------------------------------------------------------------------
 Center     Atomic      Atomic             Coordinates (Angstroms)
 Number     Number       Type             X           Y           Z
 ---------------------------------------------------------------------
      1          8           0        0.710722   -1.733894    0.000000
      2          7           0       -0.691137   -1.797404    0.000000
      3          7           0       -0.085069    2.920338    0.000000
      4          6           0        0.000000    0.355924    0.000000
      5          6           0        1.091283   -0.460386    0.000000
      6          6           0       -1.094603   -0.562112    0.000000
      7          6           0       -0.038720    1.769277    0.000000
      8          1           0        2.149576   -0.263839    0.000000
      9          1           0       -2.149674   -0.341769    0.000000
 ---------------------------------------------------------------------

 SCF Done:  E(RHF) =  -336.688705941     A.U. after    2 cycles

 The electronic state is 1-A'.
 Alpha  occ. eigenvalues --  -20.67388 -15.60291 -15.53598 -11.37666 -11.32958
 Alpha  occ. eigenvalues --  -11.30988 -11.30690  -1.61480  -1.25771  -1.23062
 Alpha  occ. eigenvalues --   -1.13623  -0.93164  -0.87795  -0.83338  -0.73099
 Alpha  occ. eigenvalues --   -0.70540  -0.65522  -0.62979  -0.61459  -0.57080
 Alpha  occ. eigenvalues --   -0.56334  -0.51837  -0.48109  -0.42017
 Alpha virt. eigenvalues --    0.02867   0.03851   0.05198   0.06779   0.07793
 Alpha virt. eigenvalues --    0.08410   0.09094   0.10175   0.11234   0.11794
 Alpha virt. eigenvalues --    0.13112   0.13833   0.14157   0.15021   0.15210

 Mulliken charges:
               1
     1  O   -1.555025
     2  N    1.040526
     3  N    0.990565
     4  C    1.753189
     5  C    1.147519
     6  C   -0.636264
     7  C   -2.401933
     8  H   -0.128468
     9  H   -0.210110
 Sum of Mulliken charges =   0.00000

 Dipole moment (field-independent basis, Debye):
    X=              1.0898    Y=             -1.6401    Z=              0.0000  Tot=              1.9691

 Test job not archived.
 1\1\GINC-SE106\SP\RHF\Aug-CC-pVDZ\C4H2N2O1\OHZDE\05-Apr-2025\0\\#t hf
 aug-cc-pvdz iop(5/13=1,5/36=2,99/5=2) pseudo=read geom=check guess=(re
 ad,tcheck) scf=(maxcycle=1)\\title\\0,1\O,0,0.710722,-1.733894,0.\N,0,
 -0.691138,-1.797404,0.\N,0,-0.085068,2.920338,0.\C,0,0.,0.355924,0.\C,
 0,1.091283,-0.460386,0.\C,0,-1.094603,-0.562112,0.\C,0,-0.03872,1.7692
 77,0.\H,0,2.149576,-0.26384,0.\H,0,-2.149674,-0.341769,0.\\Version=ES6
 4L-G16RevC.01\State=1-A'\HF=-336.6887059\RMSD=3.830e-02\Dipole=0.42876
 15,-0.6452517,0.\Quadrupole=9.9117557,-13.0204932,3.1087375,-1.0141585

 Normal termination of Gaussian 16 at Sat Apr  5 22:20:29 2025.
