 Gaussian 16, Revision C.01,

 ----------------------------------------------------------------------
 #t hf aug-cc-pvdz symm=none int=(grid=ultrafine) guess=(read,tcheck) s
 table=(opt,rrhf)
 ----------------------------------------------------------------------
 -----
 title
 -----
 Symbolic Z-matrix:
 Charge =  0 Multiplicity = 1

 SCF Done:  E(RHF) =  -412.485350754     A.U. after   13 cycles
 Normal termination of Gaussian 16 at Sat Apr  5 22:20:47 2025.
 Gaussian 16:  ES64L-G16RevC.01  3-Jul-2019

 ----------------------------------------------------------------------
 #t hf aug-cc-pvdz iop(5/13=1,5/36=2,99/5=2) pseudo=read geom=check gue
 ss=(read,tcheck) scf=(maxcycle=1)
 ----------------------------------------------------------------------
 -----
 title
 -----
 Structure from the checkpoint file:  "1-2-diisocyanatoethane.chk"
 Charge =  0 Multiplicity = 1

                         Standard orientation:
 ---------------------------------------------------------------------
 Center     Atomic      Atomic             Coordinates (Angstroms)
 Number     Number       Type             X           Y           Z
 ---------------------------------------------------------------------
      1          8           0       -4.169729   -0.037851   -0.000189
      2          8           0        4.169729    0.037850   -0.000331
      3          7           0       -1.822306    0.260406    0.000120
      4          7           0        1.822306   -0.260406    0.000229
      5          6           0       -0.587346   -0.486761    0.000192
      6          6           0        0.587346    0.486762    0.000114
      7          6           0       -3.002288    0.047253   -0.000041
      8          6           0        3.002288   -0.047254   -0.000081
      9          1           0       -0.530798   -1.125725   -0.882692
     10          1           0       -0.530812   -1.125555    0.883200
     11          1           0        0.530823    1.125555   -0.882895
     12          1           0        0.530787    1.125727    0.882997
 ---------------------------------------------------------------------

 SCF Done:  E(RHF) =  -412.891062917     A.U. after    2 cycles

 The electronic state is 1-A.
 Alpha  occ. eigenvalues --  -20.60270 -20.60268 -15.53889 -15.53846 -11.41924
 Alpha  occ. eigenvalues --  -11.41921 -11.32003 -11.31984  -1.54806  -1.54781
 Alpha  occ. eigenvalues --   -1.30108  -1.28895  -1.09869  -0.96168  -0.79463
 Alpha  occ. eigenvalues --   -0.75798  -0.73342  -0.72163  -0.71336  -0.68846
 Alpha  occ. eigenvalues --   -0.68011  -0.65681  -0.64029  -0.59052  -0.57664
 Alpha  occ. eigenvalues --   -0.48934  -0.47259  -0.45791  -0.45551
 Alpha virt. eigenvalues --    0.02831   0.04348   0.04596   0.05375   0.06199
 Alpha virt. eigenvalues --    0.08405   0.09054   0.09233   0.09398   0.10031
 Alpha virt. eigenvalues --    0.11092   0.11660   0.11943   0.13803   0.15697

 Mulliken charges:
               1
     1  O   -0.918842
     2  O   -0.918842
     3  N    0.876473
     4  N    0.876473
     5  C   -0.312391
     6  C   -0.312390
     7  C    0.157365
     8  C    0.157365
     9  H    0.098682
    10  H    0.098713
    11  H    0.098674
    12  H    0.098722
 Sum of Mulliken charges =  -0.00000

 Dipole moment (field-independent basis, Debye):
    X=             -0.0000    Y=              0.0000    Z=              0.0000  Tot=              0.0000

 Test job not archived.
 1\1\GINC-SE145\SP\RHF\Aug-CC-pVDZ\C4H4N2O2\OHZDE\05-Apr-2025\0\\#t hf
 aug-cc-pvdz iop(5/13=1,5/36=2,99/5=2) pseudo=read geom=check guess=(re
 ad,tcheck) scf=(maxcycle=1)\\title\\0,1\O,0,-4.169729,-0.037851,-0.000
 189\O,0,4.169729,0.03785,-0.000331\N,0,-1.822306,0.260406,0.00012\N,0,
 1.822306,-0.260406,0.000229\C,0,-0.587346,-0.486761,0.000192\C,0,0.587
 346,0.486762,0.000114\C,0,-3.002288,0.047253,-0.000041\C,0,3.002288,-0
 .047254,-0.000081\H,0,-0.530798,-1.125725,-0.882692\H,0,-0.530812,-1.1
 25555,0.8832\H,0,0.530823,1.125555,-0.882895\H,0,0.530787,1.125727,0.8

 Normal termination of Gaussian 16 at Sat Apr  5 22:20:52 2025.
