 Gaussian 16, Revision C.01,

 ----------------------------------------------------------------------
 #t hf aug-cc-pvdz symm=none int=(grid=ultrafine) guess=(read,tcheck) s
 table=(opt,rrhf)
 ----------------------------------------------------------------------
 -----
 title
 -----
 Symbolic Z-matrix:
 Charge =  0 Multiplicity = 1

 SCF Done:  E(RHF) =  -260.583392929     A.U. after   13 cycles
 Normal termination of Gaussian 16 at Sat Apr  5 22:18:25 2025.
 Gaussian 16:  ES64L-G16RevC.01  3-Jul-2019

 ----------------------------------------------------------------------
 #t hf aug-cc-pvdz iop(5/13=1,5/36=2,99/5=2) pseudo=read geom=check gue
 ss=(read,tcheck) scf=(maxcycle=1)
 ----------------------------------------------------------------------
 -----
 title
 -----
 Structure from the checkpoint file:  "1-2-5-oxadiazole.chk"
 Charge =  0 Multiplicity = 1

                         Standard orientation:
 ---------------------------------------------------------------------
 Center     Atomic      Atomic             Coordinates (Angstroms)
 Number     Number       Type             X           Y           Z
 ---------------------------------------------------------------------
      1          8           0        0.000000   -0.000000    1.125015
      2          7           0        0.000000    1.129079    0.352670
      3          6           0        0.000000    0.709443   -0.877819
      4          6           0       -0.000000   -0.709443   -0.877819
      5          7           0       -0.000000   -1.129079    0.352670
      6          1           0        0.000000    1.401671   -1.701840
      7          1           0       -0.000000   -1.401671   -1.701840
 ---------------------------------------------------------------------

 SCF Done:  E(RHF) =  -260.839088268     A.U. after    2 cycles

 The electronic state is 1-A1.
 Alpha  occ. eigenvalues --  -20.67179 -15.60630 -15.60479 -11.30944 -11.30890
 Alpha  occ. eigenvalues --   -1.62338  -1.23202  -1.21389  -0.89662  -0.89499
 Alpha  occ. eigenvalues --   -0.77783  -0.70885  -0.68117  -0.59931  -0.57577
 Alpha  occ. eigenvalues --   -0.54935  -0.47818  -0.45812
 Alpha virt. eigenvalues --    0.02953   0.04007   0.04736   0.07647   0.10862
 Alpha virt. eigenvalues --    0.10958   0.11029   0.11741   0.13667   0.13999
 Alpha virt. eigenvalues --    0.16292   0.17943   0.18192   0.20066   0.20312

 Mulliken charges:
               1
     1  O   -1.392238
     2  N    1.016214
     3  C   -0.194366
     4  C   -0.194366
     5  N    1.016214
     6  H   -0.125729
     7  H   -0.125729
 Sum of Mulliken charges =  -0.00000

 Dipole moment (field-independent basis, Debye):
    X=             -0.0000    Y=             -0.0000    Z=             -4.1146  Tot=              4.1146

 Test job not archived.
 1\1\GINC-SE220\SP\RHF\Aug-CC-pVDZ\C2H2N2O1\OHZDE\05-Apr-2025\0\\#t hf
 aug-cc-pvdz iop(5/13=1,5/36=2,99/5=2) pseudo=read geom=check guess=(re
 ad,tcheck) scf=(maxcycle=1)\\title\\0,1\O,0,0.,0.,1.125015\N,0,0.,1.12
 9079,0.35267\C,0,0.,0.709443,-0.877819\C,0,0.,-0.709443,-0.877819\N,0,
 0.,-1.129079,0.35267\H,0,0.,1.401671,-1.70184\H,0,0.,-1.401671,-1.7018
 4\\Version=ES64L-G16RevC.01\State=1-A1\HF=-260.8390883\RMSD=3.197e-02\
 Dipole=0.,0.,-1.6188138\Quadrupole=-0.9010482,-1.7057291,2.6067773,0.,
 0.,0.\PG=C02V [C2(O1),SGV(C2H2N2)]\\@

 Normal termination of Gaussian 16 at Sat Apr  5 22:18:26 2025.
