 Gaussian 16, Revision C.01,

 ----------------------------------------------------------------------
 #t hf aug-cc-pvdz symm=none int=(grid=ultrafine) guess=(read,tcheck) s
 table=(opt,rrhf)
 ----------------------------------------------------------------------
 -----
 title
 -----
 Symbolic Z-matrix:
 Charge =  0 Multiplicity = 1

 SCF Done:  E(RHF) =  -256.797582665     A.U. after   15 cycles
 Normal termination of Gaussian 16 at Sat Apr  5 22:16:55 2025.
 Gaussian 16:  ES64L-G16RevC.01  3-Jul-2019

 ----------------------------------------------------------------------
 #t hf aug-cc-pvdz iop(5/13=1,5/36=2,99/5=2) pseudo=read geom=check gue
 ss=(read,tcheck) scf=(maxcycle=1)
 ----------------------------------------------------------------------
 -----
 title
 -----
 Structure from the checkpoint file:  "1-2-3-5-tetrazole.chk"
 Charge =  0 Multiplicity = 1

                         Standard orientation:
 ---------------------------------------------------------------------
 Center     Atomic      Atomic             Coordinates (Angstroms)
 Number     Number       Type             X           Y           Z
 ---------------------------------------------------------------------
      1          7           0        1.116569    0.323298    0.000000
      2          7           0        0.000000    1.033096    0.000000
      3          7           0       -1.109966    0.315745    0.000000
      4          7           0       -0.722852   -0.930666    0.000000
      5          6           0        0.629718   -0.907123    0.000000
      6          1           0       -0.009536    2.040913    0.000000
      7          1           0        1.244977   -1.788487    0.000000
 ---------------------------------------------------------------------

 SCF Done:  E(RHF) =  -257.054605192     A.U. after    2 cycles

 The electronic state is 1-A'.
 Alpha  occ. eigenvalues --  -15.64894 -15.61663 -15.57579 -15.55660 -11.31370
 Alpha  occ. eigenvalues --   -1.50317  -1.28877  -1.21186  -0.97181  -0.93940
 Alpha  occ. eigenvalues --   -0.84144  -0.73600  -0.69169  -0.62958  -0.56384
 Alpha  occ. eigenvalues --   -0.53379  -0.50600  -0.45888
 Alpha virt. eigenvalues --    0.02773   0.05226   0.06244   0.08383   0.09277
 Alpha virt. eigenvalues --    0.09941   0.11758   0.14533   0.15297   0.15913
 Alpha virt. eigenvalues --    0.16288   0.17034   0.17967   0.19881   0.21382

 Mulliken charges:
               1
     1  N    0.061221
     2  N    0.073616
     3  N   -0.307662
     4  N    0.225425
     5  C   -0.112440
     6  H    0.075923
     7  H   -0.016083
 Sum of Mulliken charges =   0.00000

 Dipole moment (field-independent basis, Debye):
    X=              1.5994    Y=              1.3506    Z=              0.0000  Tot=              2.0934

 Test job not archived.
 1\1\GINC-SE187\SP\RHF\Aug-CC-pVDZ\C1H2N4\OHZDE\05-Apr-2025\0\\#t hf au
 g-cc-pvdz iop(5/13=1,5/36=2,99/5=2) pseudo=read geom=check guess=(read
 ,tcheck) scf=(maxcycle=1)\\title\\0,1\N,0,1.116569,0.323298,0.\N,0,0.,
 1.033096,0.\N,0,-1.109966,0.315745,0.\N,0,-0.722852,-0.930666,0.\C,0,0
 .629718,-0.907123,0.\H,0,-0.009536,2.040913,0.\H,0,1.244977,-1.788487,
 0.\\Version=ES64L-G16RevC.01\State=1-A'\HF=-257.0546052\RMSD=5.098e-02
 \Dipole=0.6292509,0.5313766,0.\Quadrupole=-4.0579965,5.1905065,-1.1325
 1,-3.0882357,0.,0.\PG=CS [SG(C1H2N4)]\\@

 Normal termination of Gaussian 16 at Sat Apr  5 22:18:00 2025.
