 Gaussian 16, Revision C.01,

 ----------------------------------------------------------------------
 #t hf aug-cc-pvdz symm=none int=(grid=ultrafine) guess=(read,tcheck) s
 table=(opt,rrhf)
 ----------------------------------------------------------------------
 -----
 title
 -----
 Symbolic Z-matrix:
 Charge =  0 Multiplicity = 1

 SCF Done:  E(RHF) =  -1074.93638967     A.U. after   15 cycles
 Normal termination of Gaussian 16 at Sat Apr  5 22:19:02 2025.
 Gaussian 16:  ES64L-G16RevC.01  3-Jul-2019

 ----------------------------------------------------------------------
 #t hf aug-cc-pvdz iop(5/13=1,5/36=2,99/5=2) pseudo=read geom=check gue
 ss=(read,tcheck) scf=(maxcycle=1)
 ----------------------------------------------------------------------
 -----
 title
 -----
 Structure from the checkpoint file:  "1-2-4-triazole-5-mercaptomethyl-3-thione.chk"
 Charge =  0 Multiplicity = 1

                         Standard orientation:
 ---------------------------------------------------------------------
 Center     Atomic      Atomic             Coordinates (Angstroms)
 Number     Number       Type             X           Y           Z
 ---------------------------------------------------------------------
      1         16           0        3.158398    0.012249   -0.430328
      2         16           0       -3.209591   -0.375034   -0.249597
      3          7           0        0.242548    1.157410    0.432157
      4          7           0       -1.076255    1.253277   -0.028584
      5          7           0       -0.552113   -0.911454    0.160999
      6          6           0        0.499106   -0.189314    0.400050
      7          6           0        1.863333   -0.733224    0.644600
      8          6           0       -1.610629   -0.027657   -0.042353
      9          1           0        0.910796    1.791602    0.010985
     10          1           0        2.185538   -0.503864    1.660042
     11          1           0        1.837961   -1.811016    0.524244
     12          1           0       -1.629039    2.025841    0.310848
     13          1           0        2.703714   -0.491460   -1.593112
 ---------------------------------------------------------------------

 SCF Done:  E(RHF) =  -1075.33994793     A.U. after    2 cycles

 The electronic state is 1-A.
 Alpha  occ. eigenvalues --  -93.99582 -93.89221 -15.60644 -15.59294 -15.52523
 Alpha  occ. eigenvalues --  -11.37752 -11.37652 -11.32516  -8.27606  -8.17490
 Alpha  occ. eigenvalues --   -6.25449  -6.25305  -6.25077  -6.15369  -6.15042
 Alpha  occ. eigenvalues --   -6.14927  -1.43046  -1.24669  -1.20010  -1.11209
 Alpha  occ. eigenvalues --   -1.01734  -0.97478  -0.89496  -0.85653  -0.80648
 Alpha  occ. eigenvalues --   -0.76504  -0.69245  -0.67405  -0.65057  -0.59266
 Alpha  occ. eigenvalues --   -0.55464  -0.52973  -0.52036  -0.51106  -0.49453
 Alpha  occ. eigenvalues --   -0.41390  -0.33945  -0.33598
 Alpha virt. eigenvalues --    0.02281   0.03263   0.03676   0.04164   0.05420
 Alpha virt. eigenvalues --    0.06068   0.06828   0.08752   0.09186   0.09799
 Alpha virt. eigenvalues --    0.11577   0.11862   0.12696   0.13217   0.13760

 Mulliken charges:
               1
     1  S    0.048047
     2  S    0.247629
     3  N    0.336025
     4  N    0.279706
     5  N    0.913188
     6  C   -1.570937
     7  C   -0.384064
     8  C   -1.100901
     9  H    0.196230
    10  H    0.338253
    11  H    0.207942
    12  H    0.129496
    13  H    0.359386
 Sum of Mulliken charges =  -0.00000

 Dipole moment (field-independent basis, Debye):
    X=              5.9988    Y=              2.8740    Z=              0.9263  Tot=              6.7160

 Test job not archived.
 1\1\GINC-SE011\SP\RHF\Aug-CC-pVDZ\C3H5N3S2\OHZDE\05-Apr-2025\0\\#t hf
 aug-cc-pvdz iop(5/13=1,5/36=2,99/5=2) pseudo=read geom=check guess=(re
 ad,tcheck) scf=(maxcycle=1)\\title\\0,1\S,0,3.158398,0.012249,-0.43032
 8\S,0,-3.209591,-0.375034,-0.249597\N,0,0.242548,1.15741,0.432157\N,0,
 -1.076255,1.253277,-0.028584\N,0,-0.552113,-0.911454,0.160999\C,0,0.49
 9106,-0.189314,0.40005\C,0,1.863333,-0.733224,0.6446\C,0,-1.610629,-0.
 027657,-0.042353\H,0,0.910796,1.791602,0.010985\H,0,2.185538,-0.503864
 ,1.660042\H,0,1.837961,-1.811016,0.524244\H,0,-1.629039,2.025841,0.310

 Normal termination of Gaussian 16 at Sat Apr  5 22:19:08 2025.
