 Gaussian 16, Revision C.01,

 ----------------------------------------------------------------------
 #t hf aug-cc-pvdz symm=none int=(grid=ultrafine) guess=(read,tcheck) s
 table=(opt,rrhf)
 ----------------------------------------------------------------------
 -----
 title
 -----
 Symbolic Z-matrix:
 Charge =  0 Multiplicity = 1

 SCF Done:  E(RHF) =  -384.506534280     A.U. after   14 cycles
 Normal termination of Gaussian 16 at Sat Apr  5 22:20:56 2025.
 Gaussian 16:  ES64L-G16RevC.01  3-Jul-2019

 ----------------------------------------------------------------------
 #t hf aug-cc-pvdz iop(5/13=1,5/36=2,99/5=2) pseudo=read geom=check gue
 ss=(read,tcheck) scf=(maxcycle=1)
 ----------------------------------------------------------------------
 -----
 title
 -----
 Structure from the checkpoint file:  "1-2-divinylbenzene.chk"
 Charge =  0 Multiplicity = 1

                         Standard orientation:
 ---------------------------------------------------------------------
 Center     Atomic      Atomic             Coordinates (Angstroms)
 Number     Number       Type             X           Y           Z
 ---------------------------------------------------------------------
      1          6           0       -0.002677    0.695637    2.287492
      2          6           0        0.002677   -0.695637    2.287492
      3          6           0       -0.005281    1.380849    1.083628
      4          6           0        0.005281   -1.380849    1.083628
      5          6           0        0.002677    0.706828   -0.143419
      6          6           0       -0.002677   -0.706828   -0.143419
      7          6           0        0.504833    2.671718   -1.602985
      8          6           0       -0.504833   -2.671718   -1.602985
      9          6           0       -0.027936    1.466513   -1.404857
     10          6           0        0.027936   -1.466513   -1.404857
     11          1           0       -0.012494    1.242389    3.220751
     12          1           0        0.012494   -1.242389    3.220751
     13          1           0       -0.044540    2.461435    1.086304
     14          1           0        0.044540   -2.461435    1.086304
     15          1           0        0.415967    3.169418   -2.558579
     16          1           0        1.054385    3.194867   -0.831116
     17          1           0       -0.415967   -3.169418   -2.558579
     18          1           0       -1.054385   -3.194867   -0.831116
     19          1           0       -0.534592    0.991304   -2.236512
     20          1           0        0.534592   -0.991304   -2.236512
 ---------------------------------------------------------------------

 SCF Done:  E(RHF) =  -384.906578868     A.U. after    2 cycles

 The electronic state is 1-A.
 Alpha  occ. eigenvalues --  -11.25185 -11.25123 -11.24793 -11.24781 -11.24257
 Alpha  occ. eigenvalues --  -11.24188 -11.24127 -11.24097 -11.23954 -11.23950
 Alpha  occ. eigenvalues --   -1.16957  -1.07807  -1.07316  -0.99938  -0.98958
 Alpha  occ. eigenvalues --   -0.86291  -0.85700  -0.78091  -0.76942  -0.71074
 Alpha  occ. eigenvalues --   -0.67264  -0.65632  -0.62471  -0.62422  -0.60337
 Alpha  occ. eigenvalues --   -0.59639  -0.55260  -0.53028  -0.52307  -0.50537
 Alpha  occ. eigenvalues --   -0.48952  -0.41367  -0.41203  -0.33254  -0.31096
 Alpha virt. eigenvalues --    0.03264   0.03431   0.03716   0.04541   0.04960
 Alpha virt. eigenvalues --    0.04976   0.05704   0.06713   0.07203   0.07776
 Alpha virt. eigenvalues --    0.08171   0.09293   0.10444   0.11668   0.12177

 Mulliken charges:
               1
     1  C   -0.290653
     2  C   -0.290653
     3  C    0.093260
     4  C    0.093260
     5  C    0.964164
     6  C    0.964164
     7  C   -0.208197
     8  C   -0.208197
     9  C    0.444378
    10  C    0.444378
    11  H   -0.236114
    12  H   -0.236114
    13  H   -0.295807
    14  H   -0.295807
    15  H   -0.152551
    16  H   -0.133943
    17  H   -0.152551
    18  H   -0.133943
    19  H   -0.184536
    20  H   -0.184536
 Sum of Mulliken charges =   0.00000

 Dipole moment (field-independent basis, Debye):
    X=              0.0000    Y=             -0.0000    Z=              0.0629  Tot=              0.0629

 Test job not archived.
 1\1\GINC-SE198\SP\RHF\Aug-CC-pVDZ\C10H10\OHZDE\05-Apr-2025\0\\#t hf au
 g-cc-pvdz iop(5/13=1,5/36=2,99/5=2) pseudo=read geom=check guess=(read
 ,tcheck) scf=(maxcycle=1)\\title\\0,1\C,0,-0.002677,0.695637,2.287492\
 C,0,0.002677,-0.695637,2.287492\C,0,-0.005281,1.380849,1.083628\C,0,0.
 005281,-1.380849,1.083628\C,0,0.002677,0.706828,-0.143419\C,0,-0.00267
 7,-0.706828,-0.143419\C,0,0.504833,2.671718,-1.602985\C,0,-0.504833,-2
 .671718,-1.602985\C,0,-0.027936,1.466513,-1.404857\C,0,0.027936,-1.466
 513,-1.404857\H,0,-0.012494,1.242389,3.220751\H,0,0.012494,-1.242389,3

 Normal termination of Gaussian 16 at Sat Apr  5 22:21:03 2025.
