 Gaussian 16, Revision C.01,

 ----------------------------------------------------------------------
 #t hf aug-cc-pvdz symm=none int=(grid=ultrafine) guess=(read,tcheck) s
 table=(opt,rrhf)
 ----------------------------------------------------------------------
 -----
 title
 -----
 Symbolic Z-matrix:
 Charge =  0 Multiplicity = 1

 SCF Done:  E(RHF) =  -353.494529225     A.U. after   17 cycles
 Normal termination of Gaussian 16 at Sat Apr  5 22:20:39 2025.
 Gaussian 16:  ES64L-G16RevC.01  3-Jul-2019

 ----------------------------------------------------------------------
 #t hf aug-cc-pvdz iop(5/13=1,5/36=2,99/5=2) pseudo=read geom=check gue
 ss=(read,tcheck) scf=(maxcycle=1)
 ----------------------------------------------------------------------
 -----
 title
 -----
 Structure from the checkpoint file:  "1-2-dihydro-3H-1-2-4-triazol-3-ylidenemethanone.chk"
 Charge =  0 Multiplicity = 1

                         Standard orientation:
 ---------------------------------------------------------------------
 Center     Atomic      Atomic             Coordinates (Angstroms)
 Number     Number       Type             X           Y           Z
 ---------------------------------------------------------------------
      1          8           0        2.804747    0.017257   -0.101685
      2          7           0       -0.501813   -1.172528    0.046451
      3          7           0       -0.518237    1.148566    0.064488
      4          7           0       -1.829526   -0.691292   -0.149633
      5          6           0        0.336696    0.001975    0.169153
      6          6           0       -1.784183    0.580024   -0.127805
      7          6           0        1.635206    0.015429   -0.087720
      8          1           0       -0.507329   -1.788898    0.852503
      9          1           0       -0.455507    1.869545    0.772931
     10          1           0       -2.654421    1.203511   -0.262863
 ---------------------------------------------------------------------

 SCF Done:  E(RHF) =  -353.843397848     A.U. after    2 cycles

 The electronic state is 1-A.
 Alpha  occ. eigenvalues --  -20.61720 -15.55451 -15.55404 -15.54157 -11.38359
 Alpha  occ. eigenvalues --  -11.33019 -11.32287  -1.54844  -1.37455  -1.22282
 Alpha  occ. eigenvalues --   -1.14738  -1.00782  -0.86605  -0.84440  -0.75633
 Alpha  occ. eigenvalues --   -0.72375  -0.70901  -0.67387  -0.64399  -0.62038
 Alpha  occ. eigenvalues --   -0.58972  -0.52548  -0.51749  -0.45749  -0.32430
 Alpha virt. eigenvalues --    0.02517   0.04311   0.05052   0.07133   0.08206
 Alpha virt. eigenvalues --    0.08454   0.09152   0.09617   0.10841   0.11820
 Alpha virt. eigenvalues --    0.13261   0.13571   0.15082   0.15929   0.16571

 Mulliken charges:
               1
     1  O   -0.880402
     2  N    0.062324
     3  N    0.537092
     4  N    0.292586
     5  C   -0.678646
     6  C   -0.438191
     7  C    0.766632
     8  H    0.198427
     9  H    0.182913
    10  H   -0.042735
 Sum of Mulliken charges =  -0.00000

 Dipole moment (field-independent basis, Debye):
    X=             -1.1121    Y=              2.6782    Z=              2.2290  Tot=              3.6576

 Test job not archived.
 1\1\GINC-SE223\SP\RHF\Aug-CC-pVDZ\C3H3N3O1\OHZDE\05-Apr-2025\0\\#t hf
 aug-cc-pvdz iop(5/13=1,5/36=2,99/5=2) pseudo=read geom=check guess=(re
 ad,tcheck) scf=(maxcycle=1)\\title\\0,1\O,0,2.804747,0.017257,-0.10168
 5\N,0,-0.501813,-1.172528,0.046451\N,0,-0.518237,1.148566,0.064488\N,0
 ,-1.829526,-0.691292,-0.149633\C,0,0.336696,0.001975,0.169153\C,0,-1.7
 84183,0.580024,-0.127805\C,0,1.635206,0.015429,-0.08772\H,0,-0.507329,
 -1.788898,0.852503\H,0,-0.455507,1.869545,0.772931\H,0,-2.654421,1.203
 511,-0.262863\\Version=ES64L-G16RevC.01\State=1-A\HF=-353.8433978\RMSD

 Normal termination of Gaussian 16 at Sat Apr  5 22:20:51 2025.
