 Gaussian 16, Revision C.01,

 ----------------------------------------------------------------------
 #t hf aug-cc-pvdz symm=none int=(grid=ultrafine) guess=(read,tcheck) s
 table=(opt,rrhf)
 ----------------------------------------------------------------------
 -----
 title
 -----
 Symbolic Z-matrix:
 Charge =  0 Multiplicity = 1

 SCF Done:  E(RHF) =  -793.058710475     A.U. after   15 cycles
 Normal termination of Gaussian 16 at Sat Apr  5 22:19:32 2025.
 Gaussian 16:  ES64L-G16RevC.01  3-Jul-2019

 ----------------------------------------------------------------------
 #t hf aug-cc-pvdz iop(5/13=1,5/36=2,99/5=2) pseudo=read geom=check gue
 ss=(read,tcheck) scf=(maxcycle=1)
 ----------------------------------------------------------------------
 -----
 title
 -----
 Structure from the checkpoint file:  "1-2-5-oxathiazolidine-4-carboxylic_acid.chk"
 Charge =  0 Multiplicity = 1

                         Standard orientation:
 ---------------------------------------------------------------------
 Center     Atomic      Atomic             Coordinates (Angstroms)
 Number     Number       Type             X           Y           Z
 ---------------------------------------------------------------------
      1         16           0        2.173408   -0.484649   -0.218616
      2          8           0        1.706873    1.062931    0.309144
      3          8           0       -2.406268    1.061439   -0.306376
      4          8           0       -2.347569   -1.153252    0.077835
      5          7           0        0.354539    1.209545   -0.199575
      6          6           0       -0.337365    0.073070    0.423591
      7          6           0       -1.793433    0.075562    0.003121
      8          6           0        0.479207   -1.171035    0.031849
      9          1           0       -3.285795   -1.061746   -0.148192
     10          1           0        0.051131    2.086883    0.215271
     11          1           0       -0.334047    0.154184    1.518761
     12          1           0        0.458740   -1.921418    0.816656
     13          1           0        0.138929   -1.604861   -0.903801
 ---------------------------------------------------------------------

 SCF Done:  E(RHF) =  -793.507735243     A.U. after    2 cycles

 The electronic state is 1-A.
 Alpha  occ. eigenvalues --  -94.00380 -20.62537 -20.60875 -20.56247 -15.57727
 Alpha  occ. eigenvalues --  -11.42021 -11.31753 -11.29432  -8.27890  -6.25704
 Alpha  occ. eigenvalues --   -6.25506  -6.25202  -1.57328  -1.50546  -1.47878
 Alpha  occ. eigenvalues --   -1.18373  -1.09447  -0.96254  -0.87715  -0.83793
 Alpha  occ. eigenvalues --   -0.76187  -0.73570  -0.72880  -0.66350  -0.64269
 Alpha  occ. eigenvalues --   -0.63068  -0.61560  -0.58470  -0.57032  -0.53755
 Alpha  occ. eigenvalues --   -0.49845  -0.49236  -0.46682  -0.44783  -0.35826
 Alpha virt. eigenvalues --    0.02971   0.03995   0.04411   0.05071   0.06617
 Alpha virt. eigenvalues --    0.07799   0.07980   0.10042   0.10966   0.12141
 Alpha virt. eigenvalues --    0.13079   0.13363   0.13420   0.15055   0.15408

 Mulliken charges:
               1
     1  S    0.983700
     2  O   -1.355356
     3  O   -1.263800
     4  O   -1.258678
     5  N    1.002926
     6  C   -1.171760
     7  C    2.362098
     8  C   -0.576069
     9  H    0.399944
    10  H    0.219908
    11  H    0.277186
    12  H    0.195458
    13  H    0.184441
 Sum of Mulliken charges =  -0.00000

 Dipole moment (field-independent basis, Debye):
    X=             -1.9853    Y=             -2.5282    Z=              1.5722  Tot=              3.5784

 Test job not archived.
 1\1\GINC-SE084\SP\RHF\Aug-CC-pVDZ\C3H5N1O3S1\OHZDE\05-Apr-2025\0\\#t h
 f aug-cc-pvdz iop(5/13=1,5/36=2,99/5=2) pseudo=read geom=check guess=(
 read,tcheck) scf=(maxcycle=1)\\title\\0,1\S,0,2.173408,-0.484649,-0.21
 8616\O,0,1.706873,1.062931,0.309144\O,0,-2.406268,1.061439,-0.306376\O
 ,0,-2.347569,-1.153252,0.077835\N,0,0.354539,1.209545,-0.199575\C,0,-0
 .337365,0.07307,0.423591\C,0,-1.793433,0.075562,0.003121\C,0,0.479207,
 -1.171035,0.031849\H,0,-3.285795,-1.061746,-0.148192\H,0,0.051131,2.08
 6883,0.215271\H,0,-0.334047,0.154184,1.518761\H,0,0.45874,-1.921418,0.

 Normal termination of Gaussian 16 at Sat Apr  5 22:20:31 2025.
