 Gaussian 16, Revision C.01,

 ----------------------------------------------------------------------
 #t hf aug-cc-pvdz symm=none int=(grid=ultrafine) guess=(read,tcheck) s
 table=(opt,rrhf)
 ----------------------------------------------------------------------
 -----
 title
 -----
 Symbolic Z-matrix:
 Charge =  0 Multiplicity = 1

 SCF Done:  E(RHF) =  -871.752643414     A.U. after   17 cycles
 Normal termination of Gaussian 16 at Sat Apr  5 22:24:01 2025.
 Gaussian 16:  ES64L-G16RevC.01  3-Jul-2019

 ----------------------------------------------------------------------
 #t hf aug-cc-pvdz iop(5/13=1,5/36=2,99/5=2) pseudo=read geom=check gue
 ss=(read,tcheck) scf=(maxcycle=1)
 ----------------------------------------------------------------------
 -----
 title
 -----
 Structure from the checkpoint file:  "1-2-thienylpyridin-4-one.chk"
 Charge =  0 Multiplicity = 1

                         Standard orientation:
 ---------------------------------------------------------------------
 Center     Atomic      Atomic             Coordinates (Angstroms)
 Number     Number       Type             X           Y           Z
 ---------------------------------------------------------------------
      1          6           0       -3.260747    0.996763    0.430923
      2          6           0       -1.865684    1.229535    0.570709
      3          6           0       -3.546891   -0.215226   -0.118964
      4          6           0       -1.112417    0.187192    0.114195
      5          6           0        2.381637    1.125229   -0.488236
      6          6           0        2.306330   -1.101133    0.504790
      7          6           0        1.033891    1.153086   -0.447360
      8          6           0        0.961179   -1.008421    0.530032
      9          6           0        3.145966   -0.022380   -0.008396
     10          7           0        0.292939    0.105453    0.062562
     11          8           0        4.374161   -0.076554   -0.036314
     12         16           0       -2.114227   -1.095088   -0.513823
     13          1           0       -4.018281    1.696745    0.749056
     14          1           0       -1.438528    2.118035    1.010517
     15          1           0       -4.511080   -0.656491   -0.304364
     16          1           0        2.922894    1.963430   -0.901979
     17          1           0        2.789940   -1.988514    0.885958
     18          1           0        0.451171    1.981024   -0.821014
     19          1           0        0.328052   -1.786428    0.929407
 ---------------------------------------------------------------------

 SCF Done:  E(RHF) =  -872.286195559     A.U. after    2 cycles

 The electronic state is 1-A.
 Alpha  occ. eigenvalues --  -94.00553 -20.49576 -15.59214 -11.33759 -11.32394
 Alpha  occ. eigenvalues --  -11.31775 -11.31756 -11.29422 -11.27206 -11.27132
 Alpha  occ. eigenvalues --  -11.24519 -11.24493  -8.28727  -6.26492  -6.26400
 Alpha  occ. eigenvalues --   -6.26179  -1.42747  -1.34113  -1.21126  -1.10279
 Alpha  occ. eigenvalues --   -1.07771  -1.03687  -1.00748  -0.90846  -0.88552
 Alpha  occ. eigenvalues --   -0.83551  -0.80008  -0.75492  -0.72713  -0.69345
 Alpha  occ. eigenvalues --   -0.67121  -0.66049  -0.64749  -0.62818  -0.60064
 Alpha  occ. eigenvalues --   -0.57788  -0.57185  -0.55809  -0.55569  -0.51972
 Alpha  occ. eigenvalues --   -0.51049  -0.40382  -0.39750  -0.38511  -0.37798
 Alpha  occ. eigenvalues --   -0.32643
 Alpha virt. eigenvalues --    0.02416   0.03008   0.03540   0.04024   0.04672
 Alpha virt. eigenvalues --    0.05714   0.05962   0.06930   0.07545   0.08458
 Alpha virt. eigenvalues --    0.08973   0.09718   0.10642   0.11025   0.11607

 Mulliken charges:
               1
     1  C    0.525714
     2  C    0.626119
     3  C   -0.524232
     4  C   -1.795784
     5  C    0.850425
     6  C    0.912249
     7  C   -0.083987
     8  C   -0.099811
     9  C    0.351170
    10  N    1.624013
    11  O   -1.447558
    12  S    0.732260
    13  H   -0.120924
    14  H   -0.234029
    15  H   -0.149866
    16  H   -0.244307
    17  H   -0.241458
    18  H   -0.356838
    19  H   -0.323156
 Sum of Mulliken charges =  -0.00000

 Dipole moment (field-independent basis, Debye):
    X=             -7.0652    Y=              0.9796    Z=              0.4846  Tot=              7.1493

 Test job not archived.
 1\1\GINC-SE151\SP\RHF\Aug-CC-pVDZ\C9H7N1O1S1\OHZDE\05-Apr-2025\0\\#t h
 f aug-cc-pvdz iop(5/13=1,5/36=2,99/5=2) pseudo=read geom=check guess=(
 read,tcheck) scf=(maxcycle=1)\\title\\0,1\C,0,-3.260747,0.996763,0.430
 923\C,0,-1.865684,1.229535,0.570709\C,0,-3.546891,-0.215226,-0.118964\
 C,0,-1.112417,0.187192,0.114195\C,0,2.381637,1.125229,-0.488236\C,0,2.
 30633,-1.101133,0.50479\C,0,1.033891,1.153086,-0.44736\C,0,0.961179,-1
 .008421,0.530032\C,0,3.145966,-0.02238,-0.008396\N,0,0.292939,0.105453
 ,0.062562\O,0,4.374161,-0.076554,-0.036314\S,0,-2.114227,-1.095088,-0.

 Normal termination of Gaussian 16 at Sat Apr  5 22:24:24 2025.
