 Gaussian 16, Revision C.01,

 ----------------------------------------------------------------------
 #t hf aug-cc-pvdz symm=none int=(grid=ultrafine) guess=(read,tcheck) s
 table=(opt,rrhf)
 ----------------------------------------------------------------------
 -----
 title
 -----
 Symbolic Z-matrix:
 Charge =  0 Multiplicity = 1

 SCF Done:  E(RHF) =  -260.637861280     A.U. after   15 cycles
 Normal termination of Gaussian 16 at Sat Apr  5 22:18:08 2025.
 Gaussian 16:  ES64L-G16RevC.01  3-Jul-2019

 ----------------------------------------------------------------------
 #t hf aug-cc-pvdz iop(5/13=1,5/36=2,99/5=2) pseudo=read geom=check gue
 ss=(read,tcheck) scf=(maxcycle=1)
 ----------------------------------------------------------------------
 -----
 title
 -----
 Structure from the checkpoint file:  "1-2-4-oxadiazole.chk"
 Charge =  0 Multiplicity = 1

                         Standard orientation:
 ---------------------------------------------------------------------
 Center     Atomic      Atomic             Coordinates (Angstroms)
 Number     Number       Type             X           Y           Z
 ---------------------------------------------------------------------
      1          6           0        0.672289   -0.872864    0.000000
      2          6           0        0.000000    1.080516    0.000000
      3          7           0        1.115151    0.428577    0.000000
      4          7           0       -0.618412   -1.018822    0.000000
      5          8           0       -1.086341    0.307970    0.000000
      6          1           0        1.331150   -1.725351    0.000000
      7          1           0       -0.151329    2.147397    0.000000
 ---------------------------------------------------------------------

 SCF Done:  E(RHF) =  -260.895292396     A.U. after    2 cycles

 The electronic state is 1-A'.
 Alpha  occ. eigenvalues --  -20.65789 -15.58358 -15.52956 -11.37821 -11.32980
 Alpha  occ. eigenvalues --   -1.60690  -1.28663  -1.18986  -0.90546  -0.89140
 Alpha  occ. eigenvalues --   -0.78523  -0.70391  -0.66106  -0.62220  -0.57330
 Alpha  occ. eigenvalues --   -0.53006  -0.50168  -0.45722
 Alpha virt. eigenvalues --    0.03195   0.04722   0.07003   0.08465   0.09087
 Alpha virt. eigenvalues --    0.09349   0.09409   0.13295   0.14960   0.15463
 Alpha virt. eigenvalues --    0.17094   0.17542   0.19094   0.19113   0.20415

 Mulliken charges:
               1
     1  C   -0.844449
     2  C    0.520454
     3  N    0.444025
     4  N    1.076067
     5  O   -1.280735
     6  H   -0.015578
     7  H    0.100216
 Sum of Mulliken charges =  -0.00000

 Dipole moment (field-independent basis, Debye):
    X=              0.6527    Y=              1.4977    Z=              0.0000  Tot=              1.6337

 Test job not archived.
 1\1\GINC-SE106\SP\RHF\Aug-CC-pVDZ\C2H2N2O1\OHZDE\05-Apr-2025\0\\#t hf
 aug-cc-pvdz iop(5/13=1,5/36=2,99/5=2) pseudo=read geom=check guess=(re
 ad,tcheck) scf=(maxcycle=1)\\title\\0,1\C,0,0.672289,-0.872864,0.\C,0,
 0.,1.080516,0.\N,0,1.115151,0.428577,0.\N,0,-0.618412,-1.018822,0.\O,0
 ,-1.086341,0.30797,0.\H,0,1.33115,-1.725351,0.\H,0,-0.151329,2.147397,
 0.\\Version=ES64L-G16RevC.01\State=1-A'\HF=-260.8952924\RMSD=1.816e-02
 \Dipole=0.2567893,0.5892253,0.\Quadrupole=-3.2598902,3.8000612,-0.5401
 71,-4.308155,0.,0.\PG=CS [SG(C2H2N2O1)]\\@

 Normal termination of Gaussian 16 at Sat Apr  5 22:18:12 2025.
