 Gaussian 16, Revision C.01,

 ----------------------------------------------------------------------
 #t hf aug-cc-pvdz symm=none int=(grid=ultrafine) guess=(read,tcheck) s
 table=(opt,rrhf)
 ----------------------------------------------------------------------
 -----
 title
 -----
 Symbolic Z-matrix:
 Charge =  0 Multiplicity = 1

 SCF Done:  E(RHF) =  -529.611007207     A.U. after   17 cycles
 Normal termination of Gaussian 16 at Sat Apr  5 22:19:59 2025.
 Gaussian 16:  ES64L-G16RevC.01  3-Jul-2019

 ----------------------------------------------------------------------
 #t hf aug-cc-pvdz iop(5/13=1,5/36=2,99/5=2) pseudo=read geom=check gue
 ss=(read,tcheck) scf=(maxcycle=1)
 ----------------------------------------------------------------------
 -----
 title
 -----
 Structure from the checkpoint file:  "1-2-fluoroethyl-1-nitrosourea.chk"
 Charge =  0 Multiplicity = 1

                         Standard orientation:
 ---------------------------------------------------------------------
 Center     Atomic      Atomic             Coordinates (Angstroms)
 Number     Number       Type             X           Y           Z
 ---------------------------------------------------------------------
      1          9           0        2.238616   -0.469672   -1.083891
      2          8           0       -0.514809   -2.003549    0.451487
      3          8           0       -1.632764    1.813980   -0.275594
      4          7           0       -0.198773    0.275717    0.380007
      5          7           0       -0.548484    1.562718    0.217650
      6          7           0       -2.134520   -0.747839   -0.527734
      7          6           0       -0.963461   -0.934369    0.104720
      8          6           0        1.144957    0.122000    0.957118
      9          6           0        2.245900    0.443632   -0.031865
     10          1           0       -2.462917    0.183522   -0.731508
     11          1           0       -2.687718   -1.568038   -0.704569
     12          1           0        1.225249   -0.904699    1.298472
     13          1           0        1.231055    0.793777    1.810409
     14          1           0        2.119544    1.439137   -0.458411
     15          1           0        3.215888    0.378152    0.464183
 ---------------------------------------------------------------------

 SCF Done:  E(RHF) =  -530.127739705     A.U. after    2 cycles

 The electronic state is 1-A.
 Alpha  occ. eigenvalues --  -26.45410 -20.61143 -20.53179 -15.70553 -15.60228
 Alpha  occ. eigenvalues --  -15.54159 -11.42068 -11.33593 -11.30040  -1.61472
 Alpha  occ. eigenvalues --   -1.57495  -1.49560  -1.33280  -1.24723  -1.07820
 Alpha  occ. eigenvalues --   -1.01947  -0.91379  -0.84918  -0.79755  -0.78616
 Alpha  occ. eigenvalues --   -0.74372  -0.73275  -0.69861  -0.68998  -0.66688
 Alpha  occ. eigenvalues --   -0.65348  -0.63349  -0.61550  -0.59202  -0.54774
 Alpha  occ. eigenvalues --   -0.53321  -0.48241  -0.47194  -0.45441  -0.44594
 Alpha virt. eigenvalues --    0.03063   0.04014   0.04429   0.04869   0.05185
 Alpha virt. eigenvalues --    0.06292   0.06779   0.09541   0.10425   0.10921
 Alpha virt. eigenvalues --    0.12384   0.13173   0.13934   0.14776   0.15178

 Mulliken charges:
               1
     1  F   -0.749701
     2  O   -1.121679
     3  O   -1.179834
     4  N    0.010701
     5  N    1.253292
     6  N    0.716887
     7  C    0.113350
     8  C   -0.583325
     9  C    0.811230
    10  H    0.106043
    11  H    0.222313
    12  H    0.063075
    13  H    0.145146
    14  H    0.092309
    15  H    0.100194
 Sum of Mulliken charges =  -0.00000

 Dipole moment (field-independent basis, Debye):
    X=             -0.3757    Y=              1.3162    Z=              0.9602  Tot=              1.6720

 Test job not archived.
 1\1\GINC-SE231\SP\RHF\Aug-CC-pVDZ\C3H6F1N3O2\OHZDE\05-Apr-2025\0\\#t h
 f aug-cc-pvdz iop(5/13=1,5/36=2,99/5=2) pseudo=read geom=check guess=(
 read,tcheck) scf=(maxcycle=1)\\title\\0,1\F,0,2.238616,-0.469672,-1.08
 3891\O,0,-0.514809,-2.003549,0.451487\O,0,-1.632764,1.81398,-0.275594\
 N,0,-0.198773,0.275717,0.380007\N,0,-0.548484,1.562718,0.21765\N,0,-2.
 13452,-0.747839,-0.527734\C,0,-0.963461,-0.934369,0.10472\C,0,1.144957
 ,0.122,0.957118\C,0,2.2459,0.443632,-0.031865\H,0,-2.462917,0.183522,-
 0.731508\H,0,-2.687718,-1.568038,-0.704569\H,0,1.225249,-0.904699,1.29

 Normal termination of Gaussian 16 at Sat Apr  5 22:20:32 2025.
