 Gaussian 16, Revision C.01,

 ----------------------------------------------------------------------
 #t hf aug-cc-pvdz symm=none int=(grid=ultrafine) guess=(read,tcheck) s
 table=(opt,rrhf)
 ----------------------------------------------------------------------
 -----
 title
 -----
 Symbolic Z-matrix:
 Charge =  0 Multiplicity = 1

 SCF Done:  E(RHF) =  -436.330919475     A.U. after   15 cycles
 Normal termination of Gaussian 16 at Sat Apr  5 22:20:24 2025.
 Gaussian 16:  ES64L-G16RevC.01  3-Jul-2019

 ----------------------------------------------------------------------
 #t hf aug-cc-pvdz iop(5/13=1,5/36=2,99/5=2) pseudo=read geom=check gue
 ss=(read,tcheck) scf=(maxcycle=1)
 ----------------------------------------------------------------------
 -----
 title
 -----
 Structure from the checkpoint file:  "1-2-furylpyrrole.chk"
 Charge =  0 Multiplicity = 1

                         Standard orientation:
 ---------------------------------------------------------------------
 Center     Atomic      Atomic             Coordinates (Angstroms)
 Number     Number       Type             X           Y           Z
 ---------------------------------------------------------------------
      1          6           0       -2.772926   -0.745430    0.127040
      2          6           0       -2.835748    0.657366   -0.109605
      3          6           0        2.860308    0.583052    0.103711
      4          6           0        1.551119    1.154181    0.212862
      5          6           0       -1.451987   -1.096859    0.185131
      6          6           0       -1.550872    1.119466   -0.190721
      7          6           0        2.691852   -0.736863   -0.133470
      8          6           0        0.685887    0.123810    0.019734
      9          7           0       -0.697666    0.046430   -0.010764
     10          8           0        1.353226   -1.035205   -0.194701
     11          1           0       -3.604798   -1.419043    0.239788
     12          1           0       -3.724063    1.255180   -0.219283
     13          1           0        3.800352    1.097381    0.201917
     14          1           0        1.298133    2.176815    0.425961
     15          1           0       -0.974196   -2.044614    0.349051
     16          1           0       -1.163532    2.103939   -0.379320
     17          1           0        3.360167   -1.565371   -0.273248
 ---------------------------------------------------------------------

 SCF Done:  E(RHF) =  -436.773896722     A.U. after    2 cycles

 The electronic state is 1-A.
 Alpha  occ. eigenvalues --  -20.61978 -15.56672 -11.34885 -11.29769 -11.26814
 Alpha  occ. eigenvalues --  -11.26721 -11.24733 -11.23906 -11.22867 -11.22670
 Alpha  occ. eigenvalues --   -1.56076  -1.31830  -1.11227  -1.09798  -1.00101
 Alpha  occ. eigenvalues --   -0.99034  -0.86011  -0.83840  -0.78916  -0.77525
 Alpha  occ. eigenvalues --   -0.76522  -0.68932  -0.67153  -0.63292  -0.61766
 Alpha  occ. eigenvalues --   -0.60413  -0.59486  -0.58184  -0.57016  -0.56320
 Alpha  occ. eigenvalues --   -0.55088  -0.41951  -0.40121  -0.32118  -0.30843
 Alpha virt. eigenvalues --    0.03378   0.03829   0.03992   0.04443   0.04641
 Alpha virt. eigenvalues --    0.06711   0.06806   0.09244   0.09406   0.09903
 Alpha virt. eigenvalues --    0.11226   0.11875   0.12463   0.12910   0.13490

 Mulliken charges:
               1
     1  C    0.269492
     2  C    0.340827
     3  C    0.413899
     4  C    0.818855
     5  C   -0.032258
     6  C   -0.058526
     7  C    0.647621
     8  C   -0.859060
     9  N    1.471407
    10  O   -1.486200
    11  H   -0.153842
    12  H   -0.148740
    13  H   -0.140562
    14  H   -0.227805
    15  H   -0.315909
    16  H   -0.358090
    17  H   -0.181111
 Sum of Mulliken charges =  -0.00000

 Dipole moment (field-independent basis, Debye):
    X=              0.9470    Y=              0.5100    Z=              0.1446  Tot=              1.0852

 Test job not archived.
 1\1\GINC-SE232\SP\RHF\Aug-CC-pVDZ\C8H7N1O1\OHZDE\05-Apr-2025\0\\#t hf
 aug-cc-pvdz iop(5/13=1,5/36=2,99/5=2) pseudo=read geom=check guess=(re
 ad,tcheck) scf=(maxcycle=1)\\title\\0,1\C,0,-2.772926,-0.74543,0.12704
 \C,0,-2.835748,0.657366,-0.109605\C,0,2.860308,0.583052,0.103711\C,0,1
 .551119,1.154181,0.212862\C,0,-1.451987,-1.096859,0.185131\C,0,-1.5508
 72,1.119466,-0.190721\C,0,2.691852,-0.736863,-0.13347\C,0,0.685887,0.1
 2381,0.019734\N,0,-0.697666,0.04643,-0.010764\O,0,1.353226,-1.035205,-
 0.194701\H,0,-3.604798,-1.419043,0.239788\H,0,-3.724063,1.25518,-0.219

 Normal termination of Gaussian 16 at Sat Apr  5 22:20:35 2025.
