 Gaussian 16, Revision C.01,

 ----------------------------------------------------------------------
 #t hf aug-cc-pvdz symm=none int=(grid=ultrafine) guess=(read,tcheck) s
 table=(opt,rrhf)
 ----------------------------------------------------------------------
 -----
 title
 -----
 Symbolic Z-matrix:
 Charge =  0 Multiplicity = 1

 SCF Done:  E(RHF) =  -347.845104989     A.U. after   15 cycles
 Normal termination of Gaussian 16 at Sat Apr  5 22:18:36 2025.
 Gaussian 16:  ES64L-G16RevC.01  3-Jul-2019

 ----------------------------------------------------------------------
 #t hf aug-cc-pvdz iop(5/13=1,5/36=2,99/5=2) pseudo=read geom=check gue
 ss=(read,tcheck) scf=(maxcycle=1)
 ----------------------------------------------------------------------
 -----
 title
 -----
 Structure from the checkpoint file:  "1-2-3-trimethylbenzene.chk"
 Charge =  0 Multiplicity = 1

                         Standard orientation:
 ---------------------------------------------------------------------
 Center     Atomic      Atomic             Coordinates (Angstroms)
 Number     Number       Type             X           Y           Z
 ---------------------------------------------------------------------
      1          6           0       -0.013713   -2.140034    0.000000
      2          6           0       -1.206232   -1.434267    0.000000
      3          6           0        1.188364   -1.448980    0.000000
      4          6           0       -1.219337   -0.039134    0.000000
      5          6           0        1.211026   -0.056326    0.000000
      6          6           0        0.000000    0.658904    0.000000
      7          6           0       -2.548821    0.677092    0.000000
      8          6           0        2.533357    0.666411    0.000000
      9          6           0        0.040515    2.167409    0.000000
     10          1           0       -0.020953   -3.222033    0.000000
     11          1           0       -2.147129   -1.970109    0.000000
     12          1           0        2.124223   -1.993715    0.000000
     13          1           0       -2.669919    1.314846    0.878141
     14          1           0       -2.669919    1.314846   -0.878141
     15          1           0       -3.368212   -0.040077    0.000000
     16          1           0        2.643869    1.309810   -0.876251
     17          1           0        2.643869    1.309810    0.876251
     18          1           0        3.361993   -0.039937    0.000000
     19          1           0        0.571159    2.550206   -0.875359
     20          1           0       -0.951091    2.609692    0.000000
     21          1           0        0.571159    2.550206    0.875359
 ---------------------------------------------------------------------

 SCF Done:  E(RHF) =  -348.216323572     A.U. after    2 cycles

 The electronic state is 1-A'.
 Alpha  occ. eigenvalues --  -11.23888 -11.23792 -11.23566 -11.23016 -11.22975
 Alpha  occ. eigenvalues --  -11.22958 -11.22854 -11.22625 -11.22603  -1.15792
 Alpha  occ. eigenvalues --   -1.05529  -1.04743  -0.96857  -0.92484  -0.91461
 Alpha  occ. eigenvalues --   -0.79463  -0.79013  -0.68011  -0.66980  -0.61285
 Alpha  occ. eigenvalues --   -0.60250  -0.57258  -0.57007  -0.56958  -0.56083
 Alpha  occ. eigenvalues --   -0.55164  -0.54947  -0.52774  -0.48370  -0.48050
 Alpha  occ. eigenvalues --   -0.47828  -0.32541  -0.32304
 Alpha virt. eigenvalues --    0.03400   0.03440   0.03814   0.04465   0.04654
 Alpha virt. eigenvalues --    0.04906   0.06486   0.07562   0.07635   0.08055
 Alpha virt. eigenvalues --    0.09009   0.10267   0.11539   0.11905   0.11939

 Mulliken charges:
               1
     1  C   -0.257411
     2  C    0.402270
     3  C    0.436311
     4  C    0.655245
     5  C   -0.064040
     6  C    0.236852
     7  C   -0.907718
     8  C   -0.764244
     9  C   -0.722468
    10  H   -0.254216
    11  H   -0.295073
    12  H   -0.289749
    13  H    0.354922
    14  H    0.354922
    15  H   -0.056080
    16  H    0.315828
    17  H    0.315828
    18  H   -0.040212
    19  H    0.342768
    20  H   -0.106504
    21  H    0.342768
 Sum of Mulliken charges =  -0.00000

 Dipole moment (field-independent basis, Debye):
    X=              0.0140    Y=              0.7205    Z=              0.0000  Tot=              0.7206

 Test job not archived.
 1\1\GINC-SE012\SP\RHF\Aug-CC-pVDZ\C9H12\OHZDE\05-Apr-2025\0\\#t hf aug
 -cc-pvdz iop(5/13=1,5/36=2,99/5=2) pseudo=read geom=check guess=(read,
 tcheck) scf=(maxcycle=1)\\title\\0,1\C,0,-0.013713,-2.140034,0.\C,0,-1
 .206232,-1.434267,0.\C,0,1.188364,-1.44898,0.\C,0,-1.219337,-0.039134,
 0.\C,0,1.211026,-0.056326,0.\C,0,0.,0.658904,0.\C,0,-2.548821,0.677092
 ,0.\C,0,2.533357,0.666411,0.\C,0,0.040515,2.167409,0.\H,0,-0.020953,-3
 .222033,0.\H,0,-2.147129,-1.970109,0.\H,0,2.124223,-1.993715,0.\H,0,-2
 .669919,1.314846,0.878141\H,0,-2.669919,1.314846,-0.878141\H,0,-3.3682

 Normal termination of Gaussian 16 at Sat Apr  5 22:19:12 2025.
