 Gaussian 16, Revision C.01,

 ----------------------------------------------------------------------
 #t hf aug-cc-pvdz symm=none int=(grid=ultrafine) guess=(read,tcheck) s
 table=(opt,rrhf)
 ----------------------------------------------------------------------
 -----
 title
 -----
 Symbolic Z-matrix:
 Charge =  0 Multiplicity = 1

 SCF Done:  E(RHF) =  -228.348803375     A.U. after   13 cycles

 1\1\GINC-SE052\Stability\RHF\Aug-CC-pVDZ\C3H10N2\OHZDE\05-Apr-2025\0\\
 #t hf aug-cc-pvdz symm=none int=(grid=ultrafine) guess=(read,tcheck) s
 table=(opt,rrhf)\\title\\0,1\N,0,0.515491,1.391494,-0.213362\H,0,-0.25
 848,1.947494,0.128733\H,0,1.36414,1.866364,0.068915\N,0,-2.061342,-0.1
 2769,0.037236\H,0,-2.181732,0.757797,-0.436282\H,0,-2.220834,0.015135,
 1.026891\C,0,-0.749795,-0.71169,-0.229148\H,0,-0.747392,-1.729706,0.16
 841\H,0,-0.63564,-0.788418,-1.312659\C,0,1.758237,-0.700957,-0.022941\
 H,0,1.744056,-1.722779,0.358287\H,0,1.887491,-0.735988,-1.105935\H,0,2

 Normal termination of Gaussian 16 at Sat Apr  5 22:20:48 2025.
 Gaussian 16:  ES64L-G16RevC.01  3-Jul-2019

 ----------------------------------------------------------------------
 #t hf aug-cc-pvdz iop(5/13=1,5/36=2,99/5=2) pseudo=read geom=check gue
 ss=(read,tcheck) scf=(maxcycle=1)
 ----------------------------------------------------------------------
 -----
 title
 -----
 Structure from the checkpoint file:  "1-2-diaminopropane.chk"
 Charge =  0 Multiplicity = 1

                         Standard orientation:
 ---------------------------------------------------------------------
 Center     Atomic      Atomic             Coordinates (Angstroms)
 Number     Number       Type             X           Y           Z
 ---------------------------------------------------------------------
      1          7           0        0.515491    1.391494   -0.213362
      2          1           0       -0.258480    1.947494    0.128733
      3          1           0        1.364140    1.866364    0.068915
      4          7           0       -2.061342   -0.127690    0.037236
      5          1           0       -2.181732    0.757797   -0.436282
      6          1           0       -2.220834    0.015135    1.026891
      7          6           0       -0.749795   -0.711690   -0.229148
      8          1           0       -0.747392   -1.729706    0.168410
      9          1           0       -0.635640   -0.788418   -1.312659
     10          6           0        1.758237   -0.700957   -0.022941
     11          1           0        1.744056   -1.722779    0.358287
     12          1           0        1.887491   -0.735988   -1.105935
     13          1           0        2.629221   -0.200050    0.404284
     14          6           0        0.469629    0.030604    0.335268
     15          1           0        0.371697    0.035781    1.433164
 ---------------------------------------------------------------------

 SCF Done:  E(RHF) =  -228.600720801     A.U. after    2 cycles

 The electronic state is 1-A.
 Alpha  occ. eigenvalues --  -15.48324 -15.48083 -11.25773 -11.24900 -11.22380
 Alpha  occ. eigenvalues --   -1.20025  -1.15534  -1.01229  -0.90935  -0.80039
 Alpha  occ. eigenvalues --   -0.70931  -0.69225  -0.65498  -0.63649  -0.56638
 Alpha  occ. eigenvalues --   -0.54018  -0.53433  -0.52201  -0.51212  -0.43603
 Alpha  occ. eigenvalues --   -0.40756
 Alpha virt. eigenvalues --    0.03335   0.04215   0.04421   0.04836   0.06269
 Alpha virt. eigenvalues --    0.06440   0.06879   0.06997   0.09383   0.09786
 Alpha virt. eigenvalues --    0.12538   0.13217   0.14032   0.14620   0.16022

 Mulliken charges:
               1
     1  N    0.436441
     2  H    0.160593
     3  H    0.150466
     4  N    0.301382
     5  H    0.179422
     6  H    0.118228
     7  C   -0.649823
     8  H    0.127535
     9  H    0.148751
    10  C   -0.002401
    11  H    0.156848
    12  H    0.244356
    13  H    0.092052
    14  C   -1.550446
    15  H    0.086595
 Sum of Mulliken charges =  -0.00000

 Dipole moment (field-independent basis, Debye):
    X=              1.0900    Y=              0.8437    Z=              1.7901  Tot=              2.2593

 Test job not archived.
 1\1\GINC-SE052\SP\RHF\Aug-CC-pVDZ\C3H10N2\OHZDE\05-Apr-2025\0\\#t hf a
 ug-cc-pvdz iop(5/13=1,5/36=2,99/5=2) pseudo=read geom=check guess=(rea
 d,tcheck) scf=(maxcycle=1)\\title\\0,1\N,0,0.515491,1.391494,-0.213362
 \H,0,-0.25848,1.947494,0.128733\H,0,1.36414,1.866364,0.068915\N,0,-2.0
 61342,-0.12769,0.037236\H,0,-2.181732,0.757797,-0.436282\H,0,-2.220834
 ,0.015135,1.026891\C,0,-0.749795,-0.71169,-0.229148\H,0,-0.747392,-1.7
 29706,0.16841\H,0,-0.63564,-0.788418,-1.312659\C,0,1.758237,-0.700957,
 -0.022941\H,0,1.744056,-1.722779,0.358287\H,0,1.887491,-0.735988,-1.10

 Normal termination of Gaussian 16 at Sat Apr  5 22:20:52 2025.
