 Gaussian 16, Revision C.01,

 ----------------------------------------------------------------------
 #t hf aug-cc-pvdz symm=none int=(grid=ultrafine) guess=(read,tcheck) s
 table=(opt,rrhf)
 ----------------------------------------------------------------------
 -----
 title
 -----
 Symbolic Z-matrix:
 Charge =  0 Multiplicity = 1

 SCF Done:  E(RHF) =  -385.109672643     A.U. after   11 cycles

 1\1\GINC-SE187\Stability\RHF\Aug-CC-pVDZ\C6H14O2\OHZDE\05-Apr-2025\0\\
 #t hf aug-cc-pvdz symm=none int=(grid=ultrafine) guess=(read,tcheck) s
 table=(opt,rrhf)\\title\\0,1\C,0,-0.185454,3.476467,1.177678\C,0,0.185
 454,-3.476467,1.177678\C,0,0.448568,2.723875,0.026404\C,0,-0.448568,-2
 .723875,0.026404\C,0,0.330721,0.678899,-1.157349\C,0,-0.330721,-0.6788
 99,-1.157349\O,0,-0.185454,1.462479,-0.100569\O,0,0.185454,-1.462479,-
 0.100569\H,0,0.289479,4.45091,1.299148\H,0,-1.249152,3.631512,0.997075
 \H,0,-0.073398,2.919207,2.107537\H,0,-0.289479,-4.45091,1.299148\H,0,1

 Normal termination of Gaussian 16 at Sat Apr  5 22:20:26 2025.
 Gaussian 16:  ES64L-G16RevC.01  3-Jul-2019

 ----------------------------------------------------------------------
 #t hf aug-cc-pvdz iop(5/13=1,5/36=2,99/5=2) pseudo=read geom=check gue
 ss=(read,tcheck) scf=(maxcycle=1)
 ----------------------------------------------------------------------
 -----
 title
 -----
 Structure from the checkpoint file:  "1-2-diethoxyethane.chk"
 Charge =  0 Multiplicity = 1

                         Standard orientation:
 ---------------------------------------------------------------------
 Center     Atomic      Atomic             Coordinates (Angstroms)
 Number     Number       Type             X           Y           Z
 ---------------------------------------------------------------------
      1          6           0       -0.185454    3.476467    1.177678
      2          6           0        0.185454   -3.476467    1.177678
      3          6           0        0.448568    2.723875    0.026404
      4          6           0       -0.448568   -2.723875    0.026404
      5          6           0        0.330721    0.678899   -1.157349
      6          6           0       -0.330721   -0.678899   -1.157349
      7          8           0       -0.185454    1.462479   -0.100569
      8          8           0        0.185454   -1.462479   -0.100569
      9          1           0        0.289479    4.450910    1.299148
     10          1           0       -1.249152    3.631512    0.997075
     11          1           0       -0.073398    2.919207    2.107537
     12          1           0       -0.289479   -4.450910    1.299148
     13          1           0        1.249152   -3.631512    0.997075
     14          1           0        0.073398   -2.919207    2.107537
     15          1           0        1.523271    2.581941    0.202423
     16          1           0        0.343221    3.289948   -0.909829
     17          1           0       -1.523271   -2.581941    0.202423
     18          1           0       -0.343221   -3.289948   -0.909829
     19          1           0        0.140113    1.170529   -2.121857
     20          1           0        1.415919    0.554537   -1.050343
     21          1           0       -0.140113   -1.170529   -2.121857
     22          1           0       -1.415919   -0.554537   -1.050343
 ---------------------------------------------------------------------

 SCF Done:  E(RHF) =  -385.521047969     A.U. after    2 cycles

 The electronic state is 1-A.
 Alpha  occ. eigenvalues --  -20.53560 -20.53560 -11.27930 -11.27929 -11.27848
 Alpha  occ. eigenvalues --  -11.27845 -11.22046 -11.22043  -1.46204  -1.44719
 Alpha  occ. eigenvalues --   -1.05266  -1.01641  -0.96820  -0.84387  -0.83594
 Alpha  occ. eigenvalues --   -0.82763  -0.68876  -0.68640  -0.65338  -0.64725
 Alpha  occ. eigenvalues --   -0.62988  -0.58771  -0.57549  -0.56093  -0.53789
 Alpha  occ. eigenvalues --   -0.53445  -0.50652  -0.50467  -0.49731  -0.47333
 Alpha  occ. eigenvalues --   -0.46526  -0.41622  -0.40541
 Alpha virt. eigenvalues --    0.03771   0.03839   0.04032   0.04245   0.05154
 Alpha virt. eigenvalues --    0.05412   0.05779   0.06830   0.07331   0.07769
 Alpha virt. eigenvalues --    0.08028   0.08926   0.10484   0.10610   0.12582

 Mulliken charges:
               1
     1  C   -0.565659
     2  C   -0.565659
     3  C    0.394424
     4  C    0.394424
     5  C    0.424901
     6  C    0.424901
     7  O   -1.321870
     8  O   -1.321870
     9  H    0.143814
    10  H    0.164109
    11  H    0.173469
    12  H    0.143814
    13  H    0.164109
    14  H    0.173469
    15  H    0.135449
    16  H    0.145996
    17  H    0.135449
    18  H    0.145996
    19  H    0.144091
    20  H    0.161274
    21  H    0.144091
    22  H    0.161274
 Sum of Mulliken charges =  -0.00000

 Dipole moment (field-independent basis, Debye):
    X=             -0.0000    Y=             -0.0000    Z=             -1.2922  Tot=              1.2922

 Test job not archived.
 1\1\GINC-SE187\SP\RHF\Aug-CC-pVDZ\C6H14O2\OHZDE\05-Apr-2025\0\\#t hf a
 ug-cc-pvdz iop(5/13=1,5/36=2,99/5=2) pseudo=read geom=check guess=(rea
 d,tcheck) scf=(maxcycle=1)\\title\\0,1\C,0,-0.185454,3.476467,1.177678
 \C,0,0.185454,-3.476467,1.177678\C,0,0.448568,2.723875,0.026404\C,0,-0
 .448568,-2.723875,0.026404\C,0,0.330721,0.678899,-1.157349\C,0,-0.3307
 21,-0.678899,-1.157349\O,0,-0.185454,1.462479,-0.100569\O,0,0.185454,-
 1.462479,-0.100569\H,0,0.289479,4.45091,1.299148\H,0,-1.249152,3.63151
 2,0.997075\H,0,-0.073398,2.919207,2.107537\H,0,-0.289479,-4.45091,1.29

 Normal termination of Gaussian 16 at Sat Apr  5 22:20:32 2025.
