 Gaussian 16, Revision C.01,

 ----------------------------------------------------------------------
 #t hf aug-cc-pvdz symm=none int=(grid=ultrafine) guess=(read,tcheck) s
 table=(opt,rrhf)
 ----------------------------------------------------------------------
 -----
 title
 -----
 Symbolic Z-matrix:
 Charge =  0 Multiplicity = 1

 SCF Done:  E(RHF) =  -505.466420921     A.U. after   13 cycles
 Normal termination of Gaussian 16 at Sat Apr  5 22:17:42 2025.
 Gaussian 16:  ES64L-G16RevC.01  3-Jul-2019

 ----------------------------------------------------------------------
 #t hf aug-cc-pvdz iop(5/13=1,5/36=2,99/5=2) pseudo=read geom=check gue
 ss=(read,tcheck) scf=(maxcycle=1)
 ----------------------------------------------------------------------
 -----
 title
 -----
 Structure from the checkpoint file:  "1-2-3-triazine-1-3-52H-4H-triol.chk"
 Charge =  0 Multiplicity = 1

                         Standard orientation:
 ---------------------------------------------------------------------
 Center     Atomic      Atomic             Coordinates (Angstroms)
 Number     Number       Type             X           Y           Z
 ---------------------------------------------------------------------
      1          8           0        0.569866    2.594177    0.155646
      2          8           0       -2.539724   -0.757188    0.081104
      3          8           0        2.008162   -1.846814    0.105094
      4          7           0        0.242250    1.348825   -0.423189
      5          7           0       -1.244556   -0.381909   -0.375129
      6          7           0       -0.961122    0.888967    0.212235
      7          6           0        1.064962   -0.864266    0.012715
      8          6           0        1.310784    0.421168   -0.255557
      9          6           0       -0.329933   -1.403054    0.142311
     10          1           0        0.854266    2.424315    1.072480
     11          1           0       -3.127778   -0.379899   -0.584305
     12          1           0        2.891391   -1.470121    0.025779
     13          1           0       -0.747835    0.743908    1.215313
     14          1           0        2.292038    0.814417   -0.479160
     15          1           0       -0.568579   -1.662973    1.182597
     16          1           0       -0.430809   -2.305324   -0.461686
 ---------------------------------------------------------------------

 SCF Done:  E(RHF) =  -505.975089435     A.U. after    2 cycles

 The electronic state is 1-A.
 Alpha  occ. eigenvalues --  -20.59920 -20.59730 -20.59203 -15.60030 -15.59839
 Alpha  occ. eigenvalues --  -15.56680 -11.32672 -11.28696 -11.27255  -1.51933
 Alpha  occ. eigenvalues --   -1.51089  -1.50167  -1.31202  -1.15087  -1.11043
 Alpha  occ. eigenvalues --   -0.96348  -0.94532  -0.82647  -0.78273  -0.77030
 Alpha  occ. eigenvalues --   -0.73469  -0.70827  -0.69123  -0.65754  -0.64298
 Alpha  occ. eigenvalues --   -0.61026  -0.60434  -0.57030  -0.55668  -0.52996
 Alpha  occ. eigenvalues --   -0.52628  -0.49925  -0.46528  -0.44004  -0.35090
 Alpha virt. eigenvalues --    0.02756   0.03825   0.04684   0.05039   0.05539
 Alpha virt. eigenvalues --    0.06399   0.06996   0.10251   0.10981   0.12388
 Alpha virt. eigenvalues --    0.12874   0.13228   0.14145   0.15063   0.15468

 Mulliken charges:
               1
     1  O   -1.231660
     2  O   -1.232902
     3  O   -1.656790
     4  N    1.062911
     5  N    1.097595
     6  N   -0.241738
     7  C    1.830564
     8  C   -0.417601
     9  C   -0.611325
    10  H    0.340222
    11  H    0.308514
    12  H    0.373181
    13  H    0.272083
    14  H   -0.203467
    15  H    0.195620
    16  H    0.114793
 Sum of Mulliken charges =  -0.00000

 Dipole moment (field-independent basis, Debye):
    X=              2.3116    Y=             -1.4763    Z=              1.9768  Tot=              3.3810

 Test job not archived.
 1\1\GINC-SE106\SP\RHF\Aug-CC-pVDZ\C3H7N3O3\OHZDE\05-Apr-2025\0\\#t hf
 aug-cc-pvdz iop(5/13=1,5/36=2,99/5=2) pseudo=read geom=check guess=(re
 ad,tcheck) scf=(maxcycle=1)\\title\\0,1\O,0,0.569873,2.594176,0.155646
 \O,0,-2.539726,-0.757181,0.081104\O,0,2.008157,-1.846819,0.105094\N,0,
 0.242253,1.348825,-0.423189\N,0,-1.244557,-0.381906,-0.375129\N,0,-0.9
 6112,0.88897,0.212235\C,0,1.06496,-0.864269,0.012715\C,0,1.310785,0.42
 1165,-0.255557\C,0,-0.329937,-1.403053,0.142311\H,0,0.854272,2.424313,
 1.07248\H,0,-3.127779,-0.379891,-0.584305\H,0,2.891387,-1.470128,0.025

 Normal termination of Gaussian 16 at Sat Apr  5 22:18:05 2025.
