 Gaussian 16, Revision C.01,

 ----------------------------------------------------------------------
 #t hf aug-cc-pvdz symm=none int=(grid=ultrafine) guess=(read,tcheck) s
 table=(opt,rrhf)
 ----------------------------------------------------------------------
 -----
 title
 -----
 Symbolic Z-matrix:
 Charge =  0 Multiplicity = 1

 SCF Done:  E(RHF) =  -604.282896760     A.U. after   16 cycles
 Normal termination of Gaussian 16 at Sat Apr  5 22:16:56 2025.
 Gaussian 16:  ES64L-G16RevC.01  3-Jul-2019

 ----------------------------------------------------------------------
 #t hf aug-cc-pvdz iop(5/13=1,5/36=2,99/5=2) pseudo=read geom=check gue
 ss=(read,tcheck) scf=(maxcycle=1)
 ----------------------------------------------------------------------
 -----
 title
 -----
 Structure from the checkpoint file:  "1-2-3-oxathiazole.chk"
 Charge =  0 Multiplicity = 1

                         Standard orientation:
 ---------------------------------------------------------------------
 Center     Atomic      Atomic             Coordinates (Angstroms)
 Number     Number       Type             X           Y           Z
 ---------------------------------------------------------------------
      1         16           0        1.186410   -0.064007    0.045138
      2          8           0       -0.061151   -1.221903   -0.137878
      3          7           0        0.175745    1.267799   -0.042280
      4          6           0       -1.314499   -0.572651    0.090963
      5          6           0       -1.045627    0.909738   -0.039631
      6          1           0       -2.026855   -0.942921   -0.648855
      7          1           0       -1.699332   -0.803959    1.095565
      8          1           0       -1.836623    1.649106   -0.077924
 ---------------------------------------------------------------------

 SCF Done:  E(RHF) =  -604.548002533     A.U. after    2 cycles

 The electronic state is 1-A.
 Alpha  occ. eigenvalues --  -94.03031 -20.58630 -15.55266 -11.32339 -11.31430
 Alpha  occ. eigenvalues --   -8.30348  -6.28133  -6.27938  -6.27597  -1.48858
 Alpha  occ. eigenvalues --   -1.27312  -1.05381  -0.91935  -0.82039  -0.72292
 Alpha  occ. eigenvalues --   -0.68925  -0.64116  -0.58150  -0.54937  -0.52029
 Alpha  occ. eigenvalues --   -0.50724  -0.49210  -0.33841
 Alpha virt. eigenvalues --    0.03116   0.04607   0.04775   0.07501   0.07888
 Alpha virt. eigenvalues --    0.08682   0.09056   0.11367   0.12696   0.13333
 Alpha virt. eigenvalues --    0.13980   0.15204   0.15438   0.16925   0.17190

 Mulliken charges:
               1
     1  S    0.878086
     2  O   -1.293040
     3  N    0.314654
     4  C    0.605859
     5  C   -0.828803
     6  H    0.126595
     7  H    0.203318
     8  H   -0.006669
 Sum of Mulliken charges =   0.00000

 Dipole moment (field-independent basis, Debye):
    X=             -3.1481    Y=             -0.2258    Z=              0.3228  Tot=              3.1727

 Test job not archived.
 1\1\GINC-SE226\SP\RHF\Aug-CC-pVDZ\C2H3N1O1S1\OHZDE\05-Apr-2025\0\\#t h
 f aug-cc-pvdz iop(5/13=1,5/36=2,99/5=2) pseudo=read geom=check guess=(
 read,tcheck) scf=(maxcycle=1)\\title\\0,1\S,0,1.18641,-0.064006,0.0451
 38\O,0,-0.06115,-1.221903,-0.137878\N,0,0.175744,1.267799,-0.04228\C,0
 ,-1.314499,-0.572652,0.090963\C,0,-1.045628,0.909737,-0.039631\H,0,-2.
 026854,-0.942923,-0.648855\H,0,-1.699331,-0.803961,1.095565\H,0,-1.836
 625,1.649104,-0.077924\\Version=ES64L-G16RevC.01\State=1-A\HF=-604.548
 0025\RMSD=1.678e-02\Dipole=-1.2385771,-0.0888293,0.1269871\Quadrupole=

 Normal termination of Gaussian 16 at Sat Apr  5 22:18:01 2025.
