 Gaussian 16, Revision C.01,

 ----------------------------------------------------------------------
 #t hf aug-cc-pvdz symm=none int=(grid=ultrafine) guess=(read,tcheck) s
 table=(opt,rrhf)
 ----------------------------------------------------------------------
 -----
 title
 -----
 Symbolic Z-matrix:
 Charge =  0 Multiplicity = 1

 SCF Done:  E(RHF) =  -1392.54008687     A.U. after   12 cycles

 1\1\GINC-SE115\Stability\RHF\Aug-CC-pVDZ\C2Cl2F4\OHZDE\05-Apr-2025\0\\
 #t hf aug-cc-pvdz symm=none int=(grid=ultrafine) guess=(read,tcheck) s
 table=(opt,rrhf)\\title\\0,1\C,0,-0.237982,0.743614,0.\C,0,0.237982,-0
 .743614,0.\Cl,0,-2.016512,0.831072,0.\Cl,0,2.016512,-0.831072,0.\F,0,0
 .237982,1.361871,1.086622\F,0,0.237982,1.361871,-1.086622\F,0,-0.23798
 2,-1.361871,1.086622\F,0,-0.237982,-1.361871,-1.086622\\Version=ES64L-
 G16RevC.01\HF=-1392.5400869\RMSD=1.649e-09\Dipole=0.,0.,0.\Quadrupole=
 2.3922694,-1.0118485,-1.3804209,-0.8819287,0.,0.\PG=Unknown\\@

 Normal termination of Gaussian 16 at Sat Apr  5 22:19:16 2025.
 Gaussian 16:  ES64L-G16RevC.01  3-Jul-2019

 ----------------------------------------------------------------------
 #t hf aug-cc-pvdz iop(5/13=1,5/36=2,99/5=2) pseudo=read geom=check gue
 ss=(read,tcheck) scf=(maxcycle=1)
 ----------------------------------------------------------------------
 -----
 title
 -----
 Structure from the checkpoint file:  "1-2-dichloro-1-1-2-2-tetrafluoroethane.chk"
 Charge =  0 Multiplicity = 1

                         Standard orientation:
 ---------------------------------------------------------------------
 Center     Atomic      Atomic             Coordinates (Angstroms)
 Number     Number       Type             X           Y           Z
 ---------------------------------------------------------------------
      1          6           0       -0.237982    0.743614    0.000000
      2          6           0        0.237982   -0.743614    0.000000
      3         17           0       -2.016512    0.831072    0.000000
      4         17           0        2.016512   -0.831072    0.000000
      5          9           0        0.237982    1.361871    1.086622
      6          9           0        0.237982    1.361871   -1.086622
      7          9           0       -0.237982   -1.361871    1.086622
      8          9           0       -0.237982   -1.361871   -1.086622
 ---------------------------------------------------------------------

 SCF Done:  E(RHF) =  -1393.11957996     A.U. after    2 cycles

 The electronic state is 1-AG.
 Alpha  occ. eigenvalues -- -105.61623-105.61623 -26.53986 -26.53986 -26.53983
 Alpha  occ. eigenvalues --  -26.53983 -11.53895 -11.53889 -10.66510 -10.66508
 Alpha  occ. eigenvalues --   -7.83459  -7.83454  -7.83017  -7.83014  -7.83004
 Alpha  occ. eigenvalues --   -7.83004  -1.72909  -1.71154  -1.65239  -1.64119
 Alpha  occ. eigenvalues --   -1.16844  -1.14241  -1.01613  -0.91867  -0.85952
 Alpha  occ. eigenvalues --   -0.83698  -0.79783  -0.79704  -0.77641  -0.72613
 Alpha  occ. eigenvalues --   -0.70169  -0.70054  -0.66854  -0.65390  -0.64789
 Alpha  occ. eigenvalues --   -0.61768  -0.55339  -0.52730  -0.51669  -0.51123
 Alpha  occ. eigenvalues --   -0.50229
 Alpha virt. eigenvalues --    0.06845   0.06958   0.08349   0.10118   0.10222
 Alpha virt. eigenvalues --    0.10261   0.12116   0.12443   0.13871   0.14274
 Alpha virt. eigenvalues --    0.16049   0.16107   0.18444   0.20043   0.21276

 Mulliken charges:
               1
     1  C    1.397275
     2  C    1.397275
     3  Cl  -0.049659
     4  Cl  -0.049659
     5  F   -0.673808
     6  F   -0.673808
     7  F   -0.673808
     8  F   -0.673808
 Sum of Mulliken charges =  -0.00000

 Dipole moment (field-independent basis, Debye):
    X=              0.0000    Y=             -0.0000    Z=              0.0000  Tot=              0.0000

 Test job not archived.
 1\1\GINC-SE115\SP\RHF\Aug-CC-pVDZ\C2Cl2F4\OHZDE\05-Apr-2025\0\\#t hf a
 ug-cc-pvdz iop(5/13=1,5/36=2,99/5=2) pseudo=read geom=check guess=(rea
 d,tcheck) scf=(maxcycle=1)\\title\\0,1\C,0,-0.237982,0.743614,0.\C,0,0
 .237982,-0.743614,0.\Cl,0,-2.016512,0.831072,0.\Cl,0,2.016512,-0.83107
 2,0.\F,0,0.237982,1.361871,1.086622\F,0,0.237982,1.361871,-1.086622\F,
 0,-0.237982,-1.361871,1.086622\F,0,-0.237982,-1.361871,-1.086622\\Vers
 ion=ES64L-G16RevC.01\State=1-AG\HF=-1393.11958\RMSD=4.756e-03\Dipole=0
 .,0.,0.\Quadrupole=2.0371991,-0.8309459,-1.2062532,-0.6852952,0.,0.\PG

 Normal termination of Gaussian 16 at Sat Apr  5 22:20:29 2025.
