 Gaussian 16, Revision C.01,

 ----------------------------------------------------------------------
 #t hf aug-cc-pvdz symm=none int=(grid=ultrafine) guess=(read,tcheck) s
 table=(opt,rrhf)
 ----------------------------------------------------------------------
 -----
 title
 -----
 Symbolic Z-matrix:
 Charge =  0 Multiplicity = 1

 SCF Done:  E(RHF) =  -267.386097044     A.U. after   12 cycles

 1\1\GINC-SE194\Stability\RHF\Aug-CC-pVDZ\C4H12N2\OHZDE\05-Apr-2025\0\\
 #t hf aug-cc-pvdz symm=none int=(grid=ultrafine) guess=(read,tcheck) s
 table=(opt,rrhf)\\title\\0,1\N,0,1.990811,-0.622856,-0.62942\H,0,1.931
 431,0.145537,-1.286847\H,0,2.964238,-0.880555,-0.536839\C,0,-2.421072,
 -0.350244,-0.096681\H,0,-3.045807,-1.165912,-0.462671\H,0,-2.766459,-0
 .095407,0.908123\H,0,-2.614499,0.507889,-0.743569\N,0,0.014105,1.50679
 8,-0.32852\H,0,0.497986,2.259825,0.14627\H,0,-0.921393,1.837328,-0.524
 861\C,0,-0.946476,-0.754688,-0.096316\H,0,-0.829081,-1.675676,0.479986

 Normal termination of Gaussian 16 at Sat Apr  5 22:19:38 2025.
 Gaussian 16:  ES64L-G16RevC.01  3-Jul-2019

 ----------------------------------------------------------------------
 #t hf aug-cc-pvdz iop(5/13=1,5/36=2,99/5=2) pseudo=read geom=check gue
 ss=(read,tcheck) scf=(maxcycle=1)
 ----------------------------------------------------------------------
 -----
 title
 -----
 Structure from the checkpoint file:  "1-2-butanediamine.chk"
 Charge =  0 Multiplicity = 1

                         Standard orientation:
 ---------------------------------------------------------------------
 Center     Atomic      Atomic             Coordinates (Angstroms)
 Number     Number       Type             X           Y           Z
 ---------------------------------------------------------------------
      1          7           0        1.990811   -0.622856   -0.629420
      2          1           0        1.931431    0.145537   -1.286847
      3          1           0        2.964238   -0.880555   -0.536839
      4          6           0       -2.421072   -0.350244   -0.096681
      5          1           0       -3.045807   -1.165912   -0.462671
      6          1           0       -2.766459   -0.095407    0.908123
      7          1           0       -2.614499    0.507889   -0.743569
      8          7           0        0.014105    1.506798   -0.328520
      9          1           0        0.497986    2.259825    0.146270
     10          1           0       -0.921393    1.837328   -0.524861
     11          6           0       -0.946476   -0.754688   -0.096316
     12          1           0       -0.829081   -1.675676    0.479986
     13          1           0       -0.616481   -0.980777   -1.110214
     14          6           0        1.427116   -0.214502    0.656216
     15          1           0        2.012213    0.572109    1.158562
     16          1           0        1.424096   -1.077830    1.325625
     17          6           0       -0.009887    0.295010    0.507813
     18          1           0       -0.368749    0.512414    1.525817
 ---------------------------------------------------------------------

 SCF Done:  E(RHF) =  -267.681639327     A.U. after    2 cycles

 The electronic state is 1-A.
 Alpha  occ. eigenvalues --  -15.48098 -15.46980 -11.25471 -11.24855 -11.22107
 Alpha  occ. eigenvalues --  -11.21693  -1.19715  -1.14933  -1.03552  -0.95514
 Alpha  occ. eigenvalues --   -0.85630  -0.77784  -0.70380  -0.69008  -0.64702
 Alpha  occ. eigenvalues --   -0.62698  -0.59130  -0.57856  -0.55995  -0.52941
 Alpha  occ. eigenvalues --   -0.49287  -0.48550  -0.47741  -0.42320  -0.41142
 Alpha virt. eigenvalues --    0.03595   0.04048   0.04271   0.04403   0.05627
 Alpha virt. eigenvalues --    0.05818   0.06265   0.06977   0.08120   0.09382
 Alpha virt. eigenvalues --    0.09661   0.10075   0.12905   0.13471   0.14111

 Mulliken charges:
               1
     1  N    0.184313
     2  H    0.172761
     3  H    0.131038
     4  C   -0.451747
     5  H    0.103048
     6  H    0.165745
     7  H    0.125539
     8  N    0.444696
     9  H    0.212305
    10  H    0.128231
    11  C    0.012059
    12  H    0.155508
    13  H    0.199959
    14  C   -0.125504
    15  H    0.058653
    16  H    0.063022
    17  C   -1.647042
    18  H    0.067415
 Sum of Mulliken charges =   0.00000

 Dipole moment (field-independent basis, Debye):
    X=              0.0143    Y=              1.1768    Z=              1.5092  Tot=              1.9138

 Test job not archived.
 1\1\GINC-SE194\SP\RHF\Aug-CC-pVDZ\C4H12N2\OHZDE\05-Apr-2025\0\\#t hf a
 ug-cc-pvdz iop(5/13=1,5/36=2,99/5=2) pseudo=read geom=check guess=(rea
 d,tcheck) scf=(maxcycle=1)\\title\\0,1\N,0,1.990811,-0.622856,-0.62942
 \H,0,1.931431,0.145537,-1.286847\H,0,2.964238,-0.880555,-0.536839\C,0,
 -2.421072,-0.350244,-0.096681\H,0,-3.045807,-1.165912,-0.462671\H,0,-2
 .766459,-0.095407,0.908123\H,0,-2.614499,0.507889,-0.743569\N,0,0.0141
 05,1.506798,-0.32852\H,0,0.497986,2.259825,0.14627\H,0,-0.921393,1.837
 328,-0.524861\C,0,-0.946476,-0.754688,-0.096316\H,0,-0.829081,-1.67567

 Normal termination of Gaussian 16 at Sat Apr  5 22:20:32 2025.
