 Gaussian 16, Revision C.01,

 ----------------------------------------------------------------------
 #t hf aug-cc-pvdz symm=none int=(grid=ultrafine) guess=(read,tcheck) s
 table=(opt,rrhf)
 ----------------------------------------------------------------------
 -----
 title
 -----
 Symbolic Z-matrix:
 Charge =  0 Multiplicity = 1

 SCF Done:  E(RHF) =  -583.330891672     A.U. after   15 cycles
 Normal termination of Gaussian 16 at Sat Apr  5 22:18:08 2025.
 Gaussian 16:  ES64L-G16RevC.01  3-Jul-2019

 ----------------------------------------------------------------------
 #t hf aug-cc-pvdz iop(5/13=1,5/36=2,99/5=2) pseudo=read geom=check gue
 ss=(read,tcheck) scf=(maxcycle=1)
 ----------------------------------------------------------------------
 -----
 title
 -----
 Structure from the checkpoint file:  "1-2-4-thiadiazole.chk"
 Charge =  0 Multiplicity = 1

                         Standard orientation:
 ---------------------------------------------------------------------
 Center     Atomic      Atomic             Coordinates (Angstroms)
 Number     Number       Type             X           Y           Z
 ---------------------------------------------------------------------
      1          6           0       -0.690377   -1.160681    0.000000
      2          6           0        1.195972   -0.095042    0.000000
      3          7           0        0.670277   -1.287237    0.000000
      4          7           0       -1.238357    0.028231    0.000000
      5         16           0        0.000000    1.143132    0.000000
      6          1           0       -1.314687   -2.042848    0.000000
      7          1           0        2.257676    0.100119    0.000000
 ---------------------------------------------------------------------

 SCF Done:  E(RHF) =  -583.574410518     A.U. after    2 cycles

 The electronic state is 1-A'.
 Alpha  occ. eigenvalues --  -94.02426 -15.54262 -15.52879 -11.34291 -11.32680
 Alpha  occ. eigenvalues --   -8.30385  -6.28115  -6.27994  -6.27791  -1.35243
 Alpha  occ. eigenvalues --   -1.19924  -1.07363  -0.88270  -0.83097  -0.73752
 Alpha  occ. eigenvalues --   -0.65478  -0.63041  -0.56888  -0.52160  -0.48832
 Alpha  occ. eigenvalues --   -0.46380  -0.40174
 Alpha virt. eigenvalues --    0.03238   0.04853   0.05689   0.06869   0.07516
 Alpha virt. eigenvalues --    0.09433   0.09780   0.11111   0.11686   0.13191
 Alpha virt. eigenvalues --    0.13755   0.14934   0.16579   0.16845   0.18008

 Mulliken charges:
               1
     1  C   -0.561649
     2  C   -0.782390
     3  N    0.569329
     4  N    0.043320
     5  S    0.684366
     6  H    0.026503
     7  H    0.020522
 Sum of Mulliken charges =  -0.00000

 Dipole moment (field-independent basis, Debye):
    X=              1.8897    Y=              0.8736    Z=              0.0000  Tot=              2.0818

 Test job not archived.
 1\1\GINC-SE164\SP\RHF\Aug-CC-pVDZ\C2H2N2S1\OHZDE\05-Apr-2025\0\\#t hf
 aug-cc-pvdz iop(5/13=1,5/36=2,99/5=2) pseudo=read geom=check guess=(re
 ad,tcheck) scf=(maxcycle=1)\\title\\0,1\C,0,-0.690377,-1.160681,0.\C,0
 ,1.195972,-0.095042,0.\N,0,0.670277,-1.287237,0.\N,0,-1.238357,0.02823
 1,0.\S,0,0.,1.143132,0.\H,0,-1.314687,-2.042848,0.\H,0,2.257676,0.1001
 19,0.\\Version=ES64L-G16RevC.01\State=1-A'\HF=-583.5744105\RMSD=1.635e
 -02\Dipole=0.7434517,0.3437045,0.\Quadrupole=1.0151199,0.2262657,-1.24
 13856,3.9564627,0.,0.\PG=CS [SG(C2H2N2S1)]\\@

 Normal termination of Gaussian 16 at Sat Apr  5 22:18:13 2025.
