 Gaussian 16, Revision C.01,

 ----------------------------------------------------------------------
 #t hf aug-cc-pvdz symm=none int=(grid=ultrafine) guess=(read,tcheck) s
 table=(opt,rrhf)
 ----------------------------------------------------------------------
 -----
 title
 -----
 Symbolic Z-matrix:
 Charge =  0 Multiplicity = 1

 SCF Done:  E(RHF) =  -527.306028677     A.U. after   14 cycles
 Normal termination of Gaussian 16 at Sat Apr  5 22:17:15 2025.
 Gaussian 16:  ES64L-G16RevC.01  3-Jul-2019

 ----------------------------------------------------------------------
 #t hf aug-cc-pvdz iop(5/13=1,5/36=2,99/5=2) pseudo=read geom=check gue
 ss=(read,tcheck) scf=(maxcycle=1)
 ----------------------------------------------------------------------
 -----
 title
 -----
 Structure from the checkpoint file:  "1-2-3-trifluorobenzene.chk"
 Charge =  0 Multiplicity = 1

                         Standard orientation:
 ---------------------------------------------------------------------
 Center     Atomic      Atomic             Coordinates (Angstroms)
 Number     Number       Type             X           Y           Z
 ---------------------------------------------------------------------
      1          6           0       -0.000000    0.000000   -2.055605
      2          6           0        0.000000    1.208669   -1.369465
      3          6           0        0.000000    1.195102    0.013528
      4          6           0        0.000000   -0.000000    0.720519
      5          6           0       -0.000000   -1.195102    0.013528
      6          6           0       -0.000000   -1.208669   -1.369465
      7          9           0        0.000000   -2.344755    0.704591
      8          9           0        0.000000   -0.000000    2.056059
      9          9           0        0.000000    2.344755    0.704591
     10          1           0       -0.000000    0.000000   -3.135818
     11          1           0        0.000000    2.157806   -1.884800
     12          1           0       -0.000000   -2.157806   -1.884800
 ---------------------------------------------------------------------

 SCF Done:  E(RHF) =  -527.807821332     A.U. after    2 cycles

 The electronic state is 1-A1.
 Alpha  occ. eigenvalues --  -26.50084 -26.49940 -26.49939 -11.36480 -11.36469
 Alpha  occ. eigenvalues --  -11.36107 -11.28012 -11.27346 -11.27338  -1.64299
 Alpha  occ. eigenvalues --   -1.63031  -1.61994  -1.19506  -1.05515  -1.05458
 Alpha  occ. eigenvalues --   -0.89996  -0.89118  -0.78932  -0.77584  -0.76003
 Alpha  occ. eigenvalues --   -0.72162  -0.70646  -0.69021  -0.68266  -0.67420
 Alpha  occ. eigenvalues --   -0.66468  -0.65265  -0.60130  -0.56641  -0.56515
 Alpha  occ. eigenvalues --   -0.53012  -0.37341  -0.37178
 Alpha virt. eigenvalues --    0.02897   0.03753   0.04784   0.07951   0.08769
 Alpha virt. eigenvalues --    0.09174   0.09271   0.10745   0.11230   0.13110
 Alpha virt. eigenvalues --    0.13446   0.13696   0.13782   0.14435   0.14856

 Mulliken charges:
               1
     1  C    0.782083
     2  C   -0.262574
     3  C    1.357421
     4  C    0.484633
     5  C    1.357421
     6  C   -0.262574
     7  F   -0.994411
     8  F   -0.928057
     9  F   -0.994411
    10  H   -0.190123
    11  H   -0.174705
    12  H   -0.174705
 Sum of Mulliken charges =  -0.00000

 Dipole moment (field-independent basis, Debye):
    X=             -0.0000    Y=             -0.0000    Z=             -3.1544  Tot=              3.1544

 Test job not archived.
 1\1\GINC-SE011\SP\RHF\Aug-CC-pVDZ\C6H3F3\OHZDE\05-Apr-2025\0\\#t hf au
 g-cc-pvdz iop(5/13=1,5/36=2,99/5=2) pseudo=read geom=check guess=(read
 ,tcheck) scf=(maxcycle=1)\\title\\0,1\C,0,0.,0.,-2.055605\C,0,0.,1.208
 669,-1.369465\C,0,0.,1.195102,0.013528\C,0,0.,0.,0.720519\C,0,0.,-1.19
 5102,0.013528\C,0,0.,-1.208669,-1.369465\F,0,0.,-2.344755,0.704591\F,0
 ,0.,0.,2.056059\F,0,0.,2.344755,0.704591\H,0,0.,0.,-3.135818\H,0,0.,2.
 157806,-1.8848\H,0,0.,-2.157806,-1.8848\\Version=ES64L-G16RevC.01\Stat
 e=1-A1\HF=-527.8078213\RMSD=2.578e-02\Dipole=0.,0.,-1.2410449\Quadrupo

 Normal termination of Gaussian 16 at Sat Apr  5 22:18:02 2025.
