 Gaussian 16, Revision C.01,

 ----------------------------------------------------------------------
 #t hf aug-cc-pvdz symm=none int=(grid=ultrafine) guess=(read,tcheck) s
 table=(opt,rrhf)
 ----------------------------------------------------------------------
 -----
 title
 -----
 Symbolic Z-matrix:
 Charge =  0 Multiplicity = 1

 SCF Done:  E(RHF) =  -294.635401316     A.U. after   11 cycles
 Normal termination of Gaussian 16 at Sat Apr  5 22:18:06 2025.
 Gaussian 16:  ES64L-G16RevC.01  3-Jul-2019

 ----------------------------------------------------------------------
 #t hf aug-cc-pvdz iop(5/13=1,5/36=2,99/5=2) pseudo=read geom=check gue
 ss=(read,tcheck) scf=(maxcycle=1)
 ----------------------------------------------------------------------
 -----
 title
 -----
 Structure from the checkpoint file:  "1-2-4-5-tetrazine.chk"
 Charge =  0 Multiplicity = 1

                         Standard orientation:
 ---------------------------------------------------------------------
 Center     Atomic      Atomic             Coordinates (Angstroms)
 Number     Number       Type             X           Y           Z
 ---------------------------------------------------------------------
      1          7           0        0.000000    1.188502    0.658697
      2          7           0        0.000000    1.188502   -0.658697
      3          6           0        0.000000    0.000000   -1.262286
      4          7           0       -0.000000   -1.188502   -0.658697
      5          7           0       -0.000000   -1.188502    0.658697
      6          6           0       -0.000000    0.000000    1.262286
      7          1           0        0.000000    0.000000   -2.343802
      8          1           0       -0.000000    0.000000    2.343802
 ---------------------------------------------------------------------

 SCF Done:  E(RHF) =  -294.922922381     A.U. after    2 cycles

 The electronic state is 1-AG.
 Alpha  occ. eigenvalues --  -15.60433 -15.60279 -15.59817 -15.59763 -11.34475
 Alpha  occ. eigenvalues --  -11.34458  -1.43948  -1.34389  -1.20824  -1.06314
 Alpha  occ. eigenvalues --   -1.00677  -0.85946  -0.78874  -0.71636  -0.68791
 Alpha  occ. eigenvalues --   -0.62081  -0.58487  -0.57289  -0.55041  -0.47085
 Alpha  occ. eigenvalues --   -0.46629
 Alpha virt. eigenvalues --   -0.02031   0.03012   0.04947   0.05331   0.07755
 Alpha virt. eigenvalues --    0.08258   0.08398   0.09390   0.11659   0.14784
 Alpha virt. eigenvalues --    0.15129   0.16620   0.17036   0.17637   0.19814

 Mulliken charges:
               1
     1  N    0.142567
     2  N    0.142567
     3  C   -0.285647
     4  N    0.142567
     5  N    0.142567
     6  C   -0.285647
     7  H    0.000514
     8  H    0.000514
 Sum of Mulliken charges =  -0.00000

 Dipole moment (field-independent basis, Debye):
    X=             -0.0000    Y=              0.0000    Z=             -0.0000  Tot=              0.0000

 Test job not archived.
 1\1\GINC-SE050\SP\RHF\Aug-CC-pVDZ\C2H2N4\OHZDE\05-Apr-2025\0\\#t hf au
 g-cc-pvdz iop(5/13=1,5/36=2,99/5=2) pseudo=read geom=check guess=(read
 ,tcheck) scf=(maxcycle=1)\\title\\0,1\N,0,0.,1.188502,0.658697\N,0,0.,
 1.188502,-0.658697\C,0,0.,0.,-1.262286\N,0,0.,-1.188502,-0.658697\N,0,
 0.,-1.188502,0.658697\C,0,0.,0.,1.262286\H,0,0.,0.,-2.343802\H,0,0.,0.
 ,2.343802\\Version=ES64L-G16RevC.01\State=1-AG\HF=-294.9229224\RMSD=3.
 808e-02\Dipole=0.,0.,0.\Quadrupole=0.7261014,-7.0219192,6.2958178,0.,0
 .,0.\PG=D02H [C2"(H1C1.C1H1),SG(N4)]\\@

 Normal termination of Gaussian 16 at Sat Apr  5 22:18:13 2025.
