 Gaussian 16, Revision C.01,

 ----------------------------------------------------------------------
 #t hf aug-cc-pvdz symm=none int=(grid=ultrafine) guess=(read,tcheck) s
 table=(opt,rrhf)
 ----------------------------------------------------------------------
 -----
 title
 -----
 Symbolic Z-matrix:
 Charge =  0 Multiplicity = 1

 SCF Done:  E(RHF) =  -249.032291319     A.U. after   12 cycles
 Normal termination of Gaussian 16 at Sat Apr  5 22:17:15 2025.
 Gaussian 16:  ES64L-G16RevC.01  3-Jul-2019

 ----------------------------------------------------------------------
 #t hf aug-cc-pvdz iop(5/13=1,5/36=2,99/5=2) pseudo=read geom=check gue
 ss=(read,tcheck) scf=(maxcycle=1)
 ----------------------------------------------------------------------
 -----
 title
 -----
 Structure from the checkpoint file:  "1-2-3-6-tetrahydropyridine.chk"
 Charge =  0 Multiplicity = 1

                         Standard orientation:
 ---------------------------------------------------------------------
 Center     Atomic      Atomic             Coordinates (Angstroms)
 Number     Number       Type             X           Y           Z
 ---------------------------------------------------------------------
      1          1           0       -1.470271    2.051300    0.139796
      2          6           0       -0.812779    1.192330    0.058323
      3          1           0        0.914317    2.364351   -0.092773
      4          6           0        0.501406    1.362711   -0.053276
      5          1           0        2.325124    0.404709    0.529666
      6          1           0        1.868711    0.112199   -1.129780
      7          6           0        1.463386    0.206961   -0.115255
      8          1           0        0.675255   -1.115005    1.396505
      9          1           0        1.389092   -1.962725    0.036134
     10          6           0        0.779659   -1.100064    0.308149
     11          1           0       -2.309570   -0.197467   -0.590760
     12          1           0       -1.867638   -0.356259    1.088810
     13          6           0       -1.454743   -0.170688    0.089051
     14          1           0       -0.487677   -1.340668   -1.269513
     15          7           0       -0.556988   -1.272562   -0.261434
 ---------------------------------------------------------------------

 SCF Done:  E(RHF) =  -249.301945955     A.U. after    2 cycles

 The electronic state is 1-A.
 Alpha  occ. eigenvalues --  -15.48031 -11.25645 -11.25205 -11.23153 -11.23055
 Alpha  occ. eigenvalues --  -11.22896  -1.21097  -1.06357  -1.01640  -0.88161
 Alpha  occ. eigenvalues --   -0.85791  -0.73660  -0.69118  -0.64237  -0.62637
 Alpha  occ. eigenvalues --   -0.59626  -0.57226  -0.54800  -0.53544  -0.50852
 Alpha  occ. eigenvalues --   -0.48475  -0.39441  -0.35533
 Alpha virt. eigenvalues --    0.03688   0.04094   0.04113   0.04514   0.05726
 Alpha virt. eigenvalues --    0.05865   0.06247   0.07393   0.08218   0.12542
 Alpha virt. eigenvalues --    0.12832   0.13702   0.14011   0.14362   0.14895

 Mulliken charges:
               1
     1  H   -0.146988
     2  C    0.333143
     3  H   -0.186325
     4  C    0.240724
     5  H    0.195105
     6  H    0.200425
     7  C   -0.626714
     8  H    0.102912
     9  H    0.085405
    10  C   -0.413480
    11  H    0.135333
    12  H    0.182234
    13  C   -0.833652
    14  H    0.334720
    15  N    0.397158
 Sum of Mulliken charges =  -0.00000

 Dipole moment (field-independent basis, Debye):
    X=              0.5778    Y=              0.8721    Z=             -0.4652  Tot=              1.1449

 Test job not archived.
 1\1\GINC-SE198\SP\RHF\Aug-CC-pVDZ\C5H9N1\OHZDE\05-Apr-2025\0\\#t hf au
 g-cc-pvdz iop(5/13=1,5/36=2,99/5=2) pseudo=read geom=check guess=(read
 ,tcheck) scf=(maxcycle=1)\\title\\0,1\H,0,-1.47027,2.0513,0.139796\C,0
 ,-0.812779,1.19233,0.058323\H,0,0.914318,2.364351,-0.092773\C,0,0.5014
 06,1.362711,-0.053276\H,0,2.325124,0.404708,0.529666\H,0,1.868711,0.11
 2198,-1.12978\C,0,1.463386,0.206961,-0.115255\H,0,0.675255,-1.115005,1
 .396505\H,0,1.389091,-1.962725,0.036134\C,0,0.779659,-1.100064,0.30814
 9\H,0,-2.30957,-0.197466,-0.59076\H,0,-1.867638,-0.356258,1.08881\C,0,

 Normal termination of Gaussian 16 at Sat Apr  5 22:18:03 2025.
