 Gaussian 16, Revision C.01,

 ----------------------------------------------------------------------
 #t hf aug-cc-pvdz symm=none int=(grid=ultrafine) guess=(read,tcheck) s
 table=(opt,rrhf)
 ----------------------------------------------------------------------
 -----
 title
 -----
 Symbolic Z-matrix:
 Charge =  0 Multiplicity = 1

 SCF Done:  E(RHF) =  -193.956813990     A.U. after   13 cycles
 Normal termination of Gaussian 16 at Sat Apr  5 22:19:17 2025.
 Gaussian 16:  ES64L-G16RevC.01  3-Jul-2019

 ----------------------------------------------------------------------
 #t hf aug-cc-pvdz iop(5/13=1,5/36=2,99/5=2) pseudo=read geom=check gue
 ss=(read,tcheck) scf=(maxcycle=1)
 ----------------------------------------------------------------------
 -----
 title
 -----
 Structure from the checkpoint file:  "1-2-pentadiene.chk"
 Charge =  0 Multiplicity = 1

                         Standard orientation:
 ---------------------------------------------------------------------
 Center     Atomic      Atomic             Coordinates (Angstroms)
 Number     Number       Type             X           Y           Z
 ---------------------------------------------------------------------
      1          6           0       -1.396817    0.429335    0.000000
      2          6           0       -1.472698   -1.093148    0.000000
      3          6           0        0.000000    1.004651    0.000000
      4          6           0        1.112304    0.327742    0.000000
      5          6           0        2.229478   -0.340821    0.000000
      6          1           0       -1.928062    0.827718    0.870383
      7          1           0       -1.928062    0.827718   -0.870383
      8          1           0       -0.983848   -1.513104   -0.879616
      9          1           0       -2.511270   -1.424852    0.000000
     10          1           0       -0.983848   -1.513104    0.879616
     11          1           0        0.069668    2.089604    0.000000
     12          1           0        2.715910   -0.630267   -0.924292
     13          1           0        2.715910   -0.630267    0.924292
 ---------------------------------------------------------------------

 SCF Done:  E(RHF) =  -194.167974945     A.U. after    2 cycles

 The electronic state is 1-A'.
 Alpha  occ. eigenvalues --  -11.25503 -11.24469 -11.24146 -11.23994 -11.22276
 Alpha  occ. eigenvalues --   -1.09703  -1.02643  -0.94677  -0.84797  -0.69853
 Alpha  occ. eigenvalues --   -0.64445  -0.62469  -0.61644  -0.60401  -0.51741
 Alpha  occ. eigenvalues --   -0.50991  -0.50529  -0.37891  -0.36746
 Alpha virt. eigenvalues --    0.03657   0.03931   0.04208   0.04277   0.06245
 Alpha virt. eigenvalues --    0.06260   0.07176   0.08326   0.09748   0.12043
 Alpha virt. eigenvalues --    0.12329   0.14000   0.14119   0.14843   0.15692

 Mulliken charges:
               1
     1  C   -0.576719
     2  C   -0.351227
     3  C    0.532002
     4  C   -0.017165
     5  C   -0.221444
     6  H    0.193902
     7  H    0.193902
     8  H    0.209648
     9  H    0.093895
    10  H    0.209648
    11  H   -0.156278
    12  H   -0.055082
    13  H   -0.055082
 Sum of Mulliken charges =  -0.00000

 Dipole moment (field-independent basis, Debye):
    X=             -0.5042    Y=              0.0271    Z=              0.0000  Tot=              0.5049

 Test job not archived.
 1\1\GINC-SE106\SP\RHF\Aug-CC-pVDZ\C5H8\OHZDE\05-Apr-2025\0\\#t hf aug-
 cc-pvdz iop(5/13=1,5/36=2,99/5=2) pseudo=read geom=check guess=(read,t
 check) scf=(maxcycle=1)\\title\\0,1\C,0,-1.396817,0.429335,0.\C,0,-1.4
 72698,-1.093148,0.\C,0,0.,1.004651,0.\C,0,1.112304,0.327742,0.\C,0,2.2
 29478,-0.340821,0.\H,0,-1.928062,0.827718,0.870383\H,0,-1.928062,0.827
 718,-0.870383\H,0,-0.983848,-1.513104,-0.879616\H,0,-2.51127,-1.424852
 ,0.\H,0,-0.983848,-1.513104,0.879616\H,0,0.069668,2.089604,0.\H,0,2.71
 591,-0.630267,-0.924292\H,0,2.71591,-0.630267,0.924292\\Version=ES64L-

 Normal termination of Gaussian 16 at Sat Apr  5 22:20:29 2025.
