 Gaussian 16, Revision C.01,

 ----------------------------------------------------------------------
 #t hf aug-cc-pvdz symm=none int=(grid=ultrafine) guess=(read,tcheck) s
 table=(opt,rrhf)
 ----------------------------------------------------------------------
 -----
 title
 -----
 Symbolic Z-matrix:
 Charge =  0 Multiplicity = 1

 SCF Done:  E(RHF) =  -531.954613913     A.U. after   18 cycles

 1\1\GINC-SE108\Stability\RHF\Aug-CC-pVDZ\C10H6O2\OHZDE\05-Apr-2025\0\\
 #t hf aug-cc-pvdz symm=none int=(grid=ultrafine) guess=(read,tcheck) s
 table=(opt,rrhf)\\title\\0,1\O,0,1.361068,-2.102147,0.\C,0,1.045295,-0
 .93588,-0.000003\C,0,-0.368855,-0.479577,0.000039\C,0,-0.663338,0.8979
 64,0.000004\C,0,-1.998519,1.302976,-0.000021\C,0,-3.022439,0.362805,-0
 .000027\C,0,-2.725364,-0.995943,-0.000004\C,0,-1.400135,-1.413451,0.00
 0019\C,0,0.412017,1.881771,0.000016\C,0,1.715208,1.558479,0.000033\C,0
 ,2.154699,0.161657,0.000003\O,0,3.320597,-0.165604,-0.000046\H,0,-2.23

 Normal termination of Gaussian 16 at Sat Apr  5 22:23:34 2025.
 Gaussian 16:  ES64L-G16RevC.01  3-Jul-2019

 ----------------------------------------------------------------------
 #t hf aug-cc-pvdz iop(5/13=1,5/36=2,99/5=2) pseudo=read geom=check gue
 ss=(read,tcheck) scf=(maxcycle=1)
 ----------------------------------------------------------------------
 -----
 title
 -----
 Structure from the checkpoint file:  "1-2-naphthalenedione.chk"
 Charge =  0 Multiplicity = 1

                         Standard orientation:
 ---------------------------------------------------------------------
 Center     Atomic      Atomic             Coordinates (Angstroms)
 Number     Number       Type             X           Y           Z
 ---------------------------------------------------------------------
      1          8           0        1.361068   -2.102147   -0.000000
      2          6           0        1.045295   -0.935880   -0.000003
      3          6           0       -0.368855   -0.479577    0.000039
      4          6           0       -0.663338    0.897964    0.000004
      5          6           0       -1.998519    1.302976   -0.000021
      6          6           0       -3.022439    0.362805   -0.000027
      7          6           0       -2.725364   -0.995943   -0.000004
      8          6           0       -1.400135   -1.413451    0.000019
      9          6           0        0.412017    1.881771    0.000016
     10          6           0        1.715208    1.558479    0.000033
     11          6           0        2.154699    0.161657    0.000003
     12          8           0        3.320597   -0.165604   -0.000046
     13          1           0       -2.234107    2.359259   -0.000035
     14          1           0       -4.052746    0.691593   -0.000046
     15          1           0       -3.523054   -1.725709   -0.000000
     16          1           0       -1.145325   -2.463972    0.000055
     17          1           0        0.118437    2.925051    0.000016
     18          1           0        2.492067    2.310977    0.000032
 ---------------------------------------------------------------------

 SCF Done:  E(RHF) =  -532.481064622     A.U. after    2 cycles

 The electronic state is 1-A.
 Alpha  occ. eigenvalues --  -20.56133 -20.55870 -11.35925 -11.35539 -11.29594
 Alpha  occ. eigenvalues --  -11.28772 -11.27791 -11.27465 -11.27411 -11.27312
 Alpha  occ. eigenvalues --  -11.27018 -11.26926  -1.50105  -1.47538  -1.20488
 Alpha  occ. eigenvalues --   -1.13043  -1.06573  -1.03898  -0.96860  -0.88965
 Alpha  occ. eigenvalues --   -0.86370  -0.83749  -0.75678  -0.73877  -0.71688
 Alpha  occ. eigenvalues --   -0.67487  -0.66318  -0.65041  -0.63788  -0.63090
 Alpha  occ. eigenvalues --   -0.60477  -0.59286  -0.55491  -0.54484  -0.53551
 Alpha  occ. eigenvalues --   -0.51994  -0.48168  -0.44629  -0.41072  -0.37571
 Alpha  occ. eigenvalues --   -0.34717
 Alpha virt. eigenvalues --   -0.00034   0.02252   0.02688   0.03597   0.04835
 Alpha virt. eigenvalues --    0.05769   0.06439   0.07630   0.08591   0.08932
 Alpha virt. eigenvalues --    0.09806   0.10327   0.11622   0.11661   0.12140

 Mulliken charges:
               1
     1  O   -1.644138
     2  C    0.550351
     3  C    1.460517
     4  C    1.296241
     5  C    0.343575
     6  C   -0.084407
     7  C    0.086302
     8  C   -0.006269
     9  C    0.523034
    10  C    0.114533
    11  C    0.479271
    12  O   -1.495584
    13  H   -0.292201
    14  H   -0.234193
    15  H   -0.219517
    16  H   -0.320239
    17  H   -0.315835
    18  H   -0.241441
 Sum of Mulliken charges =   0.00000

 Dipole moment (field-independent basis, Debye):
    X=             -5.4383    Y=              3.6140    Z=              0.0001  Tot=              6.5297

 Test job not archived.
 1\1\GINC-SE108\SP\RHF\Aug-CC-pVDZ\C10H6O2\OHZDE\05-Apr-2025\0\\#t hf a
 ug-cc-pvdz iop(5/13=1,5/36=2,99/5=2) pseudo=read geom=check guess=(rea
 d,tcheck) scf=(maxcycle=1)\\title\\0,1\O,0,1.361068,-2.102147,0.\C,0,1
 .045295,-0.93588,-0.000003\C,0,-0.368855,-0.479577,0.000039\C,0,-0.663
 338,0.897964,0.000004\C,0,-1.998519,1.302976,-0.000021\C,0,-3.022439,0
 .362805,-0.000027\C,0,-2.725364,-0.995943,-0.000004\C,0,-1.400135,-1.4
 13451,0.000019\C,0,0.412017,1.881771,0.000016\C,0,1.715208,1.558479,0.
 000033\C,0,2.154699,0.161657,0.000003\O,0,3.320597,-0.165604,-0.000046

 Normal termination of Gaussian 16 at Sat Apr  5 22:23:47 2025.
