 Gaussian 16, Revision C.01,

 ----------------------------------------------------------------------
 #t hf aug-cc-pvdz symm=none int=(grid=ultrafine) guess=(read,tcheck) s
 table=(opt,rrhf)
 ----------------------------------------------------------------------
 -----
 title
 -----
 Symbolic Z-matrix:
 Charge =  0 Multiplicity = 1

 SCF Done:  E(RHF) =  -347.848665069     A.U. after   16 cycles
 Normal termination of Gaussian 16 at Sat Apr  5 22:20:34 2025.
 Gaussian 16:  ES64L-G16RevC.01  3-Jul-2019

 ----------------------------------------------------------------------
 #t hf aug-cc-pvdz iop(5/13=1,5/36=2,99/5=2) pseudo=read geom=check gue
 ss=(read,tcheck) scf=(maxcycle=1)
 ----------------------------------------------------------------------
 -----
 title
 -----
 Structure from the checkpoint file:  "1-2-4-trimethylbenzene.chk"
 Charge =  0 Multiplicity = 1

                         Standard orientation:
 ---------------------------------------------------------------------
 Center     Atomic      Atomic             Coordinates (Angstroms)
 Number     Number       Type             X           Y           Z
 ---------------------------------------------------------------------
      1          6           0        1.195758   -1.298145   -0.004519
      2          6           0       -0.164078   -1.590289   -0.001142
      3          6           0        0.666857    1.027078   -0.003574
      4          6           0        1.634761    0.020991   -0.004468
      5          6           0       -1.127279   -0.586152    0.001431
      6          6           0       -0.698001    0.753544   -0.000391
      7          6           0        3.101945    0.363537    0.005491
      8          6           0       -2.592222   -0.934876    0.003747
      9          6           0       -1.694071    1.883282   -0.000809
     10          1           0        1.916869   -2.105981   -0.008032
     11          1           0       -0.483106   -2.625508   -0.001941
     12          1           0        0.988228    2.062856   -0.006517
     13          1           0        3.350936    1.071949   -0.786662
     14          1           0        3.394831    0.823552    0.952224
     15          1           0        3.716693   -0.524973   -0.134151
     16          1           0       -3.103136   -0.529106    0.880359
     17          1           0       -3.105416   -0.531909   -0.872848
     18          1           0       -2.735435   -2.014351    0.005643
     19          1           0       -1.191305    2.849145   -0.002610
     20          1           0       -2.346579    1.844113   -0.876396
     21          1           0       -2.344609    1.846392    0.876330
 ---------------------------------------------------------------------

 SCF Done:  E(RHF) =  -348.220029381     A.U. after    2 cycles

 The electronic state is 1-A.
 Alpha  occ. eigenvalues --  -11.23873 -11.23728 -11.23433 -11.23014 -11.22994
 Alpha  occ. eigenvalues --  -11.22910 -11.22892 -11.22618 -11.22576  -1.15739
 Alpha  occ. eigenvalues --   -1.06563  -1.03258  -0.97470  -0.93704  -0.89275
 Alpha  occ. eigenvalues --   -0.81944  -0.77582  -0.67103  -0.66706  -0.62068
 Alpha  occ. eigenvalues --   -0.59739  -0.57636  -0.57512  -0.56398  -0.55823
 Alpha  occ. eigenvalues --   -0.55550  -0.54560  -0.52694  -0.48504  -0.48260
 Alpha  occ. eigenvalues --   -0.47492  -0.33234  -0.31675
 Alpha virt. eigenvalues --    0.03327   0.03478   0.03840   0.04652   0.04893
 Alpha virt. eigenvalues --    0.04985   0.05894   0.07294   0.07515   0.07871
 Alpha virt. eigenvalues --    0.09537   0.10073   0.10553   0.11113   0.12114

 Mulliken charges:
               1
     1  C   -0.022585
     2  C    0.093912
     3  C    0.232795
     4  C    0.360881
     5  C    0.390417
     6  C    0.184446
     7  C   -0.766916
     8  C   -0.582406
     9  C   -0.667478
    10  H   -0.304123
    11  H   -0.329267
    12  H   -0.304707
    13  H    0.205539
    14  H    0.258200
    15  H    0.048666
    16  H    0.308962
    17  H    0.308863
    18  H   -0.035744
    19  H   -0.032873
    20  H    0.327694
    21  H    0.325722
 Sum of Mulliken charges =  -0.00000

 Dipole moment (field-independent basis, Debye):
    X=             -0.2518    Y=              0.2972    Z=              0.0131  Tot=              0.3898

 Test job not archived.
 1\1\GINC-SE036\SP\RHF\Aug-CC-pVDZ\C9H12\OHZDE\05-Apr-2025\0\\#t hf aug
 -cc-pvdz iop(5/13=1,5/36=2,99/5=2) pseudo=read geom=check guess=(read,
 tcheck) scf=(maxcycle=1)\\title\\0,1\C,0,1.195758,-1.298145,-0.004519\
 C,0,-0.164078,-1.590289,-0.001142\C,0,0.666857,1.027078,-0.003574\C,0,
 1.634761,0.020991,-0.004468\C,0,-1.127279,-0.586152,0.001431\C,0,-0.69
 8001,0.753544,-0.000391\C,0,3.101945,0.363537,0.005491\C,0,-2.592222,-
 0.934876,0.003747\C,0,-1.694071,1.883282,-0.000809\H,0,1.916869,-2.105
 981,-0.008032\H,0,-0.483106,-2.625508,-0.001941\H,0,0.988228,2.062856,

 Normal termination of Gaussian 16 at Sat Apr  5 22:21:00 2025.
