 Gaussian 16, Revision C.01,

 ----------------------------------------------------------------------
 #t hf aug-cc-pvdz symm=none int=(grid=ultrafine) guess=(read,tcheck) s
 table=(opt,rrhf)
 ----------------------------------------------------------------------
 -----
 title
 -----
 Symbolic Z-matrix:
 Charge =  0 Multiplicity = 1

 SCF Done:  E(RHF) =  -392.560656343     A.U. after   15 cycles
 Normal termination of Gaussian 16 at Sat Apr  5 22:21:21 2025.
 Gaussian 16:  ES64L-G16RevC.01  3-Jul-2019

 ----------------------------------------------------------------------
 #t hf aug-cc-pvdz iop(5/13=1,5/36=2,99/5=2) pseudo=read geom=check gue
 ss=(read,tcheck) scf=(maxcycle=1)
 ----------------------------------------------------------------------
 -----
 title
 -----
 Structure from the checkpoint file:  "1-2-dicyano-2-hydroxylamino-ethane.chk"
 Charge =  0 Multiplicity = 1

                         Standard orientation:
 ---------------------------------------------------------------------
 Center     Atomic      Atomic             Coordinates (Angstroms)
 Number     Number       Type             X           Y           Z
 ---------------------------------------------------------------------
      1          8           0        0.313702   -1.614925   -0.926768
      2          7           0        1.171613   -1.268187    0.163198
      3          7           0        1.427390    2.027391   -0.681155
      4          7           0       -2.527750    0.403730   -0.742264
      5          6           0        0.711444   -0.025519    0.777150
      6          6           0       -0.791840    0.053445    1.169705
      7          6           0        1.112029    1.119852   -0.051970
      8          6           0       -1.739571    0.231309    0.075617
      9          1           0        0.885285   -1.552765   -1.700527
     10          1           0        1.045190   -2.024365    0.828812
     11          1           0        1.278390    0.046227    1.709846
     12          1           0       -1.048671   -0.855680    1.716626
     13          1           0       -0.920956    0.890916    1.857922
 ---------------------------------------------------------------------

 SCF Done:  E(RHF) =  -392.948615534     A.U. after    2 cycles

 The electronic state is 1-A.
 Alpha  occ. eigenvalues --  -20.61082 -15.59882 -15.53400 -15.51957 -11.36222
 Alpha  occ. eigenvalues --  -11.32515 -11.29683 -11.28921  -1.51678  -1.25979
 Alpha  occ. eigenvalues --   -1.24281  -1.20901  -1.08754  -0.97306  -0.79608
 Alpha  occ. eigenvalues --   -0.75670  -0.74424  -0.70832  -0.65980  -0.65605
 Alpha  occ. eigenvalues --   -0.63288  -0.61545  -0.60057  -0.53175  -0.52590
 Alpha  occ. eigenvalues --   -0.51839  -0.51074  -0.50207  -0.47174
 Alpha virt. eigenvalues --    0.01623   0.03445   0.03831   0.04536   0.06280
 Alpha virt. eigenvalues --    0.07088   0.09120   0.09855   0.10390   0.11951
 Alpha virt. eigenvalues --    0.12878   0.13295   0.13653   0.14162   0.14551

 Mulliken charges:
               1
     1  O   -1.039075
     2  N    1.017771
     3  N    1.001909
     4  N    0.988710
     5  C   -0.423587
     6  C    0.364383
     7  C   -1.633795
     8  C   -1.565835
     9  H    0.320801
    10  H    0.234941
    11  H    0.185425
    12  H    0.229785
    13  H    0.318566
 Sum of Mulliken charges =  -0.00000

 Dipole moment (field-independent basis, Debye):
    X=              2.1162    Y=             -3.9367    Z=              5.6781  Tot=              7.2261

 Test job not archived.
 1\1\GINC-SE180\SP\RHF\Aug-CC-pVDZ\C4H5N3O1\OHZDE\05-Apr-2025\0\\#t hf
 aug-cc-pvdz iop(5/13=1,5/36=2,99/5=2) pseudo=read geom=check guess=(re
 ad,tcheck) scf=(maxcycle=1)\\title\\0,1\O,0,0.313702,-1.614925,-0.9267
 68\N,0,1.171613,-1.268187,0.163198\N,0,1.42739,2.027391,-0.681155\N,0,
 -2.52775,0.40373,-0.742264\C,0,0.711444,-0.025519,0.77715\C,0,-0.79184
 ,0.053445,1.169705\C,0,1.112029,1.119852,-0.05197\C,0,-1.739571,0.2313
 09,0.075617\H,0,0.885285,-1.552765,-1.700527\H,0,1.04519,-2.024365,0.8
 28812\H,0,1.27839,0.046227,1.709846\H,0,-1.048671,-0.85568,1.716626\H,

 Normal termination of Gaussian 16 at Sat Apr  5 22:22:18 2025.
