 Gaussian 16, Revision C.01,

 ----------------------------------------------------------------------
 #t hf aug-cc-pvdz symm=none int=(grid=ultrafine) guess=(read,tcheck) s
 table=(opt,rrhf)
 ----------------------------------------------------------------------
 -----
 title
 -----
 Symbolic Z-matrix:
 Charge =  0 Multiplicity = 1

 SCF Done:  E(RHF) =  -263.313066781     A.U. after   11 cycles
 Normal termination of Gaussian 16 at Sat Apr  5 22:19:07 2025.
 Gaussian 16:  ES64L-G16RevC.01  3-Jul-2019

 ----------------------------------------------------------------------
 #t hf aug-cc-pvdz iop(5/13=1,5/36=2,99/5=2) pseudo=read geom=check gue
 ss=(read,tcheck) scf=(maxcycle=1)
 ----------------------------------------------------------------------
 -----
 title
 -----
 Structure from the checkpoint file:  "1-2-propadiene-1-3-dione.chk"
 Charge =  0 Multiplicity = 1

                         Standard orientation:
 ---------------------------------------------------------------------
 Center     Atomic      Atomic             Coordinates (Angstroms)
 Number     Number       Type             X           Y           Z
 ---------------------------------------------------------------------
      1          6           0        0.000000    0.000000    0.000000
      2          6           0        0.000000    0.000000    1.271509
      3          6           0        0.000000    0.000000   -1.271509
      4          8           0        0.000000    0.000000    2.431267
      5          8           0        0.000000    0.000000   -2.431267
 ---------------------------------------------------------------------

 SCF Done:  E(RHF) =  -263.560458311     A.U. after    2 cycles

 The electronic state is 1-SGG.
 Alpha  occ. eigenvalues --  -20.64263 -20.64260 -11.44418 -11.44405 -11.26614
 Alpha  occ. eigenvalues --   -1.58450  -1.58348  -1.12259  -0.96321  -0.76920
 Alpha  occ. eigenvalues --   -0.75689  -0.67585  -0.67585  -0.63963  -0.63963
 Alpha  occ. eigenvalues --   -0.41326  -0.41326
 Alpha virt. eigenvalues --    0.05892   0.06542   0.06542   0.06825   0.07831
 Alpha virt. eigenvalues --    0.07831   0.09307   0.12549   0.12549   0.15292
 Alpha virt. eigenvalues --    0.18127   0.18127   0.21123   0.24498   0.27052

 Mulliken charges:
               1
     1  C    1.565874
     2  C    0.145783
     3  C    0.145783
     4  O   -0.928719
     5  O   -0.928719
 Sum of Mulliken charges =  -0.00000

 Dipole moment (field-independent basis, Debye):
    X=             -0.0000    Y=             -0.0000    Z=              0.0000  Tot=              0.0000

 Test job not archived.
 1\1\GINC-SE045\SP\RHF\Aug-CC-pVDZ\C3O2\OHZDE\05-Apr-2025\0\\#t hf aug-
 cc-pvdz iop(5/13=1,5/36=2,99/5=2) pseudo=read geom=check guess=(read,t
 check) scf=(maxcycle=1)\\title\\0,1\C,0,0.,0.,0.\C,0,0.,0.,1.271509\C,
 0,0.,0.,-1.271509\O,0,0.,0.,2.431267\O,0,0.,0.,-2.431267\\Version=ES64
 L-G16RevC.01\State=1-SGG\HF=-263.5604583\RMSD=3.028e-02\Dipole=0.,0.,0
 .\Quadrupole=1.9287839,1.9287839,-3.8575679,0.,0.,0.\PG=D*H [O(C1),C*(
 O1C1.C1O1)]\\@

 Normal termination of Gaussian 16 at Sat Apr  5 22:20:27 2025.
