 Gaussian 16, Revision C.01,

 ----------------------------------------------------------------------
 #t hf aug-cc-pvdz symm=none int=(grid=ultrafine) guess=(read,tcheck) s
 table=(opt,rrhf)
 ----------------------------------------------------------------------
 -----
 title
 -----
 Symbolic Z-matrix:
 Charge =  0 Multiplicity = 1

 SCF Done:  E(RHF) =  -278.649069003     A.U. after   13 cycles
 Normal termination of Gaussian 16 at Sat Apr  5 22:16:58 2025.
 Gaussian 16:  ES64L-G16RevC.01  3-Jul-2019

 ----------------------------------------------------------------------
 #t hf aug-cc-pvdz iop(5/13=1,5/36=2,99/5=2) pseudo=read geom=check gue
 ss=(read,tcheck) scf=(maxcycle=1)
 ----------------------------------------------------------------------
 -----
 title
 -----
 Structure from the checkpoint file:  "1-2-3-triazine.chk"
 Charge =  0 Multiplicity = 1

                         Standard orientation:
 ---------------------------------------------------------------------
 Center     Atomic      Atomic             Coordinates (Angstroms)
 Number     Number       Type             X           Y           Z
 ---------------------------------------------------------------------
      1          7           0        0.000000    1.151590    0.730933
      2          7           0        0.000000    0.000000    1.376561
      3          7           0       -0.000000   -1.151590    0.730933
      4          6           0        0.000000   -1.164165   -0.603698
      5          6           0        0.000000   -0.000000   -1.346005
      6          6           0        0.000000    1.164165   -0.603698
      7          1           0        0.000000   -2.145712   -1.060908
      8          1           0        0.000000   -0.000000   -2.426768
      9          1           0        0.000000    2.145712   -1.060908
 ---------------------------------------------------------------------

 SCF Done:  E(RHF) =  -278.925020261     A.U. after    2 cycles

 The electronic state is 1-A1.
 Alpha  occ. eigenvalues --  -15.60696 -15.56398 -15.56363 -11.31875 -11.31866
 Alpha  occ. eigenvalues --  -11.29021  -1.40819  -1.23652  -1.15329  -0.98011
 Alpha  occ. eigenvalues --   -0.96548  -0.78686  -0.77108  -0.68404  -0.65437
 Alpha  occ. eigenvalues --   -0.63846  -0.61949  -0.48600  -0.48495  -0.47457
 Alpha  occ. eigenvalues --   -0.44404
 Alpha virt. eigenvalues --    0.02568   0.03446   0.03542   0.04396   0.04843
 Alpha virt. eigenvalues --    0.09285   0.09678   0.10665   0.11666   0.12547
 Alpha virt. eigenvalues --    0.12887   0.13327   0.14081   0.15065   0.15841

 Mulliken charges:
               1
     1  N    0.459448
     2  N   -0.547737
     3  N    0.459448
     4  C   -0.231815
     5  C    0.424029
     6  C   -0.231815
     7  H   -0.103108
     8  H   -0.125341
     9  H   -0.103108
 Sum of Mulliken charges =  -0.00000

 Dipole moment (field-independent basis, Debye):
    X=             -0.0000    Y=             -0.0000    Z=             -5.9952  Tot=              5.9952

 Test job not archived.
 1\1\GINC-SE106\SP\RHF\Aug-CC-pVDZ\C3H3N3\OHZDE\05-Apr-2025\0\\#t hf au
 g-cc-pvdz iop(5/13=1,5/36=2,99/5=2) pseudo=read geom=check guess=(read
 ,tcheck) scf=(maxcycle=1)\\title\\0,1\N,0,0.,1.15159,0.730933\N,0,0.,0
 .,1.376561\N,0,0.,-1.15159,0.730933\C,0,0.,-1.164165,-0.603698\C,0,0.,
 0.,-1.346005\C,0,0.,1.164165,-0.603698\H,0,0.,-2.145712,-1.060908\H,0,
 0.,0.,-2.426768\H,0,0.,2.145712,-1.060908\\Version=ES64L-G16RevC.01\St
 ate=1-A1\HF=-278.9250203\RMSD=4.478e-02\Dipole=0.,0.,-2.35868\Quadrupo
 le=-0.8298175,1.1692336,-0.339416,0.,0.,0.\PG=C02V [C2(H1C1N1),SGV(C2H

 Normal termination of Gaussian 16 at Sat Apr  5 22:18:01 2025.
