 Gaussian 16, Revision C.01,

 ----------------------------------------------------------------------
 #t hf aug-cc-pvdz symm=none int=(grid=ultrafine) guess=(read,tcheck) s
 table=(opt,rrhf)
 ----------------------------------------------------------------------
 -----
 title
 -----
 Symbolic Z-matrix:
 Charge =  0 Multiplicity = 1

 SCF Done:  E(RHF) =  -626.160187006     A.U. after   14 cycles
 Normal termination of Gaussian 16 at Sat Apr  5 22:17:21 2025.
 Gaussian 16:  ES64L-G16RevC.01  3-Jul-2019

 ----------------------------------------------------------------------
 #t hf aug-cc-pvdz iop(5/13=1,5/36=2,99/5=2) pseudo=read geom=check gue
 ss=(read,tcheck) scf=(maxcycle=1)
 ----------------------------------------------------------------------
 -----
 title
 -----
 Structure from the checkpoint file:  "1-2-3-4-tetrafluorobenzene.chk"
 Charge =  0 Multiplicity = 1

                         Standard orientation:
 ---------------------------------------------------------------------
 Center     Atomic      Atomic             Coordinates (Angstroms)
 Number     Number       Type             X           Y           Z
 ---------------------------------------------------------------------
      1          6           0        0.000000    1.377987   -0.525257
      2          6           0        0.000000    0.695340   -1.726214
      3          6           0       -0.000000   -0.695340   -1.726214
      4          6           0       -0.000000   -1.377987   -0.525257
      5          6           0        0.000000   -0.694285    0.684098
      6          6           0        0.000000    0.694285    0.684098
      7          9           0        0.000000    2.719143   -0.501822
      8          1           0        0.000000    1.255360   -2.649366
      9          1           0       -0.000000   -1.255360   -2.649366
     10          9           0       -0.000000   -2.719143   -0.501822
     11          9           0        0.000000   -1.357117    1.841111
     12          9           0        0.000000    1.357117    1.841111
 ---------------------------------------------------------------------

 SCF Done:  E(RHF) =  -626.748336417     A.U. after    2 cycles

 The electronic state is 1-A1.
 Alpha  occ. eigenvalues --  -26.51236 -26.51235 -26.50569 -26.50569 -11.37743
 Alpha  occ. eigenvalues --  -11.37665 -11.37065 -11.37036 -11.28950 -11.28876
 Alpha  occ. eigenvalues --   -1.65610  -1.64440  -1.63339  -1.62849  -1.20806
 Alpha  occ. eigenvalues --   -1.07218  -1.06066  -0.91862  -0.90741  -0.80718
 Alpha  occ. eigenvalues --   -0.80120  -0.78168  -0.74326  -0.73765  -0.72078
 Alpha  occ. eigenvalues --   -0.70780  -0.69097  -0.68184  -0.67804  -0.67704
 Alpha  occ. eigenvalues --   -0.65661  -0.61678  -0.58724  -0.57658  -0.53535
 Alpha  occ. eigenvalues --   -0.38650  -0.37490
 Alpha virt. eigenvalues --    0.02905   0.04226   0.06701   0.08043   0.08545
 Alpha virt. eigenvalues --    0.08678   0.09379   0.10830   0.11496   0.12962
 Alpha virt. eigenvalues --    0.13064   0.13365   0.14048   0.14583   0.14729

 Mulliken charges:
               1
     1  C    1.121052
     2  C    0.144207
     3  C    0.144207
     4  C    1.121052
     5  C    0.831854
     6  C    0.831854
     7  F   -0.978512
     8  H   -0.167264
     9  H   -0.167264
    10  F   -0.978512
    11  F   -0.951337
    12  F   -0.951337
 Sum of Mulliken charges =  -0.00000

 Dipole moment (field-independent basis, Debye):
    X=              0.0000    Y=              0.0000    Z=             -2.6704  Tot=              2.6704

 Test job not archived.
 1\1\GINC-SE085\SP\RHF\Aug-CC-pVDZ\C6H2F4\OHZDE\05-Apr-2025\0\\#t hf au
 g-cc-pvdz iop(5/13=1,5/36=2,99/5=2) pseudo=read geom=check guess=(read
 ,tcheck) scf=(maxcycle=1)\\title\\0,1\C,0,0.,1.377987,-0.525257\C,0,0.
 ,0.69534,-1.726214\C,0,0.,-0.69534,-1.726214\C,0,0.,-1.377987,-0.52525
 7\C,0,0.,-0.694285,0.684098\C,0,0.,0.694285,0.684098\F,0,0.,2.719143,-
 0.501822\H,0,0.,1.25536,-2.649366\H,0,0.,-1.25536,-2.649366\F,0,0.,-2.
 719143,-0.501822\F,0,0.,-1.357117,1.841111\F,0,0.,1.357117,1.841111\\V
 ersion=ES64L-G16RevC.01\State=1-A1\HF=-626.7483364\RMSD=2.580e-02\Dipo

 Normal termination of Gaussian 16 at Sat Apr  5 22:18:03 2025.
