 Gaussian 16, Revision C.01,

 ----------------------------------------------------------------------
 #t hf aug-cc-pvdz symm=none int=(grid=ultrafine) guess=(read,tcheck) s
 table=(opt,rrhf)
 ----------------------------------------------------------------------
 -----
 title
 -----
 Symbolic Z-matrix:
 Charge =  0 Multiplicity = 1

 SCF Done:  E(RHF) =  -361.571371285     A.U. after   14 cycles
 Normal termination of Gaussian 16 at Sat Apr  5 22:20:41 2025.
 Gaussian 16:  ES64L-G16RevC.01  3-Jul-2019

 ----------------------------------------------------------------------
 #t hf aug-cc-pvdz iop(5/13=1,5/36=2,99/5=2) pseudo=read geom=check gue
 ss=(read,tcheck) scf=(maxcycle=1)
 ----------------------------------------------------------------------
 -----
 title
 -----
 Structure from the checkpoint file:  "1-2-dicyanofluoroethane.chk"
 Charge =  0 Multiplicity = 1

                         Standard orientation:
 ---------------------------------------------------------------------
 Center     Atomic      Atomic             Coordinates (Angstroms)
 Number     Number       Type             X           Y           Z
 ---------------------------------------------------------------------
      1          9           0        0.548649    1.404763   -0.866830
      2          7           0        1.973333   -1.532425   -0.071295
      3          7           0       -2.338792   -0.929584   -0.574584
      4          6           0        0.660912    0.696914    0.317359
      5          6           0       -0.731990    0.476706    0.920774
      6          6           0        1.389652   -0.554071    0.072761
      7          6           0       -1.622829   -0.312424    0.077679
      8          1           0        1.247307    1.305371    1.008994
      9          1           0       -0.623459   -0.014179    1.889654
     10          1           0       -1.177948    1.457246    1.092538
 ---------------------------------------------------------------------

 SCF Done:  E(RHF) =  -361.918612560     A.U. after    2 cycles

 The electronic state is 1-A.
 Alpha  occ. eigenvalues --  -26.50891 -15.55428 -15.53713 -11.42408 -11.34011
 Alpha  occ. eigenvalues --  -11.31248 -11.30371  -1.63408  -1.27240  -1.25890
 Alpha  occ. eigenvalues --   -1.14360  -1.00102  -0.82401  -0.77608  -0.74748
 Alpha  occ. eigenvalues --   -0.70453  -0.67183  -0.65037  -0.62610  -0.61193
 Alpha  occ. eigenvalues --   -0.60234  -0.54361  -0.53626  -0.51936  -0.51557
 Alpha virt. eigenvalues --    0.01670   0.03657   0.03815   0.06206   0.08149
 Alpha virt. eigenvalues --    0.09252   0.09959   0.10464   0.11565   0.12195
 Alpha virt. eigenvalues --    0.12695   0.13121   0.14063   0.14502   0.15071

 Mulliken charges:
               1
     1  F   -0.768949
     2  N    0.906296
     3  N    0.886464
     4  C    1.348357
     5  C   -0.049202
     6  C   -1.648090
     7  C   -1.407039
     8  H    0.181101
     9  H    0.292176
    10  H    0.258888
 Sum of Mulliken charges =  -0.00000

 Dipole moment (field-independent basis, Debye):
    X=              0.6231    Y=              4.9129    Z=              4.6027  Tot=              6.7609

 Test job not archived.
 1\1\GINC-SE180\SP\RHF\Aug-CC-pVDZ\C4H3F1N2\OHZDE\05-Apr-2025\0\\#t hf
 aug-cc-pvdz iop(5/13=1,5/36=2,99/5=2) pseudo=read geom=check guess=(re
 ad,tcheck) scf=(maxcycle=1)\\title\\0,1\F,0,0.548649,1.404763,-0.86683
 \N,0,1.973333,-1.532425,-0.071295\N,0,-2.338792,-0.929583,-0.574584\C,
 0,0.660912,0.696914,0.317359\C,0,-0.73199,0.476706,0.920774\C,0,1.3896
 52,-0.554071,0.072761\C,0,-1.622829,-0.312424,0.077679\H,0,1.247307,1.
 305371,1.008994\H,0,-0.623459,-0.014179,1.889654\H,0,-1.177948,1.45724
 6,1.092538\\Version=ES64L-G16RevC.01\State=1-A\HF=-361.9186126\RMSD=2.

 Normal termination of Gaussian 16 at Sat Apr  5 22:20:51 2025.
