 Gaussian 16, Revision C.01,

 ----------------------------------------------------------------------
 #t hf aug-cc-pvdz symm=none int=(grid=ultrafine) guess=(read,tcheck) s
 table=(opt,rrhf)
 ----------------------------------------------------------------------
 -----
 title
 -----
 Symbolic Z-matrix:
 Charge =  0 Multiplicity = 1

 SCF Done:  E(RHF) =  -385.726069225     A.U. after   15 cycles
 Normal termination of Gaussian 16 at Sat Apr  5 22:19:39 2025.
 Gaussian 16:  ES64L-G16RevC.01  3-Jul-2019

 ----------------------------------------------------------------------
 #t hf aug-cc-pvdz iop(5/13=1,5/36=2,99/5=2) pseudo=read geom=check gue
 ss=(read,tcheck) scf=(maxcycle=1)
 ----------------------------------------------------------------------
 -----
 title
 -----
 Structure from the checkpoint file:  "1-2-3-4-tetrahydronaphthalene.chk"
 Charge =  0 Multiplicity = 1

                         Standard orientation:
 ---------------------------------------------------------------------
 Center     Atomic      Atomic             Coordinates (Angstroms)
 Number     Number       Type             X           Y           Z
 ---------------------------------------------------------------------
      1          6           0        0.001554    0.695598    2.566237
      2          6           0       -0.001554   -0.695598    2.566237
      3          6           0        0.001554    1.377725    1.359666
      4          6           0       -0.001554   -1.377725    1.359666
      5          6           0       -0.000611    0.700261    0.137630
      6          6           0        0.000611   -0.700261    0.137630
      7          6           0       -0.033424    1.492200   -1.154152
      8          6           0        0.033424   -1.492200   -1.154152
      9          6           0        0.363799    0.671723   -2.381520
     10          6           0       -0.363799   -0.671723   -2.381520
     11          1           0        0.004381    1.242851    3.499649
     12          1           0       -0.004381   -1.242851    3.499649
     13          1           0        0.004118    2.461556    1.357812
     14          1           0       -0.004118   -2.461556    1.357812
     15          1           0       -1.048027    1.879885   -1.300277
     16          1           0        0.609583    2.369836   -1.057795
     17          1           0        1.048027   -1.879885   -1.300277
     18          1           0       -0.609583   -2.369836   -1.057795
     19          1           0        0.142317    1.233423   -3.290989
     20          1           0        1.444186    0.496649   -2.375566
     21          1           0       -0.142317   -1.233423   -3.290989
     22          1           0       -1.444186   -0.496649   -2.375566
 ---------------------------------------------------------------------

 SCF Done:  E(RHF) =  -386.135038427     A.U. after    2 cycles

 The electronic state is 1-A.
 Alpha  occ. eigenvalues --  -11.23674 -11.23612 -11.23268 -11.23190 -11.23144
 Alpha  occ. eigenvalues --  -11.23133 -11.23091 -11.23051 -11.22765 -11.22742
 Alpha  occ. eigenvalues --   -1.16237  -1.09425  -1.03911  -1.00287  -0.97138
 Alpha  occ. eigenvalues --   -0.86875  -0.83414  -0.82158  -0.75604  -0.69275
 Alpha  occ. eigenvalues --   -0.65964  -0.64768  -0.61591  -0.60154  -0.59640
 Alpha  occ. eigenvalues --   -0.57248  -0.54763  -0.54668  -0.53129  -0.50557
 Alpha  occ. eigenvalues --   -0.47984  -0.47759  -0.45876  -0.45482  -0.33336
 Alpha  occ. eigenvalues --   -0.32488
 Alpha virt. eigenvalues --    0.03252   0.03296   0.03847   0.03939   0.04668
 Alpha virt. eigenvalues --    0.04880   0.06119   0.06407   0.07288   0.08017
 Alpha virt. eigenvalues --    0.08284   0.09869   0.10948   0.11484   0.12067

 Mulliken charges:
               1
     1  C   -0.303318
     2  C   -0.303318
     3  C   -0.010272
     4  C   -0.010272
     5  C    1.185819
     6  C    1.185819
     7  C   -0.804536
     8  C   -0.804536
     9  C   -0.139672
    10  C   -0.139672
    11  H   -0.248195
    12  H   -0.248195
    13  H   -0.343793
    14  H   -0.343793
    15  H    0.281802
    16  H    0.144588
    17  H    0.281802
    18  H    0.144588
    19  H    0.138854
    20  H    0.098723
    21  H    0.138854
    22  H    0.098723
 Sum of Mulliken charges =   0.00000

 Dipole moment (field-independent basis, Debye):
    X=             -0.0000    Y=             -0.0000    Z=             -0.7725  Tot=              0.7725

 Test job not archived.
 1\1\GINC-SE175\SP\RHF\Aug-CC-pVDZ\C10H12\OHZDE\05-Apr-2025\0\\#t hf au
 g-cc-pvdz iop(5/13=1,5/36=2,99/5=2) pseudo=read geom=check guess=(read
 ,tcheck) scf=(maxcycle=1)\\title\\0,1\C,0,0.001554,0.695598,2.566237\C
 ,0,-0.001554,-0.695598,2.566237\C,0,0.001554,1.377725,1.359666\C,0,-0.
 001554,-1.377725,1.359666\C,0,-0.000611,0.700261,0.13763\C,0,0.000611,
 -0.700261,0.13763\C,0,-0.033424,1.4922,-1.154152\C,0,0.033424,-1.4922,
 -1.154152\C,0,0.363799,0.671723,-2.38152\C,0,-0.363799,-0.671723,-2.38
 152\H,0,0.004381,1.242851,3.499649\H,0,-0.004381,-1.242851,3.499649\H,

 Normal termination of Gaussian 16 at Sat Apr  5 22:20:34 2025.
