 Gaussian 16, Revision C.01,

 ----------------------------------------------------------------------
 #t hf aug-cc-pvdz symm=none int=(grid=ultrafine) guess=(read,tcheck) s
 table=(opt,rrhf)
 ----------------------------------------------------------------------
 -----
 title
 -----
 Symbolic Z-matrix:
 Charge =  0 Multiplicity = 1

 SCF Done:  E(RHF) =  -642.111555783     A.U. after   16 cycles
 Normal termination of Gaussian 16 at Sat Apr  5 22:19:13 2025.
 Gaussian 16:  ES64L-G16RevC.01  3-Jul-2019

 ----------------------------------------------------------------------
 #t hf aug-cc-pvdz iop(5/13=1,5/36=2,99/5=2) pseudo=read geom=check gue
 ss=(read,tcheck) scf=(maxcycle=1)
 ----------------------------------------------------------------------
 -----
 title
 -----
 Structure from the checkpoint file:  "1-2-thiazole-1-oxide.chk"
 Charge =  0 Multiplicity = 1

                         Standard orientation:
 ---------------------------------------------------------------------
 Center     Atomic      Atomic             Coordinates (Angstroms)
 Number     Number       Type             X           Y           Z
 ---------------------------------------------------------------------
      1          6           0       -1.612388    0.682359    0.140260
      2          6           0       -1.488887   -0.779323    0.122520
      3          6           0       -0.420753    1.265282   -0.005680
      4          7           0       -0.318061   -1.288315   -0.012961
      5          8           0        1.964766    0.007832    0.533864
      6         16           0        0.794812   -0.007586   -0.382382
      7          1           0       -2.559721    1.190971    0.248025
      8          1           0       -2.350133   -1.435001    0.211100
      9          1           0       -0.166681    2.311049   -0.063797
 ---------------------------------------------------------------------

 SCF Done:  E(RHF) =  -642.416883437     A.U. after    2 cycles

 The electronic state is 1-A.
 Alpha  occ. eigenvalues --  -94.11058 -20.52090 -15.54996 -11.33733 -11.31017
 Alpha  occ. eigenvalues --  -11.29865  -8.37576  -6.35416  -6.35277  -6.35039
 Alpha  occ. eigenvalues --   -1.46057  -1.29499  -1.10890  -1.01562  -0.84528
 Alpha  occ. eigenvalues --   -0.81801  -0.75078  -0.65478  -0.64423  -0.62076
 Alpha  occ. eigenvalues --   -0.59818  -0.52978  -0.51418  -0.45671  -0.42166
 Alpha  occ. eigenvalues --   -0.38604
 Alpha virt. eigenvalues --    0.02101   0.02336   0.03394   0.04457   0.08232
 Alpha virt. eigenvalues --    0.09320   0.09850   0.11252   0.11844   0.11998
 Alpha virt. eigenvalues --    0.12888   0.13385   0.13590   0.14534   0.15206

 Mulliken charges:
               1
     1  C    0.787663
     2  C   -0.870958
     3  C   -0.514632
     4  N    0.209530
     5  O   -1.425942
     6  S    2.028691
     7  H   -0.086758
     8  H   -0.053442
     9  H   -0.074151
 Sum of Mulliken charges =  -0.00000

 Dipole moment (field-independent basis, Debye):
    X=             -5.4578    Y=              2.8497    Z=             -1.0316  Tot=              6.2428

 Test job not archived.
 1\1\GINC-SE045\SP\RHF\Aug-CC-pVDZ\C3H3N1O1S1\OHZDE\05-Apr-2025\0\\#t h
 f aug-cc-pvdz iop(5/13=1,5/36=2,99/5=2) pseudo=read geom=check guess=(
 read,tcheck) scf=(maxcycle=1)\\title\\0,1\C,0,-1.612388,0.682359,0.140
 26\C,0,-1.488887,-0.779323,0.12252\C,0,-0.420753,1.265282,-0.00568\N,0
 ,-0.318061,-1.288315,-0.012961\O,0,1.964766,0.007831,0.533864\S,0,0.79
 4812,-0.007586,-0.382382\H,0,-2.559721,1.190971,0.248025\H,0,-2.350133
 ,-1.435001,0.2111\H,0,-0.166681,2.311049,-0.063797\\Version=ES64L-G16R
 evC.01\State=1-A\HF=-642.4168834\RMSD=1.920e-02\Dipole=-2.147266,1.121

 Normal termination of Gaussian 16 at Sat Apr  5 22:20:29 2025.
