 Gaussian 16, Revision C.01,

 ----------------------------------------------------------------------
 #t hf aug-cc-pvdz symm=none int=(grid=ultrafine) guess=(read,tcheck) s
 table=(opt,rrhf)
 ----------------------------------------------------------------------
 -----
 title
 -----
 Symbolic Z-matrix:
 Charge =  0 Multiplicity = 1

 SCF Done:  E(RHF) =  -659.059407881     A.U. after   17 cycles
 Normal termination of Gaussian 16 at Sat Apr  5 22:19:16 2025.
 Gaussian 16:  ES64L-G16RevC.01  3-Jul-2019

 ----------------------------------------------------------------------
 #t hf aug-cc-pvdz iop(5/13=1,5/36=2,99/5=2) pseudo=read geom=check gue
 ss=(read,tcheck) scf=(maxcycle=1)
 ----------------------------------------------------------------------
 -----
 title
 -----
 Structure from the checkpoint file:  "1-2-thiazole-3-carbonitrile.chk"
 Charge =  0 Multiplicity = 1

                         Standard orientation:
 ---------------------------------------------------------------------
 Center     Atomic      Atomic             Coordinates (Angstroms)
 Number     Number       Type             X           Y           Z
 ---------------------------------------------------------------------
      1         16           0        1.711330   -0.591498   -0.000002
      2          7           0        0.125713   -1.050663    0.000000
      3          7           0       -3.206102   -0.162108    0.000004
      4          6           0        0.041278    1.287387    0.000000
      5          6           0       -0.631726    0.033488    0.000001
      6          6           0        1.390605    1.091295   -0.000002
      7          6           0       -2.056708   -0.099158    0.000002
      8          1           0       -0.453822    2.244922    0.000000
      9          1           0        2.174575    1.830378   -0.000003
 ---------------------------------------------------------------------

 SCF Done:  E(RHF) =  -659.373161290     A.U. after    2 cycles

 The electronic state is 1-A.
 Alpha  occ. eigenvalues --  -94.04140 -15.57119 -15.53487 -11.34771 -11.32126
 Alpha  occ. eigenvalues --  -11.29830 -11.28936  -8.32006  -6.29755  -6.29612
 Alpha  occ. eigenvalues --   -6.29425  -1.33226  -1.25016  -1.11288  -1.08366
 Alpha  occ. eigenvalues --   -0.89435  -0.85500  -0.77604  -0.67152  -0.64625
 Alpha  occ. eigenvalues --   -0.63323  -0.62193  -0.54234  -0.53557  -0.53520
 Alpha  occ. eigenvalues --   -0.51954  -0.42747  -0.39590
 Alpha virt. eigenvalues --    0.02361   0.02648   0.03788   0.06130   0.07854
 Alpha virt. eigenvalues --    0.08494   0.09261   0.09606   0.09793   0.12110
 Alpha virt. eigenvalues --    0.12252   0.12876   0.13589   0.13619   0.14620

 Mulliken charges:
               1
     1  S    0.729706
     2  N    0.294105
     3  N    0.941976
     4  C    0.927115
     5  C   -0.093495
     6  C   -0.402155
     7  C   -2.159924
     8  H   -0.141863
     9  H   -0.095465
 Sum of Mulliken charges =   0.00000

 Dipole moment (field-independent basis, Debye):
    X=              5.3507    Y=              3.5085    Z=             -0.0000  Tot=              6.3984

 Test job not archived.
 1\1\GINC-SE046\SP\RHF\Aug-CC-pVDZ\C4H2N2S1\OHZDE\05-Apr-2025\0\\#t hf
 aug-cc-pvdz iop(5/13=1,5/36=2,99/5=2) pseudo=read geom=check guess=(re
 ad,tcheck) scf=(maxcycle=1)\\title\\0,1\S,0,-1.71133,-0.591498,0.00000
 2\N,0,-0.125713,-1.050663,0.\N,0,3.206102,-0.162108,-0.000004\C,0,-0.0
 41278,1.287387,0.\C,0,0.631726,0.033488,-0.000001\C,0,-1.390605,1.0912
 95,0.000002\C,0,2.056708,-0.099158,-0.000002\H,0,0.453822,2.244922,0.\
 H,0,-2.174575,1.830378,0.000003\\Version=ES64L-G16RevC.01\State=1-A\HF
 =-659.3731613\RMSD=4.250e-02\Dipole=-2.1051302,1.3803634,0.0000032\Qua

 Normal termination of Gaussian 16 at Sat Apr  5 22:20:30 2025.
