 Gaussian 16, Revision C.01,

 ----------------------------------------------------------------------
 #t hf aug-cc-pvdz symm=none int=(grid=ultrafine) guess=(read,tcheck) s
 table=(opt,rrhf)
 ----------------------------------------------------------------------
 -----
 title
 -----
 Symbolic Z-matrix:
 Charge =  0 Multiplicity = 1

 SCF Done:  E(RHF) =  -276.593324850     A.U. after   15 cycles
 Normal termination of Gaussian 16 at Sat Apr  5 22:18:10 2025.
 Gaussian 16:  ES64L-G16RevC.01  3-Jul-2019

 ----------------------------------------------------------------------
 #t hf aug-cc-pvdz iop(5/13=1,5/36=2,99/5=2) pseudo=read geom=check gue
 ss=(read,tcheck) scf=(maxcycle=1)
 ----------------------------------------------------------------------
 -----
 title
 -----
 Structure from the checkpoint file:  "1-2-3-4-oxatriazole.chk"
 Charge =  0 Multiplicity = 1

                         Standard orientation:
 ---------------------------------------------------------------------
 Center     Atomic      Atomic             Coordinates (Angstroms)
 Number     Number       Type             X           Y           Z
 ---------------------------------------------------------------------
      1          6           0       -0.000000    1.060596    0.000000
      2          7           0        1.107973    0.392861    0.000000
      3          7           0        0.687701   -0.924391    0.000000
      4          7           0       -0.543555   -1.038784    0.000000
      5          8           0       -1.082437    0.312079    0.000000
      6          1           0       -0.105336    2.131991    0.000000
 ---------------------------------------------------------------------

 SCF Done:  E(RHF) =  -276.862738579     A.U. after    2 cycles

 The electronic state is 1-A'.
 Alpha  occ. eigenvalues --  -20.68006 -15.66222 -15.63237 -15.57091 -11.39529
 Alpha  occ. eigenvalues --   -1.63792  -1.41203  -1.26619  -0.97017  -0.94238
 Alpha  occ. eigenvalues --   -0.80193  -0.74781  -0.69373  -0.64408  -0.57066
 Alpha  occ. eigenvalues --   -0.56305  -0.54974  -0.50325
 Alpha virt. eigenvalues --    0.03063   0.04855   0.07593   0.08021   0.08751
 Alpha virt. eigenvalues --    0.12725   0.13673   0.13870   0.15114   0.16006
 Alpha virt. eigenvalues --    0.17807   0.18965   0.19501   0.21123   0.22557

 Mulliken charges:
               1
     1  C    0.519694
     2  N    0.351947
     3  N   -0.867614
     4  N    1.097766
     5  O   -1.192529
     6  H    0.090737
 Sum of Mulliken charges =  -0.00000

 Dipole moment (field-independent basis, Debye):
    X=             -1.5174    Y=              3.3611    Z=              0.0000  Tot=              3.6878

 Test job not archived.
 1\1\GINC-SE084\SP\RHF\Aug-CC-pVDZ\C1H1N3O1\OHZDE\05-Apr-2025\0\\#t hf
 aug-cc-pvdz iop(5/13=1,5/36=2,99/5=2) pseudo=read geom=check guess=(re
 ad,tcheck) scf=(maxcycle=1)\\title\\0,1\C,0,0.,1.060596,0.\N,0,1.10797
 3,0.392861,0.\N,0,0.687701,-0.924391,0.\N,0,-0.543555,-1.038784,0.\O,0
 ,-1.082437,0.312079,0.\H,0,-0.105336,2.131991,0.\\Version=ES64L-G16Rev
 C.01\State=1-A'\HF=-276.8627386\RMSD=4.186e-02\Dipole=-0.5969973,1.322
 3691,0.\Quadrupole=-3.3081323,2.8785288,0.4296035,-0.9015262,0.,0.\PG=
 CS [SG(C1H1N3O1)]\\@

 Normal termination of Gaussian 16 at Sat Apr  5 22:18:13 2025.
