 Gaussian 16, Revision C.01,

 ----------------------------------------------------------------------
 #t hf aug-cc-pvdz symm=none int=(grid=ultrafine) guess=(read,tcheck) s
 table=(opt,rrhf)
 ----------------------------------------------------------------------
 -----
 title
 -----
 Symbolic Z-matrix:
 Charge =  0 Multiplicity = 1

 SCF Done:  E(RHF) =  -631.938218682     A.U. after   17 cycles
 Normal termination of Gaussian 16 at Sat Apr  5 22:21:37 2025.
 Gaussian 16:  ES64L-G16RevC.01  3-Jul-2019

 ----------------------------------------------------------------------
 #t hf aug-cc-pvdz iop(5/13=1,5/36=2,99/5=2) pseudo=read geom=check gue
 ss=(read,tcheck) scf=(maxcycle=1)
 ----------------------------------------------------------------------
 -----
 title
 -----
 Structure from the checkpoint file:  "1-2-difluoro-3-nitrobenzene.chk"
 Charge =  0 Multiplicity = 1

                         Standard orientation:
 ---------------------------------------------------------------------
 Center     Atomic      Atomic             Coordinates (Angstroms)
 Number     Number       Type             X           Y           Z
 ---------------------------------------------------------------------
      1          9           0       -0.174377   -1.959003   -0.132114
      2          9           0       -2.700777   -1.150004   -0.078605
      3          8           0        2.821157    0.734982   -0.401394
      4          8           0        2.306279   -1.197619    0.437397
      5          7           0        2.021435   -0.091571    0.012142
      6          6           0        0.601826    0.299791    0.013607
      7          6           0       -0.410428   -0.657728   -0.033324
      8          6           0       -1.733657   -0.226270   -0.015537
      9          6           0        0.291444    1.653903    0.071365
     10          6           0       -2.054339    1.114433    0.058602
     11          6           0       -1.032431    2.057202    0.104097
     12          1           0        1.101788    2.365330    0.093910
     13          1           0       -3.095956    1.401601    0.074126
     14          1           0       -1.273459    3.108243    0.162559
 ---------------------------------------------------------------------

 SCF Done:  E(RHF) =  -632.539654221     A.U. after    2 cycles

 The electronic state is 1-A.
 Alpha  occ. eigenvalues --  -26.51767 -26.51240 -20.60475 -20.60154 -15.80929
 Alpha  occ. eigenvalues --  -11.39585 -11.37798 -11.34396 -11.30221 -11.30066
 Alpha  occ. eigenvalues --  -11.29309  -1.68711  -1.65905  -1.63900  -1.52273
 Alpha  occ. eigenvalues --   -1.23034  -1.13576  -1.07289  -1.01217  -0.90501
 Alpha  occ. eigenvalues --   -0.89448  -0.82653  -0.79409  -0.78231  -0.76472
 Alpha  occ. eigenvalues --   -0.74742  -0.73697  -0.72720  -0.70061  -0.69318
 Alpha  occ. eigenvalues --   -0.67147  -0.63628  -0.59224  -0.59023  -0.55801
 Alpha  occ. eigenvalues --   -0.51030  -0.50166  -0.46078  -0.40930  -0.38668
 Alpha virt. eigenvalues --    0.01380   0.02356   0.03456   0.04840   0.07841
 Alpha virt. eigenvalues --    0.07985   0.08856   0.09545   0.10090   0.10323
 Alpha virt. eigenvalues --    0.12103   0.12486   0.13205   0.13418   0.13541

 Mulliken charges:
               1
     1  F   -0.963532
     2  F   -1.007836
     3  O   -1.383193
     4  O   -1.357280
     5  N    2.637408
     6  C   -0.396360
     7  C    0.965790
     8  C    1.368683
     9  C    0.156404
    10  C   -0.151120
    11  C    0.699512
    12  H   -0.191593
    13  H   -0.186264
    14  H   -0.190618
 Sum of Mulliken charges =  -0.00000

 Dipole moment (field-independent basis, Debye):
    X=             -3.6318    Y=              3.5621    Z=              0.1936  Tot=              5.0908

 Test job not archived.
 1\1\GINC-SE187\SP\RHF\Aug-CC-pVDZ\C6H3F2N1O2\OHZDE\05-Apr-2025\0\\#t h
 f aug-cc-pvdz iop(5/13=1,5/36=2,99/5=2) pseudo=read geom=check guess=(
 read,tcheck) scf=(maxcycle=1)\\title\\0,1\F,0,-0.174377,-1.959003,-0.1
 32114\F,0,-2.700777,-1.150004,-0.078605\O,0,2.821157,0.734982,-0.40139
 4\O,0,2.306279,-1.197619,0.437397\N,0,2.021435,-0.091571,0.012142\C,0,
 0.601826,0.299791,0.013607\C,0,-0.410428,-0.657728,-0.033324\C,0,-1.73
 3657,-0.22627,-0.015537\C,0,0.291444,1.653903,0.071365\C,0,-2.054339,1
 .114433,0.058602\C,0,-1.032431,2.057202,0.104097\H,0,1.101788,2.36533,

 Normal termination of Gaussian 16 at Sat Apr  5 22:22:20 2025.
