 Gaussian 16, Revision C.01,

 ----------------------------------------------------------------------
 #t hf aug-cc-pvdz symm=none int=(grid=ultrafine) guess=(read,tcheck) s
 table=(opt,rrhf)
 ----------------------------------------------------------------------
 -----
 title
 -----
 Symbolic Z-matrix:
 Charge =  0 Multiplicity = 1

 SCF Done:  E(RHF) =  -189.260416146     A.U. after   11 cycles
 Normal termination of Gaussian 16 at Sat Apr  5 22:19:10 2025.
 Gaussian 16:  ES64L-G16RevC.01  3-Jul-2019

 ----------------------------------------------------------------------
 #t hf aug-cc-pvdz iop(5/13=1,5/36=2,99/5=2) pseudo=read geom=check gue
 ss=(read,tcheck) scf=(maxcycle=1)
 ----------------------------------------------------------------------
 -----
 title
 -----
 Structure from the checkpoint file:  "1-2-dimethylhydrazine.chk"
 Charge =  0 Multiplicity = 1

                         Standard orientation:
 ---------------------------------------------------------------------
 Center     Atomic      Atomic             Coordinates (Angstroms)
 Number     Number       Type             X           Y           Z
 ---------------------------------------------------------------------
      1          6           0        0.414691    1.407380    0.525760
      2          7           0        0.414691    0.576813   -0.674955
      3          7           0       -0.414691   -0.576813   -0.674955
      4          6           0       -0.414691   -1.407380    0.525760
      5          1           0       -1.350955   -0.279245   -0.913971
      6          1           0       -0.587418    1.808180    0.689219
      7          1           0        0.736630    0.902508    1.444977
      8          1           0        1.084191    2.249794    0.349899
      9          1           0        1.350955    0.279245   -0.913971
     10          1           0       -1.084191   -2.249794    0.349899
     11          1           0       -0.736630   -0.902508    1.444977
     12          1           0        0.587418   -1.808180    0.689219
 ---------------------------------------------------------------------

 SCF Done:  E(RHF) =  -189.469474867     A.U. after    2 cycles

 The electronic state is 1-A.
 Alpha  occ. eigenvalues --  -15.50840 -15.50383 -11.25148 -11.25145  -1.26714
 Alpha  occ. eigenvalues --   -1.08550  -0.94232  -0.87354  -0.69920  -0.69249
 Alpha  occ. eigenvalues --   -0.64480  -0.60924  -0.55841  -0.55597  -0.53156
 Alpha  occ. eigenvalues --   -0.42408  -0.41220
 Alpha virt. eigenvalues --    0.03660   0.04658   0.05055   0.05097   0.06032
 Alpha virt. eigenvalues --    0.06887   0.06975   0.08935   0.11794   0.12767
 Alpha virt. eigenvalues --    0.14071   0.16369   0.16551   0.16833   0.18173

 Mulliken charges:
               1
     1  C   -0.346656
     2  N   -0.047981
     3  N   -0.047981
     4  C   -0.346656
     5  H    0.146707
     6  H    0.102009
     7  H    0.118706
     8  H    0.027215
     9  H    0.146707
    10  H    0.027215
    11  H    0.118706
    12  H    0.102009
 Sum of Mulliken charges =  -0.00000

 Dipole moment (field-independent basis, Debye):
    X=              0.0000    Y=              0.0000    Z=              1.8109  Tot=              1.8109

 Test job not archived.
 1\1\GINC-SE146\SP\RHF\Aug-CC-pVDZ\C2H8N2\OHZDE\05-Apr-2025\0\\#t hf au
 g-cc-pvdz iop(5/13=1,5/36=2,99/5=2) pseudo=read geom=check guess=(read
 ,tcheck) scf=(maxcycle=1)\\title\\0,1\C,0,0.414691,1.40738,0.52576\N,0
 ,0.414691,0.576813,-0.674955\N,0,-0.414691,-0.576813,-0.674955\C,0,-0.
 414691,-1.40738,0.52576\H,0,-1.350955,-0.279245,-0.913971\H,0,-0.58741
 8,1.80818,0.689219\H,0,0.73663,0.902508,1.444977\H,0,1.084191,2.249794
 ,0.349899\H,0,1.350955,0.279245,-0.913971\H,0,-1.084191,-2.249794,0.34
 9899\H,0,-0.73663,-0.902508,1.444977\H,0,0.587418,-1.80818,0.689219\\V

 Normal termination of Gaussian 16 at Sat Apr  5 22:20:28 2025.
