 Gaussian 16, Revision C.01,

 ----------------------------------------------------------------------
 #t hf aug-cc-pvdz symm=none int=(grid=ultrafine) guess=(read,tcheck) s
 table=(opt,rrhf)
 ----------------------------------------------------------------------
 -----
 title
 -----
 Symbolic Z-matrix:
 Charge =  0 Multiplicity = 1

 SCF Done:  E(RHF) =  -377.330351355     A.U. after   13 cycles
 Normal termination of Gaussian 16 at Sat Apr  5 22:18:08 2025.
 Gaussian 16:  ES64L-G16RevC.01  3-Jul-2019

 ----------------------------------------------------------------------
 #t hf aug-cc-pvdz iop(5/13=1,5/36=2,99/5=2) pseudo=read geom=check gue
 ss=(read,tcheck) scf=(maxcycle=1)
 ----------------------------------------------------------------------
 -----
 title
 -----
 Structure from the checkpoint file:  "1-2-4-5-tetraoxane.chk"
 Charge =  0 Multiplicity = 1

                         Standard orientation:
 ---------------------------------------------------------------------
 Center     Atomic      Atomic             Coordinates (Angstroms)
 Number     Number       Type             X           Y           Z
 ---------------------------------------------------------------------
      1          8           0        0.667290    1.027732   -0.440985
      2          8           0        1.225661    0.020424    0.440386
      3          8           0       -1.225661   -0.020424    0.440386
      4          8           0       -0.667290   -1.027732   -0.440985
      5          6           0       -0.667290    1.205624    0.000454
      6          6           0        0.667290   -1.205624    0.000454
      7          1           0       -0.743907    1.858599    0.874591
      8          1           0       -1.180482    1.619002   -0.872517
      9          1           0        1.180482   -1.619002   -0.872517
     10          1           0        0.743907   -1.858599    0.874591
 ---------------------------------------------------------------------

 SCF Done:  E(RHF) =  -377.700067464     A.U. after    2 cycles

 The electronic state is 1-A.
 Alpha  occ. eigenvalues --  -20.63679 -20.63676 -20.63675 -20.63669 -11.36866
 Alpha  occ. eigenvalues --  -11.36863  -1.65515  -1.57731  -1.37237  -1.29251
 Alpha  occ. eigenvalues --   -0.96178  -0.87133  -0.75777  -0.75699  -0.75478
 Alpha  occ. eigenvalues --   -0.64962  -0.64059  -0.59944  -0.58363  -0.57614
 Alpha  occ. eigenvalues --   -0.54671  -0.48945  -0.46567  -0.44351
 Alpha virt. eigenvalues --    0.03906   0.04400   0.04797   0.06004   0.09000
 Alpha virt. eigenvalues --    0.09010   0.10698   0.13893   0.15542   0.15946
 Alpha virt. eigenvalues --    0.16916   0.17347   0.18217   0.18343   0.21231

 Mulliken charges:
               1
     1  O   -0.767344
     2  O   -0.767801
     3  O   -0.767801
     4  O   -0.767344
     5  C    1.296489
     6  C    1.296489
     7  H    0.119369
     8  H    0.119286
     9  H    0.119286
    10  H    0.119369
 Sum of Mulliken charges =  -0.00000

 Dipole moment (field-independent basis, Debye):
    X=              0.0000    Y=             -0.0000    Z=              0.0025  Tot=              0.0025

 Test job not archived.
 1\1\GINC-SE009\SP\RHF\Aug-CC-pVDZ\C2H4O4\OHZDE\05-Apr-2025\0\\#t hf au
 g-cc-pvdz iop(5/13=1,5/36=2,99/5=2) pseudo=read geom=check guess=(read
 ,tcheck) scf=(maxcycle=1)\\title\\0,1\O,0,0.66729,1.027732,-0.440985\O
 ,0,1.225661,0.020424,0.440386\O,0,-1.225661,-0.020424,0.440386\O,0,-0.
 66729,-1.027732,-0.440985\C,0,-0.66729,1.205624,0.000454\C,0,0.66729,-
 1.205624,0.000454\H,0,-0.743907,1.858599,0.874591\H,0,-1.180482,1.6190
 02,-0.872517\H,0,1.180482,-1.619002,-0.872517\H,0,0.743907,-1.858599,0
 .874591\\Version=ES64L-G16RevC.01\State=1-A\HF=-377.7000675\RMSD=7.351

 Normal termination of Gaussian 16 at Sat Apr  5 22:18:13 2025.
