 Gaussian 16, Revision C.01,

 ----------------------------------------------------------------------
 #t hf aug-cc-pvdz symm=none int=(grid=ultrafine) guess=(read,tcheck) s
 table=(opt,rrhf)
 ----------------------------------------------------------------------
 -----
 title
 -----
 Symbolic Z-matrix:
 Charge =  0 Multiplicity = 1

 SCF Done:  E(RHF) =  -307.021357262     A.U. after   11 cycles

 1\1\GINC-SE146\Stability\RHF\Aug-CC-pVDZ\C4H10O2\OHZDE\05-Apr-2025\0\\
 #t hf aug-cc-pvdz symm=none int=(grid=ultrafine) guess=(read,tcheck) s
 table=(opt,rrhf)\\title\\0,1\C,0,0.170671,2.748478,-0.443046\C,0,-0.17
 0671,-2.748478,-0.443046\C,0,-0.170671,0.7354,0.732131\C,0,0.170671,-0
 .7354,0.732131\O,0,0.508228,1.383432,-0.325029\O,0,-0.508228,-1.383432
 ,-0.325029\H,0,0.742895,3.152831,-1.275405\H,0,0.423122,3.30609,0.4678
 16\H,0,-0.898648,2.880525,-0.647014\H,0,0.898648,-2.880525,-0.647014\H
 ,0,-0.742895,-3.152831,-1.275405\H,0,-0.423122,-3.30609,0.467816\H,0,0

 Normal termination of Gaussian 16 at Sat Apr  5 22:19:29 2025.
 Gaussian 16:  ES64L-G16RevC.01  3-Jul-2019

 ----------------------------------------------------------------------
 #t hf aug-cc-pvdz iop(5/13=1,5/36=2,99/5=2) pseudo=read geom=check gue
 ss=(read,tcheck) scf=(maxcycle=1)
 ----------------------------------------------------------------------
 -----
 title
 -----
 Structure from the checkpoint file:  "1-2-dimethoxyethane.chk"
 Charge =  0 Multiplicity = 1

                         Standard orientation:
 ---------------------------------------------------------------------
 Center     Atomic      Atomic             Coordinates (Angstroms)
 Number     Number       Type             X           Y           Z
 ---------------------------------------------------------------------
      1          6           0        0.170671    2.748478   -0.443046
      2          6           0       -0.170671   -2.748478   -0.443046
      3          6           0       -0.170671    0.735400    0.732131
      4          6           0        0.170671   -0.735400    0.732131
      5          8           0        0.508228    1.383432   -0.325029
      6          8           0       -0.508228   -1.383432   -0.325029
      7          1           0        0.742895    3.152831   -1.275405
      8          1           0        0.423122    3.306090    0.467816
      9          1           0       -0.898648    2.880525   -0.647014
     10          1           0        0.898648   -2.880525   -0.647014
     11          1           0       -0.742895   -3.152831   -1.275405
     12          1           0       -0.423122   -3.306090    0.467816
     13          1           0        0.125486    1.172411    1.696274
     14          1           0       -1.256057    0.857539    0.624047
     15          1           0       -0.125486   -1.172411    1.696274
     16          1           0        1.256057   -0.857539    0.624047
 ---------------------------------------------------------------------

 SCF Done:  E(RHF) =  -307.345197865     A.U. after    2 cycles

 The electronic state is 1-A.
 Alpha  occ. eigenvalues --  -20.53948 -20.53948 -11.28144 -11.28131 -11.27764
 Alpha  occ. eigenvalues --  -11.27762  -1.46480  -1.44979  -1.03152  -0.93414
 Alpha  occ. eigenvalues --   -0.89893  -0.82976  -0.68391  -0.68066  -0.65738
 Alpha  occ. eigenvalues --   -0.63387  -0.62922  -0.59804  -0.55512  -0.54333
 Alpha  occ. eigenvalues --   -0.51574  -0.47945  -0.47061  -0.42023  -0.40933
 Alpha virt. eigenvalues --    0.03903   0.03995   0.04389   0.04595   0.06047
 Alpha virt. eigenvalues --    0.06376   0.06689   0.07943   0.08188   0.09058
 Alpha virt. eigenvalues --    0.11934   0.13443   0.14487   0.14853   0.15617

 Mulliken charges:
               1
     1  C    0.161408
     2  C    0.161408
     3  C    0.483195
     4  C    0.483195
     5  O   -1.220856
     6  O   -1.220856
     7  H   -0.045156
     8  H    0.183767
     9  H    0.173679
    10  H    0.173679
    11  H   -0.045156
    12  H    0.183767
    13  H    0.124906
    14  H    0.139059
    15  H    0.124906
    16  H    0.139059
 Sum of Mulliken charges =  -0.00000

 Dipole moment (field-independent basis, Debye):
    X=              0.0000    Y=             -0.0000    Z=              1.4778  Tot=              1.4778

 Test job not archived.
 1\1\GINC-SE146\SP\RHF\Aug-CC-pVDZ\C4H10O2\OHZDE\05-Apr-2025\0\\#t hf a
 ug-cc-pvdz iop(5/13=1,5/36=2,99/5=2) pseudo=read geom=check guess=(rea
 d,tcheck) scf=(maxcycle=1)\\title\\0,1\C,0,0.170671,2.748478,-0.443046
 \C,0,-0.170671,-2.748478,-0.443046\C,0,-0.170671,0.7354,0.732131\C,0,0
 .170671,-0.7354,0.732131\O,0,0.508228,1.383432,-0.325029\O,0,-0.508228
 ,-1.383432,-0.325029\H,0,0.742895,3.152831,-1.275405\H,0,0.423122,3.30
 609,0.467816\H,0,-0.898648,2.880525,-0.647014\H,0,0.898648,-2.880525,-
 0.647014\H,0,-0.742895,-3.152831,-1.275405\H,0,-0.423122,-3.30609,0.46

 Normal termination of Gaussian 16 at Sat Apr  5 22:20:29 2025.
