 Gaussian 16, Revision C.01,

 ----------------------------------------------------------------------
 #t hf aug-cc-pvdz symm=none int=(grid=ultrafine) guess=(read,tcheck) s
 table=(opt,rrhf)
 ----------------------------------------------------------------------
 -----
 title
 -----
 Symbolic Z-matrix:
 Charge =  0 Multiplicity = 1

 SCF Done:  E(RHF) =  -1036.12805124     A.U. after   12 cycles

 1\1\GINC-SE176\Stability\RHF\Aug-CC-pVDZ\C3H6Cl2\OHZDE\05-Apr-2025\0\\
 #t hf aug-cc-pvdz symm=none int=(grid=ultrafine) guess=(read,tcheck) s
 table=(opt,rrhf)\\title\\0,1\C,0,0.666782,1.690821,-0.460286\C,0,-0.72
 5969,0.098901,0.986609\C,0,0.649984,0.536037,0.52168\Cl,0,-1.857919,-0
 .342878,-0.351048\Cl,0,1.569886,-0.883973,-0.164823\H,0,0.168266,1.420
 936,-1.388454\H,0,0.146881,2.547529,-0.025224\H,0,1.689864,1.985265,-0
 .683868\H,0,-0.661903,-0.769025,1.634334\H,0,-1.198048,0.91969,1.52343
 3\H,0,1.206722,0.79753,1.421558\\Version=ES64L-G16RevC.01\HF=-1036.128

 Normal termination of Gaussian 16 at Sat Apr  5 22:20:36 2025.
 Gaussian 16:  ES64L-G16RevC.01  3-Jul-2019

 ----------------------------------------------------------------------
 #t hf aug-cc-pvdz iop(5/13=1,5/36=2,99/5=2) pseudo=read geom=check gue
 ss=(read,tcheck) scf=(maxcycle=1)
 ----------------------------------------------------------------------
 -----
 title
 -----
 Structure from the checkpoint file:  "1-2-dichloropropane.chk"
 Charge =  0 Multiplicity = 1

                         Standard orientation:
 ---------------------------------------------------------------------
 Center     Atomic      Atomic             Coordinates (Angstroms)
 Number     Number       Type             X           Y           Z
 ---------------------------------------------------------------------
      1          6           0        0.666782    1.690821   -0.460286
      2          6           0       -0.725969    0.098901    0.986609
      3          6           0        0.649984    0.536037    0.521680
      4         17           0       -1.857919   -0.342878   -0.351048
      5         17           0        1.569886   -0.883973   -0.164823
      6          1           0        0.168266    1.420936   -1.388454
      7          1           0        0.146881    2.547529   -0.025224
      8          1           0        1.689864    1.985265   -0.683868
      9          1           0       -0.661903   -0.769025    1.634334
     10          1           0       -1.198048    0.919690    1.523433
     11          1           0        1.206722    0.797530    1.421558
 ---------------------------------------------------------------------

 SCF Done:  E(RHF) =  -1036.40977142     A.U. after    2 cycles

 The electronic state is 1-A.
 Alpha  occ. eigenvalues -- -105.56210-105.55724 -11.32828 -11.32150 -11.24955
 Alpha  occ. eigenvalues --  -10.61015 -10.60532  -7.77956  -7.77585  -7.77569
 Alpha  occ. eigenvalues --   -7.77465  -7.77104  -7.77093  -1.16211  -1.07416
 Alpha  occ. eigenvalues --   -0.99704  -0.93974  -0.80375  -0.68105  -0.66571
 Alpha  occ. eigenvalues --   -0.62282  -0.57610  -0.55351  -0.53905  -0.51653
 Alpha  occ. eigenvalues --   -0.46028  -0.45287  -0.44551  -0.44385
 Alpha virt. eigenvalues --    0.02959   0.04092   0.04548   0.05247   0.06980
 Alpha virt. eigenvalues --    0.07253   0.08749   0.09831   0.12456   0.13507
 Alpha virt. eigenvalues --    0.14604   0.14753   0.15490   0.16007   0.16888

 Mulliken charges:
               1
     1  C   -0.169874
     2  C   -0.310904
     3  C   -0.631593
     4  Cl  -0.072688
     5  Cl  -0.140422
     6  H    0.225707
     7  H    0.203747
     8  H    0.139239
     9  H    0.249282
    10  H    0.266802
    11  H    0.240705
 Sum of Mulliken charges =  -0.00000

 Dipole moment (field-independent basis, Debye):
    X=              0.2500    Y=              2.3987    Z=              2.1282  Tot=              3.2164

 Test job not archived.
 1\1\GINC-SE176\SP\RHF\Aug-CC-pVDZ\C3H6Cl2\OHZDE\05-Apr-2025\0\\#t hf a
 ug-cc-pvdz iop(5/13=1,5/36=2,99/5=2) pseudo=read geom=check guess=(rea
 d,tcheck) scf=(maxcycle=1)\\title\\0,1\C,0,0.666782,1.690821,-0.460286
 \C,0,-0.725969,0.098901,0.986609\C,0,0.649984,0.536037,0.52168\Cl,0,-1
 .857919,-0.342878,-0.351048\Cl,0,1.569886,-0.883973,-0.164823\H,0,0.16
 8266,1.420936,-1.388454\H,0,0.146881,2.547529,-0.025224\H,0,1.689864,1
 .985265,-0.683868\H,0,-0.661903,-0.769025,1.634334\H,0,-1.198048,0.919
 69,1.523433\H,0,1.206722,0.79753,1.421558\\Version=ES64L-G16RevC.01\St

 Normal termination of Gaussian 16 at Sat Apr  5 22:20:51 2025.
