 Gaussian 16, Revision C.01,

 ----------------------------------------------------------------------
 #t hf aug-cc-pvdz symm=none int=(grid=ultrafine) guess=(read,tcheck) s
 table=(opt,rrhf)
 ----------------------------------------------------------------------
 -----
 title
 -----
 Symbolic Z-matrix:
 Charge =  0 Multiplicity = 1

 SCF Done:  E(RHF) =  -231.858513790     A.U. after   12 cycles
 Normal termination of Gaussian 16 at Sat Apr  5 22:21:06 2025.
 Gaussian 16:  ES64L-G16RevC.01  3-Jul-2019

 ----------------------------------------------------------------------
 #t hf aug-cc-pvdz iop(5/13=1,5/36=2,99/5=2) pseudo=read geom=check gue
 ss=(read,tcheck) scf=(maxcycle=1)
 ----------------------------------------------------------------------
 -----
 title
 -----
 Structure from the checkpoint file:  "1-3-cyclohexadiene.chk"
 Charge =  0 Multiplicity = 1

                         Standard orientation:
 ---------------------------------------------------------------------
 Center     Atomic      Atomic             Coordinates (Angstroms)
 Number     Number       Type             X           Y           Z
 ---------------------------------------------------------------------
      1          1           0        1.227612   -0.261128    2.198784
      2          6           0        0.724797   -0.096543    1.254344
      3          1           0       -1.227612    0.261128    2.198784
      4          6           0       -0.724797    0.096543    1.254344
      5          1           0       -2.497556    0.149519    0.117407
      6          6           0       -1.419944    0.043846    0.113143
      7          1           0        2.497556   -0.149519    0.117407
      8          6           0        1.419944   -0.043846    0.113143
      9          1           0       -1.272086    0.182344   -2.028442
     10          1           0       -0.737591   -1.338573   -1.350141
     11          6           0       -0.724797   -0.251426   -1.190421
     12          1           0        1.272086   -0.182344   -2.028442
     13          1           0        0.737591    1.338573   -1.350141
     14          6           0        0.724797    0.251426   -1.190421
 ---------------------------------------------------------------------

 SCF Done:  E(RHF) =  -232.107727071     A.U. after    2 cycles

 The electronic state is 1-A.
 Alpha  occ. eigenvalues --  -11.23518 -11.23505 -11.23440 -11.23420 -11.23085
 Alpha  occ. eigenvalues --  -11.23041  -1.13241  -1.01035  -1.00703  -0.85183
 Alpha  occ. eigenvalues --   -0.80892  -0.69961  -0.67720  -0.61552  -0.60085
 Alpha  occ. eigenvalues --   -0.58985  -0.55543  -0.52235  -0.48630  -0.46468
 Alpha  occ. eigenvalues --   -0.43081  -0.30866
 Alpha virt. eigenvalues --    0.03775   0.03812   0.03853   0.04652   0.05462
 Alpha virt. eigenvalues --    0.05639   0.06875   0.08606   0.09516   0.12751
 Alpha virt. eigenvalues --    0.12930   0.14263   0.14717   0.14779   0.15185

 Mulliken charges:
               1
     1  H   -0.211020
     2  C    0.246818
     3  H   -0.211020
     4  C    0.246818
     5  H   -0.205016
     6  C    0.305108
     7  H   -0.205016
     8  C    0.305108
     9  H    0.189944
    10  H    0.201183
    11  C   -0.527018
    12  H    0.189944
    13  H    0.201183
    14  C   -0.527018
 Sum of Mulliken charges =  -0.00000

 Dipole moment (field-independent basis, Debye):
    X=              0.0000    Y=             -0.0000    Z=             -0.5079  Tot=              0.5079

 Test job not archived.
 1\1\GINC-SE190\SP\RHF\Aug-CC-pVDZ\C6H8\OHZDE\05-Apr-2025\0\\#t hf aug-
 cc-pvdz iop(5/13=1,5/36=2,99/5=2) pseudo=read geom=check guess=(read,t
 check) scf=(maxcycle=1)\\title\\0,1\H,0,1.227612,-0.261128,2.198784\C,
 0,0.724797,-0.096543,1.254344\H,0,-1.227612,0.261128,2.198784\C,0,-0.7
 24797,0.096543,1.254344\H,0,-2.497556,0.149519,0.117407\C,0,-1.419944,
 0.043846,0.113143\H,0,2.497556,-0.149519,0.117407\C,0,1.419944,-0.0438
 46,0.113143\H,0,-1.272086,0.182344,-2.028442\H,0,-0.737591,-1.338573,-
 1.350141\C,0,-0.724797,-0.251426,-1.190421\H,0,1.272086,-0.182344,-2.0

 Normal termination of Gaussian 16 at Sat Apr  5 22:22:16 2025.
