 Gaussian 16, Revision C.01,

 ----------------------------------------------------------------------
 #t hf aug-cc-pvdz symm=none int=(grid=ultrafine) guess=(read,tcheck) s
 table=(opt,rrhf)
 ----------------------------------------------------------------------
 -----
 title
 -----
 Symbolic Z-matrix:
 Charge =  0 Multiplicity = 1

 SCF Done:  E(RHF) =  -461.475034271     A.U. after   17 cycles
 Normal termination of Gaussian 16 at Sat Apr  5 22:27:45 2025.
 Gaussian 16:  ES64L-G16RevC.01  3-Jul-2019

 ----------------------------------------------------------------------
 #t hf aug-cc-pvdz iop(5/13=1,5/36=2,99/5=2) pseudo=read geom=check gue
 ss=(read,tcheck) scf=(maxcycle=1)
 ----------------------------------------------------------------------
 -----
 title
 -----
 Structure from the checkpoint file:  "1-3-dimethylnaphthalene.chk"
 Charge =  0 Multiplicity = 1

                         Standard orientation:
 ---------------------------------------------------------------------
 Center     Atomic      Atomic             Coordinates (Angstroms)
 Number     Number       Type             X           Y           Z
 ---------------------------------------------------------------------
      1          6           0        2.773055    1.261111    0.000000
      2          6           0        1.856389    2.329988    0.000000
      3          6           0        2.317617   -0.031831    0.000000
      4          6           0        0.505981    2.084632    0.000000
      5          6           0        0.453695   -1.652390    0.000000
      6          6           0       -1.801003   -0.844292    0.000000
      7          6           0        0.931909   -0.319067    0.000000
      8          6           0        0.000000    0.762178    0.000000
      9          6           0       -0.887961   -1.928786    0.000000
     10          6           0       -1.398841    0.467661    0.000000
     11          6           0       -1.410513   -3.339932    0.000000
     12          6           0       -2.419621    1.574311    0.000000
     13          1           0        3.835851    1.463645    0.000000
     14          1           0        2.220247    3.348890    0.000000
     15          1           0        3.018072   -0.857766    0.000000
     16          1           0       -0.183202    2.916945    0.000000
     17          1           0        1.175542   -2.460565    0.000000
     18          1           0       -2.862447   -1.065376    0.000000
     19          1           0       -2.031880   -3.530639    0.877960
     20          1           0       -2.031880   -3.530639   -0.877960
     21          1           0       -0.598144   -4.065331    0.000000
     22          1           0       -2.318622    2.216328    0.878002
     23          1           0       -2.318622    2.216328   -0.878002
     24          1           0       -3.429158    1.166683    0.000000
 ---------------------------------------------------------------------

 SCF Done:  E(RHF) =  -461.955449714     A.U. after    2 cycles

 The electronic state is 1-A'.
 Alpha  occ. eigenvalues --  -11.24816 -11.24483 -11.24419 -11.24086 -11.23963
 Alpha  occ. eigenvalues --  -11.23910 -11.23812 -11.23775 -11.23399 -11.23320
 Alpha  occ. eigenvalues --  -11.23123 -11.22984  -1.17914  -1.11772  -1.07046
 Alpha  occ. eigenvalues --   -1.02656  -1.00060  -0.94751  -0.92983  -0.85153
 Alpha  occ. eigenvalues --   -0.82734  -0.79365  -0.71342  -0.70563  -0.67629
 Alpha  occ. eigenvalues --   -0.63224  -0.61485  -0.59631  -0.59098  -0.58667
 Alpha  occ. eigenvalues --   -0.57617  -0.56417  -0.55412  -0.54032  -0.52342
 Alpha  occ. eigenvalues --   -0.52105  -0.49136  -0.47812  -0.44268  -0.38321
 Alpha  occ. eigenvalues --   -0.32153  -0.29073
 Alpha virt. eigenvalues --    0.03140   0.03244   0.03641   0.04327   0.04467
 Alpha virt. eigenvalues --    0.04788   0.06120   0.06583   0.06860   0.07757
 Alpha virt. eigenvalues --    0.07808   0.09094   0.09766   0.10105   0.10688

 Mulliken charges:
               1
     1  C   -0.515714
     2  C   -0.503739
     3  C    0.194476
     4  C   -0.078847
     5  C    0.655348
     6  C    0.393133
     7  C    1.106076
     8  C    0.919555
     9  C   -0.054580
    10  C    0.027875
    11  C   -0.813233
    12  C   -0.689674
    13  H   -0.255495
    14  H   -0.262989
    15  H   -0.317216
    16  H   -0.421224
    17  H   -0.263991
    18  H   -0.328199
    19  H    0.266950
    20  H    0.266950
    21  H    0.032760
    22  H    0.341759
    23  H    0.341759
    24  H   -0.041741
 Sum of Mulliken charges =   0.00000

 Dipole moment (field-independent basis, Debye):
    X=             -0.5362    Y=             -0.1302    Z=             -0.0000  Tot=              0.5518

 Test job not archived.
 1\1\GINC-SE196\SP\RHF\Aug-CC-pVDZ\C12H12\OHZDE\05-Apr-2025\0\\#t hf au
 g-cc-pvdz iop(5/13=1,5/36=2,99/5=2) pseudo=read geom=check guess=(read
 ,tcheck) scf=(maxcycle=1)\\title\\0,1\C,0,2.773055,1.261111,0.\C,0,1.8
 56389,2.329988,0.\C,0,2.317617,-0.031831,0.\C,0,0.505981,2.084632,0.\C
 ,0,0.453695,-1.65239,0.\C,0,-1.801003,-0.844292,0.\C,0,0.931909,-0.319
 067,0.\C,0,0.,0.762178,0.\C,0,-0.887961,-1.928786,0.\C,0,-1.398841,0.4
 67661,0.\C,0,-1.410513,-3.339932,0.\C,0,-2.419621,1.574311,0.\H,0,3.83
 5851,1.463645,0.\H,0,2.220247,3.34889,0.\H,0,3.018072,-0.857766,0.\H,0

 Normal termination of Gaussian 16 at Sat Apr  5 22:28:19 2025.
