 Gaussian 16, Revision C.01,

 ----------------------------------------------------------------------
 #t hf aug-cc-pvdz symm=none int=(grid=ultrafine) guess=(read,tcheck) s
 table=(opt,rrhf)
 ----------------------------------------------------------------------
 -----
 title
 -----
 Symbolic Z-matrix:
 Charge =  0 Multiplicity = 1

 SCF Done:  E(RHF) =  -1347.56139275     A.U. after   14 cycles
 Normal termination of Gaussian 16 at Sat Apr  5 22:22:52 2025.
 Gaussian 16:  ES64L-G16RevC.01  3-Jul-2019

 ----------------------------------------------------------------------
 #t hf aug-cc-pvdz iop(5/13=1,5/36=2,99/5=2) pseudo=read geom=check gue
 ss=(read,tcheck) scf=(maxcycle=1)
 ----------------------------------------------------------------------
 -----
 title
 -----
 Structure from the checkpoint file:  "1-3-dithiane-2-thione.chk"
 Charge =  0 Multiplicity = 1

                         Standard orientation:
 ---------------------------------------------------------------------
 Center     Atomic      Atomic             Coordinates (Angstroms)
 Number     Number       Type             X           Y           Z
 ---------------------------------------------------------------------
      1         16           0       -0.195948    2.519947    0.000000
      2          6           0       -0.116097    0.874513    0.000000
      3         16           0       -0.033616    0.069956    1.548701
      4          6           0       -0.033616   -1.749646    1.260469
      5          6           0        0.684442   -2.198644   -0.000000
      6          6           0       -0.033616   -1.749646   -1.260469
      7         16           0       -0.033616    0.069956   -1.548701
      8          1           0        0.452909   -2.143490    2.151791
      9          1           0       -1.066908   -2.096687    1.261615
     10          1           0        1.716281   -1.844930   -0.000000
     11          1           0        0.715928   -3.291933   -0.000000
     12          1           0        0.452909   -2.143490   -2.151791
     13          1           0       -1.066908   -2.096687   -1.261615
 ---------------------------------------------------------------------

 SCF Done:  E(RHF) =  -1347.90154071     A.U. after    2 cycles

 The electronic state is 1-A'.
 Alpha  occ. eigenvalues --  -93.98709 -93.98707 -93.91714 -11.37901 -11.29920
 Alpha  occ. eigenvalues --  -11.29915 -11.27684  -8.26831  -8.26810  -8.19973
 Alpha  occ. eigenvalues --   -6.24642  -6.24629  -6.24421  -6.24418  -6.24243
 Alpha  occ. eigenvalues --   -6.24241  -6.17822  -6.17544  -6.17395  -1.18581
 Alpha  occ. eigenvalues --   -1.10685  -1.07806  -0.97738  -0.91751  -0.84889
 Alpha  occ. eigenvalues --   -0.72556  -0.67044  -0.64045  -0.63057  -0.62255
 Alpha  occ. eigenvalues --   -0.55482  -0.55335  -0.53819  -0.50353  -0.46838
 Alpha  occ. eigenvalues --   -0.45265  -0.38373  -0.34205  -0.33596
 Alpha virt. eigenvalues --    0.02234   0.03201   0.03258   0.04457   0.05046
 Alpha virt. eigenvalues --    0.06129   0.06440   0.08100   0.09075   0.10539
 Alpha virt. eigenvalues --    0.10974   0.12267   0.13249   0.13269   0.13626

 Mulliken charges:
               1
     1  S    0.123164
     2  C   -1.341525
     3  S    0.853459
     4  C   -0.754366
     5  C   -0.200888
     6  C   -0.754366
     7  S    0.853459
     8  H    0.246171
     9  H    0.218216
    10  H    0.116682
    11  H    0.175606
    12  H    0.246171
    13  H    0.218216
 Sum of Mulliken charges =  -0.00000

 Dipole moment (field-independent basis, Debye):
    X=              0.3539    Y=             -6.6764    Z=             -0.0000  Tot=              6.6858

 Test job not archived.
 1\1\GINC-SE052\SP\RHF\Aug-CC-pVDZ\C4H6S3\OHZDE\05-Apr-2025\0\\#t hf au
 g-cc-pvdz iop(5/13=1,5/36=2,99/5=2) pseudo=read geom=check guess=(read
 ,tcheck) scf=(maxcycle=1)\\title\\0,1\S,0,-0.195948,2.519947,0.\C,0,-0
 .116097,0.874513,0.\S,0,-0.033616,0.069956,1.548701\C,0,-0.033616,-1.7
 49646,1.260469\C,0,0.684442,-2.198644,0.\C,0,-0.033616,-1.749646,-1.26
 0469\S,0,-0.033616,0.069956,-1.548701\H,0,0.452909,-2.14349,2.151791\H
 ,0,-1.066908,-2.096687,1.261615\H,0,1.716281,-1.84493,0.\H,0,0.715928,
 -3.291933,0.\H,0,0.452909,-2.14349,-2.151791\H,0,-1.066908,-2.096687,-

 Normal termination of Gaussian 16 at Sat Apr  5 22:23:37 2025.
