 Gaussian 16, Revision C.01,

 ----------------------------------------------------------------------
 #t hf aug-cc-pvdz symm=none int=(grid=ultrafine) guess=(read,tcheck) s
 table=(opt,rrhf)
 ----------------------------------------------------------------------
 -----
 title
 -----
 Symbolic Z-matrix:
 Charge =  0 Multiplicity = 1

 SCF Done:  E(RHF) =  -604.230659886     A.U. after   14 cycles
 Normal termination of Gaussian 16 at Sat Apr  5 22:20:33 2025.
 Gaussian 16:  ES64L-G16RevC.01  3-Jul-2019

 ----------------------------------------------------------------------
 #t hf aug-cc-pvdz iop(5/13=1,5/36=2,99/5=2) pseudo=read geom=check gue
 ss=(read,tcheck) scf=(maxcycle=1)
 ----------------------------------------------------------------------
 -----
 title
 -----
 Structure from the checkpoint file:  "1-3-2-oxathiazole.chk"
 Charge =  0 Multiplicity = 1

                         Standard orientation:
 ---------------------------------------------------------------------
 Center     Atomic      Atomic             Coordinates (Angstroms)
 Number     Number       Type             X           Y           Z
 ---------------------------------------------------------------------
      1         16           0       -1.224006    0.049081   -0.107328
      2          8           0        1.242809   -0.702537   -0.222880
      3          7           0       -0.052232   -1.238625    0.159007
      4          6           0        0.065657    1.249525    0.142810
      5          6           0        1.244683    0.655383    0.012729
      6          1           0       -0.124066    2.299324    0.277492
      7          1           0        2.227512    1.098554    0.002818
      8          1           0        0.041759   -1.321948    1.173704
 ---------------------------------------------------------------------

 SCF Done:  E(RHF) =  -604.496952902     A.U. after    2 cycles

 The electronic state is 1-A.
 Alpha  occ. eigenvalues --  -93.99506 -20.61616 -15.59823 -11.32161 -11.27840
 Alpha  occ. eigenvalues --   -8.27354  -6.25131  -6.24997  -6.24699  -1.53339
 Alpha  occ. eigenvalues --   -1.17854  -1.09773  -0.91801  -0.82243  -0.74213
 Alpha  occ. eigenvalues --   -0.71619  -0.63212  -0.59670  -0.55647  -0.51588
 Alpha  occ. eigenvalues --   -0.49614  -0.44548  -0.32891
 Alpha virt. eigenvalues --    0.03377   0.04202   0.04852   0.07467   0.08858
 Alpha virt. eigenvalues --    0.10058   0.11306   0.11422   0.13184   0.13748
 Alpha virt. eigenvalues --    0.14541   0.15527   0.16210   0.16555   0.18748

 Mulliken charges:
               1
     1  S    0.429641
     2  O   -1.221880
     3  N    0.057946
     4  C   -0.360194
     5  C    1.064525
     6  H   -0.131268
     7  H   -0.031955
     8  H    0.193185
 Sum of Mulliken charges =  -0.00000

 Dipole moment (field-independent basis, Debye):
    X=              0.7093    Y=              2.4081    Z=              1.4963  Tot=              2.9225

 Test job not archived.
 1\1\GINC-SE153\SP\RHF\Aug-CC-pVDZ\C2H3N1O1S1\OHZDE\05-Apr-2025\0\\#t h
 f aug-cc-pvdz iop(5/13=1,5/36=2,99/5=2) pseudo=read geom=check guess=(
 read,tcheck) scf=(maxcycle=1)\\title\\0,1\S,0,-1.224006,0.049081,-0.10
 7328\O,0,1.242809,-0.702537,-0.22288\N,0,-0.052232,-1.238625,0.159007\
 C,0,0.065658,1.249525,0.14281\C,0,1.244683,0.655383,0.012729\H,0,-0.12
 4065,2.299324,0.277492\H,0,2.227513,1.098553,0.002818\H,0,0.041759,-1.
 321948,1.173704\\Version=ES64L-G16RevC.01\State=1-A\HF=-604.4969529\RM
 SD=1.312e-02\Dipole=0.2790464,0.9474354,0.5886751\Quadrupole=0.6222782

 Normal termination of Gaussian 16 at Sat Apr  5 22:20:49 2025.
