 Gaussian 16, Revision C.01,

 ----------------------------------------------------------------------
 #t hf aug-cc-pvdz symm=none int=(grid=ultrafine) guess=(read,tcheck) s
 table=(opt,rrhf)
 ----------------------------------------------------------------------
 -----
 title
 -----
 Symbolic Z-matrix:
 Charge =  0 Multiplicity = 1

 SCF Done:  E(RHF) =  -340.581042747     A.U. after   13 cycles
 Normal termination of Gaussian 16 at Sat Apr  5 22:22:23 2025.
 Gaussian 16:  ES64L-G16RevC.01  3-Jul-2019

 ----------------------------------------------------------------------
 #t hf aug-cc-pvdz iop(5/13=1,5/36=2,99/5=2) pseudo=read geom=check gue
 ss=(read,tcheck) scf=(maxcycle=1)
 ----------------------------------------------------------------------
 -----
 title
 -----
 Structure from the checkpoint file:  "1-3-dioxolan-2-one.chk"
 Charge =  0 Multiplicity = 1

                         Standard orientation:
 ---------------------------------------------------------------------
 Center     Atomic      Atomic             Coordinates (Angstroms)
 Number     Number       Type             X           Y           Z
 ---------------------------------------------------------------------
      1          6           0        0.000000    0.000000    0.851993
      2          6           0       -0.168984    0.745968   -1.301801
      3          6           0        0.168984   -0.745968   -1.301801
      4          8           0        0.000000    0.000000    2.039757
      5          8           0       -0.000000    1.114456    0.074557
      6          8           0       -0.000000   -1.114456    0.074557
      7          1           0        0.504009    1.345920   -1.908473
      8          1           0       -1.201132    0.944052   -1.592185
      9          1           0       -0.504009   -1.345920   -1.908473
     10          1           0        1.201132   -0.944052   -1.592185
 ---------------------------------------------------------------------

 SCF Done:  E(RHF) =  -340.918257719     A.U. after    2 cycles

 The electronic state is 1-A.
 Alpha  occ. eigenvalues --  -20.61310 -20.61307 -20.53740 -11.44588 -11.33378
 Alpha  occ. eigenvalues --  -11.33370  -1.60751  -1.49012  -1.47794  -1.06501
 Alpha  occ. eigenvalues --   -0.92115  -0.84616  -0.75580  -0.73421  -0.70104
 Alpha  occ. eigenvalues --   -0.64178  -0.63428  -0.62287  -0.56250  -0.55457
 Alpha  occ. eigenvalues --   -0.48055  -0.47164  -0.46363
 Alpha virt. eigenvalues --    0.02503   0.03650   0.03932   0.05866   0.07476
 Alpha virt. eigenvalues --    0.10486   0.10897   0.11370   0.11750   0.13730
 Alpha virt. eigenvalues --    0.14271   0.14530   0.15449   0.16987   0.18212

 Mulliken charges:
               1
     1  C    2.327738
     2  C    0.437638
     3  C    0.437638
     4  O   -1.170327
     5  O   -1.179750
     6  O   -1.179750
     7  H    0.092701
     8  H    0.070705
     9  H    0.092701
    10  H    0.070705
 Sum of Mulliken charges =  -0.00000

 Dipole moment (field-independent basis, Debye):
    X=              0.0000    Y=              0.0000    Z=             -5.7845  Tot=              5.7845

 Test job not archived.
 1\1\GINC-SE199\SP\RHF\Aug-CC-pVDZ\C3H4O3\OHZDE\05-Apr-2025\0\\#t hf au
 g-cc-pvdz iop(5/13=1,5/36=2,99/5=2) pseudo=read geom=check guess=(read
 ,tcheck) scf=(maxcycle=1)\\title\\0,1\C,0,0.,0.,0.851993\C,0,-0.168984
 ,0.745968,-1.301801\C,0,0.168984,-0.745968,-1.301801\O,0,0.,0.,2.03975
 7\O,0,0.,1.114456,0.074557\O,0,0.,-1.114456,0.074557\H,0,0.504009,1.34
 592,-1.908473\H,0,-1.201132,0.944052,-1.592185\H,0,-0.504009,-1.34592,
 -1.908473\H,0,1.201132,-0.944052,-1.592185\\Version=ES64L-G16RevC.01\S
 tate=1-A\HF=-340.9182577\RMSD=9.379e-03\Dipole=0.,0.,-2.2757786\Quadru

 Normal termination of Gaussian 16 at Sat Apr  5 22:22:29 2025.
