 Gaussian 16, Revision C.01,

 ----------------------------------------------------------------------
 #t hf aug-cc-pvdz symm=none int=(grid=ultrafine) guess=(read,tcheck) s
 table=(opt,rrhf)
 ----------------------------------------------------------------------
 -----
 title
 -----
 Symbolic Z-matrix:
 Charge =  0 Multiplicity = 1

 SCF Done:  E(RHF) =  -1039.74696310     A.U. after   14 cycles
 Normal termination of Gaussian 16 at Sat Apr  5 22:22:28 2025.
 Gaussian 16:  ES64L-G16RevC.01  3-Jul-2019

 ----------------------------------------------------------------------
 #t hf aug-cc-pvdz iop(5/13=1,5/36=2,99/5=2) pseudo=read geom=check gue
 ss=(read,tcheck) scf=(maxcycle=1)
 ----------------------------------------------------------------------
 -----
 title
 -----
 Structure from the checkpoint file:  "1-3-oxazolidine-2-5-dithione.chk"
 Charge =  0 Multiplicity = 1

                         Standard orientation:
 ---------------------------------------------------------------------
 Center     Atomic      Atomic             Coordinates (Angstroms)
 Number     Number       Type             X           Y           Z
 ---------------------------------------------------------------------
      1         16           0       -2.641922   -0.576015    0.000004
      2         16           0        2.636269   -0.592371   -0.000006
      3          8           0        0.011190   -0.739778   -0.000001
      4          7           0       -0.727198    1.331855    0.000004
      5          6           0       -1.137706    0.051692    0.000002
      6          6           0        1.141741    0.018753   -0.000002
      7          6           0        0.712543    1.468811    0.000000
      8          1           0       -1.390465    2.086210    0.000006
      9          1           0        1.091158    1.983830    0.885264
     10          1           0        1.091154    1.983833   -0.885262
 ---------------------------------------------------------------------

 SCF Done:  E(RHF) =  -1040.10273018     A.U. after    2 cycles

 The electronic state is 1-A.
 Alpha  occ. eigenvalues --  -93.95230 -93.92489 -20.66057 -15.58796 -11.43913
 Alpha  occ. eigenvalues --  -11.42116 -11.34314  -8.23514  -8.20810  -6.21355
 Alpha  occ. eigenvalues --   -6.21096  -6.20907  -6.18689  -6.18344  -6.18229
 Alpha  occ. eigenvalues --   -1.60470  -1.31525  -1.15288  -1.05997  -1.00491
 Alpha  occ. eigenvalues --   -0.91101  -0.86799  -0.75404  -0.74077  -0.70499
 Alpha  occ. eigenvalues --   -0.63418  -0.62512  -0.57876  -0.56273  -0.55814
 Alpha  occ. eigenvalues --   -0.40968  -0.38677  -0.37629  -0.36554
 Alpha virt. eigenvalues --    0.01877   0.02641   0.04412   0.04813   0.06743
 Alpha virt. eigenvalues --    0.07472   0.08178   0.09071   0.10385   0.11317
 Alpha virt. eigenvalues --    0.11549   0.12856   0.13589   0.13696   0.14679

 Mulliken charges:
               1
     1  S    0.377108
     2  S    0.296219
     3  O   -1.500047
     4  N    0.812197
     5  C   -0.308175
     6  C    0.684548
     7  C   -0.757655
     8  H    0.032796
     9  H    0.181507
    10  H    0.181501
 Sum of Mulliken charges =  -0.00000

 Dipole moment (field-independent basis, Debye):
    X=              0.9734    Y=              4.9758    Z=              0.0000  Tot=              5.0701

 Test job not archived.
 1\1\GINC-SE176\SP\RHF\Aug-CC-pVDZ\C3H3N1O1S2\OHZDE\05-Apr-2025\0\\#t h
 f aug-cc-pvdz iop(5/13=1,5/36=2,99/5=2) pseudo=read geom=check guess=(
 read,tcheck) scf=(maxcycle=1)\\title\\0,1\S,0,-2.641922,-0.576015,0.00
 0004\S,0,2.636269,-0.592371,-0.000006\O,0,0.01119,-0.739778,-0.000001\
 N,0,-0.727198,1.331855,0.000004\C,0,-1.137706,0.051692,0.000002\C,0,1.
 141741,0.018753,-0.000002\C,0,0.712543,1.468811,0.\H,0,-1.390465,2.086
 21,0.000006\H,0,1.091158,1.98383,0.885264\H,0,1.091154,1.983833,-0.885
 262\\Version=ES64L-G16RevC.01\State=1-A\HF=-1040.1027302\RMSD=1.431e-0

 Normal termination of Gaussian 16 at Sat Apr  5 22:22:33 2025.
