 Gaussian 16, Revision C.01,

 ----------------------------------------------------------------------
 #t hf aug-cc-pvdz symm=none int=(grid=ultrafine) guess=(read,tcheck) s
 table=(opt,rrhf)
 ----------------------------------------------------------------------
 -----
 title
 -----
 Symbolic Z-matrix:
 Charge =  0 Multiplicity = 1

 SCF Done:  E(RHF) =  -398.517017966     A.U. after   15 cycles
 Normal termination of Gaussian 16 at Sat Apr  5 22:23:20 2025.
 Gaussian 16:  ES64L-G16RevC.01  3-Jul-2019

 ----------------------------------------------------------------------
 #t hf aug-cc-pvdz iop(5/13=1,5/36=2,99/5=2) pseudo=read geom=check gue
 ss=(read,tcheck) scf=(maxcycle=1)
 ----------------------------------------------------------------------
 -----
 title
 -----
 Structure from the checkpoint file:  "1-3-pyridinylethanone.chk"
 Charge =  0 Multiplicity = 1

                         Standard orientation:
 ---------------------------------------------------------------------
 Center     Atomic      Atomic             Coordinates (Angstroms)
 Number     Number       Type             X           Y           Z
 ---------------------------------------------------------------------
      1          6           0        1.696862   -1.488657    0.000000
      2          6           0        1.351488   -0.149893    0.000000
      3          6           0        0.678556   -2.438597    0.000000
      4          6           0       -0.937596   -0.833228    0.000000
      5          6           0        0.000000    0.201553    0.000000
      6          6           0       -0.380417    1.650164    0.000000
      7          6           0       -1.846582    2.020735    0.000000
      8          7           0       -0.617070   -2.126889    0.000000
      9          8           0        0.479636    2.507928    0.000000
     10          1           0        2.731892   -1.800786    0.000000
     11          1           0        2.096554    0.633302    0.000000
     12          1           0        0.915031   -3.496491    0.000000
     13          1           0       -1.998650   -0.616442    0.000000
     14          1           0       -2.350642    1.614766    0.878826
     15          1           0       -2.350642    1.614766   -0.878826
     16          1           0       -1.935005    3.103218    0.000000
 ---------------------------------------------------------------------

 SCF Done:  E(RHF) =  -398.920875385     A.U. after    2 cycles

 The electronic state is 1-A'.
 Alpha  occ. eigenvalues --  -20.54053 -15.51709 -11.35197 -11.30013 -11.29850
 Alpha  occ. eigenvalues --  -11.27739 -11.26090 -11.25863 -11.25141  -1.47582
 Alpha  occ. eigenvalues --   -1.27642  -1.11403  -1.07125  -1.01589  -0.91110
 Alpha  occ. eigenvalues --   -0.88399  -0.79386  -0.74275  -0.71326  -0.67856
 Alpha  occ. eigenvalues --   -0.64354  -0.62347  -0.62106  -0.60409  -0.57581
 Alpha  occ. eigenvalues --   -0.57365  -0.55368  -0.51356  -0.46846  -0.42443
 Alpha  occ. eigenvalues --   -0.41343  -0.37240
 Alpha virt. eigenvalues --    0.03146   0.03538   0.04345   0.04684   0.05082
 Alpha virt. eigenvalues --    0.05512   0.05727   0.08146   0.08152   0.08734
 Alpha virt. eigenvalues --    0.10047   0.10877   0.12302   0.12368   0.13620

 Mulliken charges:
               1
     1  C    0.375750
     2  C    0.136783
     3  C   -0.847816
     4  C   -1.110631
     5  C    1.848115
     6  C    0.811771
     7  C   -0.621173
     8  N    1.077482
     9  O   -1.492757
    10  H   -0.180480
    11  H   -0.262733
    12  H   -0.169273
    13  H   -0.243992
    14  H    0.320537
    15  H    0.320537
    16  H    0.037881
 Sum of Mulliken charges =  -0.00000

 Dipole moment (field-independent basis, Debye):
    X=             -0.0278    Y=             -0.7347    Z=             -0.0000  Tot=              0.7352

 Test job not archived.
 1\1\GINC-SE145\SP\RHF\Aug-CC-pVDZ\C7H7N1O1\OHZDE\05-Apr-2025\0\\#t hf
 aug-cc-pvdz iop(5/13=1,5/36=2,99/5=2) pseudo=read geom=check guess=(re
 ad,tcheck) scf=(maxcycle=1)\\title\\0,1\C,0,1.696861,-1.488658,0.\C,0,
 1.351488,-0.149893,0.\C,0,0.678555,-2.438597,0.\C,0,-0.937596,-0.83322
 8,0.\C,0,0.,0.201553,0.\C,0,-0.380417,1.650164,0.\C,0,-1.846581,2.0207
 36,0.\N,0,-0.617071,-2.126889,0.\O,0,0.479637,2.507928,0.\H,0,2.731891
 ,-1.800787,0.\H,0,2.096554,0.633301,0.\H,0,0.91503,-3.496491,0.\H,0,-1
 .99865,-0.616441,0.\H,0,-2.350642,1.614767,0.878826\H,0,-2.350642,1.61

 Normal termination of Gaussian 16 at Sat Apr  5 22:23:40 2025.
