 Gaussian 16, Revision C.01,

 ----------------------------------------------------------------------
 #t hf aug-cc-pvdz symm=none int=(grid=ultrafine) guess=(read,tcheck) s
 table=(opt,rrhf)
 ----------------------------------------------------------------------
 -----
 title
 -----
 Symbolic Z-matrix:
 Charge =  0 Multiplicity = 1

 SCF Done:  E(RHF) =  -775.077274406     A.U. after   15 cycles
 Normal termination of Gaussian 16 at Sat Apr  5 22:23:49 2025.
 Gaussian 16:  ES64L-G16RevC.01  3-Jul-2019

 ----------------------------------------------------------------------
 #t hf aug-cc-pvdz iop(5/13=1,5/36=2,99/5=2) pseudo=read geom=check gue
 ss=(read,tcheck) scf=(maxcycle=1)
 ----------------------------------------------------------------------
 -----
 title
 -----
 Structure from the checkpoint file:  "1-3-dihydro-2H-benzimidazole-2-thione.chk"
 Charge =  0 Multiplicity = 1

                         Standard orientation:
 ---------------------------------------------------------------------
 Center     Atomic      Atomic             Coordinates (Angstroms)
 Number     Number       Type             X           Y           Z
 ---------------------------------------------------------------------
      1          7           0        0.000000    1.086138    0.759003
      2          6           0        0.000000   -0.000000    1.598098
      3         16           0        0.000000   -0.000000    3.259399
      4          6           0        0.000000    0.701967   -0.573500
      5          6           0        0.000000    1.422352   -1.756178
      6          6           0        0.000000    0.697607   -2.946432
      7          6           0       -0.000000   -0.697607   -2.946432
      8          6           0       -0.000000   -1.422352   -1.756178
      9          6           0       -0.000000   -0.701967   -0.573500
     10          7           0       -0.000000   -1.086138    0.759003
     11          1           0        0.000000    2.023318    1.120645
     12          1           0        0.000000    2.503243   -1.758725
     13          1           0        0.000000    1.228712   -3.887766
     14          1           0       -0.000000   -1.228712   -3.887766
     15          1           0       -0.000000   -2.503243   -1.758725
     16          1           0       -0.000000   -2.023318    1.120645
 ---------------------------------------------------------------------

 SCF Done:  E(RHF) =  -775.518951860     A.U. after    2 cycles

 The electronic state is 1-A1.
 Alpha  occ. eigenvalues --  -93.89203 -15.57457 -15.57395 -11.38629 -11.30608
 Alpha  occ. eigenvalues --  -11.30538 -11.26858 -11.26818 -11.26055 -11.25981
 Alpha  occ. eigenvalues --   -8.17459  -6.15356  -6.14984  -6.14917  -1.38268
 Alpha  occ. eigenvalues --   -1.23652  -1.17406  -1.07164  -1.04478  -0.98449
 Alpha  occ. eigenvalues --   -0.92948  -0.88107  -0.85879  -0.77789  -0.75628
 Alpha  occ. eigenvalues --   -0.73035  -0.68341  -0.67030  -0.64893  -0.64808
 Alpha  occ. eigenvalues --   -0.56140  -0.54175  -0.53890  -0.53645  -0.52311
 Alpha  occ. eigenvalues --   -0.38904  -0.36276  -0.34148  -0.30752
 Alpha virt. eigenvalues --    0.02680   0.02911   0.03075   0.04803   0.06306
 Alpha virt. eigenvalues --    0.07120   0.07486   0.08918   0.09605   0.10416
 Alpha virt. eigenvalues --    0.10418   0.11361   0.11760   0.12321   0.12618

 Mulliken charges:
               1
     1  N    0.865611
     2  C   -1.337750
     3  S    0.194700
     4  C   -1.008322
     5  C    0.996758
     6  C    0.200614
     7  C    0.200614
     8  C    0.996758
     9  C   -1.008322
    10  N    0.865611
    11  H    0.008749
    12  H   -0.249560
    13  H   -0.242324
    14  H   -0.242324
    15  H   -0.249560
    16  H    0.008749
 Sum of Mulliken charges =  -0.00000

 Dipole moment (field-independent basis, Debye):
    X=             -0.0000    Y=             -0.0000    Z=             -5.1773  Tot=              5.1773

 Test job not archived.
 1\1\GINC-SE036\SP\RHF\Aug-CC-pVDZ\C7H6N2S1\OHZDE\05-Apr-2025\0\\#t hf
 aug-cc-pvdz iop(5/13=1,5/36=2,99/5=2) pseudo=read geom=check guess=(re
 ad,tcheck) scf=(maxcycle=1)\\title\\0,1\N,0,0.,1.086138,0.759003\C,0,0
 .,0.,1.598098\S,0,0.,0.,3.259399\C,0,0.,0.701967,-0.5735\C,0,0.,1.4223
 52,-1.756178\C,0,0.,0.697607,-2.946432\C,0,0.,-0.697607,-2.946432\C,0,
 0.,-1.422352,-1.756178\C,0,0.,-0.701967,-0.5735\N,0,0.,-1.086138,0.759
 003\H,0,0.,2.023318,1.120645\H,0,0.,2.503243,-1.758725\H,0,0.,1.228712
 ,-3.887766\H,0,0.,-1.228712,-3.887766\H,0,0.,-2.503243,-1.758725\H,0,0

 Normal termination of Gaussian 16 at Sat Apr  5 22:23:56 2025.
