 Gaussian 16, Revision C.01,

 ----------------------------------------------------------------------
 #t hf aug-cc-pvdz symm=none int=(grid=ultrafine) guess=(read,tcheck) s
 table=(opt,rrhf)
 ----------------------------------------------------------------------
 -----
 title
 -----
 Symbolic Z-matrix:
 Charge =  0 Multiplicity = 1

 SCF Done:  E(RHF) =  -527.318600291     A.U. after   13 cycles
 Normal termination of Gaussian 16 at Sat Apr  5 22:21:09 2025.
 Gaussian 16:  ES64L-G16RevC.01  3-Jul-2019

 ----------------------------------------------------------------------
 #t hf aug-cc-pvdz iop(5/13=1,5/36=2,99/5=2) pseudo=read geom=check gue
 ss=(read,tcheck) scf=(maxcycle=1)
 ----------------------------------------------------------------------
 -----
 title
 -----
 Structure from the checkpoint file:  "1-3-5-trifluorobenzene.chk"
 Charge =  0 Multiplicity = 1

                         Standard orientation:
 ---------------------------------------------------------------------
 Center     Atomic      Atomic             Coordinates (Angstroms)
 Number     Number       Type             X           Y           Z
 ---------------------------------------------------------------------
      1          6           0       -0.000000    0.000000    1.361787
      2          6           0        0.000000    1.217446    0.702893
      3          6           0       -0.000000   -1.217446    0.702893
      4          6           0        0.000000    1.179342   -0.680894
      5          6           0       -0.000000   -1.179342   -0.680894
      6          6           0        0.000000   -0.000000   -1.405786
      7          9           0        0.000000    2.344663   -1.353692
      8          9           0       -0.000000   -2.344663   -1.353692
      9          1           0        0.000000    2.151626    1.242242
     10          1           0       -0.000000   -2.151626    1.242242
     11          9           0       -0.000000    0.000000    2.707384
     12          1           0        0.000000    0.000000   -2.484484
 ---------------------------------------------------------------------

 SCF Done:  E(RHF) =  -527.820768629     A.U. after    2 cycles

 The electronic state is 1-A1.
 Alpha  occ. eigenvalues --  -26.49913 -26.49913 -26.49913 -11.37091 -11.37087
 Alpha  occ. eigenvalues --  -11.37087 -11.26971 -11.26949 -11.26949  -1.63096
 Alpha  occ. eigenvalues --   -1.62934  -1.62934  -1.19728  -1.05846  -1.05846
 Alpha  occ. eigenvalues --   -0.89329  -0.89329  -0.79382  -0.77986  -0.72646
 Alpha  occ. eigenvalues --   -0.71360  -0.71360  -0.70671  -0.68936  -0.68936
 Alpha  occ. eigenvalues --   -0.65493  -0.65493  -0.58252  -0.58252  -0.58152
 Alpha  occ. eigenvalues --   -0.52822  -0.37584  -0.37584
 Alpha virt. eigenvalues --    0.03698   0.04105   0.04105   0.08496   0.08496
 Alpha virt. eigenvalues --    0.09445   0.09445   0.10579   0.10811   0.13395
 Alpha virt. eigenvalues --    0.13395   0.13864   0.13864   0.13902   0.14879

 Mulliken charges:
               1
     1  C    1.473998
     2  C   -0.370013
     3  C   -0.370013
     4  C    1.473994
     5  C    1.473994
     6  C   -0.370009
     7  F   -0.982599
     8  F   -0.982599
     9  H   -0.121385
    10  H   -0.121385
    11  F   -0.982599
    12  H   -0.121385
 Sum of Mulliken charges =  -0.00000

 Dipole moment (field-independent basis, Debye):
    X=              0.0000    Y=             -0.0000    Z=             -0.0000  Tot=              0.0000

 Test job not archived.
 1\1\GINC-SE050\SP\RHF\Aug-CC-pVDZ\C6H3F3\OHZDE\05-Apr-2025\0\\#t hf au
 g-cc-pvdz iop(5/13=1,5/36=2,99/5=2) pseudo=read geom=check guess=(read
 ,tcheck) scf=(maxcycle=1)\\title\\0,1\C,0,0.,1.361787,0.\C,0,-1.217446
 ,0.702893,0.\C,0,1.217446,0.702893,0.\C,0,-1.179342,-0.680894,0.\C,0,1
 .179342,-0.680894,0.\C,0,0.,-1.405786,0.\F,0,-2.344663,-1.353692,0.\F,
 0,2.344663,-1.353692,0.\H,0,-2.151626,1.242242,0.\H,0,2.151626,1.24224
 2,0.\F,0,0.,2.707384,0.\H,0,0.,-2.484484,0.\\Version=ES64L-G16RevC.01\
 State=1-A1\HF=-527.8207686\RMSD=2.657e-02\Dipole=0.,-0.0000023,0.\Quad

 Normal termination of Gaussian 16 at Sat Apr  5 22:22:19 2025.
