 Gaussian 16, Revision C.01,

 ----------------------------------------------------------------------
 #t hf aug-cc-pvdz symm=none int=(grid=ultrafine) guess=(read,tcheck) s
 table=(opt,rrhf)
 ----------------------------------------------------------------------
 -----
 title
 -----
 Symbolic Z-matrix:
 Charge =  0 Multiplicity = 1

 SCF Done:  E(RHF) =  -266.830653464     A.U. after   12 cycles
 Normal termination of Gaussian 16 at Sat Apr  5 22:22:23 2025.
 Gaussian 16:  ES64L-G16RevC.01  3-Jul-2019

 ----------------------------------------------------------------------
 #t hf aug-cc-pvdz iop(5/13=1,5/36=2,99/5=2) pseudo=read geom=check gue
 ss=(read,tcheck) scf=(maxcycle=1)
 ----------------------------------------------------------------------
 -----
 title
 -----
 Structure from the checkpoint file:  "1-3-dioxolane.chk"
 Charge =  0 Multiplicity = 1

                         Standard orientation:
 ---------------------------------------------------------------------
 Center     Atomic      Atomic             Coordinates (Angstroms)
 Number     Number       Type             X           Y           Z
 ---------------------------------------------------------------------
      1          1           0       -1.638593   -1.153756    0.688314
      2          1           0       -1.454271   -0.881074   -1.060827
      3          6           0       -1.031076   -0.669148   -0.077087
      4          1           0       -0.970288    1.084448    1.225130
      5          1           0       -1.528273    1.455561   -0.426021
      6          6           0       -0.860191    0.833461    0.164191
      7          8           0        0.306808   -1.179852   -0.027728
      8          8           0        0.477289    1.074627   -0.266338
      9          1           0        1.499157    0.001110    1.176675
     10          1           0        2.050598   -0.197573   -0.525731
     11          6           0        1.186084   -0.075466    0.125395
 ---------------------------------------------------------------------

 SCF Done:  E(RHF) =  -267.105054119     A.U. after    2 cycles

 The electronic state is 1-A.
 Alpha  occ. eigenvalues --  -20.55800 -20.54992 -11.33710 -11.29535 -11.29221
 Alpha  occ. eigenvalues --   -1.52196  -1.42160  -1.03693  -0.87750  -0.85815
 Alpha  occ. eigenvalues --   -0.72211  -0.71119  -0.64233  -0.61576  -0.58383
 Alpha  occ. eigenvalues --   -0.57178  -0.50932  -0.50487  -0.44120  -0.41855
 Alpha virt. eigenvalues --    0.03671   0.04316   0.04688   0.04900   0.06600
 Alpha virt. eigenvalues --    0.07161   0.10179   0.10295   0.12126   0.14267
 Alpha virt. eigenvalues --    0.14945   0.15146   0.16165   0.16706   0.17785

 Mulliken charges:
               1
     1  H    0.097410
     2  H    0.049819
     3  C    0.629120
     4  H    0.079861
     5  H    0.052221
     6  C    0.307047
     7  O   -1.274027
     8  O   -1.243410
     9  H    0.125282
    10  H    0.029949
    11  C    1.146728
 Sum of Mulliken charges =  -0.00000

 Dipole moment (field-independent basis, Debye):
    X=             -1.2583    Y=              0.3571    Z=              0.7474  Tot=              1.5065

 Test job not archived.
 1\1\GINC-SE040\SP\RHF\Aug-CC-pVDZ\C3H6O2\OHZDE\05-Apr-2025\0\\#t hf au
 g-cc-pvdz iop(5/13=1,5/36=2,99/5=2) pseudo=read geom=check guess=(read
 ,tcheck) scf=(maxcycle=1)\\title\\0,1\H,0,-1.638593,-1.153756,0.688314
 \H,0,-1.454271,-0.881074,-1.060827\C,0,-1.031076,-0.669148,-0.077087\H
 ,0,-0.970288,1.084448,1.22513\H,0,-1.528273,1.455561,-0.426021\C,0,-0.
 860191,0.833461,0.164191\O,0,0.306808,-1.179852,-0.027728\O,0,0.477289
 ,1.074627,-0.266338\H,0,1.499157,0.00111,1.176675\H,0,2.050598,-0.1975
 73,-0.525731\C,0,1.186084,-0.075466,0.125395\\Version=ES64L-G16RevC.01

 Normal termination of Gaussian 16 at Sat Apr  5 22:22:29 2025.
