 Gaussian 16, Revision C.01,

 ----------------------------------------------------------------------
 #t hf aug-cc-pvdz symm=none int=(grid=ultrafine) guess=(read,tcheck) s
 table=(opt,rrhf)
 ----------------------------------------------------------------------
 -----
 title
 -----
 Symbolic Z-matrix:
 Charge =  0 Multiplicity = 1

 SCF Done:  E(RHF) =  -1460.02329321     A.U. after   16 cycles
 Normal termination of Gaussian 16 at Sat Apr  5 22:22:22 2025.
 Gaussian 16:  ES64L-G16RevC.01  3-Jul-2019

 ----------------------------------------------------------------------
 #t hf aug-cc-pvdz iop(5/13=1,5/36=2,99/5=2) pseudo=read geom=check gue
 ss=(read,tcheck) scf=(maxcycle=1)
 ----------------------------------------------------------------------
 -----
 title
 -----
 Structure from the checkpoint file:  "1-3-benzodithiole-2-thione.chk"
 Charge =  0 Multiplicity = 1

                         Standard orientation:
 ---------------------------------------------------------------------
 Center     Atomic      Atomic             Coordinates (Angstroms)
 Number     Number       Type             X           Y           Z
 ---------------------------------------------------------------------
      1         16           0       -0.000000    0.000000    3.335105
      2          6           0       -0.000000    0.000000    1.696705
      3         16           0       -0.000000    1.461876    0.723589
      4          6           0        0.000039    0.699784   -0.860302
      5          6           0        0.000068    1.401474   -2.063160
      6          6           0        0.000035    0.696981   -3.258264
      7          6           0       -0.000035   -0.696981   -3.258264
      8          6           0       -0.000068   -1.401474   -2.063160
      9          6           0       -0.000039   -0.699784   -0.860302
     10         16           0       -0.000000   -1.461876    0.723589
     11          1           0        0.000110    2.482729   -2.063133
     12          1           0        0.000064    1.236910   -4.194881
     13          1           0       -0.000064   -1.236910   -4.194881
     14          1           0       -0.000110   -2.482729   -2.063133
 ---------------------------------------------------------------------

 SCF Done:  E(RHF) =  -1460.46368926     A.U. after    2 cycles

 The electronic state is 1-A.
 Alpha  occ. eigenvalues --  -94.00968 -94.00960 -93.92955 -11.39084 -11.30957
 Alpha  occ. eigenvalues --  -11.30881 -11.27893 -11.27857 -11.27214 -11.27142
 Alpha  occ. eigenvalues --   -8.29137  -8.29119  -8.21198  -6.26914  -6.26907
 Alpha  occ. eigenvalues --   -6.26767  -6.26767  -6.26549  -6.26548  -6.19053
 Alpha  occ. eigenvalues --   -6.18768  -6.18615  -1.23846  -1.16720  -1.09740
 Alpha  occ. eigenvalues --   -1.07204  -1.02267  -0.98056  -0.86646  -0.84629
 Alpha  occ. eigenvalues --   -0.77555  -0.71342  -0.67991  -0.67515  -0.64297
 Alpha  occ. eigenvalues --   -0.59406  -0.59120  -0.56251  -0.54629  -0.52229
 Alpha  occ. eigenvalues --   -0.51443  -0.48995  -0.44925  -0.40903  -0.35943
 Alpha  occ. eigenvalues --   -0.35343  -0.31765
 Alpha virt. eigenvalues --    0.02595   0.03041   0.03603   0.03938   0.05562
 Alpha virt. eigenvalues --    0.06952   0.07173   0.07742   0.08610   0.09722
 Alpha virt. eigenvalues --    0.09738   0.10391   0.10452   0.11372   0.12357

 Mulliken charges:
               1
     1  S    0.198777
     2  C   -1.253665
     3  S    0.726074
     4  C   -0.071828
     5  C    0.135365
     6  C    0.161157
     7  C    0.161157
     8  C    0.135365
     9  C   -0.071828
    10  S    0.726074
    11  H   -0.208710
    12  H   -0.214614
    13  H   -0.214614
    14  H   -0.208710
 Sum of Mulliken charges =  -0.00000

 Dipole moment (field-independent basis, Debye):
    X=             -0.0000    Y=              0.0000    Z=             -5.4692  Tot=              5.4692

 Test job not archived.
 1\1\GINC-SE106\SP\RHF\Aug-CC-pVDZ\C7H4S3\OHZDE\05-Apr-2025\0\\#t hf au
 g-cc-pvdz iop(5/13=1,5/36=2,99/5=2) pseudo=read geom=check guess=(read
 ,tcheck) scf=(maxcycle=1)\\title\\0,1\S,0,0.,0.,3.335105\C,0,0.,0.,1.6
 96705\S,0,0.,1.461876,0.723589\C,0,0.000039,0.699784,-0.860302\C,0,0.0
 00068,1.401474,-2.06316\C,0,0.000035,0.696981,-3.258264\C,0,-0.000035,
 -0.696981,-3.258264\C,0,-0.000068,-1.401474,-2.06316\C,0,-0.000039,-0.
 699784,-0.860302\S,0,0.,-1.461876,0.723589\H,0,0.00011,2.482729,-2.063
 133\H,0,0.000064,1.23691,-4.194881\H,0,-0.000064,-1.23691,-4.194881\H,

 Normal termination of Gaussian 16 at Sat Apr  5 22:22:32 2025.
