 Gaussian 16, Revision C.01,

 ----------------------------------------------------------------------
 #t hf aug-cc-pvdz symm=none int=(grid=ultrafine) guess=(read,tcheck) s
 table=(opt,rrhf)
 ----------------------------------------------------------------------
 -----
 title
 -----
 Symbolic Z-matrix:
 Charge =  0 Multiplicity = 1

 SCF Done:  E(RHF) =  -1075.17163146     A.U. after   13 cycles

 1\1\GINC-SE198\Stability\RHF\Aug-CC-pVDZ\C4H8Cl2\OHZDE\05-Apr-2025\0\\
 #t hf aug-cc-pvdz symm=none int=(grid=ultrafine) guess=(read,tcheck) s
 table=(opt,rrhf)\\title\\0,1\C,0,-2.173897,1.524699,-0.102751\H,0,-2.2
 10085,1.552101,-1.1915\H,0,-3.180147,1.347902,0.271737\H,0,-1.838899,2
 .500384,0.255787\C,0,-1.216511,0.451803,0.380282\H,0,-1.22285,0.398251
 ,1.467431\Cl,0,-1.855348,-1.193546,-0.136424\C,0,0.204566,0.645728,-0.
 1355\H,0,0.51627,1.656393,0.140769\H,0,0.207952,0.595476,-1.225135\C,0
 ,1.199715,-0.350388,0.431283\H,0,1.239358,-0.310969,1.516948\H,0,0.984

 Normal termination of Gaussian 16 at Sat Apr  5 22:21:07 2025.
 Gaussian 16:  ES64L-G16RevC.01  3-Jul-2019

 ----------------------------------------------------------------------
 #t hf aug-cc-pvdz iop(5/13=1,5/36=2,99/5=2) pseudo=read geom=check gue
 ss=(read,tcheck) scf=(maxcycle=1)
 ----------------------------------------------------------------------
 -----
 title
 -----
 Structure from the checkpoint file:  "1-3-dichlorobutane.chk"
 Charge =  0 Multiplicity = 1

                         Standard orientation:
 ---------------------------------------------------------------------
 Center     Atomic      Atomic             Coordinates (Angstroms)
 Number     Number       Type             X           Y           Z
 ---------------------------------------------------------------------
      1          6           0       -2.173897    1.524699   -0.102751
      2          1           0       -2.210085    1.552101   -1.191500
      3          1           0       -3.180147    1.347902    0.271737
      4          1           0       -1.838899    2.500384    0.255787
      5          6           0       -1.216511    0.451803    0.380282
      6          1           0       -1.222850    0.398251    1.467431
      7         17           0       -1.855348   -1.193546   -0.136424
      8          6           0        0.204566    0.645728   -0.135500
      9          1           0        0.516270    1.656393    0.140769
     10          1           0        0.207952    0.595476   -1.225135
     11          6           0        1.199715   -0.350388    0.431283
     12          1           0        1.239358   -0.310969    1.516948
     13          1           0        0.984119   -1.365316    0.116205
     14         17           0        2.880115    0.016766   -0.145466
 ---------------------------------------------------------------------

 SCF Done:  E(RHF) =  -1075.49705629     A.U. after    2 cycles

 The electronic state is 1-A.
 Alpha  occ. eigenvalues -- -105.55729-105.55674 -11.32391 -11.30944 -11.26395
 Alpha  occ. eigenvalues --  -11.25222 -10.60543 -10.60470  -7.77468  -7.77409
 Alpha  occ. eigenvalues --   -7.77127  -7.77114  -7.77043  -7.77033  -1.15690
 Alpha  occ. eigenvalues --   -1.09823  -1.00699  -0.98235  -0.86936  -0.81442
 Alpha  occ. eigenvalues --   -0.68820  -0.65024  -0.62821  -0.61441  -0.56562
 Alpha  occ. eigenvalues --   -0.55362  -0.54379  -0.52089  -0.50507  -0.45903
 Alpha  occ. eigenvalues --   -0.44934  -0.44510  -0.43831
 Alpha virt. eigenvalues --    0.03126   0.03733   0.04428   0.04956   0.06335
 Alpha virt. eigenvalues --    0.06663   0.07263   0.08379   0.10032   0.10632
 Alpha virt. eigenvalues --    0.11456   0.12998   0.14409   0.15275   0.15543

 Mulliken charges:
               1
     1  C   -0.173821
     2  H    0.218860
     3  H    0.138191
     4  H    0.194614
     5  C   -0.556279
     6  H    0.158795
     7  Cl  -0.138755
     8  C   -0.110044
     9  H    0.208376
    10  H    0.189990
    11  C   -0.503163
    12  H    0.212960
    13  H    0.241766
    14  Cl  -0.081489
 Sum of Mulliken charges =   0.00000

 Dipole moment (field-independent basis, Debye):
    X=             -1.5274    Y=              1.9293    Z=              1.1783  Tot=              2.7283

 Test job not archived.
 1\1\GINC-SE198\SP\RHF\Aug-CC-pVDZ\C4H8Cl2\OHZDE\05-Apr-2025\0\\#t hf a
 ug-cc-pvdz iop(5/13=1,5/36=2,99/5=2) pseudo=read geom=check guess=(rea
 d,tcheck) scf=(maxcycle=1)\\title\\0,1\C,0,-2.173897,1.524699,-0.10275
 1\H,0,-2.210085,1.552101,-1.1915\H,0,-3.180147,1.347902,0.271737\H,0,-
 1.838899,2.500384,0.255787\C,0,-1.216511,0.451803,0.380282\H,0,-1.2228
 5,0.398251,1.467431\Cl,0,-1.855348,-1.193546,-0.136424\C,0,0.204566,0.
 645728,-0.1355\H,0,0.51627,1.656393,0.140769\H,0,0.207952,0.595476,-1.
 225135\C,0,1.199715,-0.350388,0.431283\H,0,1.239358,-0.310969,1.516948

 Normal termination of Gaussian 16 at Sat Apr  5 22:22:18 2025.
