 Gaussian 16, Revision C.01,

 ----------------------------------------------------------------------
 #t hf aug-cc-pvdz symm=none int=(grid=ultrafine) guess=(read,tcheck) s
 table=(opt,rrhf)
 ----------------------------------------------------------------------
 -----
 title
 -----
 Symbolic Z-matrix:
 Charge =  0 Multiplicity = 1

 SCF Done:  E(RHF) =  -154.940627215     A.U. after   12 cycles
 Normal termination of Gaussian 16 at Sat Apr  5 22:20:51 2025.
 Gaussian 16:  ES64L-G16RevC.01  3-Jul-2019

 ----------------------------------------------------------------------
 #t hf aug-cc-pvdz iop(5/13=1,5/36=2,99/5=2) pseudo=read geom=check gue
 ss=(read,tcheck) scf=(maxcycle=1)
 ----------------------------------------------------------------------
 -----
 title
 -----
 Structure from the checkpoint file:  "1-3-butadiene.chk"
 Charge =  0 Multiplicity = 1

                         Standard orientation:
 ---------------------------------------------------------------------
 Center     Atomic      Atomic             Coordinates (Angstroms)
 Number     Number       Type             X           Y           Z
 ---------------------------------------------------------------------
      1          6           0        0.599705    1.744134    0.000000
      2          6           0       -0.599705   -1.744134    0.000000
      3          6           0        0.599705    0.409791    0.000000
      4          6           0       -0.599705   -0.409791    0.000000
      5          1           0        1.519840    2.311174    0.000000
      6          1           0       -0.324442    2.309081    0.000000
      7          1           0       -1.519840   -2.311174    0.000000
      8          1           0        0.324442   -2.309081    0.000000
      9          1           0        1.546374   -0.121919    0.000000
     10          1           0       -1.546374    0.121919    0.000000
 ---------------------------------------------------------------------

 SCF Done:  E(RHF) =  -155.107696081     A.U. after    2 cycles

 The electronic state is 1-AG.
 Alpha  occ. eigenvalues --  -11.24715 -11.24664 -11.23936 -11.23931  -1.09636
 Alpha  occ. eigenvalues --   -1.00509  -0.83351  -0.76189  -0.65893  -0.64810
 Alpha  occ. eigenvalues --   -0.57337  -0.55357  -0.50235  -0.45368  -0.33284
 Alpha virt. eigenvalues --    0.03861   0.03983   0.04113   0.06003   0.06425
 Alpha virt. eigenvalues --    0.08219   0.08818   0.11020   0.12710   0.13052
 Alpha virt. eigenvalues --    0.13579   0.14535   0.14740   0.16316   0.16956

 Mulliken charges:
               1
     1  C   -0.168261
     2  C   -0.168261
     3  C    0.608470
     4  C    0.608470
     5  H   -0.115600
     6  H   -0.091681
     7  H   -0.115600
     8  H   -0.091681
     9  H   -0.232929
    10  H   -0.232929
 Sum of Mulliken charges =   0.00000

 Dipole moment (field-independent basis, Debye):
    X=             -0.0000    Y=             -0.0000    Z=              0.0000  Tot=              0.0000

 Test job not archived.
 1\1\GINC-SE176\SP\RHF\Aug-CC-pVDZ\C4H6\OHZDE\05-Apr-2025\0\\#t hf aug-
 cc-pvdz iop(5/13=1,5/36=2,99/5=2) pseudo=read geom=check guess=(read,t
 check) scf=(maxcycle=1)\\title\\0,1\C,0,0.599705,1.744134,0.\C,0,-0.59
 9705,-1.744134,0.\C,0,0.599705,0.409791,0.\C,0,-0.599705,-0.409791,0.\
 H,0,1.51984,2.311174,0.\H,0,-0.324442,2.309081,0.\H,0,-1.51984,-2.3111
 74,0.\H,0,0.324442,-2.309081,0.\H,0,1.546374,-0.121919,0.\H,0,-1.54637
 4,0.121919,0.\\Version=ES64L-G16RevC.01\State=1-AG\HF=-155.1076961\RMS
 D=1.836e-02\Dipole=0.,0.,0.\Quadrupole=1.6105455,1.8388552,-3.4494008,

 Normal termination of Gaussian 16 at Sat Apr  5 22:20:54 2025.
