 Gaussian 16, Revision C.01,

 ----------------------------------------------------------------------
 #t hf aug-cc-pvdz symm=none int=(grid=ultrafine) guess=(read,tcheck) s
 table=(opt,rrhf)
 ----------------------------------------------------------------------
 -----
 title
 -----
 Symbolic Z-matrix:
 Charge =  0 Multiplicity = 1

 SCF Done:  E(RHF) =  -307.055797670     A.U. after   12 cycles

 1\1\GINC-SE187\Stability\RHF\Aug-CC-pVDZ\C4H10O2\OHZDE\05-Apr-2025\0\\
 #t hf aug-cc-pvdz symm=none int=(grid=ultrafine) guess=(read,tcheck) s
 table=(opt,rrhf)\\title\\0,1\O,0,1.184971,1.32915,-0.264204\H,0,2.0363
 45,1.691201,-0.001541\O,0,-2.681176,-0.346785,-0.16665\H,0,-3.437773,0
 .227118,-0.020588\C,0,2.195242,-0.882182,-0.037797\H,0,2.250223,-1.017
 985,-1.118621\H,0,3.142448,-0.457668,0.302556\H,0,2.084428,-1.861246,0
 .43082\C,0,1.029926,0.029059,0.326369\H,0,0.993181,0.139993,1.41855\C,
 0,-0.30585,-0.521316,-0.15342\H,0,-0.443749,-1.5233,0.259028\H,0,-0.28

 Normal termination of Gaussian 16 at Sat Apr  5 22:21:01 2025.
 Gaussian 16:  ES64L-G16RevC.01  3-Jul-2019

 ----------------------------------------------------------------------
 #t hf aug-cc-pvdz iop(5/13=1,5/36=2,99/5=2) pseudo=read geom=check gue
 ss=(read,tcheck) scf=(maxcycle=1)
 ----------------------------------------------------------------------
 -----
 title
 -----
 Structure from the checkpoint file:  "1-3-butanediol.chk"
 Charge =  0 Multiplicity = 1

                         Standard orientation:
 ---------------------------------------------------------------------
 Center     Atomic      Atomic             Coordinates (Angstroms)
 Number     Number       Type             X           Y           Z
 ---------------------------------------------------------------------
      1          8           0        1.184971    1.329150   -0.264204
      2          1           0        2.036345    1.691201   -0.001541
      3          8           0       -2.681176   -0.346785   -0.166650
      4          1           0       -3.437773    0.227118   -0.020588
      5          6           0        2.195242   -0.882182   -0.037797
      6          1           0        2.250223   -1.017985   -1.118621
      7          1           0        3.142448   -0.457668    0.302556
      8          1           0        2.084428   -1.861246    0.430820
      9          6           0        1.029926    0.029059    0.326369
     10          1           0        0.993181    0.139993    1.418550
     11          6           0       -0.305850   -0.521316   -0.153420
     12          1           0       -0.443749   -1.523300    0.259028
     13          1           0       -0.284509   -0.618015   -1.241427
     14          6           0       -1.493637    0.335082    0.248850
     15          1           0       -1.499349    0.479259    1.336354
     16          1           0       -1.425692    1.317864   -0.222316
 ---------------------------------------------------------------------

 SCF Done:  E(RHF) =  -307.381434686     A.U. after    2 cycles

 The electronic state is 1-A.
 Alpha  occ. eigenvalues --  -20.54607 -20.54057 -11.28967 -11.27581 -11.22987
 Alpha  occ. eigenvalues --  -11.22335  -1.44530  -1.43637  -1.06679  -0.98392
 Alpha  occ. eigenvalues --   -0.86404  -0.79758  -0.70938  -0.68428  -0.63702
 Alpha  occ. eigenvalues --   -0.62740  -0.60307  -0.55986  -0.54312  -0.52639
 Alpha  occ. eigenvalues --   -0.51559  -0.49344  -0.47317  -0.43913  -0.43183
 Alpha virt. eigenvalues --    0.03334   0.03774   0.04304   0.04481   0.05992
 Alpha virt. eigenvalues --    0.06643   0.06817   0.07246   0.09155   0.10011
 Alpha virt. eigenvalues --    0.11771   0.12976   0.14368   0.15296   0.16187

 Mulliken charges:
               1
     1  O   -1.316273
     2  H    0.288606
     3  O   -1.247017
     4  H    0.331444
     5  C   -0.349829
     6  H    0.217577
     7  H    0.090299
     8  H    0.181044
     9  C    0.759853
    10  H    0.126739
    11  C   -0.548569
    12  H    0.170880
    13  H    0.153757
    14  C    0.909247
    15  H    0.094654
    16  H    0.137588
 Sum of Mulliken charges =  -0.00000

 Dipole moment (field-independent basis, Debye):
    X=              1.2957    Y=              0.6888    Z=              1.5090  Tot=              2.1048

 Test job not archived.
 1\1\GINC-SE187\SP\RHF\Aug-CC-pVDZ\C4H10O2\OHZDE\05-Apr-2025\0\\#t hf a
 ug-cc-pvdz iop(5/13=1,5/36=2,99/5=2) pseudo=read geom=check guess=(rea
 d,tcheck) scf=(maxcycle=1)\\title\\0,1\O,0,1.184971,1.32915,-0.264204\
 H,0,2.036345,1.691201,-0.001541\O,0,-2.681176,-0.346785,-0.16665\H,0,-
 3.437773,0.227118,-0.020588\C,0,2.195242,-0.882182,-0.037797\H,0,2.250
 223,-1.017985,-1.118621\H,0,3.142448,-0.457668,0.302556\H,0,2.084428,-
 1.861246,0.43082\C,0,1.029926,0.029059,0.326369\H,0,0.993181,0.139993,
 1.41855\C,0,-0.30585,-0.521316,-0.15342\H,0,-0.443749,-1.5233,0.259028

 Normal termination of Gaussian 16 at Sat Apr  5 22:21:07 2025.
