 Gaussian 16, Revision C.01,

 ----------------------------------------------------------------------
 #t hf aug-cc-pvdz symm=none int=(grid=ultrafine) guess=(read,tcheck) s
 table=(opt,rrhf)
 ----------------------------------------------------------------------
 -----
 title
 -----
 Symbolic Z-matrix:
 Charge =  0 Multiplicity = 1

 SCF Done:  E(RHF) =  -1040.54558815     A.U. after   16 cycles
 Normal termination of Gaussian 16 at Sat Apr  5 22:22:37 2025.
 Gaussian 16:  ES64L-G16RevC.01  3-Jul-2019

 ----------------------------------------------------------------------
 #t hf aug-cc-pvdz iop(5/13=1,5/36=2,99/5=2) pseudo=read geom=check gue
 ss=(read,tcheck) scf=(maxcycle=1)
 ----------------------------------------------------------------------
 -----
 title
 -----
 Structure from the checkpoint file:  "1-3-thiazol-5-ylacetylenethiol.chk"
 Charge =  0 Multiplicity = 1

                         Standard orientation:
 ---------------------------------------------------------------------
 Center     Atomic      Atomic             Coordinates (Angstroms)
 Number     Number       Type             X           Y           Z
 ---------------------------------------------------------------------
      1         16           0        1.614785   -1.191862    0.001186
      2         16           0       -3.692874   -0.024363   -0.096618
      3          7           0        2.742645    1.118425   -0.006729
      4          6           0        0.591906    0.228939    0.007977
      5          6           0        1.399557    1.341512    0.002099
      6          6           0        3.000380   -0.156035   -0.008147
      7          6           0       -0.807791    0.156773    0.016980
      8          6           0       -2.014959    0.076694    0.041513
      9          1           0        1.022687    2.352845    0.003954
     10          1           0        3.998149   -0.568105   -0.014777
     11          1           0       -3.984497   -0.041414    1.222310
 ---------------------------------------------------------------------

 SCF Done:  E(RHF) =  -1040.90534541     A.U. after    2 cycles

 The electronic state is 1-A.
 Alpha  occ. eigenvalues --  -94.00387 -93.99999 -15.52503 -11.33322 -11.30292
 Alpha  occ. eigenvalues --  -11.29680 -11.27775 -11.26440  -8.28569  -8.27936
 Alpha  occ. eigenvalues --   -6.26314  -6.26228  -6.26017  -6.25813  -6.25633
 Alpha  occ. eigenvalues --   -6.25405  -1.30598  -1.13021  -1.10143  -1.05098
 Alpha  occ. eigenvalues --   -0.99680  -0.87340  -0.81236  -0.75800  -0.67418
 Alpha  occ. eigenvalues --   -0.64598  -0.62220  -0.60294  -0.55666  -0.54691
 Alpha  occ. eigenvalues --   -0.48929  -0.47690  -0.46791  -0.40935  -0.36030
 Alpha  occ. eigenvalues --   -0.34236
 Alpha virt. eigenvalues --    0.03380   0.03711   0.04877   0.05119   0.06882
 Alpha virt. eigenvalues --    0.07220   0.08035   0.09158   0.09386   0.10649
 Alpha virt. eigenvalues --    0.11440   0.12022   0.12579   0.13268   0.13705

 Mulliken charges:
               1
     1  S    0.285354
     2  S   -0.019919
     3  N    0.640297
     4  C   -0.448313
     5  C   -0.295767
     6  C   -0.666443
     7  C    1.132359
     8  C   -0.732705
     9  H   -0.156427
    10  H   -0.036486
    11  H    0.298049
 Sum of Mulliken charges =  -0.00000

 Dipole moment (field-independent basis, Debye):
    X=             -0.4584    Y=             -1.2853    Z=              0.9004  Tot=              1.6349

 Test job not archived.
 1\1\GINC-SE011\SP\RHF\Aug-CC-pVDZ\C5H3N1S2\OHZDE\05-Apr-2025\0\\#t hf
 aug-cc-pvdz iop(5/13=1,5/36=2,99/5=2) pseudo=read geom=check guess=(re
 ad,tcheck) scf=(maxcycle=1)\\title\\0,1\S,0,1.614785,-1.191862,0.00118
 6\S,0,-3.692874,-0.024363,-0.096618\N,0,2.742645,1.118425,-0.006729\C,
 0,0.591906,0.228939,0.007977\C,0,1.399557,1.341512,0.002099\C,0,3.0003
 8,-0.156035,-0.008147\C,0,-0.807791,0.156773,0.01698\C,0,-2.014959,0.0
 76694,0.041513\H,0,1.022687,2.352845,0.003954\H,0,3.998149,-0.568105,-
 0.014777\H,0,-3.984497,-0.041414,1.22231\\Version=ES64L-G16RevC.01\Sta

 Normal termination of Gaussian 16 at Sat Apr  5 22:23:22 2025.
