 Gaussian 16, Revision C.01,

 ----------------------------------------------------------------------
 #t hf aug-cc-pvdz symm=none int=(grid=ultrafine) guess=(read,tcheck) s
 table=(opt,rrhf)
 ----------------------------------------------------------------------
 -----
 title
 -----
 Symbolic Z-matrix:
 Charge =  0 Multiplicity = 1

 SCF Done:  E(RHF) =  -1056.58362928     A.U. after   16 cycles
 Normal termination of Gaussian 16 at Sat Apr  5 22:22:33 2025.
 Gaussian 16:  ES64L-G16RevC.01  3-Jul-2019

 ----------------------------------------------------------------------
 #t hf aug-cc-pvdz iop(5/13=1,5/36=2,99/5=2) pseudo=read geom=check gue
 ss=(read,tcheck) scf=(maxcycle=1)
 ----------------------------------------------------------------------
 -----
 title
 -----
 Structure from the checkpoint file:  "1-3-thiazol-2-yl_thiocyanate.chk"
 Charge =  0 Multiplicity = 1

                         Standard orientation:
 ---------------------------------------------------------------------
 Center     Atomic      Atomic             Coordinates (Angstroms)
 Number     Number       Type             X           Y           Z
 ---------------------------------------------------------------------
      1         16           0       -0.684744    1.213061   -0.000080
      2         16           0        1.377318   -1.154886    0.000075
      3          7           0       -1.268379   -1.298952    0.000129
      4          7           0        2.990519    1.193133   -0.000175
      5          6           0       -0.269821   -0.479529    0.000045
      6          6           0       -2.349814    0.743056   -0.000014
      7          6           0       -2.455845   -0.611093    0.000096
      8          6           0        2.305403    0.262740   -0.000076
      9          1           0       -3.132667    1.481541   -0.000061
     10          1           0       -3.383034   -1.162635    0.000156
 ---------------------------------------------------------------------

 SCF Done:  E(RHF) =  -1056.95339422     A.U. after    2 cycles

 The electronic state is 1-A.
 Alpha  occ. eigenvalues --  -94.04539 -94.01955 -15.54517 -15.53981 -11.37597
 Alpha  occ. eigenvalues --  -11.32179 -11.30102 -11.29730  -8.32524  -8.30117
 Alpha  occ. eigenvalues --   -6.30354  -6.30141  -6.29889  -6.27864  -6.27773
 Alpha  occ. eigenvalues --   -6.27548  -1.32842  -1.26361  -1.14247  -1.12209
 Alpha  occ. eigenvalues --   -1.02367  -0.86494  -0.79821  -0.75199  -0.68589
 Alpha  occ. eigenvalues --   -0.64273  -0.62972  -0.62643  -0.58482  -0.57034
 Alpha  occ. eigenvalues --   -0.54092  -0.52665  -0.48547  -0.46072  -0.43229
 Alpha  occ. eigenvalues --   -0.35977
 Alpha virt. eigenvalues --    0.02898   0.03919   0.05743   0.06085   0.07122
 Alpha virt. eigenvalues --    0.07804   0.08188   0.09990   0.10160   0.10985
 Alpha virt. eigenvalues --    0.11847   0.12076   0.12406   0.12760   0.12797

 Mulliken charges:
               1
     1  S    0.621566
     2  S    1.087758
     3  N    0.969322
     4  N    0.738131
     5  C   -1.572378
     6  C   -0.104219
     7  C   -0.019218
     8  C   -1.478618
     9  H   -0.149240
    10  H   -0.093104
 Sum of Mulliken charges =  -0.00000

 Dipole moment (field-independent basis, Debye):
    X=             -3.7102    Y=             -0.4728    Z=              0.0001  Tot=              3.7402

 Test job not archived.
 1\1\GINC-SE146\SP\RHF\Aug-CC-pVDZ\C4H2N2S2\OHZDE\05-Apr-2025\0\\#t hf
 aug-cc-pvdz iop(5/13=1,5/36=2,99/5=2) pseudo=read geom=check guess=(re
 ad,tcheck) scf=(maxcycle=1)\\title\\0,1\S,0,-0.684744,1.213061,-0.0000
 8\S,0,1.377318,-1.154886,0.000075\N,0,-1.268379,-1.298952,0.000129\N,0
 ,2.990519,1.193133,-0.000175\C,0,-0.269821,-0.479529,0.000045\C,0,-2.3
 49814,0.743056,-0.000014\C,0,-2.455845,-0.611093,0.000096\C,0,2.305403
 ,0.26274,-0.000076\H,0,-3.132667,1.481541,-0.000061\H,0,-3.383034,-1.1
 62635,0.000156\\Version=ES64L-G16RevC.01\State=1-A\HF=-1056.9533942\RM

 Normal termination of Gaussian 16 at Sat Apr  5 22:22:38 2025.
