 Gaussian 16, Revision C.01,

 ----------------------------------------------------------------------
 #t hf aug-cc-pvdz symm=none int=(grid=ultrafine) guess=(read,tcheck) s
 table=(opt,rrhf)
 ----------------------------------------------------------------------
 -----
 title
 -----
 Symbolic Z-matrix:
 Charge =  0 Multiplicity = 1

 SCF Done:  E(RHF) =  -1308.53120845     A.U. after   15 cycles
 Normal termination of Gaussian 16 at Sat Apr  5 22:22:28 2025.
 Gaussian 16:  ES64L-G16RevC.01  3-Jul-2019

 ----------------------------------------------------------------------
 #t hf aug-cc-pvdz iop(5/13=1,5/36=2,99/5=2) pseudo=read geom=check gue
 ss=(read,tcheck) scf=(maxcycle=1)
 ----------------------------------------------------------------------
 -----
 title
 -----
 Structure from the checkpoint file:  "1-3-dithiolane-2-thione.chk"
 Charge =  0 Multiplicity = 1

                         Standard orientation:
 ---------------------------------------------------------------------
 Center     Atomic      Atomic             Coordinates (Angstroms)
 Number     Number       Type             X           Y           Z
 ---------------------------------------------------------------------
      1          1           0        0.649149    1.161865   -2.677287
      2          1           0       -0.649149   -1.161865   -2.677287
      3         16           0        0.000000    0.000000    2.320077
      4          6           0        0.000000    0.000000    0.684261
      5         16           0       -0.642955   -1.323450   -0.281165
      6         16           0        0.642955    1.323450   -0.281165
      7          1           0        1.004355   -1.158971   -2.032629
      8          6           0        0.000000   -0.759876   -1.900808
      9          1           0       -1.004355    1.158971   -2.032629
     10          6           0       -0.000000    0.759876   -1.900808
 ---------------------------------------------------------------------

 SCF Done:  E(RHF) =  -1308.82658512     A.U. after    2 cycles

 The electronic state is 1-A.
 Alpha  occ. eigenvalues --  -93.99157 -93.99156 -93.92672 -11.38210 -11.30814
 Alpha  occ. eigenvalues --  -11.30789  -8.27303  -8.27288  -8.20930  -6.25086
 Alpha  occ. eigenvalues --   -6.25078  -6.24930  -6.24928  -6.24716  -6.24716
 Alpha  occ. eigenvalues --   -6.18778  -6.18512  -6.18340  -1.20268  -1.08745
 Alpha  occ. eigenvalues --   -1.05245  -0.96096  -0.85510  -0.72635  -0.69252
 Alpha  occ. eigenvalues --   -0.65409  -0.58837  -0.58084  -0.53615  -0.51254
 Alpha  occ. eigenvalues --   -0.51231  -0.46284  -0.38599  -0.35140  -0.34447
 Alpha virt. eigenvalues --    0.02419   0.03353   0.03949   0.04613   0.05625
 Alpha virt. eigenvalues --    0.06989   0.08473   0.09330   0.10302   0.11341
 Alpha virt. eigenvalues --    0.11717   0.12753   0.13559   0.14899   0.14912

 Mulliken charges:
               1
     1  H    0.226341
     2  H    0.226341
     3  S    0.359036
     4  C   -1.203671
     5  S    0.660914
     6  S    0.660914
     7  H    0.211474
     8  C   -0.676411
     9  H    0.211474
    10  C   -0.676411
 Sum of Mulliken charges =  -0.00000

 Dipole moment (field-independent basis, Debye):
    X=             -0.0000    Y=              0.0000    Z=             -5.6638  Tot=              5.6638

 Test job not archived.
 1\1\GINC-SE052\SP\RHF\Aug-CC-pVDZ\C3H4S3\OHZDE\05-Apr-2025\0\\#t hf au
 g-cc-pvdz iop(5/13=1,5/36=2,99/5=2) pseudo=read geom=check guess=(read
 ,tcheck) scf=(maxcycle=1)\\title\\0,1\H,0,0.649149,1.161865,-2.677287\
 H,0,-0.649149,-1.161865,-2.677287\S,0,0.,0.,2.320077\C,0,0.,0.,0.68426
 1\S,0,-0.642955,-1.32345,-0.281165\S,0,0.642955,1.32345,-0.281165\H,0,
 1.004355,-1.158971,-2.032629\C,0,0.,-0.759876,-1.900808\H,0,-1.004355,
 1.158971,-2.032629\C,0,0.,0.759876,-1.900808\\Version=ES64L-G16RevC.01
 \State=1-A\HF=-1308.8265851\RMSD=6.759e-03\Dipole=0.,0.,-2.2283027\Qua

 Normal termination of Gaussian 16 at Sat Apr  5 22:22:32 2025.
