 Gaussian 16, Revision C.01,

 ----------------------------------------------------------------------
 #t hf aug-cc-pvdz symm=none int=(grid=ultrafine) guess=(read,tcheck) s
 table=(opt,rrhf)
 ----------------------------------------------------------------------
 -----
 title
 -----
 Symbolic Z-matrix:
 Charge =  0 Multiplicity = 1

 SCF Done:  E(RHF) =  -406.463809692     A.U. after   15 cycles
 Normal termination of Gaussian 16 at Sat Apr  5 22:22:28 2025.
 Gaussian 16:  ES64L-G16RevC.01  3-Jul-2019

 ----------------------------------------------------------------------
 #t hf aug-cc-pvdz iop(5/13=1,5/36=2,99/5=2) pseudo=read geom=check gue
 ss=(read,tcheck) scf=(maxcycle=1)
 ----------------------------------------------------------------------
 -----
 title
 -----
 Structure from the checkpoint file:  "1-3-difluoropyrrole.chk"
 Charge =  0 Multiplicity = 1

                         Standard orientation:
 ---------------------------------------------------------------------
 Center     Atomic      Atomic             Coordinates (Angstroms)
 Number     Number       Type             X           Y           Z
 ---------------------------------------------------------------------
      1          9           0        2.330214   -0.536042    0.000001
      2          9           0       -2.393334   -0.522974   -0.000003
      3          7           0        1.036400   -0.102187   -0.000000
      4          6           0       -1.116301   -0.113298   -0.000000
      5          6           0       -0.028009   -0.957326   -0.000003
      6          6           0        0.691209    1.205519    0.000003
      7          6           0       -0.693561    1.228172    0.000003
      8          1           0        0.078795   -2.024555   -0.000006
      9          1           0        1.428370    1.986186    0.000006
     10          1           0       -1.313902    2.106420    0.000004
 ---------------------------------------------------------------------

 SCF Done:  E(RHF) =  -406.854553584     A.U. after    2 cycles

 The electronic state is 1-A.
 Alpha  occ. eigenvalues --  -26.53616 -26.47994 -15.65513 -11.33081 -11.29857
 Alpha  occ. eigenvalues --  -11.28848 -11.24881  -1.65829  -1.60817  -1.31779
 Alpha  occ. eigenvalues --   -1.05788  -1.04498  -0.85538  -0.83786  -0.79322
 Alpha  occ. eigenvalues --   -0.75271  -0.72058  -0.69256  -0.67702  -0.66386
 Alpha  occ. eigenvalues --   -0.63956  -0.61411  -0.59236  -0.55732  -0.38627
 Alpha  occ. eigenvalues --   -0.34190
 Alpha virt. eigenvalues --    0.03500   0.04337   0.04637   0.08127   0.08677
 Alpha virt. eigenvalues --    0.09335   0.11855   0.12013   0.12577   0.13273
 Alpha virt. eigenvalues --    0.14228   0.15320   0.15456   0.15798   0.15985

 Mulliken charges:
               1
     1  F   -0.766368
     2  F   -0.906219
     3  N    1.432258
     4  C    1.149018
     5  C   -0.421830
     6  C   -0.616396
     7  C    0.471014
     8  H   -0.113461
     9  H   -0.135640
    10  H   -0.092375
 Sum of Mulliken charges =  -0.00000

 Dipole moment (field-independent basis, Debye):
    X=              1.0837    Y=              0.8035    Z=              0.0000  Tot=              1.3491

 Test job not archived.
 1\1\GINC-SE028\SP\RHF\Aug-CC-pVDZ\C4H3F2N1\OHZDE\05-Apr-2025\0\\#t hf
 aug-cc-pvdz iop(5/13=1,5/36=2,99/5=2) pseudo=read geom=check guess=(re
 ad,tcheck) scf=(maxcycle=1)\\title\\0,1\F,0,2.330214,-0.536042,0.00000
 1\F,0,-2.393334,-0.522974,-0.000003\N,0,1.0364,-0.102187,0.\C,0,-1.116
 301,-0.113298,0.\C,0,-0.028009,-0.957326,-0.000003\C,0,0.691209,1.2055
 19,0.000003\C,0,-0.693561,1.228172,0.000003\H,0,0.078795,-2.024555,-0.
 000006\H,0,1.42837,1.986186,0.000006\H,0,-1.313902,2.10642,0.000004\\V
 ersion=ES64L-G16RevC.01\State=1-A\HF=-406.8545536\RMSD=2.235e-02\Dipol

 Normal termination of Gaussian 16 at Sat Apr  5 22:22:32 2025.
