 Gaussian 16, Revision C.01,

 ----------------------------------------------------------------------
 #t hf aug-cc-pvdz symm=none int=(grid=ultrafine) guess=(read,tcheck) s
 table=(opt,rrhf)
 ----------------------------------------------------------------------
 -----
 title
 -----
 Symbolic Z-matrix:
 Charge =  0 Multiplicity = 1

 SCF Done:  E(RHF) =  -966.053602612     A.U. after   15 cycles
 Normal termination of Gaussian 16 at Sat Apr  5 22:22:31 2025.
 Gaussian 16:  ES64L-G16RevC.01  3-Jul-2019

 ----------------------------------------------------------------------
 #t hf aug-cc-pvdz iop(5/13=1,5/36=2,99/5=2) pseudo=read geom=check gue
 ss=(read,tcheck) scf=(maxcycle=1)
 ----------------------------------------------------------------------
 -----
 title
 -----
 Structure from the checkpoint file:  "1-3-thiazolidine-2-thione.chk"
 Charge =  0 Multiplicity = 1

                         Standard orientation:
 ---------------------------------------------------------------------
 Center     Atomic      Atomic             Coordinates (Angstroms)
 Number     Number       Type             X           Y           Z
 ---------------------------------------------------------------------
      1         16           0        2.227257    0.061467    0.015437
      2          6           0        0.580287    0.139250    0.025344
      3          7           0       -0.170607    1.260373    0.108482
      4          6           0       -1.590238    1.151842   -0.196876
      5          6           0       -1.989229   -0.260741    0.225693
      6         16           0       -0.486681   -1.273692   -0.086772
      7          1           0        0.312643    2.142650    0.044203
      8          1           0       -1.765588    1.297506   -1.267875
      9          1           0       -2.152266    1.906954    0.352089
     10          1           0       -2.821611   -0.645528   -0.356536
     11          1           0       -2.233067   -0.310700    1.285146
 ---------------------------------------------------------------------

 SCF Done:  E(RHF) =  -966.348766426     A.U. after    2 cycles

 The electronic state is 1-A.
 Alpha  occ. eigenvalues --  -93.98142 -93.90069 -15.55977 -11.38038 -11.31369
 Alpha  occ. eigenvalues --  -11.30031  -8.26299  -8.18361  -6.24068  -6.23945
 Alpha  occ. eigenvalues --   -6.23705  -6.16239  -6.15910  -6.15799  -1.31048
 Alpha  occ. eigenvalues --   -1.10396  -1.08274  -0.96583  -0.87992  -0.83383
 Alpha  occ. eigenvalues --   -0.72516  -0.69599  -0.61844  -0.60014  -0.59367
 Alpha  occ. eigenvalues --   -0.54268  -0.52148  -0.48853  -0.40169  -0.34377
 Alpha  occ. eigenvalues --   -0.33717
 Alpha virt. eigenvalues --    0.02421   0.03526   0.03800   0.04866   0.05885
 Alpha virt. eigenvalues --    0.07684   0.08293   0.08897   0.10018   0.11115
 Alpha virt. eigenvalues --    0.12225   0.13272   0.13571   0.15125   0.15756

 Mulliken charges:
               1
     1  S    0.289972
     2  C   -1.450080
     3  N    0.762548
     4  C   -0.205520
     5  C   -0.650302
     6  S    0.681252
     7  H    0.059642
     8  H    0.058280
     9  H    0.082328
    10  H    0.214069
    11  H    0.157811
 Sum of Mulliken charges =  -0.00000

 Dipole moment (field-independent basis, Debye):
    X=             -5.7846    Y=              2.1745    Z=             -0.1199  Tot=              6.1810

 Test job not archived.
 1\1\GINC-SE013\SP\RHF\Aug-CC-pVDZ\C3H5N1S2\OHZDE\05-Apr-2025\0\\#t hf
 aug-cc-pvdz iop(5/13=1,5/36=2,99/5=2) pseudo=read geom=check guess=(re
 ad,tcheck) scf=(maxcycle=1)\\title\\0,1\S,0,2.227257,0.061467,0.015437
 \C,0,0.580287,0.13925,0.025344\N,0,-0.170607,1.260373,0.108482\C,0,-1.
 590238,1.151842,-0.196876\C,0,-1.989229,-0.260741,0.225693\S,0,-0.4866
 81,-1.273692,-0.086772\H,0,0.312643,2.14265,0.044203\H,0,-1.765588,1.2
 97506,-1.267875\H,0,-2.152266,1.906954,0.352089\H,0,-2.821611,-0.64552
 8,-0.356536\H,0,-2.233067,-0.3107,1.285146\\Version=ES64L-G16RevC.01\S

 Normal termination of Gaussian 16 at Sat Apr  5 22:22:36 2025.
