 Gaussian 16, Revision C.01,

 ----------------------------------------------------------------------
 #t hf aug-cc-pvdz symm=none int=(grid=ultrafine) guess=(read,tcheck) s
 table=(opt,rrhf)
 ----------------------------------------------------------------------
 -----
 title
 -----
 Symbolic Z-matrix:
 Charge =  0 Multiplicity = 1

 SCF Done:  E(RHF) =  -299.746646892     A.U. after   13 cycles
 Normal termination of Gaussian 16 at Sat Apr  5 22:22:23 2025.
 Gaussian 16:  ES64L-G16RevC.01  3-Jul-2019

 ----------------------------------------------------------------------
 #t hf aug-cc-pvdz iop(5/13=1,5/36=2,99/5=2) pseudo=read geom=check gue
 ss=(read,tcheck) scf=(maxcycle=1)
 ----------------------------------------------------------------------
 -----
 title
 -----
 Structure from the checkpoint file:  "1-3-dihydro-2H-imidazol-2-one.chk"
 Charge =  0 Multiplicity = 1

                         Standard orientation:
 ---------------------------------------------------------------------
 Center     Atomic      Atomic             Coordinates (Angstroms)
 Number     Number       Type             X           Y           Z
 ---------------------------------------------------------------------
      1          6           0        0.000000    0.672790   -1.380599
      2          6           0       -0.000000   -0.672790   -1.380599
      3          6           0        0.000000    0.000000    0.812326
      4          7           0        0.000000    1.085426   -0.051191
      5          7           0       -0.000000   -1.085426   -0.051191
      6          8           0        0.000000    0.000000    2.030042
      7          1           0        0.000000    1.365081   -2.201042
      8          1           0       -0.000000   -1.365081   -2.201042
      9          1           0        0.000000    2.030184    0.285825
     10          1           0       -0.000000   -2.030184    0.285825
 ---------------------------------------------------------------------

 SCF Done:  E(RHF) =  -300.047920335     A.U. after    2 cycles

 The electronic state is 1-A1.
 Alpha  occ. eigenvalues --  -20.49683 -15.54794 -15.54742 -11.38282 -11.28604
 Alpha  occ. eigenvalues --  -11.28499  -1.45485  -1.33329  -1.20784  -1.03429
 Alpha  occ. eigenvalues --   -0.90287  -0.86811  -0.75879  -0.71560  -0.66788
 Alpha  occ. eigenvalues --   -0.65249  -0.63683  -0.61902  -0.50491  -0.49072
 Alpha  occ. eigenvalues --   -0.43674  -0.32552
 Alpha virt. eigenvalues --    0.02846   0.03598   0.04502   0.05611   0.09856
 Alpha virt. eigenvalues --    0.10241   0.10489   0.10652   0.12234   0.12298
 Alpha virt. eigenvalues --    0.13625   0.13960   0.14572   0.16284   0.17646

 Mulliken charges:
               1
     1  C   -0.045156
     2  C   -0.045156
     3  C    0.445073
     4  N    0.552942
     5  N    0.552942
     6  O   -1.176023
     7  H   -0.159122
     8  H   -0.159122
     9  H    0.016810
    10  H    0.016810
 Sum of Mulliken charges =  -0.00000

 Dipole moment (field-independent basis, Debye):
    X=             -0.0000    Y=              0.0000    Z=             -4.2122  Tot=              4.2122

 Test job not archived.
 1\1\GINC-SE129\SP\RHF\Aug-CC-pVDZ\C3H4N2O1\OHZDE\05-Apr-2025\0\\#t hf
 aug-cc-pvdz iop(5/13=1,5/36=2,99/5=2) pseudo=read geom=check guess=(re
 ad,tcheck) scf=(maxcycle=1)\\title\\0,1\C,0,0.,0.67279,-1.380599\C,0,0
 .,-0.67279,-1.380599\C,0,0.,0.,0.812326\N,0,0.,1.085426,-0.051191\N,0,
 0.,-1.085426,-0.051191\O,0,0.,0.,2.030042\H,0,0.,1.365081,-2.201042\H,
 0,0.,-1.365081,-2.201042\H,0,0.,2.030184,0.285825\H,0,0.,-2.030184,0.2
 85825\\Version=ES64L-G16RevC.01\State=1-A1\HF=-300.0479203\RMSD=3.755e
 -02\Dipole=0.,0.,-1.6572061\Quadrupole=-2.7187286,7.53128,-4.8125514,0

 Normal termination of Gaussian 16 at Sat Apr  5 22:22:29 2025.
