 Gaussian 16, Revision C.01,

 ----------------------------------------------------------------------
 #t hf aug-cc-pvdz symm=none int=(grid=ultrafine) guess=(read,tcheck) s
 table=(opt,rrhf)
 ----------------------------------------------------------------------
 -----
 title
 -----
 Symbolic Z-matrix:
 Charge =  0 Multiplicity = 1

 SCF Done:  E(RHF) =  -192.814904900     A.U. after   12 cycles
 Normal termination of Gaussian 16 at Sat Apr  5 22:20:42 2025.
 Gaussian 16:  ES64L-G16RevC.01  3-Jul-2019

 ----------------------------------------------------------------------
 #t hf aug-cc-pvdz iop(5/13=1,5/36=2,99/5=2) pseudo=read geom=check gue
 ss=(read,tcheck) scf=(maxcycle=1)
 ----------------------------------------------------------------------
 -----
 title
 -----
 Structure from the checkpoint file:  "1-3-cyclopentadiene.chk"
 Charge =  0 Multiplicity = 1

                         Standard orientation:
 ---------------------------------------------------------------------
 Center     Atomic      Atomic             Coordinates (Angstroms)
 Number     Number       Type             X           Y           Z
 ---------------------------------------------------------------------
      1          6           0        0.000000    0.732496   -0.987747
      2          6           0       -0.000000   -0.732496   -0.987747
      3          6           0        0.000000    1.176401    0.280659
      4          6           0       -0.000000   -1.176401    0.280659
      5          6           0        0.000000    0.000000    1.213319
      6          1           0        0.000000    1.345222   -1.877331
      7          1           0       -0.000000   -1.345222   -1.877331
      8          1           0        0.000000    2.205253    0.605805
      9          1           0       -0.000000   -2.205253    0.605805
     10          1           0        0.874476   -0.000000    1.874095
     11          1           0       -0.874476    0.000000    1.874095
 ---------------------------------------------------------------------

 SCF Done:  E(RHF) =  -193.021233497     A.U. after    2 cycles

 The electronic state is 1-A1.
 Alpha  occ. eigenvalues --  -11.23766 -11.23398 -11.23376 -11.23261 -11.23258
 Alpha  occ. eigenvalues --   -1.15488  -0.96645  -0.95718  -0.76285  -0.73390
 Alpha  occ. eigenvalues --   -0.70920  -0.59946  -0.57320  -0.54166  -0.51829
 Alpha  occ. eigenvalues --   -0.51425  -0.42195  -0.31594
 Alpha virt. eigenvalues --    0.03844   0.03972   0.04086   0.05220   0.05821
 Alpha virt. eigenvalues --    0.06182   0.09875   0.11083   0.13107   0.13640
 Alpha virt. eigenvalues --    0.13935   0.14264   0.15336   0.15400   0.15814

 Mulliken charges:
               1
     1  C    0.152255
     2  C    0.152255
     3  C    0.387851
     4  C    0.387851
     5  C   -1.048288
     6  H   -0.131829
     7  H   -0.131829
     8  H   -0.110105
     9  H   -0.110105
    10  H    0.225972
    11  H    0.225972
 Sum of Mulliken charges =  -0.00000

 Dipole moment (field-independent basis, Debye):
    X=             -0.0000    Y=              0.0000    Z=              0.3987  Tot=              0.3987

 Test job not archived.
 1\1\GINC-SE190\SP\RHF\Aug-CC-pVDZ\C5H6\OHZDE\05-Apr-2025\0\\#t hf aug-
 cc-pvdz iop(5/13=1,5/36=2,99/5=2) pseudo=read geom=check guess=(read,t
 check) scf=(maxcycle=1)\\title\\0,1\C,0,-0.987747,-0.732496,0.\C,0,-0.
 987747,0.732496,0.\C,0,0.280659,-1.176401,0.\C,0,0.280659,1.176401,0.\
 C,0,1.213319,0.,0.\H,0,-1.877331,-1.345222,0.\H,0,-1.877331,1.345222,0
 .\H,0,0.605805,-2.205253,0.\H,0,0.605805,2.205253,0.\H,0,1.874095,0.,0
 .874476\H,0,1.874095,0.,-0.874476\\Version=ES64L-G16RevC.01\State=1-A1
 \HF=-193.0212335\RMSD=2.433e-02\Dipole=0.1568479,0.,0.\Quadrupole=2.18

 Normal termination of Gaussian 16 at Sat Apr  5 22:20:50 2025.
