 Gaussian 16, Revision C.01,

 ----------------------------------------------------------------------
 #t hf aug-cc-pvdz symm=none int=(grid=ultrafine) guess=(read,tcheck) s
 table=(opt,rrhf)
 ----------------------------------------------------------------------
 -----
 title
 -----
 Symbolic Z-matrix:
 Charge =  0 Multiplicity = 1

 SCF Done:  E(RHF) =  -278.733002129     A.U. after   11 cycles
 Normal termination of Gaussian 16 at Sat Apr  5 22:20:34 2025.
 Gaussian 16:  ES64L-G16RevC.01  3-Jul-2019

 ----------------------------------------------------------------------
 #t hf aug-cc-pvdz iop(5/13=1,5/36=2,99/5=2) pseudo=read geom=check gue
 ss=(read,tcheck) scf=(maxcycle=1)
 ----------------------------------------------------------------------
 -----
 title
 -----
 Structure from the checkpoint file:  "1-3-5-triazine.chk"
 Charge =  0 Multiplicity = 1

                         Standard orientation:
 ---------------------------------------------------------------------
 Center     Atomic      Atomic             Coordinates (Angstroms)
 Number     Number       Type             X           Y           Z
 ---------------------------------------------------------------------
      1          6           0        0.000000   -0.000000   -1.292045
      2          7           0        0.000000    1.184015   -0.683592
      3          7           0       -0.000000   -1.184015   -0.683592
      4          6           0        0.000000    1.118944    0.646022
      5          6           0       -0.000000   -1.118944    0.646022
      6          7           0       -0.000000    0.000000    1.367183
      7          1           0        0.000000   -0.000000   -2.376108
      8          1           0        0.000000   -2.057770    1.188054
      9          1           0        0.000000    2.057770    1.188054
 ---------------------------------------------------------------------

 SCF Done:  E(RHF) =  -279.011954412     A.U. after    2 cycles

 The electronic state is 1-A1.
 Alpha  occ. eigenvalues --  -15.52686 -15.52642 -15.52642 -11.34727 -11.34727
 Alpha  occ. eigenvalues --  -11.34721  -1.36429  -1.22446  -1.22446  -0.96403
 Alpha  occ. eigenvalues --   -0.96403  -0.80286  -0.78547  -0.64520  -0.64392
 Alpha  occ. eigenvalues --   -0.64392  -0.61605  -0.48754  -0.48754  -0.47878
 Alpha  occ. eigenvalues --   -0.47878
 Alpha virt. eigenvalues --    0.03286   0.04964   0.04964   0.05722   0.05722
 Alpha virt. eigenvalues --    0.08969   0.08969   0.09228   0.09311   0.12428
 Alpha virt. eigenvalues --    0.12428   0.12666   0.14722   0.16361   0.16361

 Mulliken charges:
               1
     1  C   -0.761925
     2  N    0.754435
     3  N    0.754435
     4  C   -0.761923
     5  C   -0.761923
     6  N    0.754433
     7  H    0.007489
     8  H    0.007489
     9  H    0.007489
 Sum of Mulliken charges =  -0.00000

 Dipole moment (field-independent basis, Debye):
    X=             -0.0000    Y=              0.0000    Z=              0.0000  Tot=              0.0000

 Test job not archived.
 1\1\GINC-SE108\SP\RHF\Aug-CC-pVDZ\C3H3N3\OHZDE\05-Apr-2025\0\\#t hf au
 g-cc-pvdz iop(5/13=1,5/36=2,99/5=2) pseudo=read geom=check guess=(read
 ,tcheck) scf=(maxcycle=1)\\title\\0,1\C,0,0.,1.292045,0.\N,0,1.184015,
 0.683592,0.\N,0,-1.184015,0.683592,0.\C,0,1.118944,-0.646022,0.\C,0,-1
 .118944,-0.646022,0.\N,0,0.,-1.367183,0.\H,0,0.,2.376108,0.\H,0,-2.057
 77,-1.188054,0.\H,0,2.05777,-1.188054,0.\\Version=ES64L-G16RevC.01\Sta
 te=1-A1\HF=-279.0119544\RMSD=2.979e-02\Dipole=0.,0.,0.\Quadrupole=0.11
 81506,0.1181375,-0.2362881,0.,0.,0.\PG=C02V [C2(H1C1N1),SGV(C2H2N2)]\\

 Normal termination of Gaussian 16 at Sat Apr  5 22:20:50 2025.
