 Gaussian 16, Revision C.01,

 ----------------------------------------------------------------------
 #t hf aug-cc-pvdz symm=none int=(grid=ultrafine) guess=(read,tcheck) s
 table=(opt,rrhf)
 ----------------------------------------------------------------------
 -----
 title
 -----
 Symbolic Z-matrix:
 Charge =  0 Multiplicity = 1

 SCF Done:  E(RHF) =  -1378.37372337     A.U. after   14 cycles
 Normal termination of Gaussian 16 at Sat Apr  5 22:20:40 2025.
 Gaussian 16:  ES64L-G16RevC.01  3-Jul-2019

 ----------------------------------------------------------------------
 #t hf aug-cc-pvdz iop(5/13=1,5/36=2,99/5=2) pseudo=read geom=check gue
 ss=(read,tcheck) scf=(maxcycle=1)
 ----------------------------------------------------------------------
 -----
 title
 -----
 Structure from the checkpoint file:  "1-3-4-thiadiazolidine-2-5-dithione.chk"
 Charge =  0 Multiplicity = 1

                         Standard orientation:
 ---------------------------------------------------------------------
 Center     Atomic      Atomic             Coordinates (Angstroms)
 Number     Number       Type             X           Y           Z
 ---------------------------------------------------------------------
      1          6           0        0.000000    1.290037   -0.095700
      2         16           0        0.000000    0.000000    1.123017
      3          6           0       -0.000000   -1.290037   -0.095700
      4         16           0        0.098380   -2.902976    0.183152
      5         16           0       -0.098380    2.902976    0.183152
      6          7           0        0.082142    0.693918   -1.317219
      7          7           0       -0.082142   -0.693918   -1.317219
      8          1           0       -0.281158    1.189103   -2.119842
      9          1           0        0.281158   -1.189103   -2.119842
 ---------------------------------------------------------------------

 SCF Done:  E(RHF) =  -1378.73189740     A.U. after    2 cycles

 The electronic state is 1-A.
 Alpha  occ. eigenvalues --  -94.03388 -93.93623 -93.93618 -15.63419 -15.62917
 Alpha  occ. eigenvalues --  -11.41782 -11.41752  -8.31580  -8.21894  -8.21893
 Alpha  occ. eigenvalues --   -6.29304  -6.29194  -6.28947  -6.19766  -6.19765
 Alpha  occ. eigenvalues --   -6.19432  -6.19432  -6.19315  -6.19315  -1.43009
 Alpha  occ. eigenvalues --   -1.24150  -1.16962  -1.04475  -1.04092  -0.92175
 Alpha  occ. eigenvalues --   -0.85325  -0.83813  -0.73676  -0.68815  -0.60188
 Alpha  occ. eigenvalues --   -0.56717  -0.56438  -0.54827  -0.50157  -0.38311
 Alpha  occ. eigenvalues --   -0.37543  -0.37285  -0.36310
 Alpha virt. eigenvalues --    0.01837   0.04043   0.04189   0.05122   0.06998
 Alpha virt. eigenvalues --    0.07279   0.08024   0.09322   0.10147   0.10840
 Alpha virt. eigenvalues --    0.12222   0.12659   0.13171   0.13956   0.13971

 Mulliken charges:
               1
     1  C   -1.289845
     2  S    0.973417
     3  C   -1.289845
     4  S    0.363097
     5  S    0.363097
     6  N    0.310493
     7  N    0.310493
     8  H    0.129546
     9  H    0.129546
 Sum of Mulliken charges =  -0.00000

 Dipole moment (field-independent basis, Debye):
    X=             -0.0000    Y=             -0.0000    Z=             -3.1021  Tot=              3.1021

 Test job not archived.
 1\1\GINC-SE170\SP\RHF\Aug-CC-pVDZ\C2H2N2S3\OHZDE\05-Apr-2025\0\\#t hf
 aug-cc-pvdz iop(5/13=1,5/36=2,99/5=2) pseudo=read geom=check guess=(re
 ad,tcheck) scf=(maxcycle=1)\\title\\0,1\C,0,0.,1.290037,-0.0957\S,0,0.
 ,0.,1.123017\C,0,0.,-1.290037,-0.0957\S,0,0.09838,-2.902976,0.183152\S
 ,0,-0.09838,2.902976,0.183152\N,0,0.082142,0.693918,-1.317219\N,0,-0.0
 82142,-0.693918,-1.317219\H,0,-0.281158,1.189103,-2.119842\H,0,0.28115
 8,-1.189103,-2.119842\\Version=ES64L-G16RevC.01\State=1-A\HF=-1378.731
 8974\RMSD=1.891e-02\Dipole=0.,0.,-1.2204771\Quadrupole=0.2402834,-8.62

 Normal termination of Gaussian 16 at Sat Apr  5 22:20:51 2025.
