 Gaussian 16, Revision C.01,

 ----------------------------------------------------------------------
 #t hf aug-cc-pvdz symm=none int=(grid=ultrafine) guess=(read,tcheck) s
 table=(opt,rrhf)
 ----------------------------------------------------------------------
 -----
 title
 -----
 Symbolic Z-matrix:
 Charge =  0 Multiplicity = 1

 SCF Done:  E(RHF) =  -191.563257908     A.U. after   13 cycles
 Normal termination of Gaussian 16 at Sat Apr  5 22:22:26 2025.
 Gaussian 16:  ES64L-G16RevC.01  3-Jul-2019

 ----------------------------------------------------------------------
 #t hf aug-cc-pvdz iop(5/13=1,5/36=2,99/5=2) pseudo=read geom=check gue
 ss=(read,tcheck) scf=(maxcycle=1)
 ----------------------------------------------------------------------
 -----
 title
 -----
 Structure from the checkpoint file:  "1-3-pentadiyne.chk"
 Charge =  0 Multiplicity = 1

                         Standard orientation:
 ---------------------------------------------------------------------
 Center     Atomic      Atomic             Coordinates (Angstroms)
 Number     Number       Type             X           Y           Z
 ---------------------------------------------------------------------
      1          6           0        0.000000    0.150318    0.000000
      2          6           0        0.002169   -1.056593    0.000000
      3          6           0       -0.002595    1.513662    0.000000
      4          6           0        0.004244   -2.507221    0.000000
      5          6           0       -0.005012    2.718859    0.000000
      6          1           0       -0.007164    3.779665    0.000000
      7          1           0        0.514494   -2.897262    0.882841
      8          1           0        0.514494   -2.897262   -0.882841
      9          1           0       -1.014660   -2.899289    0.000000
 ---------------------------------------------------------------------

 SCF Done:  E(RHF) =  -191.761667416     A.U. after    2 cycles

 The electronic state is 1-A'.
 Alpha  occ. eigenvalues --  -11.27061 -11.26590 -11.26476 -11.25559 -11.25401
 Alpha  occ. eigenvalues --   -1.09438  -1.04609  -0.97771  -0.83733  -0.72070
 Alpha  occ. eigenvalues --   -0.65663  -0.60951  -0.60950  -0.48616  -0.48616
 Alpha  occ. eigenvalues --   -0.36178  -0.36177
 Alpha virt. eigenvalues --    0.03113   0.03623   0.05422   0.05422   0.07183
 Alpha virt. eigenvalues --    0.09396   0.09397   0.10762   0.13067   0.13556
 Alpha virt. eigenvalues --    0.13556   0.14361   0.14362   0.15097   0.15097

 Mulliken charges:
               1
     1  C    1.753823
     2  C   -1.382696
     3  C    0.251670
     4  C   -0.559720
     5  C   -0.178982
     6  H   -0.632069
     7  H    0.249304
     8  H    0.249304
     9  H    0.249368
 Sum of Mulliken charges =  -0.00000

 Dipole moment (field-independent basis, Debye):
    X=              0.0013    Y=             -1.2312    Z=             -0.0000  Tot=              1.2312

 Test job not archived.
 1\1\GINC-SE106\SP\RHF\Aug-CC-pVDZ\C5H4\OHZDE\05-Apr-2025\0\\#t hf aug-
 cc-pvdz iop(5/13=1,5/36=2,99/5=2) pseudo=read geom=check guess=(read,t
 check) scf=(maxcycle=1)\\title\\0,1\C,0,0.,0.150318,0.\C,0,0.002169,-1
 .056593,0.\C,0,-0.002595,1.513662,0.\C,0,0.004244,-2.507221,0.\C,0,-0.
 005012,2.718859,0.\H,0,-0.007164,3.779665,0.\H,0,0.514494,-2.897262,0.
 882841\H,0,0.514494,-2.897262,-0.882841\H,0,-1.01466,-2.899289,0.\\Ver
 sion=ES64L-G16RevC.01\State=1-A'\HF=-191.7616674\RMSD=8.134e-02\Dipole
 =0.0004982,-0.484379,0.\Quadrupole=-3.702362,7.4048711,-3.7025092,-0.0

 Normal termination of Gaussian 16 at Sat Apr  5 22:22:29 2025.
