 Gaussian 16, Revision C.01,

 ----------------------------------------------------------------------
 #t hf aug-cc-pvdz symm=none int=(grid=ultrafine) guess=(read,tcheck) s
 table=(opt,rrhf)
 ----------------------------------------------------------------------
 -----
 title
 -----
 Symbolic Z-matrix:
 Charge =  0 Multiplicity = 1

 SCF Done:  E(RHF) =  -926.943628228     A.U. after   14 cycles
 Normal termination of Gaussian 16 at Sat Apr  5 22:20:34 2025.
 Gaussian 16:  ES64L-G16RevC.01  3-Jul-2019

 ----------------------------------------------------------------------
 #t hf aug-cc-pvdz iop(5/13=1,5/36=2,99/5=2) pseudo=read geom=check gue
 ss=(read,tcheck) scf=(maxcycle=1)
 ----------------------------------------------------------------------
 -----
 title
 -----
 Structure from the checkpoint file:  "1-3-2-dithiazole.chk"
 Charge =  0 Multiplicity = 1

                         Standard orientation:
 ---------------------------------------------------------------------
 Center     Atomic      Atomic             Coordinates (Angstroms)
 Number     Number       Type             X           Y           Z
 ---------------------------------------------------------------------
      1         16           0        0.104910   -0.330209    1.416746
      2         16           0        0.104910   -0.330209   -1.416746
      3          7           0       -0.487995   -1.151970   -0.000000
      4          6           0        0.104910    1.282613    0.665107
      5          6           0        0.104910    1.282613   -0.665107
      6          1           0        0.150997    2.157376    1.295596
      7          1           0        0.150997    2.157376   -1.295596
      8          1           0       -1.502056   -1.075624    0.000000
 ---------------------------------------------------------------------

 SCF Done:  E(RHF) =  -927.197399705     A.U. after    2 cycles

 The electronic state is 1-A'.
 Alpha  occ. eigenvalues --  -93.99582 -93.99564 -15.56011 -11.28758 -11.28627
 Alpha  occ. eigenvalues --   -8.27372  -8.27341  -6.25159  -6.25141  -6.24995
 Alpha  occ. eigenvalues --   -6.24985  -6.24726  -6.24724  -1.26458  -1.09077
 Alpha  occ. eigenvalues --   -1.03935  -0.88602  -0.78809  -0.70520  -0.68573
 Alpha  occ. eigenvalues --   -0.58308  -0.56858  -0.52105  -0.47591  -0.46382
 Alpha  occ. eigenvalues --   -0.39795  -0.32102
 Alpha virt. eigenvalues --    0.03438   0.04209   0.04491   0.06799   0.08515
 Alpha virt. eigenvalues --    0.08982   0.09371   0.11665   0.11966   0.12943
 Alpha virt. eigenvalues --    0.13534   0.14200   0.15431   0.15999   0.16869

 Mulliken charges:
               1
     1  S    0.408273
     2  S    0.408273
     3  N   -0.511365
     4  C   -0.111293
     5  C   -0.111293
     6  H   -0.119601
     7  H   -0.119601
     8  H    0.156607
 Sum of Mulliken charges =  -0.00000

 Dipole moment (field-independent basis, Debye):
    X=             -0.8935    Y=              2.5989    Z=              0.0000  Tot=              2.7482

 Test job not archived.
 1\1\GINC-SE152\SP\RHF\Aug-CC-pVDZ\C2H3N1S2\OHZDE\05-Apr-2025\0\\#t hf
 aug-cc-pvdz iop(5/13=1,5/36=2,99/5=2) pseudo=read geom=check guess=(re
 ad,tcheck) scf=(maxcycle=1)\\title\\0,1\S,0,0.10491,-0.330209,1.416746
 \S,0,0.10491,-0.330209,-1.416746\N,0,-0.487995,-1.15197,0.\C,0,0.10491
 ,1.282613,0.665107\C,0,0.10491,1.282613,-0.665107\H,0,0.150997,2.15737
 6,1.295596\H,0,0.150997,2.157376,-1.295596\H,0,-1.502056,-1.075624,0.\
 \Version=ES64L-G16RevC.01\State=1-A'\HF=-927.1973997\RMSD=1.121e-02\Di
 pole=-0.3515276,1.0224806,0.\Quadrupole=-1.5105896,1.5358166,-0.025227

 Normal termination of Gaussian 16 at Sat Apr  5 22:20:50 2025.
