 Gaussian 16, Revision C.01,

 ----------------------------------------------------------------------
 #t hf aug-cc-pvdz symm=none int=(grid=ultrafine) guess=(read,tcheck) s
 table=(opt,rrhf)
 ----------------------------------------------------------------------
 -----
 title
 -----
 Symbolic Z-matrix:
 Charge =  0 Multiplicity = 1

 SCF Done:  E(RHF) =  -262.726378766     A.U. after   13 cycles
 Normal termination of Gaussian 16 at Sat Apr  5 22:20:42 2025.
 Gaussian 16:  ES64L-G16RevC.01  3-Jul-2019

 ----------------------------------------------------------------------
 #t hf aug-cc-pvdz iop(5/13=1,5/36=2,99/5=2) pseudo=read geom=check gue
 ss=(read,tcheck) scf=(maxcycle=1)
 ----------------------------------------------------------------------
 -----
 title
 -----
 Structure from the checkpoint file:  "1-3-diazine.chk"
 Charge =  0 Multiplicity = 1

                         Standard orientation:
 ---------------------------------------------------------------------
 Center     Atomic      Atomic             Coordinates (Angstroms)
 Number     Number       Type             X           Y           Z
 ---------------------------------------------------------------------
      1          6           0        0.000000   -0.000000   -1.307744
      2          7           0        0.000000    1.191556   -0.712170
      3          7           0       -0.000000   -1.191556   -0.712170
      4          6           0        0.000000   -1.180628    0.620975
      5          6           0        0.000000    1.180628    0.620975
      6          6           0        0.000000    0.000000    1.349488
      7          1           0        0.000000    0.000000    2.429940
      8          1           0        0.000000   -0.000000   -2.391534
      9          1           0        0.000000   -2.145739    1.114908
     10          1           0        0.000000    2.145739    1.114908
 ---------------------------------------------------------------------

 SCF Done:  E(RHF) =  -262.992701769     A.U. after    2 cycles

 The electronic state is 1-A1.
 Alpha  occ. eigenvalues --  -15.51475 -15.51432 -11.32002 -11.30680 -11.30673
 Alpha  occ. eigenvalues --  -11.25798  -1.31495  -1.20349  -1.08330  -0.91937
 Alpha  occ. eigenvalues --   -0.91925  -0.76062  -0.74394  -0.66499  -0.61915
 Alpha  occ. eigenvalues --   -0.61358  -0.60583  -0.51226  -0.45970  -0.45727
 Alpha  occ. eigenvalues --   -0.39583
 Alpha virt. eigenvalues --    0.03085   0.04029   0.04700   0.05504   0.06281
 Alpha virt. eigenvalues --    0.08268   0.10092   0.10183   0.10274   0.11758
 Alpha virt. eigenvalues --    0.12714   0.12734   0.13582   0.14463   0.14494

 Mulliken charges:
               1
     1  C   -0.629778
     2  N    0.697792
     3  N    0.697792
     4  C   -0.554997
     5  C   -0.554997
     6  C    0.701516
     7  H   -0.134059
     8  H   -0.002529
     9  H   -0.110370
    10  H   -0.110370
 Sum of Mulliken charges =  -0.00000

 Dipole moment (field-independent basis, Debye):
    X=             -0.0000    Y=              0.0000    Z=              2.7526  Tot=              2.7526

 Test job not archived.
 1\1\GINC-SE194\SP\RHF\Aug-CC-pVDZ\C4H4N2\OHZDE\05-Apr-2025\0\\#t hf au
 g-cc-pvdz iop(5/13=1,5/36=2,99/5=2) pseudo=read geom=check guess=(read
 ,tcheck) scf=(maxcycle=1)\\title\\0,1\C,0,0.,0.,-1.307744\N,0,0.,1.191
 556,-0.71217\N,0,0.,-1.191556,-0.71217\C,0,0.,-1.180628,0.620975\C,0,0
 .,1.180628,0.620975\C,0,0.,0.,1.349488\H,0,0.,0.,2.42994\H,0,0.,0.,-2.
 391534\H,0,0.,-2.145739,1.114908\H,0,0.,2.145739,1.114908\\Version=ES6
 4L-G16RevC.01\State=1-A1\HF=-262.9927018\RMSD=2.369e-02\Dipole=0.,0.,1
 .0829504\Quadrupole=-1.7830671,-1.7511409,3.534208,0.,0.,0.\PG=C02V [C

 Normal termination of Gaussian 16 at Sat Apr  5 22:20:49 2025.
