 Gaussian 16, Revision C.01,

 ----------------------------------------------------------------------
 #t hf aug-cc-pvdz symm=none int=(grid=ultrafine) guess=(read,tcheck) s
 table=(opt,rrhf)
 ----------------------------------------------------------------------
 -----
 title
 -----
 Symbolic Z-matrix:
 Charge =  0 Multiplicity = 1

 SCF Done:  E(RHF) =  -260.649489093     A.U. after   13 cycles
 Normal termination of Gaussian 16 at Sat Apr  5 22:19:08 2025.
 Gaussian 16:  ES64L-G16RevC.01  3-Jul-2019

 ----------------------------------------------------------------------
 #t hf aug-cc-pvdz iop(5/13=1,5/36=2,99/5=2) pseudo=read geom=check gue
 ss=(read,tcheck) scf=(maxcycle=1)
 ----------------------------------------------------------------------
 -----
 title
 -----
 Structure from the checkpoint file:  "1-3-4-oxadiazole.chk"
 Charge =  0 Multiplicity = 1

                         Standard orientation:
 ---------------------------------------------------------------------
 Center     Atomic      Atomic             Coordinates (Angstroms)
 Number     Number       Type             X           Y           Z
 ---------------------------------------------------------------------
      1          8           0        0.000000   -0.000000    1.123780
      2          6           0        0.000000    1.052759    0.266386
      3          7           0        0.000000    0.701433   -0.967868
      4          7           0       -0.000000   -0.701433   -0.967868
      5          6           0       -0.000000   -1.052759    0.266386
      6          1           0        0.000000    2.044558    0.681643
      7          1           0       -0.000000   -2.044558    0.681643
 ---------------------------------------------------------------------

 SCF Done:  E(RHF) =  -260.905792127     A.U. after    2 cycles

 The electronic state is 1-A1.
 Alpha  occ. eigenvalues --  -20.65514 -15.55265 -15.54801 -11.36032 -11.35970
 Alpha  occ. eigenvalues --   -1.60837  -1.33005  -1.15485  -0.91051  -0.89231
 Alpha  occ. eigenvalues --   -0.78987  -0.70530  -0.66721  -0.65572  -0.54722
 Alpha  occ. eigenvalues --   -0.52277  -0.52174  -0.43493
 Alpha virt. eigenvalues --    0.03257   0.04098   0.07427   0.08269   0.09598
 Alpha virt. eigenvalues --    0.09854   0.10008   0.13721   0.14543   0.15650
 Alpha virt. eigenvalues --    0.16356   0.17580   0.17903   0.20428   0.21470

 Mulliken charges:
               1
     1  O   -1.083464
     2  C    0.399256
     3  N    0.107622
     4  N    0.107622
     5  C    0.399256
     6  H    0.034853
     7  H    0.034853
 Sum of Mulliken charges =  -0.00000

 Dipole moment (field-independent basis, Debye):
    X=             -0.0000    Y=             -0.0000    Z=              4.1181  Tot=              4.1181

 Test job not archived.
 1\1\GINC-SE154\SP\RHF\Aug-CC-pVDZ\C2H2N2O1\OHZDE\05-Apr-2025\0\\#t hf
 aug-cc-pvdz iop(5/13=1,5/36=2,99/5=2) pseudo=read geom=check guess=(re
 ad,tcheck) scf=(maxcycle=1)\\title\\0,1\O,0,0.,0.,1.12378\C,0,0.,1.052
 759,0.266386\N,0,0.,0.701433,-0.967868\N,0,0.,-0.701433,-0.967868\C,0,
 0.,-1.052759,0.266386\H,0,0.,2.044558,0.681643\H,0,0.,-2.044558,0.6816
 43\\Version=ES64L-G16RevC.01\State=1-A1\HF=-260.9057921\RMSD=2.637e-02
 \Dipole=0.,0.,1.6201815\Quadrupole=-0.5307976,4.6862261,-4.1554285,0.,
 0.,0.\PG=C02V [C2(O1),SGV(C2H2N2)]\\@

 Normal termination of Gaussian 16 at Sat Apr  5 22:20:28 2025.
