 Gaussian 16, Revision C.01,

 ----------------------------------------------------------------------
 #t hf aug-cc-pvdz symm=none int=(grid=ultrafine) guess=(read,tcheck) s
 table=(opt,rrhf)
 ----------------------------------------------------------------------
 -----
 title
 -----
 Symbolic Z-matrix:
 Charge =  0 Multiplicity = 1

 SCF Done:  E(RHF) =  -1307.34420842     A.U. after   14 cycles
 Normal termination of Gaussian 16 at Sat Apr  5 22:22:24 2025.
 Gaussian 16:  ES64L-G16RevC.01  3-Jul-2019

 ----------------------------------------------------------------------
 #t hf aug-cc-pvdz iop(5/13=1,5/36=2,99/5=2) pseudo=read geom=check gue
 ss=(read,tcheck) scf=(maxcycle=1)
 ----------------------------------------------------------------------
 -----
 title
 -----
 Structure from the checkpoint file:  "1-3-dithiole-2-thione.chk"
 Charge =  0 Multiplicity = 1

                         Standard orientation:
 ---------------------------------------------------------------------
 Center     Atomic      Atomic             Coordinates (Angstroms)
 Number     Number       Type             X           Y           Z
 ---------------------------------------------------------------------
      1         16           0        0.000000    0.000000    2.271299
      2          6           0        0.000000    0.000000    0.630759
      3         16           0        0.000000    1.453602   -0.360432
      4          6           0        0.000000    0.668708   -1.915944
      5          6           0       -0.000000   -0.668708   -1.915944
      6         16           0       -0.000000   -1.453602   -0.360432
      7          1           0        0.000000    1.287666   -2.800087
      8          1           0       -0.000000   -1.287666   -2.800087
 ---------------------------------------------------------------------

 SCF Done:  E(RHF) =  -1307.63130617     A.U. after    2 cycles

 The electronic state is 1-A1.
 Alpha  occ. eigenvalues --  -94.01318 -94.01306 -93.92801 -11.39018 -11.31169
 Alpha  occ. eigenvalues --  -11.31052  -8.29509  -8.29494  -8.21047  -6.27283
 Alpha  occ. eigenvalues --   -6.27276  -6.27132  -6.27132  -6.26923  -6.26922
 Alpha  occ. eigenvalues --   -6.18905  -6.18612  -6.18465  -1.22914  -1.09402
 Alpha  occ. eigenvalues --   -1.07505  -0.97036  -0.81159  -0.76196  -0.70809
 Alpha  occ. eigenvalues --   -0.59778  -0.57569  -0.56675  -0.54570  -0.49158
 Alpha  occ. eigenvalues --   -0.44578  -0.42999  -0.35236  -0.32020
 Alpha virt. eigenvalues --    0.02502   0.03528   0.03628   0.06604   0.08106
 Alpha virt. eigenvalues --    0.08767   0.08902   0.09856   0.10395   0.11303
 Alpha virt. eigenvalues --    0.11937   0.13031   0.13792   0.14461   0.14547

 Mulliken charges:
               1
     1  S    0.318108
     2  C   -1.342815
     3  S    0.858566
     4  C   -0.223082
     5  C   -0.223082
     6  S    0.858566
     7  H   -0.123130
     8  H   -0.123130
 Sum of Mulliken charges =  -0.00000

 Dipole moment (field-independent basis, Debye):
    X=             -0.0000    Y=              0.0000    Z=             -5.0627  Tot=              5.0627

 Test job not archived.
 1\1\GINC-SE085\SP\RHF\Aug-CC-pVDZ\C3H2S3\OHZDE\05-Apr-2025\0\\#t hf au
 g-cc-pvdz iop(5/13=1,5/36=2,99/5=2) pseudo=read geom=check guess=(read
 ,tcheck) scf=(maxcycle=1)\\title\\0,1\S,0,0.,0.,2.271299\C,0,0.,0.,0.6
 30759\S,0,0.,1.453602,-0.360432\C,0,0.,0.668708,-1.915944\C,0,0.,-0.66
 8708,-1.915944\S,0,0.,-1.453602,-0.360432\H,0,0.,1.287666,-2.800087\H,
 0,0.,-1.287666,-2.800087\\Version=ES64L-G16RevC.01\State=1-A1\HF=-1307
 .6313062\RMSD=1.215e-02\Dipole=0.,0.,-1.9918107\Quadrupole=-2.9429733,
 0.8785095,2.0644638,0.,0.,0.\PG=C02V [C2(C1S1),SGV(C2H2S2)]\\@

 Normal termination of Gaussian 16 at Sat Apr  5 22:22:31 2025.
