 Gaussian 16, Revision C.01,

 ----------------------------------------------------------------------
 #t hf aug-cc-pvdz symm=none int=(grid=ultrafine) guess=(read,tcheck) s
 table=(opt,rrhf)
 ----------------------------------------------------------------------
 -----
 title
 -----
 Symbolic Z-matrix:
 Charge =  0 Multiplicity = 1

 SCF Done:  E(RHF) =  -1239.62421238     A.U. after   15 cycles
 Normal termination of Gaussian 16 at Sat Apr  5 22:22:23 2025.
 Gaussian 16:  ES64L-G16RevC.01  3-Jul-2019

 ----------------------------------------------------------------------
 #t hf aug-cc-pvdz iop(5/13=1,5/36=2,99/5=2) pseudo=read geom=check gue
 ss=(read,tcheck) scf=(maxcycle=1)
 ----------------------------------------------------------------------
 -----
 title
 -----
 Structure from the checkpoint file:  "1-3-dichloronitropropane.chk"
 Charge =  0 Multiplicity = 1

                         Standard orientation:
 ---------------------------------------------------------------------
 Center     Atomic      Atomic             Coordinates (Angstroms)
 Number     Number       Type             X           Y           Z
 ---------------------------------------------------------------------
      1         17           0        1.969671   -1.392624   -0.227155
      2         17           0       -2.726372   -0.166639   -0.549480
      3          8           0        1.299667    1.497740    1.060977
      4          8           0        1.142038    1.750743   -1.088218
      5          7           0        1.039851    1.108331   -0.061878
      6          6           0        0.528061   -0.332445   -0.214217
      7          6           0       -0.425033   -0.704823    0.900645
      8          6           0       -1.706486    0.113665    0.924971
      9          1           0        0.086211   -0.366790   -1.201970
     10          1           0       -0.662786   -1.761718    0.786146
     11          1           0        0.086276   -0.577124    1.855350
     12          1           0       -2.317628   -0.174091    1.774333
     13          1           0       -1.520016    1.182620    0.971618
 ---------------------------------------------------------------------

 SCF Done:  E(RHF) =  -1240.09249964     A.U. after    2 cycles

 The electronic state is 1-A.
 Alpha  occ. eigenvalues -- -105.60470-105.57801 -20.61455 -20.61122 -15.80728
 Alpha  occ. eigenvalues --  -11.39729 -11.33609 -11.29594 -10.65253 -10.62604
 Alpha  occ. eigenvalues --   -7.82209  -7.81798  -7.81778  -7.79541  -7.79178
 Alpha  occ. eigenvalues --   -7.79162  -1.69480  -1.53373  -1.21009  -1.13338
 Alpha  occ. eigenvalues --   -1.05217  -1.02214  -0.90970  -0.85795  -0.79637
 Alpha  occ. eigenvalues --   -0.77207  -0.76235  -0.69460  -0.67303  -0.63187
 Alpha  occ. eigenvalues --   -0.59795  -0.58412  -0.54514  -0.52674  -0.51015
 Alpha  occ. eigenvalues --   -0.49611  -0.48519  -0.47034  -0.46501  -0.46403
 Alpha virt. eigenvalues --    0.03007   0.03594   0.04291   0.05141   0.05294
 Alpha virt. eigenvalues --    0.06767   0.08033   0.08734   0.11036   0.12401
 Alpha virt. eigenvalues --    0.13071   0.13731   0.14441   0.14877   0.15729

 Mulliken charges:
               1
     1  Cl   0.040581
     2  Cl  -0.062303
     3  O   -1.415624
     4  O   -1.350201
     5  N    2.672403
     6  C   -0.546932
     7  C   -0.064088
     8  C   -0.447653
     9  H    0.171781
    10  H    0.201640
    11  H    0.298433
    12  H    0.227248
    13  H    0.274715
 Sum of Mulliken charges =  -0.00000

 Dipole moment (field-independent basis, Debye):
    X=             -1.5220    Y=             -2.2573    Z=              1.7900  Tot=              3.2582

 Test job not archived.
 1\1\GINC-SE199\SP\RHF\Aug-CC-pVDZ\C3H5Cl2N1O2\OHZDE\05-Apr-2025\0\\#t
 hf aug-cc-pvdz iop(5/13=1,5/36=2,99/5=2) pseudo=read geom=check guess=
 (read,tcheck) scf=(maxcycle=1)\\title\\0,1\Cl,0,1.969671,-1.392624,-0.
 227155\Cl,0,-2.726372,-0.166639,-0.54948\O,0,1.299667,1.49774,1.060977
 \O,0,1.142038,1.750743,-1.088218\N,0,1.039851,1.108331,-0.061878\C,0,0
 .528061,-0.332445,-0.214217\C,0,-0.425033,-0.704823,0.900645\C,0,-1.70
 6486,0.113665,0.924971\H,0,0.086211,-0.36679,-1.20197\H,0,-0.662786,-1
 .761718,0.786146\H,0,0.086276,-0.577124,1.85535\H,0,-2.317628,-0.17409

 Normal termination of Gaussian 16 at Sat Apr  5 22:22:31 2025.
