 Gaussian 16, Revision C.01,

 ----------------------------------------------------------------------
 #t hf aug-cc-pvdz symm=none int=(grid=ultrafine) guess=(read,tcheck) s
 table=(opt,rrhf)
 ----------------------------------------------------------------------
 -----
 title
 -----
 Symbolic Z-matrix:
 Charge =  0 Multiplicity = 1

 SCF Done:  E(RHF) =  -341.704239023     A.U. after   11 cycles
 Normal termination of Gaussian 16 at Sat Apr  5 22:20:49 2025.
 Gaussian 16:  ES64L-G16RevC.01  3-Jul-2019

 ----------------------------------------------------------------------
 #t hf aug-cc-pvdz iop(5/13=1,5/36=2,99/5=2) pseudo=read geom=check gue
 ss=(read,tcheck) scf=(maxcycle=1)
 ----------------------------------------------------------------------
 -----
 title
 -----
 Structure from the checkpoint file:  "1-3-5-trioxane.chk"
 Charge =  0 Multiplicity = 1

                         Standard orientation:
 ---------------------------------------------------------------------
 Center     Atomic      Atomic             Coordinates (Angstroms)
 Number     Number       Type             X           Y           Z
 ---------------------------------------------------------------------
      1          6           0       -0.178381    1.334824    0.000000
      2          6           0       -0.178381   -0.667412    1.155992
      3          6           0       -0.178381   -0.667412   -1.155992
      4          8           0        0.261238    0.672604    1.164984
      5          8           0        0.261238    0.672604   -1.164984
      6          8           0        0.261238   -1.345208    0.000000
      7          1           0       -1.278381    1.389553    0.000000
      8          1           0        0.258762    2.328144    0.000000
      9          1           0        0.258762   -1.164072    2.016232
     10          1           0       -1.278381   -0.694777    1.203388
     11          1           0       -1.278381   -0.694777   -1.203388
     12          1           0        0.258762   -1.164072   -2.016232
 ---------------------------------------------------------------------

 SCF Done:  E(RHF) =  -342.048000531     A.U. after    2 cycles

 The electronic state is 1-A'.
 Alpha  occ. eigenvalues --  -20.56591 -20.56591 -20.56588 -11.35110 -11.35110
 Alpha  occ. eigenvalues --  -11.34994  -1.55584  -1.45657  -1.45657  -0.97135
 Alpha  occ. eigenvalues --   -0.97135  -0.84590  -0.74455  -0.70692  -0.68094
 Alpha  occ. eigenvalues --   -0.68094  -0.65967  -0.60831  -0.60831  -0.50205
 Alpha  occ. eigenvalues --   -0.50205  -0.46373  -0.46373  -0.43757
 Alpha virt. eigenvalues --    0.03614   0.04565   0.04565   0.04645   0.06780
 Alpha virt. eigenvalues --    0.06780   0.10126   0.10126   0.11581   0.13916
 Alpha virt. eigenvalues --    0.15090   0.15090   0.16269   0.16637   0.17382

 Mulliken charges:
               1
     1  C    1.078027
     2  C    1.078027
     3  C    1.078027
     4  O   -1.230006
     5  O   -1.230006
     6  O   -1.230006
     7  H    0.189723
     8  H   -0.037744
     9  H   -0.037745
    10  H    0.189724
    11  H    0.189724
    12  H   -0.037745
 Sum of Mulliken charges =  -0.00000

 Dipole moment (field-independent basis, Debye):
    X=             -2.2099    Y=              0.0000    Z=             -0.0000  Tot=              2.2099

 Test job not archived.
 1\1\GINC-SE165\SP\RHF\Aug-CC-pVDZ\C3H6O3\OHZDE\05-Apr-2025\0\\#t hf au
 g-cc-pvdz iop(5/13=1,5/36=2,99/5=2) pseudo=read geom=check guess=(read
 ,tcheck) scf=(maxcycle=1)\\title\\0,1\C,0,0.,1.334824,0.178381\C,0,1.1
 55992,-0.667412,0.178381\C,0,-1.155992,-0.667412,0.178381\O,0,1.164984
 ,0.672604,-0.261238\O,0,-1.164984,0.672604,-0.261238\O,0,0.,-1.345208,
 -0.261238\H,0,0.,1.389553,1.278381\H,0,0.,2.328144,-0.258762\H,0,2.016
 232,-1.164072,-0.258762\H,0,1.203388,-0.694777,1.278381\H,0,-1.203388,
 -0.694777,1.278381\H,0,-2.016232,-1.164072,-0.258762\\Version=ES64L-G1

 Normal termination of Gaussian 16 at Sat Apr  5 22:20:53 2025.
