 Gaussian 16, Revision C.01,

 ----------------------------------------------------------------------
 #t hf aug-cc-pvdz symm=none int=(grid=ultrafine) guess=(read,tcheck) s
 table=(opt,rrhf)
 ----------------------------------------------------------------------
 -----
 title
 -----
 Symbolic Z-matrix:
 Charge =  0 Multiplicity = 1

 SCF Done:  E(RHF) =  -283.729943678     A.U. after   14 cycles
 Normal termination of Gaussian 16 at Sat Apr  5 22:21:16 2025.
 Gaussian 16:  ES64L-G16RevC.01  3-Jul-2019

 ----------------------------------------------------------------------
 #t hf aug-cc-pvdz iop(5/13=1,5/36=2,99/5=2) pseudo=read geom=check gue
 ss=(read,tcheck) scf=(maxcycle=1)
 ----------------------------------------------------------------------
 -----
 title
 -----
 Structure from the checkpoint file:  "1-3-dihydro-2H-pyrrol-2-one.chk"
 Charge =  0 Multiplicity = 1

                         Standard orientation:
 ---------------------------------------------------------------------
 Center     Atomic      Atomic             Coordinates (Angstroms)
 Number     Number       Type             X           Y           Z
 ---------------------------------------------------------------------
      1          6           0        0.607256   -1.472453    0.000000
      2          6           0       -0.720908   -1.347453    0.000000
      3          6           0        0.000000    0.838463    0.000000
      4          6           0        1.215158   -0.096851    0.000000
      5          7           0       -1.101042    0.002861    0.000000
      6          8           0       -0.024582    2.048657    0.000000
      7          1           0        1.152714   -2.400270    0.000000
      8          1           0       -1.477373   -2.115225    0.000000
      9          1           0        1.831991    0.113272    0.876531
     10          1           0        1.831991    0.113272   -0.876531
     11          1           0       -2.044414    0.349438    0.000000
 ---------------------------------------------------------------------

 SCF Done:  E(RHF) =  -284.019026980     A.U. after    2 cycles

 The electronic state is 1-A'.
 Alpha  occ. eigenvalues --  -20.51647 -15.54078 -11.36409 -11.29544 -11.25712
 Alpha  occ. eigenvalues --  -11.24281  -1.46358  -1.28404  -1.07598  -0.98807
 Alpha  occ. eigenvalues --   -0.84389  -0.82097  -0.72403  -0.65488  -0.64827
 Alpha  occ. eigenvalues --   -0.62764  -0.59805  -0.55849  -0.55806  -0.48832
 Alpha  occ. eigenvalues --   -0.42267  -0.34551
 Alpha virt. eigenvalues --    0.02885   0.03753   0.04476   0.05317   0.05980
 Alpha virt. eigenvalues --    0.09077   0.09956   0.10803   0.12273   0.12584
 Alpha virt. eigenvalues --    0.12754   0.13915   0.14414   0.15066   0.15935

 Mulliken charges:
               1
     1  C    0.647953
     2  C   -0.300716
     3  C    0.731760
     4  C   -0.627724
     5  N    0.642297
     6  O   -1.300444
     7  H   -0.109793
     8  H   -0.181475
     9  H    0.246056
    10  H    0.246056
    11  H    0.006029
 Sum of Mulliken charges =  -0.00000

 Dipole moment (field-independent basis, Debye):
    X=             -0.5784    Y=             -3.6345    Z=              0.0000  Tot=              3.6802

 Test job not archived.
 1\1\GINC-SE190\SP\RHF\Aug-CC-pVDZ\C4H5N1O1\OHZDE\05-Apr-2025\0\\#t hf
 aug-cc-pvdz iop(5/13=1,5/36=2,99/5=2) pseudo=read geom=check guess=(re
 ad,tcheck) scf=(maxcycle=1)\\title\\0,1\C,0,0.607256,-1.472453,0.\C,0,
 -0.720908,-1.347453,0.\C,0,0.,0.838463,0.\C,0,1.215158,-0.096851,0.\N,
 0,-1.101042,0.002861,0.\O,0,-0.024582,2.048657,0.\H,0,1.152714,-2.4002
 7,0.\H,0,-1.477373,-2.115225,0.\H,0,1.831991,0.113272,0.876531\H,0,1.8
 31991,0.113272,-0.876531\H,0,-2.044414,0.349438,0.\\Version=ES64L-G16R
 evC.01\State=1-A'\HF=-284.019027\RMSD=2.140e-02\Dipole=-0.2275564,-1.4

 Normal termination of Gaussian 16 at Sat Apr  5 22:22:18 2025.
