 Gaussian 16, Revision C.01,

 ----------------------------------------------------------------------
 #t hf aug-cc-pvdz symm=none int=(grid=ultrafine) guess=(read,tcheck) s
 table=(opt,rrhf)
 ----------------------------------------------------------------------
 -----
 title
 -----
 Symbolic Z-matrix:
 Charge =  0 Multiplicity = 1

 SCF Done:  E(RHF) =  -1309.69162598     A.U. after   12 cycles
 Normal termination of Gaussian 16 at Sat Apr  5 22:20:50 2025.
 Gaussian 16:  ES64L-G16RevC.01  3-Jul-2019

 ----------------------------------------------------------------------
 #t hf aug-cc-pvdz iop(5/13=1,5/36=2,99/5=2) pseudo=read geom=check gue
 ss=(read,tcheck) scf=(maxcycle=1)
 ----------------------------------------------------------------------
 -----
 title
 -----
 Structure from the checkpoint file:  "1-3-5-trithiane.chk"
 Charge =  0 Multiplicity = 1

                         Standard orientation:
 ---------------------------------------------------------------------
 Center     Atomic      Atomic             Coordinates (Angstroms)
 Number     Number       Type             X           Y           Z
 ---------------------------------------------------------------------
      1          6           0        0.948694   -1.350269    0.000000
      2          6           0        0.087137    0.890974    1.386296
      3          6           0        0.087137    0.890974   -1.386296
      4         16           0        0.087137   -0.924984    1.549588
      5         16           0        0.087137   -0.924984   -1.549588
      6         16           0       -0.875903    1.580255   -0.000000
      7          1           0        1.943229   -0.904411    0.000000
      8          1           0        1.056441   -2.431888    0.000000
      9          1           0       -0.369306    1.277032    2.294111
     10          1           0        1.113597    1.253782    1.334926
     11          1           0        1.113597    1.253782   -1.334926
     12          1           0       -0.369306    1.277032   -2.294111
 ---------------------------------------------------------------------

 SCF Done:  E(RHF) =  -1309.99674198     A.U. after    2 cycles

 The electronic state is 1-A'.
 Alpha  occ. eigenvalues --  -93.95972 -93.95972 -93.95961 -11.30919 -11.30919
 Alpha  occ. eigenvalues --  -11.30873  -8.24061  -8.24033  -8.24033  -6.21860
 Alpha  occ. eigenvalues --   -6.21860  -6.21852  -6.21710  -6.21707  -6.21707
 Alpha  occ. eigenvalues --   -6.21477  -6.21474  -6.21474  -1.15353  -1.06266
 Alpha  occ. eigenvalues --   -1.06266  -0.88849  -0.88849  -0.78706  -0.66836
 Alpha  occ. eigenvalues --   -0.62798  -0.62798  -0.56614  -0.55763  -0.54010
 Alpha  occ. eigenvalues --   -0.54010  -0.45484  -0.45484  -0.37182  -0.35091
 Alpha  occ. eigenvalues --   -0.35091
 Alpha virt. eigenvalues --    0.03399   0.03932   0.03932   0.04577   0.06877
 Alpha virt. eigenvalues --    0.06877   0.07900   0.07900   0.10049   0.11929
 Alpha virt. eigenvalues --    0.11929   0.13749   0.13881   0.15318   0.15318

 Mulliken charges:
               1
     1  C   -1.039428
     2  C   -1.039429
     3  C   -1.039429
     4  S    0.530523
     5  S    0.530523
     6  S    0.530522
     7  H    0.285154
     8  H    0.223752
     9  H    0.223752
    10  H    0.285153
    11  H    0.285153
    12  H    0.223752
 Sum of Mulliken charges =  -0.00000

 Dipole moment (field-independent basis, Debye):
    X=              2.2248    Y=              0.8552    Z=              0.0000  Tot=              2.3835

 Test job not archived.
 1\1\GINC-SE106\SP\RHF\Aug-CC-pVDZ\C3H6S3\OHZDE\05-Apr-2025\0\\#t hf au
 g-cc-pvdz iop(5/13=1,5/36=2,99/5=2) pseudo=read geom=check guess=(read
 ,tcheck) scf=(maxcycle=1)\\title\\0,1\C,0,0.,1.600757,0.401027\C,0,1.3
 86296,-0.800378,0.401027\C,0,-1.386296,-0.800378,0.401027\S,0,1.549588
 ,0.894655,-0.250561\S,0,-1.549588,0.894655,-0.250561\S,0,0.,-1.78931,-
 0.250561\H,0,0.,1.54144,1.489315\H,0,0.,2.649012,0.113501\H,0,2.294111
 ,-1.324506,0.113501\H,0,1.334926,-0.77072,1.489315\H,0,-1.334926,-0.77
 072,1.489315\H,0,-2.294111,-1.324506,0.113501\\Version=ES64L-G16RevC.0

 Normal termination of Gaussian 16 at Sat Apr  5 22:20:54 2025.
