 Gaussian 16, Revision C.01,

 ----------------------------------------------------------------------
 #t hf aug-cc-pvdz symm=none int=(grid=ultrafine) guess=(read,tcheck) s
 table=(opt,rrhf)
 ----------------------------------------------------------------------
 -----
 title
 -----
 Symbolic Z-matrix:
 Charge =  0 Multiplicity = 1

 SCF Done:  E(RHF) =  -268.012363728     A.U. after   12 cycles
 Normal termination of Gaussian 16 at Sat Apr  5 22:22:32 2025.
 Gaussian 16:  ES64L-G16RevC.01  3-Jul-2019

 ----------------------------------------------------------------------
 #t hf aug-cc-pvdz iop(5/13=1,5/36=2,99/5=2) pseudo=read geom=check gue
 ss=(read,tcheck) scf=(maxcycle=1)
 ----------------------------------------------------------------------
 -----
 title
 -----
 Structure from the checkpoint file:  "1-3-propanediol.chk"
 Charge =  0 Multiplicity = 1

                         Standard orientation:
 ---------------------------------------------------------------------
 Center     Atomic      Atomic             Coordinates (Angstroms)
 Number     Number       Type             X           Y           Z
 ---------------------------------------------------------------------
      1          6           0        0.008318    0.961105   -0.023694
      2          6           0       -1.114125    0.158565    0.611742
      3          6           0        1.116320    0.099589   -0.621439
      4          8           0       -1.812567   -0.530130   -0.430109
      5          8           0        1.810846   -0.677414    0.357585
      6          1           0       -0.412195    1.593028   -0.810995
      7          1           0        0.431966    1.633237    0.729520
      8          1           0       -0.700353   -0.553181    1.331700
      9          1           0       -1.795932    0.830612    1.143845
     10          1           0        1.818672    0.728131   -1.178324
     11          1           0        0.691233   -0.621872   -1.316811
     12          1           0       -2.402771   -1.178879   -0.038359
     13          1           0        2.320068   -0.086283    0.919958
 ---------------------------------------------------------------------

 SCF Done:  E(RHF) =  -268.294140468     A.U. after    2 cycles

 The electronic state is 1-A.
 Alpha  occ. eigenvalues --  -20.54493 -20.54413 -11.28167 -11.27807 -11.23145
 Alpha  occ. eigenvalues --   -1.44389  -1.43842  -1.04946  -0.91659  -0.81071
 Alpha  occ. eigenvalues --   -0.70580  -0.68205  -0.65580  -0.61332  -0.57109
 Alpha  occ. eigenvalues --   -0.56905  -0.52477  -0.50040  -0.47799  -0.44411
 Alpha  occ. eigenvalues --   -0.43104
 Alpha virt. eigenvalues --    0.03491   0.03812   0.04444   0.04627   0.06837
 Alpha virt. eigenvalues --    0.07224   0.07457   0.07502   0.12051   0.13691
 Alpha virt. eigenvalues --    0.14443   0.14985   0.15234   0.15711   0.16611

 Mulliken charges:
               1
     1  C   -0.488137
     2  C    0.688087
     3  C    0.723429
     4  O   -1.130123
     5  O   -1.121547
     6  H    0.172309
     7  H    0.121130
     8  H    0.133878
     9  H    0.092156
    10  H    0.103705
    11  H    0.104766
    12  H    0.306652
    13  H    0.293696
 Sum of Mulliken charges =  -0.00000

 Dipole moment (field-independent basis, Debye):
    X=             -0.2110    Y=              1.3983    Z=              1.4181  Tot=              2.0027

 Test job not archived.
 1\1\GINC-SE108\SP\RHF\Aug-CC-pVDZ\C3H8O2\OHZDE\05-Apr-2025\0\\#t hf au
 g-cc-pvdz iop(5/13=1,5/36=2,99/5=2) pseudo=read geom=check guess=(read
 ,tcheck) scf=(maxcycle=1)\\title\\0,1\C,0,0.008318,0.961105,-0.023694\
 C,0,-1.114125,0.158565,0.611742\C,0,1.11632,0.099589,-0.621439\O,0,-1.
 812567,-0.53013,-0.430109\O,0,1.810846,-0.677414,0.357585\H,0,-0.41219
 5,1.593028,-0.810995\H,0,0.431966,1.633237,0.72952\H,0,-0.700353,-0.55
 3181,1.3317\H,0,-1.795932,0.830612,1.143845\H,0,1.818672,0.728131,-1.1
 78324\H,0,0.691233,-0.621872,-1.316811\H,0,-2.402771,-1.178879,-0.0383

 Normal termination of Gaussian 16 at Sat Apr  5 22:22:35 2025.
