 Gaussian 16, Revision C.01,

 ----------------------------------------------------------------------
 #t hf aug-cc-pvdz symm=none int=(grid=ultrafine) guess=(read,tcheck) s
 table=(opt,rrhf)
 ----------------------------------------------------------------------
 -----
 title
 -----
 Symbolic Z-matrix:
 Charge =  0 Multiplicity = 1

 SCF Done:  E(RHF) =  -1036.13024162     A.U. after   12 cycles

 1\1\GINC-SE222\Stability\RHF\Aug-CC-pVDZ\C3H6Cl2\OHZDE\05-Apr-2025\0\\
 #t hf aug-cc-pvdz symm=none int=(grid=ultrafine) guess=(read,tcheck) s
 table=(opt,rrhf)\\title\\0,1\C,0,0.,0.,1.245285\C,0,0.,1.281625,0.4335
 21\C,0,0.,-1.281625,0.433521\Cl,0,-1.529889,1.4768,-0.530841\Cl,0,1.52
 9889,-1.4768,-0.530841\H,0,0.878901,0.017822,1.895082\H,0,-0.878901,-0
 .017822,1.895082\H,0,0.056209,2.153738,1.07711\H,0,0.813369,1.306239,-
 0.284878\H,0,-0.813369,-1.306239,-0.284878\H,0,-0.056209,-2.153738,1.0
 7711\\Version=ES64L-G16RevC.01\HF=-1036.1302416\RMSD=4.063e-09\Dipole=

 Normal termination of Gaussian 16 at Sat Apr  5 22:20:44 2025.
 Gaussian 16:  ES64L-G16RevC.01  3-Jul-2019

 ----------------------------------------------------------------------
 #t hf aug-cc-pvdz iop(5/13=1,5/36=2,99/5=2) pseudo=read geom=check gue
 ss=(read,tcheck) scf=(maxcycle=1)
 ----------------------------------------------------------------------
 -----
 title
 -----
 Structure from the checkpoint file:  "1-3-dichloropropane.chk"
 Charge =  0 Multiplicity = 1

                         Standard orientation:
 ---------------------------------------------------------------------
 Center     Atomic      Atomic             Coordinates (Angstroms)
 Number     Number       Type             X           Y           Z
 ---------------------------------------------------------------------
      1          6           0        0.000000    0.000000    1.245285
      2          6           0        0.000000    1.281625    0.433521
      3          6           0       -0.000000   -1.281625    0.433521
      4         17           0       -1.529889    1.476800   -0.530841
      5         17           0        1.529889   -1.476800   -0.530841
      6          1           0        0.878901    0.017822    1.895082
      7          1           0       -0.878901   -0.017822    1.895082
      8          1           0        0.056209    2.153738    1.077110
      9          1           0        0.813369    1.306239   -0.284878
     10          1           0       -0.813369   -1.306239   -0.284878
     11          1           0       -0.056209   -2.153738    1.077110
 ---------------------------------------------------------------------

 SCF Done:  E(RHF) =  -1036.41249175     A.U. after    2 cycles

 The electronic state is 1-A.
 Alpha  occ. eigenvalues -- -105.55869-105.55868 -11.31278 -11.31274 -11.26901
 Alpha  occ. eigenvalues --  -10.60679 -10.60679  -7.77613  -7.77612  -7.77256
 Alpha  occ. eigenvalues --   -7.77256  -7.77243  -7.77241  -1.14809  -1.08803
 Alpha  occ. eigenvalues --   -1.00418  -0.91207  -0.81723  -0.68254  -0.67367
 Alpha  occ. eigenvalues --   -0.60967  -0.58105  -0.57260  -0.53281  -0.51197
 Alpha  occ. eigenvalues --   -0.45619  -0.45245  -0.44506  -0.44322
 Alpha virt. eigenvalues --    0.03310   0.03763   0.04855   0.05190   0.06874
 Alpha virt. eigenvalues --    0.06967   0.09104   0.09462   0.12252   0.14096
 Alpha virt. eigenvalues --    0.14683   0.14718   0.15293   0.16038   0.16132

 Mulliken charges:
               1
     1  C   -0.217419
     2  C   -0.469972
     3  C   -0.469972
     4  Cl  -0.094621
     5  Cl  -0.094621
     6  H    0.187941
     7  H    0.187941
     8  H    0.215002
     9  H    0.270360
    10  H    0.270360
    11  H    0.215002
 Sum of Mulliken charges =  -0.00000

 Dipole moment (field-independent basis, Debye):
    X=              0.0000    Y=              0.0000    Z=              2.5616  Tot=              2.5616

 Test job not archived.
 1\1\GINC-SE222\SP\RHF\Aug-CC-pVDZ\C3H6Cl2\OHZDE\05-Apr-2025\0\\#t hf a
 ug-cc-pvdz iop(5/13=1,5/36=2,99/5=2) pseudo=read geom=check guess=(rea
 d,tcheck) scf=(maxcycle=1)\\title\\0,1\C,0,0.,0.,1.245285\C,0,0.,1.281
 625,0.433521\C,0,0.,-1.281625,0.433521\Cl,0,-1.529889,1.4768,-0.530841
 \Cl,0,1.529889,-1.4768,-0.530841\H,0,0.878901,0.017822,1.895082\H,0,-0
 .878901,-0.017822,1.895082\H,0,0.056209,2.153738,1.07711\H,0,0.813369,
 1.306239,-0.284878\H,0,-0.813369,-1.306239,-0.284878\H,0,-0.056209,-2.
 153738,1.07711\\Version=ES64L-G16RevC.01\State=1-A\HF=-1036.4124918\RM

 Normal termination of Gaussian 16 at Sat Apr  5 22:20:50 2025.
