 Gaussian 16, Revision C.01,

 ----------------------------------------------------------------------
 #t hf aug-cc-pvdz symm=none int=(grid=ultrafine) guess=(read,tcheck) s
 table=(opt,rrhf)
 ----------------------------------------------------------------------
 -----
 title
 -----
 Symbolic Z-matrix:
 Charge =  0 Multiplicity = 1

 SCF Done:  E(RHF) =  -240.830209159     A.U. after   13 cycles
 Normal termination of Gaussian 16 at Sat Apr  5 22:19:09 2025.
 Gaussian 16:  ES64L-G16RevC.01  3-Jul-2019

 ----------------------------------------------------------------------
 #t hf aug-cc-pvdz iop(5/13=1,5/36=2,99/5=2) pseudo=read geom=check gue
 ss=(read,tcheck) scf=(maxcycle=1)
 ----------------------------------------------------------------------
 -----
 title
 -----
 Structure from the checkpoint file:  "1-3-4-triazole.chk"
 Charge =  0 Multiplicity = 1

                         Standard orientation:
 ---------------------------------------------------------------------
 Center     Atomic      Atomic             Coordinates (Angstroms)
 Number     Number       Type             X           Y           Z
 ---------------------------------------------------------------------
      1          7           0        0.000000    0.691069   -0.992631
      2          7           0       -0.000000   -0.691069   -0.992631
      3          6           0        0.000000   -1.080094    0.251566
      4          7           0        0.000000   -0.000000    1.085367
      5          6           0        0.000000    1.080094    0.251566
      6          1           0        0.000000   -2.100069    0.594993
      7          1           0        0.000000   -0.000000    2.090477
      8          1           0        0.000000    2.100069    0.594993
 ---------------------------------------------------------------------

 SCF Done:  E(RHF) =  -241.072911902     A.U. after    2 cycles

 The electronic state is 1-A1.
 Alpha  occ. eigenvalues --  -15.58100 -15.52535 -15.52049 -11.31549 -11.31508
 Alpha  occ. eigenvalues --   -1.39714  -1.22732  -1.11840  -0.89787  -0.88141
 Alpha  occ. eigenvalues --   -0.81898  -0.69083  -0.66768  -0.65115  -0.53535
 Alpha  occ. eigenvalues --   -0.48664  -0.48183  -0.40093
 Alpha virt. eigenvalues --    0.02070   0.04082   0.04332   0.09001   0.09038
 Alpha virt. eigenvalues --    0.09496   0.09552   0.11944   0.14050   0.14907
 Alpha virt. eigenvalues --    0.15153   0.17141   0.17414   0.17794   0.18232

 Mulliken charges:
               1
     1  N    0.098722
     2  N    0.098722
     3  C   -0.303704
     4  N    0.416117
     5  C   -0.303704
     6  H   -0.019475
     7  H    0.032796
     8  H   -0.019475
 Sum of Mulliken charges =  -0.00000

 Dipole moment (field-independent basis, Debye):
    X=              0.0000    Y=              0.0000    Z=              6.4259  Tot=              6.4259

 Test job not archived.
 1\1\GINC-SE168\SP\RHF\Aug-CC-pVDZ\C2H3N3\OHZDE\05-Apr-2025\0\\#t hf au
 g-cc-pvdz iop(5/13=1,5/36=2,99/5=2) pseudo=read geom=check guess=(read
 ,tcheck) scf=(maxcycle=1)\\title\\0,1\N,0,0.,0.691069,-0.992631\N,0,0.
 ,-0.691069,-0.992631\C,0,0.,-1.080094,0.251566\N,0,0.,0.,1.085367\C,0,
 0.,1.080094,0.251566\H,0,0.,-2.100069,0.594993\H,0,0.,0.,2.090477\H,0,
 0.,2.100069,0.594993\\Version=ES64L-G16RevC.01\State=1-A1\HF=-241.0729
 119\RMSD=2.996e-02\Dipole=0.,0.,2.5281524\Quadrupole=-2.1703378,2.8781
 689,-0.7078311,0.,0.,0.\PG=C02V [C2(N1H1),SGV(C2H2N2)]\\@

 Normal termination of Gaussian 16 at Sat Apr  5 22:20:28 2025.
