 Gaussian 16, Revision C.01,

 ----------------------------------------------------------------------
 #t hf aug-cc-pvdz symm=none int=(grid=ultrafine) guess=(read,tcheck) s
 table=(opt,rrhf)
 ----------------------------------------------------------------------
 -----
 title
 -----
 Symbolic Z-matrix:
 Charge =  0 Multiplicity = 1

 SCF Done:  E(RHF) =  -305.875585784     A.U. after   11 cycles
 Normal termination of Gaussian 16 at Sat Apr  5 22:22:38 2025.
 Gaussian 16:  ES64L-G16RevC.01  3-Jul-2019

 ----------------------------------------------------------------------
 #t hf aug-cc-pvdz iop(5/13=1,5/36=2,99/5=2) pseudo=read geom=check gue
 ss=(read,tcheck) scf=(maxcycle=1)
 ----------------------------------------------------------------------
 -----
 title
 -----
 Structure from the checkpoint file:  "1-3-dioxane.chk"
 Charge =  0 Multiplicity = 1

                         Standard orientation:
 ---------------------------------------------------------------------
 Center     Atomic      Atomic             Coordinates (Angstroms)
 Number     Number       Type             X           Y           Z
 ---------------------------------------------------------------------
      1          1           0        0.551499   -2.301909   -0.000000
      2          1           0        1.666462   -0.888490   -0.000000
      3          6           0        0.613674   -1.217264   -0.000000
      4          8           0       -0.017447   -0.764404    1.171597
      5          8           0       -0.017447   -0.764404   -1.171597
      6          1           0       -0.553642    0.923256   -2.152989
      7          1           0        1.017015    1.020150   -1.338331
      8          6           0       -0.017447    0.661398   -1.242927
      9          1           0        1.017015    1.020150    1.338331
     10          1           0       -0.553642    0.923256    2.152989
     11          6           0       -0.017447    0.661398    1.242927
     12          1           0       -0.568831    2.344294    0.000000
     13          1           0       -1.736457    1.016352    0.000000
     14          6           0       -0.672158    1.256703    0.000000
 ---------------------------------------------------------------------

 SCF Done:  E(RHF) =  -306.192913516     A.U. after    2 cycles

 The electronic state is 1-A'.
 Alpha  occ. eigenvalues --  -20.54863 -20.54860 -11.33377 -11.28948 -11.28941
 Alpha  occ. eigenvalues --  -11.23751  -1.50366  -1.43216  -1.07130  -0.92313
 Alpha  occ. eigenvalues --   -0.91914  -0.80406  -0.71214  -0.67027  -0.65891
 Alpha  occ. eigenvalues --   -0.64195  -0.62029  -0.57566  -0.56858  -0.51628
 Alpha  occ. eigenvalues --   -0.48235  -0.48206  -0.42579  -0.42250
 Alpha virt. eigenvalues --    0.03526   0.04010   0.04208   0.04628   0.06304
 Alpha virt. eigenvalues --    0.06831   0.06861   0.07642   0.10488   0.13354
 Alpha virt. eigenvalues --    0.13697   0.13729   0.14601   0.15428   0.15545

 Mulliken charges:
               1
     1  H   -0.071360
     2  H    0.223818
     3  C    1.097496
     4  O   -1.259478
     5  O   -1.259478
     6  H   -0.011807
     7  H    0.169511
     8  C    0.455669
     9  H    0.169511
    10  H   -0.011807
    11  C    0.455669
    12  H    0.209958
    13  H    0.122561
    14  C   -0.290265
 Sum of Mulliken charges =  -0.00000

 Dipole moment (field-independent basis, Debye):
    X=              0.8181    Y=              2.0601    Z=              0.0000  Tot=              2.2166

 Test job not archived.
 1\1\GINC-SE165\SP\RHF\Aug-CC-pVDZ\C4H8O2\OHZDE\05-Apr-2025\0\\#t hf au
 g-cc-pvdz iop(5/13=1,5/36=2,99/5=2) pseudo=read geom=check guess=(read
 ,tcheck) scf=(maxcycle=1)\\title\\0,1\H,0,0.551499,-2.301909,0.\H,0,1.
 666462,-0.88849,0.\C,0,0.613674,-1.217264,0.\O,0,-0.017447,-0.764404,1
 .171597\O,0,-0.017447,-0.764404,-1.171597\H,0,-0.553642,0.923256,-2.15
 2989\H,0,1.017015,1.02015,-1.338331\C,0,-0.017447,0.661398,-1.242927\H
 ,0,1.017015,1.02015,1.338331\H,0,-0.553642,0.923256,2.152989\C,0,-0.01
 7447,0.661398,1.242927\H,0,-0.568831,2.344294,0.\H,0,-1.736457,1.01635

 Normal termination of Gaussian 16 at Sat Apr  5 22:23:20 2025.
