 Gaussian 16, Revision C.01,

 ----------------------------------------------------------------------
 #t hf aug-cc-pvdz symm=none int=(grid=ultrafine) guess=(read,tcheck) s
 table=(opt,rrhf)
 ----------------------------------------------------------------------
 -----
 title
 -----
 Symbolic Z-matrix:
 Charge =  0 Multiplicity = 1

 SCF Done:  E(RHF) =  -227.763681665     A.U. after   10 cycles
 Normal termination of Gaussian 16 at Sat Apr  5 22:22:20 2025.
 Gaussian 16:  ES64L-G16RevC.01  3-Jul-2019

 ----------------------------------------------------------------------
 #t hf aug-cc-pvdz iop(5/13=1,5/36=2,99/5=2) pseudo=read geom=check gue
 ss=(read,tcheck) scf=(maxcycle=1)
 ----------------------------------------------------------------------
 -----
 title
 -----
 Structure from the checkpoint file:  "1-3-dioxetane.chk"
 Charge =  0 Multiplicity = 1

                         Standard orientation:
 ---------------------------------------------------------------------
 Center     Atomic      Atomic             Coordinates (Angstroms)
 Number     Number       Type             X           Y           Z
 ---------------------------------------------------------------------
      1          6           0       -0.985328    0.000000    0.000000
      2          6           0        0.985328   -0.000000    0.000000
      3          8           0        0.000000    1.035861    0.000000
      4          8           0       -0.000000   -1.035861    0.000000
      5          1           0       -1.603663    0.000000    0.903194
      6          1           0        1.603663   -0.000000    0.903194
      7          1           0       -1.603663    0.000000   -0.903194
      8          1           0        1.603663    0.000000   -0.903194
 ---------------------------------------------------------------------

 SCF Done:  E(RHF) =  -227.992902943     A.U. after    2 cycles

 The electronic state is 1-AG.
 Alpha  occ. eigenvalues --  -20.56280 -20.56276 -11.35723 -11.35602  -1.56978
 Alpha  occ. eigenvalues --   -1.39002  -0.98042  -0.82769  -0.73853  -0.71163
 Alpha  occ. eigenvalues --   -0.67103  -0.60468  -0.55750  -0.49957  -0.49292
 Alpha  occ. eigenvalues --   -0.41177
 Alpha virt. eigenvalues --    0.03864   0.04408   0.04773   0.06561   0.08177
 Alpha virt. eigenvalues --    0.10548   0.11166   0.14421   0.16067   0.16774
 Alpha virt. eigenvalues --    0.17608   0.19415   0.19644   0.22459   0.22853

 Mulliken charges:
               1
     1  C    1.018338
     2  C    1.018338
     3  O   -1.145068
     4  O   -1.145068
     5  H    0.063365
     6  H    0.063365
     7  H    0.063365
     8  H    0.063365
 Sum of Mulliken charges =  -0.00000

 Dipole moment (field-independent basis, Debye):
    X=             -0.0000    Y=             -0.0000    Z=              0.0000  Tot=              0.0000

 Test job not archived.
 1\1\GINC-SE185\SP\RHF\Aug-CC-pVDZ\C2H4O2\OHZDE\05-Apr-2025\0\\#t hf au
 g-cc-pvdz iop(5/13=1,5/36=2,99/5=2) pseudo=read geom=check guess=(read
 ,tcheck) scf=(maxcycle=1)\\title\\0,1\C,0,-0.985328,0.,0.\C,0,0.985328
 ,0.,0.\O,0,0.,1.035861,0.\O,0,0.,-1.035861,0.\H,0,-1.603663,0.,0.90319
 4\H,0,1.603663,0.,0.903194\H,0,-1.603663,0.,-0.903194\H,0,1.603663,0.,
 -0.903194\\Version=ES64L-G16RevC.01\State=1-AG\HF=-227.9929029\RMSD=8.
 194e-03\Dipole=0.,0.,0.\Quadrupole=3.7082601,-4.2673159,0.5590558,0.,0
 .,0.\PG=D02H [C2(C1.C1),C2'(O1.O1),SG'(H4)]\\@

 Normal termination of Gaussian 16 at Sat Apr  5 22:22:21 2025.
