 Gaussian 16, Revision C.01,

 ----------------------------------------------------------------------
 #t hf aug-cc-pvdz symm=none int=(grid=ultrafine) guess=(read,tcheck) s
 table=(opt,rrhf)
 ----------------------------------------------------------------------
 -----
 title
 -----
 Symbolic Z-matrix:
 Charge =  0 Multiplicity = 1

 SCF Done:  E(RHF) =  -702.810429407     A.U. after   13 cycles
 Normal termination of Gaussian 16 at Sat Apr  5 22:22:21 2025.
 Gaussian 16:  ES64L-G16RevC.01  3-Jul-2019

 ----------------------------------------------------------------------
 #t hf aug-cc-pvdz iop(5/13=1,5/36=2,99/5=2) pseudo=read geom=check gue
 ss=(read,tcheck) scf=(maxcycle=1)
 ----------------------------------------------------------------------
 -----
 title
 -----
 Structure from the checkpoint file:  "1-3-diethylthiourea.chk"
 Charge =  0 Multiplicity = 1

                         Standard orientation:
 ---------------------------------------------------------------------
 Center     Atomic      Atomic             Coordinates (Angstroms)
 Number     Number       Type             X           Y           Z
 ---------------------------------------------------------------------
      1          6           0       -0.000000   -0.000000   -0.140930
      2         16           0        0.000000    0.000000    1.541614
      3          7           0       -0.517952   -1.016530   -0.880814
      4          7           0        0.517952    1.016530   -0.880814
      5          6           0       -1.052435   -2.261346   -0.344065
      6          6           0        1.052435    2.261346   -0.344065
      7          1           0        1.838995    2.593560   -1.024235
      8          1           0        1.512770    2.026931    0.612762
      9          6           0       -0.000000    3.353187   -0.170351
     10          1           0       -1.838995   -2.593560   -1.024235
     11          1           0       -1.512770   -2.026931    0.612762
     12          6           0       -0.000000   -3.353187   -0.170351
     13          1           0        0.475134   -3.601948   -1.121155
     14          1           0       -0.461950   -4.260562    0.222206
     15          1           0        0.769069   -3.029798    0.529468
     16          1           0        0.461950    4.260562    0.222206
     17          1           0       -0.769069    3.029798    0.529468
     18          1           0       -0.475134    3.601948   -1.121155
     19          1           0       -0.367821   -0.990573   -1.876978
     20          1           0        0.367821    0.990573   -1.876978
 ---------------------------------------------------------------------

 SCF Done:  E(RHF) =  -703.199898148     A.U. after    2 cycles

 The electronic state is 1-A.
 Alpha  occ. eigenvalues --  -93.87419 -15.53587 -15.53578 -11.37302 -11.27210
 Alpha  occ. eigenvalues --  -11.27206 -11.22619 -11.22617  -8.15727  -6.13615
 Alpha  occ. eigenvalues --   -6.13263  -6.13196  -1.30907  -1.21814  -1.05540
 Alpha  occ. eigenvalues --   -1.00843  -0.99581  -0.89899  -0.85251  -0.80070
 Alpha  occ. eigenvalues --   -0.79463  -0.69998  -0.65990  -0.62552  -0.62004
 Alpha  occ. eigenvalues --   -0.60938  -0.59227  -0.53968  -0.53722  -0.52128
 Alpha  occ. eigenvalues --   -0.51141  -0.50697  -0.50036  -0.42528  -0.33191
 Alpha  occ. eigenvalues --   -0.32528
 Alpha virt. eigenvalues --    0.02311   0.03798   0.04307   0.04372   0.04632
 Alpha virt. eigenvalues --    0.04905   0.06180   0.06537   0.06765   0.08618
 Alpha virt. eigenvalues --    0.09295   0.09618   0.10057   0.11248   0.12966

 Mulliken charges:
               1
     1  C   -1.483188
     2  S    0.029789
     3  N    0.770295
     4  N    0.770295
     5  C   -0.597235
     6  C   -0.597235
     7  H    0.039928
     8  H    0.145561
     9  C   -0.217436
    10  H    0.039928
    11  H    0.145561
    12  C   -0.217436
    13  H    0.142562
    14  H    0.149777
    15  H    0.176235
    16  H    0.149777
    17  H    0.176235
    18  H    0.142562
    19  H    0.117011
    20  H    0.117011
 Sum of Mulliken charges =  -0.00000

 Dipole moment (field-independent basis, Debye):
    X=             -0.0000    Y=             -0.0000    Z=             -4.9406  Tot=              4.9406

 Test job not archived.
 1\1\GINC-SE232\SP\RHF\Aug-CC-pVDZ\C5H12N2S1\OHZDE\05-Apr-2025\0\\#t hf
  aug-cc-pvdz iop(5/13=1,5/36=2,99/5=2) pseudo=read geom=check guess=(r
 ead,tcheck) scf=(maxcycle=1)\\title\\0,1\C,0,0.,0.,-0.14093\S,0,0.,0.,
 1.541614\N,0,-0.517952,-1.01653,-0.880814\N,0,0.517952,1.01653,-0.8808
 14\C,0,-1.052435,-2.261346,-0.344065\C,0,1.052435,2.261346,-0.344065\H
 ,0,1.838995,2.59356,-1.024235\H,0,1.51277,2.026931,0.612762\C,0,0.,3.3
 53187,-0.170351\H,0,-1.838995,-2.59356,-1.024235\H,0,-1.51277,-2.02693
 1,0.612762\C,0,0.,-3.353187,-0.170351\H,0,0.475134,-3.601948,-1.121155

 Normal termination of Gaussian 16 at Sat Apr  5 22:22:32 2025.
