 Gaussian 16, Revision C.01,

 ----------------------------------------------------------------------
 #t hf aug-cc-pvdz symm=none int=(grid=ultrafine) guess=(read,tcheck) s
 table=(opt,rrhf)
 ----------------------------------------------------------------------
 -----
 title
 -----
 Symbolic Z-matrix:
 Charge =  0 Multiplicity = 1

 SCF Done:  E(RHF) =  -637.732139600     A.U. after   16 cycles
 Normal termination of Gaussian 16 at Sat Apr  5 22:23:52 2025.
 Gaussian 16:  ES64L-G16RevC.01  3-Jul-2019

 ----------------------------------------------------------------------
 #t hf aug-cc-pvdz iop(5/13=1,5/36=2,99/5=2) pseudo=read geom=check gue
 ss=(read,tcheck) scf=(maxcycle=1)
 ----------------------------------------------------------------------
 -----
 title
 -----
 Structure from the checkpoint file:  "1-3-dinitrobenzene.chk"
 Charge =  0 Multiplicity = 1

                         Standard orientation:
 ---------------------------------------------------------------------
 Center     Atomic      Atomic             Coordinates (Angstroms)
 Number     Number       Type             X           Y           Z
 ---------------------------------------------------------------------
      1          8           0        0.000000    3.490824    0.071542
      2          7           0        0.000000    2.463811   -0.588557
      3          8           0        0.000000    2.410623   -1.806860
      4          6           0        0.000000    1.181426    0.151124
      5          6           0       -0.000000    0.000000   -0.570360
      6          6           0       -0.000000   -1.181426    0.151124
      7          7           0       -0.000000   -2.463811   -0.588557
      8          8           0       -0.000000   -3.490824    0.071542
      9          8           0       -0.000000   -2.410623   -1.806860
     10          6           0        0.000000   -1.204752    1.538926
     11          6           0        0.000000   -0.000000    2.229613
     12          6           0        0.000000    1.204752    1.538926
     13          1           0       -0.000000    0.000000   -1.647700
     14          1           0        0.000000   -2.152894    2.053303
     15          1           0        0.000000   -0.000000    3.309868
     16          1           0        0.000000    2.152894    2.053303
 ---------------------------------------------------------------------

 SCF Done:  E(RHF) =  -638.348798383     A.U. after    2 cycles

 The electronic state is 1-A1.
 Alpha  occ. eigenvalues --  -20.61064 -20.61064 -20.60997 -20.60997 -15.81441
 Alpha  occ. eigenvalues --  -15.81439 -11.34557 -11.34555 -11.32086 -11.31742
 Alpha  occ. eigenvalues --  -11.31724 -11.30177  -1.69379  -1.69291  -1.53064
 Alpha  occ. eigenvalues --   -1.52954  -1.25029  -1.16426  -1.11878  -1.03091
 Alpha  occ. eigenvalues --   -1.00842  -0.89781  -0.87174  -0.84463  -0.78885
 Alpha  occ. eigenvalues --   -0.77341  -0.77057  -0.76670  -0.76384  -0.74977
 Alpha  occ. eigenvalues --   -0.70926  -0.68040  -0.61251  -0.59526  -0.58199
 Alpha  occ. eigenvalues --   -0.52443  -0.51668  -0.50858  -0.50712  -0.47091
 Alpha  occ. eigenvalues --   -0.47021  -0.42416  -0.41429
 Alpha virt. eigenvalues --   -0.00465   0.01162   0.02196   0.03703   0.04168
 Alpha virt. eigenvalues --    0.06374   0.08034   0.08683   0.09166   0.09316
 Alpha virt. eigenvalues --    0.11209   0.11779   0.11882   0.12185   0.13123

 Mulliken charges:
               1
     1  O   -1.528536
     2  N    3.043044
     3  O   -1.464570
     4  C    0.062565
     5  C   -0.058681
     6  C    0.062565
     7  N    3.043044
     8  O   -1.528536
     9  O   -1.464570
    10  C   -0.053672
    11  C    0.707877
    12  C   -0.053672
    13  H   -0.165749
    14  H   -0.191023
    15  H   -0.219061
    16  H   -0.191023
 Sum of Mulliken charges =  -0.00000

 Dipole moment (field-independent basis, Debye):
    X=              0.0000    Y=             -0.0000    Z=              4.5773  Tot=              4.5773

 Test job not archived.
 1\1\GINC-SE115\SP\RHF\Aug-CC-pVDZ\C6H4N2O4\OHZDE\05-Apr-2025\0\\#t hf
 aug-cc-pvdz iop(5/13=1,5/36=2,99/5=2) pseudo=read geom=check guess=(re
 ad,tcheck) scf=(maxcycle=1)\\title\\0,1\O,0,0.,3.490824,0.071542\N,0,0
 .,2.463811,-0.588557\O,0,0.,2.410623,-1.80686\C,0,0.,1.181426,0.151124
 \C,0,0.,0.,-0.57036\C,0,0.,-1.181426,0.151124\N,0,0.,-2.463811,-0.5885
 57\O,0,0.,-3.490824,0.071542\O,0,0.,-2.410623,-1.80686\C,0,0.,-1.20475
 2,1.538926\C,0,0.,0.,2.229613\C,0,0.,1.204752,1.538926\H,0,0.,0.,-1.64
 77\H,0,0.,-2.152894,2.053303\H,0,0.,0.,3.309868\H,0,0.,2.152894,2.0533

 Normal termination of Gaussian 16 at Sat Apr  5 22:24:00 2025.
