 Gaussian 16, Revision C.01,

 ----------------------------------------------------------------------
 #t hf aug-cc-pvdz symm=none int=(grid=ultrafine) guess=(read,tcheck) s
 table=(opt,rrhf)
 ----------------------------------------------------------------------
 -----
 title
 -----
 Symbolic Z-matrix:
 Charge =  0 Multiplicity = 1

 SCF Done:  E(RHF) =  -1095.65802709     A.U. after   16 cycles
 Normal termination of Gaussian 16 at Sat Apr  5 22:23:39 2025.
 Gaussian 16:  ES64L-G16RevC.01  3-Jul-2019

 ----------------------------------------------------------------------
 #t hf aug-cc-pvdz iop(5/13=1,5/36=2,99/5=2) pseudo=read geom=check gue
 ss=(read,tcheck) scf=(maxcycle=1)
 ----------------------------------------------------------------------
 -----
 title
 -----
 Structure from the checkpoint file:  "1-3dithiolo4-5-dpyrimidine.chk"
 Charge =  0 Multiplicity = 1

                         Standard orientation:
 ---------------------------------------------------------------------
 Center     Atomic      Atomic             Coordinates (Angstroms)
 Number     Number       Type             X           Y           Z
 ---------------------------------------------------------------------
      1          6           0       -1.485210    1.351731    0.043199
      2          6           0       -2.539465   -0.658119    0.027515
      3          6           0       -0.256809    0.716701   -0.007150
      4          6           0       -0.286056   -0.686804   -0.018776
      5          6           0        2.255116   -0.024472    0.324269
      6          7           0       -2.633772    0.663231    0.061234
      7          7           0       -1.410366   -1.376466   -0.006097
      8         16           0        1.321934    1.487763   -0.135275
      9         16           0        1.275421   -1.509988   -0.105022
     10          1           0       -1.560649    2.432329    0.064669
     11          1           0       -3.465024   -1.219916    0.032889
     12          1           0        3.180774   -0.038599   -0.242667
     13          1           0        2.470711   -0.019780    1.389566
 ---------------------------------------------------------------------

 SCF Done:  E(RHF) =  -1096.07541265     A.U. after    2 cycles

 The electronic state is 1-A.
 Alpha  occ. eigenvalues --  -93.98615 -93.98457 -15.52528 -15.51967 -11.34648
 Alpha  occ. eigenvalues --  -11.32767 -11.32705 -11.31531 -11.29511  -8.26756
 Alpha  occ. eigenvalues --   -8.26562  -6.24547  -6.24415  -6.24375  -6.24244
 Alpha  occ. eigenvalues --   -6.24171  -6.23985  -1.32947  -1.22084  -1.17651
 Alpha  occ. eigenvalues --   -1.07232  -1.03967  -0.93702  -0.89616  -0.86131
 Alpha  occ. eigenvalues --   -0.77116  -0.72608  -0.66304  -0.63208  -0.62342
 Alpha  occ. eigenvalues --   -0.61770  -0.57959  -0.56622  -0.51295  -0.49383
 Alpha  occ. eigenvalues --   -0.47848  -0.45983  -0.45920  -0.39436  -0.33198
 Alpha virt. eigenvalues --    0.03149   0.03720   0.04381   0.05011   0.05934
 Alpha virt. eigenvalues --    0.06704   0.07502   0.08046   0.09020   0.09674
 Alpha virt. eigenvalues --    0.10055   0.10744   0.11161   0.12254   0.13671

 Mulliken charges:
               1
     1  C   -0.972589
     2  C   -0.589866
     3  C    0.601405
     4  C   -1.820470
     5  C   -0.892401
     6  N    0.765456
     7  N    1.022699
     8  S    0.660439
     9  S    0.839203
    10  H   -0.080742
    11  H   -0.034312
    12  H    0.259122
    13  H    0.242057
 Sum of Mulliken charges =  -0.00000

 Dipole moment (field-independent basis, Debye):
    X=              2.6738    Y=              1.0669    Z=              0.5931  Tot=              2.9393

 Test job not archived.
 1\1\GINC-SE221\SP\RHF\Aug-CC-pVDZ\C5H4N2S2\OHZDE\05-Apr-2025\0\\#t hf
 aug-cc-pvdz iop(5/13=1,5/36=2,99/5=2) pseudo=read geom=check guess=(re
 ad,tcheck) scf=(maxcycle=1)\\title\\0,1\C,0,-1.485209,1.351731,0.04319
 9\C,0,-2.539465,-0.658118,0.027515\C,0,-0.256809,0.716701,-0.00715\C,0
 ,-0.286056,-0.686804,-0.018776\C,0,2.255116,-0.024473,0.324269\N,0,-2.
 633772,0.663232,0.061234\N,0,-1.410366,-1.376466,-0.006097\S,0,1.32193
 5,1.487762,-0.135275\S,0,1.275421,-1.509989,-0.105022\H,0,-1.560648,2.
 432329,0.064669\H,0,-3.465024,-1.219915,0.032889\H,0,3.180774,-0.0386,

 Normal termination of Gaussian 16 at Sat Apr  5 22:23:46 2025.
