 Gaussian 16, Revision C.01,

 ----------------------------------------------------------------------
 #t hf aug-cc-pvdz symm=none int=(grid=ultrafine) guess=(read,tcheck) s
 table=(opt,rrhf)
 ----------------------------------------------------------------------
 -----
 title
 -----
 Symbolic Z-matrix:
 Charge =  0 Multiplicity = 1

 SCF Done:  E(RHF) =  -450.324303471     A.U. after   14 cycles
 Normal termination of Gaussian 16 at Sat Apr  5 22:22:56 2025.
 Gaussian 16:  ES64L-G16RevC.01  3-Jul-2019

 ----------------------------------------------------------------------
 #t hf aug-cc-pvdz iop(5/13=1,5/36=2,99/5=2) pseudo=read geom=check gue
 ss=(read,tcheck) scf=(maxcycle=1)
 ----------------------------------------------------------------------
 -----
 title
 -----
 Structure from the checkpoint file:  "1-3dioxolo4-5-dpyrimidine.chk"
 Charge =  0 Multiplicity = 1

                         Standard orientation:
 ---------------------------------------------------------------------
 Center     Atomic      Atomic             Coordinates (Angstroms)
 Number     Number       Type             X           Y           Z
 ---------------------------------------------------------------------
      1          6           0       -0.718665   -1.555127    0.000000
      2          6           0       -2.163694    0.226359    0.000000
      3          6           0        0.315607   -0.659942    0.000000
      4          6           0        0.000000    0.695721    0.000000
      5          6           0        2.228992    0.497352    0.000000
      6          7           0       -1.985417   -1.080489    0.000000
      7          7           0       -1.205174    1.183491    0.000000
      8          8           0        1.668909   -0.830309    0.000000
      9          8           0        1.140201    1.432865    0.000000
     10          1           0       -0.576225   -2.627468    0.000000
     11          1           0       -3.184942    0.584348    0.000000
     12          1           0        2.824495    0.637741    0.902050
     13          1           0        2.824495    0.637741   -0.902050
 ---------------------------------------------------------------------

 SCF Done:  E(RHF) =  -450.769167296     A.U. after    2 cycles

 The electronic state is 1-A'.
 Alpha  occ. eigenvalues --  -20.61683 -20.60983 -15.52311 -15.51453 -11.38787
 Alpha  occ. eigenvalues --  -11.36917 -11.32374 -11.32043 -11.30786  -1.58939
 Alpha  occ. eigenvalues --   -1.49434  -1.32127  -1.21110  -1.09188  -0.96967
 Alpha  occ. eigenvalues --   -0.93015  -0.91571  -0.79802  -0.75934  -0.74657
 Alpha  occ. eigenvalues --   -0.72360  -0.66188  -0.63077  -0.62568  -0.61922
 Alpha  occ. eigenvalues --   -0.58605  -0.57202  -0.52577  -0.52544  -0.46792
 Alpha  occ. eigenvalues --   -0.45233  -0.35301
 Alpha virt. eigenvalues --    0.03215   0.03951   0.04468   0.05099   0.07105
 Alpha virt. eigenvalues --    0.07389   0.08308   0.09146   0.09904   0.11253
 Alpha virt. eigenvalues --    0.11538   0.12503   0.12810   0.13228   0.14098

 Mulliken charges:
               1
     1  C   -0.334609
     2  C   -0.480282
     3  C    1.465392
     4  C    0.063418
     5  C    0.645199
     6  N    0.716180
     7  N    1.089014
     8  O   -1.678334
     9  O   -1.560160
    10  H   -0.103966
    11  H   -0.029244
    12  H    0.103696
    13  H    0.103696
 Sum of Mulliken charges =  -0.00000

 Dipole moment (field-independent basis, Debye):
    X=              3.1485    Y=             -0.6445    Z=              0.0000  Tot=              3.2138

 Test job not archived.
 1\1\GINC-SE220\SP\RHF\Aug-CC-pVDZ\C5H4N2O2\OHZDE\05-Apr-2025\0\\#t hf
 aug-cc-pvdz iop(5/13=1,5/36=2,99/5=2) pseudo=read geom=check guess=(re
 ad,tcheck) scf=(maxcycle=1)\\title\\0,1\C,0,-0.718665,-1.555127,0.\C,0
 ,-2.163694,0.226359,0.\C,0,0.315607,-0.659942,0.\C,0,0.,0.695721,0.\C,
 0,2.228992,0.497352,0.\N,0,-1.985417,-1.080489,0.\N,0,-1.205174,1.1834
 91,0.\O,0,1.668909,-0.830309,0.\O,0,1.140201,1.432865,0.\H,0,-0.576224
 ,-2.627468,0.\H,0,-3.184942,0.584348,0.\H,0,2.824495,0.637742,0.90205\
 H,0,2.824495,0.637742,-0.90205\\Version=ES64L-G16RevC.01\State=1-A'\HF

 Normal termination of Gaussian 16 at Sat Apr  5 22:23:33 2025.
