 Gaussian 16, Revision C.01,

 ----------------------------------------------------------------------
 #t hf aug-cc-pvdz symm=none int=(grid=ultrafine) guess=(read,tcheck) s
 table=(opt,rrhf)
 ----------------------------------------------------------------------
 -----
 title
 -----
 Symbolic Z-matrix:
 Charge =  0 Multiplicity = 1

 SCF Done:  E(RHF) =  -398.513978898     A.U. after   15 cycles
 Normal termination of Gaussian 16 at Sat Apr  5 22:23:33 2025.
 Gaussian 16:  ES64L-G16RevC.01  3-Jul-2019

 ----------------------------------------------------------------------
 #t hf aug-cc-pvdz iop(5/13=1,5/36=2,99/5=2) pseudo=read geom=check gue
 ss=(read,tcheck) scf=(maxcycle=1)
 ----------------------------------------------------------------------
 -----
 title
 -----
 Structure from the checkpoint file:  "1-4-pyridylethanone.chk"
 Charge =  0 Multiplicity = 1

                         Standard orientation:
 ---------------------------------------------------------------------
 Center     Atomic      Atomic             Coordinates (Angstroms)
 Number     Number       Type             X           Y           Z
 ---------------------------------------------------------------------
      1          6           0       -1.004320   -0.762666    0.000000
      2          6           0        1.322736   -0.237244    0.000000
      3          6           0       -0.645499   -2.106337    0.000000
      4          6           0        1.576679   -1.600518    0.000000
      5          6           0        0.000000    0.203071    0.000000
      6          6           0       -0.278823    1.682041    0.000000
      7          6           0       -1.715872    2.149965    0.000000
      8          7           0        0.617006   -2.529678    0.000000
      9          8           0        0.639001    2.474708    0.000000
     10          1           0       -2.050239   -0.492383    0.000000
     11          1           0        2.126827    0.484056    0.000000
     12          1           0       -1.409957   -2.874662    0.000000
     13          1           0        2.596288   -1.967380    0.000000
     14          1           0       -2.245005    1.777377    0.878947
     15          1           0       -2.245005    1.777377   -0.878947
     16          1           0       -1.733367    3.235824    0.000000
 ---------------------------------------------------------------------

 SCF Done:  E(RHF) =  -398.917291824     A.U. after    2 cycles

 The electronic state is 1-A'.
 Alpha  occ. eigenvalues --  -20.54985 -15.51978 -11.35758 -11.29148 -11.28853
 Alpha  occ. eigenvalues --  -11.27830 -11.26710 -11.25870 -11.25616  -1.48416
 Alpha  occ. eigenvalues --   -1.27358  -1.12183  -1.05384  -1.02719  -0.91052
 Alpha  occ. eigenvalues --   -0.89015  -0.79617  -0.72839  -0.71309  -0.67051
 Alpha  occ. eigenvalues --   -0.65232  -0.63016  -0.62476  -0.62368  -0.57427
 Alpha  occ. eigenvalues --   -0.56885  -0.54373  -0.51905  -0.47291  -0.42979
 Alpha  occ. eigenvalues --   -0.41221  -0.36918
 Alpha virt. eigenvalues --    0.02890   0.03513   0.03544   0.04242   0.05047
 Alpha virt. eigenvalues --    0.05541   0.06100   0.07791   0.08632   0.09345
 Alpha virt. eigenvalues --    0.10355   0.11193   0.11777   0.11795   0.13425

 Mulliken charges:
               1
     1  C    1.182569
     2  C    0.700213
     3  C   -1.399515
     4  C   -1.355068
     5  C    1.164311
     6  C    0.825552
     7  C   -0.583516
     8  N    1.205919
     9  O   -1.461676
    10  H   -0.298217
    11  H   -0.249317
    12  H   -0.199528
    13  H   -0.189027
    14  H    0.307840
    15  H    0.307840
    16  H    0.041620
 Sum of Mulliken charges =   0.00000

 Dipole moment (field-independent basis, Debye):
    X=             -2.7051    Y=              0.4741    Z=             -0.0000  Tot=              2.7463

 Test job not archived.
 1\1\GINC-SE171\SP\RHF\Aug-CC-pVDZ\C7H7N1O1\OHZDE\05-Apr-2025\0\\#t hf
 aug-cc-pvdz iop(5/13=1,5/36=2,99/5=2) pseudo=read geom=check guess=(re
 ad,tcheck) scf=(maxcycle=1)\\title\\0,1\C,0,-1.00432,-0.762666,0.\C,0,
 1.322736,-0.237243,0.\C,0,-0.645498,-2.106337,0.\C,0,1.57668,-1.600517
 ,0.\C,0,0.,0.203071,0.\C,0,-0.278823,1.682041,0.\C,0,-1.715873,2.14996
 5,0.\N,0,0.617007,-2.529678,0.\O,0,0.639,2.474708,0.\H,0,-2.050239,-0.
 492383,0.\H,0,2.126827,0.484057,0.\H,0,-1.409956,-2.874662,0.\H,0,2.59
 6289,-1.967379,0.\H,0,-2.245005,1.777376,0.878947\H,0,-2.245005,1.7773

 Normal termination of Gaussian 16 at Sat Apr  5 22:23:40 2025.
