 Gaussian 16, Revision C.01,

 ----------------------------------------------------------------------
 #t hf aug-cc-pvdz symm=none int=(grid=ultrafine) guess=(read,tcheck) s
 table=(opt,rrhf)
 ----------------------------------------------------------------------
 -----
 title
 -----
 Symbolic Z-matrix:
 Charge =  0 Multiplicity = 1

 SCF Done:  E(RHF) =  -1075.16860273     A.U. after   12 cycles

 1\1\GINC-SE152\Stability\RHF\Aug-CC-pVDZ\C4H8Cl2\OHZDE\05-Apr-2025\0\\
 #t hf aug-cc-pvdz symm=none int=(grid=ultrafine) guess=(read,tcheck) s
 table=(opt,rrhf)\\title\\0,1\C,0,-0.72187,0.24903,0.685981\C,0,0.72187
 ,-0.24903,0.685981\C,0,-1.761587,-0.853628,0.754122\C,0,1.761587,0.853
 628,0.754122\Cl,0,-1.761587,-1.906934,-0.730679\Cl,0,1.761587,1.906934
 ,-0.730679\H,0,-0.904673,0.868385,-0.192246\H,0,-0.885885,0.888194,1.5
 61267\H,0,0.904673,-0.868385,-0.192246\H,0,0.885885,-0.888194,1.561267
 \H,0,-1.591489,-1.52711,1.590678\H,0,-2.766336,-0.447769,0.82123\H,0,1

 Normal termination of Gaussian 16 at Sat Apr  5 22:22:45 2025.
 Gaussian 16:  ES64L-G16RevC.01  3-Jul-2019

 ----------------------------------------------------------------------
 #t hf aug-cc-pvdz iop(5/13=1,5/36=2,99/5=2) pseudo=read geom=check gue
 ss=(read,tcheck) scf=(maxcycle=1)
 ----------------------------------------------------------------------
 -----
 title
 -----
 Structure from the checkpoint file:  "1-4-dichlorobutane.chk"
 Charge =  0 Multiplicity = 1

                         Standard orientation:
 ---------------------------------------------------------------------
 Center     Atomic      Atomic             Coordinates (Angstroms)
 Number     Number       Type             X           Y           Z
 ---------------------------------------------------------------------
      1          6           0       -0.721870    0.249030    0.685981
      2          6           0        0.721870   -0.249030    0.685981
      3          6           0       -1.761587   -0.853628    0.754122
      4          6           0        1.761587    0.853628    0.754122
      5         17           0       -1.761587   -1.906934   -0.730679
      6         17           0        1.761587    1.906934   -0.730679
      7          1           0       -0.904673    0.868385   -0.192246
      8          1           0       -0.885885    0.888194    1.561267
      9          1           0        0.904673   -0.868385   -0.192246
     10          1           0        0.885885   -0.888194    1.561267
     11          1           0       -1.591489   -1.527110    1.590678
     12          1           0       -2.766336   -0.447769    0.821230
     13          1           0        1.591489    1.527110    1.590678
     14          1           0        2.766336    0.447769    0.821230
 ---------------------------------------------------------------------

 SCF Done:  E(RHF) =  -1075.49443447     A.U. after    2 cycles

 The electronic state is 1-A.
 Alpha  occ. eigenvalues -- -105.55404-105.55404 -11.31034 -11.31033 -11.25450
 Alpha  occ. eigenvalues --  -11.25429 -10.60210 -10.60210  -7.77145  -7.77143
 Alpha  occ. eigenvalues --   -7.76787  -7.76786  -7.76776  -7.76775  -1.14119
 Alpha  occ. eigenvalues --   -1.10188  -1.02685  -0.95482  -0.86496  -0.80971
 Alpha  occ. eigenvalues --   -0.67924  -0.65590  -0.63894  -0.61611  -0.56296
 Alpha  occ. eigenvalues --   -0.55027  -0.53681  -0.50911  -0.49766  -0.44695
 Alpha  occ. eigenvalues --   -0.44454  -0.44365  -0.43927
 Alpha virt. eigenvalues --    0.02953   0.03373   0.04149   0.04932   0.06675
 Alpha virt. eigenvalues --    0.06891   0.07071   0.07656   0.10113   0.11254
 Alpha virt. eigenvalues --    0.11976   0.13024   0.13898   0.15167   0.15577

 Mulliken charges:
               1
     1  C   -0.250468
     2  C   -0.250468
     3  C   -0.440136
     4  C   -0.440136
     5  Cl  -0.083619
     6  Cl  -0.083619
     7  H    0.161954
     8  H    0.185532
     9  H    0.161954
    10  H    0.185532
    11  H    0.229023
    12  H    0.197714
    13  H    0.229023
    14  H    0.197714
 Sum of Mulliken charges =  -0.00000

 Dipole moment (field-independent basis, Debye):
    X=             -0.0000    Y=             -0.0000    Z=              3.6059  Tot=              3.6059

 Test job not archived.
 1\1\GINC-SE152\SP\RHF\Aug-CC-pVDZ\C4H8Cl2\OHZDE\05-Apr-2025\0\\#t hf a
 ug-cc-pvdz iop(5/13=1,5/36=2,99/5=2) pseudo=read geom=check guess=(rea
 d,tcheck) scf=(maxcycle=1)\\title\\0,1\C,0,-0.72187,0.24903,0.685981\C
 ,0,0.72187,-0.24903,0.685981\C,0,-1.761587,-0.853628,0.754122\C,0,1.76
 1587,0.853628,0.754122\Cl,0,-1.761587,-1.906934,-0.730679\Cl,0,1.76158
 7,1.906934,-0.730679\H,0,-0.904673,0.868385,-0.192246\H,0,-0.885885,0.
 888194,1.561267\H,0,0.904673,-0.868385,-0.192246\H,0,0.885885,-0.88819
 4,1.561267\H,0,-1.591489,-1.52711,1.590678\H,0,-2.766336,-0.447769,0.8

 Normal termination of Gaussian 16 at Sat Apr  5 22:23:20 2025.
