 Gaussian 16, Revision C.01,

 ----------------------------------------------------------------------
 #t hf aug-cc-pvdz symm=none int=(grid=ultrafine) guess=(read,tcheck) s
 table=(opt,rrhf)
 ----------------------------------------------------------------------
 -----
 title
 -----
 Symbolic Z-matrix:
 Charge =  0 Multiplicity = 1

 SCF Done:  E(RHF) =  -951.212378677     A.U. after   12 cycles
 Normal termination of Gaussian 16 at Sat Apr  5 22:22:46 2025.
 Gaussian 16:  ES64L-G16RevC.01  3-Jul-2019

 ----------------------------------------------------------------------
 #t hf aug-cc-pvdz iop(5/13=1,5/36=2,99/5=2) pseudo=read geom=check gue
 ss=(read,tcheck) scf=(maxcycle=1)
 ----------------------------------------------------------------------
 -----
 title
 -----
 Structure from the checkpoint file:  "1-4-dithiane.chk"
 Charge =  0 Multiplicity = 1

                         Standard orientation:
 ---------------------------------------------------------------------
 Center     Atomic      Atomic             Coordinates (Angstroms)
 Number     Number       Type             X           Y           Z
 ---------------------------------------------------------------------
      1          6           0        0.285090    0.705076    1.402750
      2          6           0       -0.285090   -0.705076    1.402750
      3          6           0        0.285090    0.705076   -1.402750
      4          6           0       -0.285090   -0.705076   -1.402750
      5         16           0       -0.285090    1.732970    0.000000
      6         16           0        0.285090   -1.732970    0.000000
      7          1           0       -0.049188    1.244965    2.289919
      8          1           0        1.374611    0.679803    1.411268
      9          1           0        0.049188   -1.244965    2.289919
     10          1           0       -1.374611   -0.679803    1.411268
     11          1           0        1.374611    0.679803   -1.411268
     12          1           0       -0.049188    1.244965   -2.289919
     13          1           0       -1.374611   -0.679803   -1.411268
     14          1           0        0.049188   -1.244965   -2.289919
 ---------------------------------------------------------------------

 SCF Done:  E(RHF) =  -951.503066485     A.U. after    2 cycles

 The electronic state is 1-AG.
 Alpha  occ. eigenvalues --  -93.94322 -93.94321 -11.27471 -11.27460 -11.27454
 Alpha  occ. eigenvalues --  -11.27432  -8.22409  -8.22407  -6.20231  -6.20230
 Alpha  occ. eigenvalues --   -6.20075  -6.20074  -6.19861  -6.19860  -1.14065
 Alpha  occ. eigenvalues --   -1.04810  -1.03852  -0.87183  -0.86730  -0.77329
 Alpha  occ. eigenvalues --   -0.64703  -0.64411  -0.62983  -0.58388  -0.57668
 Alpha  occ. eigenvalues --   -0.55530  -0.52553  -0.45760  -0.45716  -0.42980
 Alpha  occ. eigenvalues --   -0.36061  -0.34408
 Alpha virt. eigenvalues --    0.03481   0.03830   0.04106   0.05123   0.05646
 Alpha virt. eigenvalues --    0.06309   0.06315   0.08532   0.09210   0.11205
 Alpha virt. eigenvalues --    0.13073   0.13350   0.13670   0.13965   0.14428

 Mulliken charges:
               1
     1  C   -0.660821
     2  C   -0.660821
     3  C   -0.660821
     4  C   -0.660821
     5  S    0.516417
     6  S    0.516417
     7  H    0.199481
     8  H    0.203131
     9  H    0.199481
    10  H    0.203131
    11  H    0.203131
    12  H    0.199481
    13  H    0.203131
    14  H    0.199481
 Sum of Mulliken charges =  -0.00000

 Dipole moment (field-independent basis, Debye):
    X=             -0.0000    Y=             -0.0000    Z=             -0.0000  Tot=              0.0000

 Test job not archived.
 1\1\GINC-SE169\SP\RHF\Aug-CC-pVDZ\C4H8S2\OHZDE\05-Apr-2025\0\\#t hf au
 g-cc-pvdz iop(5/13=1,5/36=2,99/5=2) pseudo=read geom=check guess=(read
 ,tcheck) scf=(maxcycle=1)\\title\\0,1\C,0,0.28509,0.705076,1.40275\C,0
 ,-0.28509,-0.705076,1.40275\C,0,0.28509,0.705076,-1.40275\C,0,-0.28509
 ,-0.705076,-1.40275\S,0,-0.28509,1.73297,0.\S,0,0.28509,-1.73297,0.\H,
 0,-0.049188,1.244965,2.289919\H,0,1.374611,0.679803,1.411268\H,0,0.049
 188,-1.244965,2.289919\H,0,-1.374611,-0.679803,1.411268\H,0,1.374611,0
 .679803,-1.411268\H,0,-0.049188,1.244965,-2.289919\H,0,-1.374611,-0.67

 Normal termination of Gaussian 16 at Sat Apr  5 22:23:20 2025.
