 Gaussian 16, Revision C.01,

 ----------------------------------------------------------------------
 #t hf aug-cc-pvdz symm=none int=(grid=ultrafine) guess=(read,tcheck) s
 table=(opt,rrhf)
 ----------------------------------------------------------------------
 -----
 title
 -----
 Symbolic Z-matrix:
 Charge =  0 Multiplicity = 1

 SCF Done:  E(RHF) =  -193.973105702     A.U. after   12 cycles
 Normal termination of Gaussian 16 at Sat Apr  5 22:22:33 2025.
 Gaussian 16:  ES64L-G16RevC.01  3-Jul-2019

 ----------------------------------------------------------------------
 #t hf aug-cc-pvdz iop(5/13=1,5/36=2,99/5=2) pseudo=read geom=check gue
 ss=(read,tcheck) scf=(maxcycle=1)
 ----------------------------------------------------------------------
 -----
 title
 -----
 Structure from the checkpoint file:  "1-4-pentadiene.chk"
 Charge =  0 Multiplicity = 1

                         Standard orientation:
 ---------------------------------------------------------------------
 Center     Atomic      Atomic             Coordinates (Angstroms)
 Number     Number       Type             X           Y           Z
 ---------------------------------------------------------------------
      1          6           0       -0.175224    0.514096    2.220039
      2          6           0       -0.175224    0.514096   -2.220039
      3          6           0       -0.175224   -0.393919    1.253232
      4          6           0       -0.175224   -0.393919   -1.253232
      5          6           0        0.654344   -0.322824    0.000000
      6          1           0       -0.793280    0.403263    3.100778
      7          1           0        0.443638    1.401787    2.165483
      8          1           0       -0.793280    0.403263   -3.100778
      9          1           0        0.443638    1.401787   -2.165483
     10          1           0       -0.815578   -1.266462    1.348079
     11          1           0       -0.815578   -1.266462   -1.348079
     12          1           0        1.352792   -1.169518    0.000000
     13          1           0        1.256964    0.587167    0.000000
 ---------------------------------------------------------------------

 SCF Done:  E(RHF) =  -194.184199506     A.U. after    2 cycles

 The electronic state is 1-A'.
 Alpha  occ. eigenvalues --  -11.24409 -11.24401 -11.24230 -11.23048 -11.23044
 Alpha  occ. eigenvalues --   -1.09973  -1.03326  -0.93285  -0.77750  -0.76409
 Alpha  occ. eigenvalues --   -0.65362  -0.64908  -0.60542  -0.57892  -0.55380
 Alpha  occ. eigenvalues --   -0.50207  -0.50027  -0.37432  -0.36974
 Alpha virt. eigenvalues --    0.03782   0.04059   0.04106   0.04592   0.06195
 Alpha virt. eigenvalues --    0.06210   0.07684   0.07812   0.10364   0.12207
 Alpha virt. eigenvalues --    0.12678   0.13345   0.13963   0.15129   0.15360

 Mulliken charges:
               1
     1  C   -0.176431
     2  C   -0.176431
     3  C    0.719213
     4  C    0.719213
     5  C   -0.780384
     6  H   -0.096130
     7  H   -0.083917
     8  H   -0.096130
     9  H   -0.083917
    10  H   -0.183937
    11  H   -0.183937
    12  H    0.308986
    13  H    0.113801
 Sum of Mulliken charges =  -0.00000

 Dipole moment (field-independent basis, Debye):
    X=              0.1455    Y=             -0.2376    Z=             -0.0000  Tot=              0.2787

 Test job not archived.
 1\1\GINC-SE190\SP\RHF\Aug-CC-pVDZ\C5H8\OHZDE\05-Apr-2025\0\\#t hf aug-
 cc-pvdz iop(5/13=1,5/36=2,99/5=2) pseudo=read geom=check guess=(read,t
 check) scf=(maxcycle=1)\\title\\0,1\C,0,-0.175224,0.514096,2.220039\C,
 0,-0.175224,0.514096,-2.220039\C,0,-0.175224,-0.393919,1.253232\C,0,-0
 .175224,-0.393919,-1.253232\C,0,0.654344,-0.322824,0.\H,0,-0.79328,0.4
 03263,3.100778\H,0,0.443638,1.401787,2.165483\H,0,-0.79328,0.403263,-3
 .100778\H,0,0.443638,1.401787,-2.165483\H,0,-0.815578,-1.266462,1.3480
 79\H,0,-0.815578,-1.266462,-1.348079\H,0,1.352792,-1.169518,0.\H,0,1.2

 Normal termination of Gaussian 16 at Sat Apr  5 22:22:36 2025.
