 Gaussian 16, Revision C.01,

 ----------------------------------------------------------------------
 #t hf aug-cc-pvdz symm=none int=(grid=ultrafine) guess=(read,tcheck) s
 table=(opt,rrhf)
 ----------------------------------------------------------------------
 -----
 title
 -----
 Symbolic Z-matrix:
 Charge =  0 Multiplicity = 1

 SCF Done:  E(RHF) =  -307.051746329     A.U. after   12 cycles

 1\1\GINC-SE222\Stability\RHF\Aug-CC-pVDZ\C4H10O2\OHZDE\05-Apr-2025\0\\
 #t hf aug-cc-pvdz symm=none int=(grid=ultrafine) guess=(read,tcheck) s
 table=(opt,rrhf)\\title\\0,1\O,0,1.498061,2.666221,0.\O,0,-1.498061,-2
 .666221,0.\C,0,1.498061,1.237514,0.\C,0,-1.498061,-1.237514,0.\C,0,0.0
 56538,0.762057,0.\C,0,-0.056538,-0.762057,0.\H,0,2.406126,2.980641,0.\
 H,0,-2.406126,-2.980641,0.\H,0,-0.445072,1.179692,0.876807\H,0,-0.4450
 72,1.179692,-0.876807\H,0,0.445072,-1.179692,0.876807\H,0,0.445072,-1.
 179692,-0.876807\H,0,-2.018661,-0.854825,-0.885586\H,0,-2.018661,-0.85

 Normal termination of Gaussian 16 at Sat Apr  5 22:22:39 2025.
 Gaussian 16:  ES64L-G16RevC.01  3-Jul-2019

 ----------------------------------------------------------------------
 #t hf aug-cc-pvdz iop(5/13=1,5/36=2,99/5=2) pseudo=read geom=check gue
 ss=(read,tcheck) scf=(maxcycle=1)
 ----------------------------------------------------------------------
 -----
 title
 -----
 Structure from the checkpoint file:  "1-4-butanediol.chk"
 Charge =  0 Multiplicity = 1

                         Standard orientation:
 ---------------------------------------------------------------------
 Center     Atomic      Atomic             Coordinates (Angstroms)
 Number     Number       Type             X           Y           Z
 ---------------------------------------------------------------------
      1          8           0        1.498061    2.666221    0.000000
      2          8           0       -1.498061   -2.666221    0.000000
      3          6           0        1.498061    1.237514    0.000000
      4          6           0       -1.498061   -1.237514    0.000000
      5          6           0        0.056538    0.762057    0.000000
      6          6           0       -0.056538   -0.762057    0.000000
      7          1           0        2.406126    2.980641    0.000000
      8          1           0       -2.406126   -2.980641    0.000000
      9          1           0       -0.445072    1.179692    0.876807
     10          1           0       -0.445072    1.179692   -0.876807
     11          1           0        0.445072   -1.179692    0.876807
     12          1           0        0.445072   -1.179692   -0.876807
     13          1           0       -2.018661   -0.854825   -0.885586
     14          1           0       -2.018661   -0.854825    0.885586
     15          1           0        2.018661    0.854825   -0.885586
     16          1           0        2.018661    0.854825    0.885586
 ---------------------------------------------------------------------

 SCF Done:  E(RHF) =  -307.377928585     A.U. after    2 cycles

 The electronic state is 1-AG.
 Alpha  occ. eigenvalues --  -20.54588 -20.54588 -11.28345 -11.28344 -11.22825
 Alpha  occ. eigenvalues --  -11.22799  -1.44324  -1.44258  -1.07668  -0.97226
 Alpha  occ. eigenvalues --   -0.85223  -0.80631  -0.70292  -0.67744  -0.67637
 Alpha  occ. eigenvalues --   -0.63769  -0.60376  -0.55884  -0.55012  -0.50972
 Alpha  occ. eigenvalues --   -0.50043  -0.48857  -0.47543  -0.44226  -0.43678
 Alpha virt. eigenvalues --    0.03304   0.03875   0.04245   0.04459   0.05655
 Alpha virt. eigenvalues --    0.06309   0.07323   0.07708   0.08831   0.10177
 Alpha virt. eigenvalues --    0.11200   0.12714   0.14506   0.15621   0.16106

 Mulliken charges:
               1
     1  O   -1.257623
     2  O   -1.257623
     3  C    0.903839
     4  C    0.903839
     5  C   -0.457663
     6  C   -0.457663
     7  H    0.335690
     8  H    0.335690
     9  H    0.141643
    10  H    0.141643
    11  H    0.141643
    12  H    0.141643
    13  H    0.096235
    14  H    0.096235
    15  H    0.096235
    16  H    0.096235
 Sum of Mulliken charges =  -0.00000

 Dipole moment (field-independent basis, Debye):
    X=              0.0000    Y=              0.0000    Z=             -0.0000  Tot=              0.0000

 Test job not archived.
 1\1\GINC-SE222\SP\RHF\Aug-CC-pVDZ\C4H10O2\OHZDE\05-Apr-2025\0\\#t hf a
 ug-cc-pvdz iop(5/13=1,5/36=2,99/5=2) pseudo=read geom=check guess=(rea
 d,tcheck) scf=(maxcycle=1)\\title\\0,1\O,0,1.498061,2.666221,0.\O,0,-1
 .498061,-2.666221,0.\C,0,1.498061,1.237514,0.\C,0,-1.498061,-1.237514,
 0.\C,0,0.056538,0.762057,0.\C,0,-0.056538,-0.762057,0.\H,0,2.406126,2.
 980641,0.\H,0,-2.406126,-2.980641,0.\H,0,-0.445072,1.179692,0.876807\H
 ,0,-0.445072,1.179692,-0.876807\H,0,0.445072,-1.179692,0.876807\H,0,0.
 445072,-1.179692,-0.876807\H,0,-2.018661,-0.854825,-0.885586\H,0,-2.01

 Normal termination of Gaussian 16 at Sat Apr  5 22:23:20 2025.
