 Gaussian 16, Revision C.01,

 ----------------------------------------------------------------------
 #t hf aug-cc-pvdz symm=none int=(grid=ultrafine) guess=(read,tcheck) s
 table=(opt,rrhf)
 ----------------------------------------------------------------------
 -----
 title
 -----
 Symbolic Z-matrix:
 Charge =  0 Multiplicity = 1

 SCF Done:  E(RHF) =  -231.861152032     A.U. after   11 cycles
 Normal termination of Gaussian 16 at Sat Apr  5 22:22:36 2025.
 Gaussian 16:  ES64L-G16RevC.01  3-Jul-2019

 ----------------------------------------------------------------------
 #t hf aug-cc-pvdz iop(5/13=1,5/36=2,99/5=2) pseudo=read geom=check gue
 ss=(read,tcheck) scf=(maxcycle=1)
 ----------------------------------------------------------------------
 -----
 title
 -----
 Structure from the checkpoint file:  "1-4-cyclohexadiene.chk"
 Charge =  0 Multiplicity = 1

                         Standard orientation:
 ---------------------------------------------------------------------
 Center     Atomic      Atomic             Coordinates (Angstroms)
 Number     Number       Type             X           Y           Z
 ---------------------------------------------------------------------
      1          6           0        1.494187   -0.000000   -0.000000
      2          6           0       -1.494187    0.000000   -0.000000
      3          6           0       -0.664224    1.251037    0.000000
      4          6           0        0.664224    1.251037    0.000000
      5          6           0       -0.664224   -1.251037   -0.000000
      6          6           0        0.664224   -1.251037    0.000000
      7          1           0        1.198840   -2.194197    0.000000
      8          1           0       -1.198840   -2.194197   -0.000000
      9          1           0        1.198840    2.194197    0.000000
     10          1           0       -1.198840    2.194197    0.000000
     11          1           0        2.167593   -0.000000    0.866807
     12          1           0       -2.167593    0.000000    0.866807
     13          1           0        2.167593   -0.000000   -0.866807
     14          1           0       -2.167593   -0.000000   -0.866807
 ---------------------------------------------------------------------

 SCF Done:  E(RHF) =  -232.110721355     A.U. after    2 cycles

 The electronic state is 1-AG.
 Alpha  occ. eigenvalues --  -11.23700 -11.23659 -11.23138 -11.23124 -11.23023
 Alpha  occ. eigenvalues --  -11.22999  -1.12809  -1.01345  -1.00747  -0.87115
 Alpha  occ. eigenvalues --   -0.79195  -0.69539  -0.66136  -0.61807  -0.60380
 Alpha  occ. eigenvalues --   -0.57807  -0.56933  -0.54483  -0.50678  -0.45770
 Alpha  occ. eigenvalues --   -0.37140  -0.34083
 Alpha virt. eigenvalues --    0.03773   0.03850   0.03901   0.04889   0.05347
 Alpha virt. eigenvalues --    0.06128   0.06332   0.08536   0.10427   0.12488
 Alpha virt. eigenvalues --    0.14007   0.14076   0.14432   0.15170   0.15399

 Mulliken charges:
               1
     1  C   -1.089106
     2  C   -1.089106
     3  C    0.476681
     4  C    0.476681
     5  C    0.476681
     6  C    0.476681
     7  H   -0.202531
     8  H   -0.202531
     9  H   -0.202531
    10  H   -0.202531
    11  H    0.270403
    12  H    0.270403
    13  H    0.270403
    14  H    0.270403
 Sum of Mulliken charges =   0.00000

 Dipole moment (field-independent basis, Debye):
    X=             -0.0000    Y=              0.0000    Z=             -0.0000  Tot=              0.0000

 Test job not archived.
 1\1\GINC-SE046\SP\RHF\Aug-CC-pVDZ\C6H8\OHZDE\05-Apr-2025\0\\#t hf aug-
 cc-pvdz iop(5/13=1,5/36=2,99/5=2) pseudo=read geom=check guess=(read,t
 check) scf=(maxcycle=1)\\title\\0,1\C,0,1.494187,0.,0.\C,0,-1.494187,0
 .,0.\C,0,-0.664224,1.251037,0.\C,0,0.664224,1.251037,0.\C,0,-0.664224,
 -1.251037,0.\C,0,0.664224,-1.251037,0.\H,0,1.19884,-2.194197,0.\H,0,-1
 .19884,-2.194197,0.\H,0,1.19884,2.194197,0.\H,0,-1.19884,2.194197,0.\H
 ,0,2.167593,0.,0.866807\H,0,-2.167593,0.,0.866807\H,0,2.167593,0.,-0.8
 66807\H,0,-2.167593,0.,-0.866807\\Version=ES64L-G16RevC.01\State=1-AG\

 Normal termination of Gaussian 16 at Sat Apr  5 22:22:39 2025.
