 Gaussian 16, Revision C.01,

 ----------------------------------------------------------------------
 #t hf aug-cc-pvdz symm=none int=(grid=ultrafine) guess=(read,tcheck) s
 table=(opt,rrhf)
 ----------------------------------------------------------------------
 -----
 title
 -----
 Symbolic Z-matrix:
 Charge =  0 Multiplicity = 1

 SCF Done:  E(RHF) =  -350.171457365     A.U. after   11 cycles
 Normal termination of Gaussian 16 at Sat Apr  5 22:24:50 2025.
 Gaussian 16:  ES64L-G16RevC.01  3-Jul-2019

 ----------------------------------------------------------------------
 #t hf aug-cc-pvdz iop(5/13=1,5/36=2,99/5=2) pseudo=read geom=check gue
 ss=(read,tcheck) scf=(maxcycle=1)
 ----------------------------------------------------------------------
 -----
 title
 -----
 Structure from the checkpoint file:  "1-4-dimethylnorborane.chk"
 Charge =  0 Multiplicity = 1

                         Standard orientation:
 ---------------------------------------------------------------------
 Center     Atomic      Atomic             Coordinates (Angstroms)
 Number     Number       Type             X           Y           Z
 ---------------------------------------------------------------------
      1          6           0        0.000000    0.000000    1.162215
      2          6           0        0.000000    1.146150    0.130119
      3          6           0       -0.000000   -1.146150    0.130119
      4          6           0        1.246419    0.777460   -0.711377
      5          6           0       -1.246419    0.777460   -0.711377
      6          6           0       -1.246419   -0.777460   -0.711377
      7          6           0        1.246419   -0.777460   -0.711377
      8          1           0       -0.887511    0.000000    1.799660
      9          1           0        0.887511   -0.000000    1.799660
     10          6           0        0.000000    2.567261    0.662990
     11          6           0       -0.000000   -2.567261    0.662990
     12          1           0        2.149630    1.169313   -0.239900
     13          1           0       -2.149630   -1.169313   -0.239900
     14          1           0        2.149630   -1.169313   -0.239900
     15          1           0       -2.149630    1.169313   -0.239900
     16          1           0        1.195920   -1.204338   -1.714197
     17          1           0       -1.195920    1.204338   -1.714197
     18          1           0        1.195920    1.204338   -1.714197
     19          1           0       -1.195920   -1.204338   -1.714197
     20          1           0        0.882939   -2.760591    1.276063
     21          1           0        0.000000   -3.294790   -0.152370
     22          1           0       -0.882939   -2.760591    1.276063
     23          1           0       -0.882939    2.760591    1.276063
     24          1           0        0.000000    3.294790   -0.152370
     25          1           0        0.882939    2.760591    1.276063
 ---------------------------------------------------------------------

 SCF Done:  E(RHF) =  -350.556445763     A.U. after    2 cycles

 The electronic state is 1-A1.
 Alpha  occ. eigenvalues --  -11.22742 -11.22699 -11.21761 -11.21721 -11.21715
 Alpha  occ. eigenvalues --  -11.21700 -11.21640 -11.21638 -11.21386  -1.17071
 Alpha  occ. eigenvalues --   -1.03635  -0.99783  -0.96235  -0.92849  -0.87689
 Alpha  occ. eigenvalues --   -0.82852  -0.74731  -0.71088  -0.65277  -0.63710
 Alpha  occ. eigenvalues --   -0.63528  -0.58385  -0.56769  -0.56159  -0.55321
 Alpha  occ. eigenvalues --   -0.55143  -0.52434  -0.50518  -0.48171  -0.47493
 Alpha  occ. eigenvalues --   -0.46933  -0.45663  -0.44516  -0.42256  -0.41574
 Alpha virt. eigenvalues --    0.03127   0.03456   0.03617   0.04047   0.05429
 Alpha virt. eigenvalues --    0.05453   0.05483   0.05841   0.05992   0.08614
 Alpha virt. eigenvalues --    0.08835   0.09086   0.09171   0.09276   0.09569

 Mulliken charges:
               1
     1  C    0.155799
     2  C   -1.320855
     3  C   -1.320855
     4  C    0.013050
     5  C    0.013050
     6  C    0.013050
     7  C    0.013050
     8  H    0.064749
     9  H    0.064749
    10  C    0.139578
    11  C    0.139578
    12  H    0.080408
    13  H    0.080408
    14  H    0.080408
    15  H    0.080408
    16  H    0.095619
    17  H    0.095619
    18  H    0.095619
    19  H    0.095619
    20  H    0.195681
    21  H    0.269113
    22  H    0.195681
    23  H    0.195681
    24  H    0.269113
    25  H    0.195681
 Sum of Mulliken charges =  -0.00000

 Dipole moment (field-independent basis, Debye):
    X=              0.0000    Y=             -0.0000    Z=              0.0276  Tot=              0.0276

 Test job not archived.
 1\1\GINC-SE154\SP\RHF\Aug-CC-pVDZ\C9H16\OHZDE\05-Apr-2025\0\\#t hf aug
 -cc-pvdz iop(5/13=1,5/36=2,99/5=2) pseudo=read geom=check guess=(read,
 tcheck) scf=(maxcycle=1)\\title\\0,1\C,0,0.,0.,1.162215\C,0,0.,1.14615
 ,0.130119\C,0,0.,-1.14615,0.130119\C,0,1.246419,0.77746,-0.711377\C,0,
 -1.246419,0.77746,-0.711377\C,0,-1.246419,-0.77746,-0.711377\C,0,1.246
 419,-0.77746,-0.711377\H,0,-0.887511,0.,1.79966\H,0,0.887511,0.,1.7996
 6\C,0,0.,2.567261,0.66299\C,0,0.,-2.567261,0.66299\H,0,2.14963,1.16931
 3,-0.2399\H,0,-2.14963,-1.169313,-0.2399\H,0,2.14963,-1.169313,-0.2399

 Normal termination of Gaussian 16 at Sat Apr  5 22:26:51 2025.
