 Gaussian 16, Revision C.01,

 ----------------------------------------------------------------------
 #t hf aug-cc-pvdz symm=none int=(grid=ultrafine) guess=(read,tcheck) s
 table=(opt,rrhf)
 ----------------------------------------------------------------------
 -----
 title
 -----
 Symbolic Z-matrix:
 Charge =  0 Multiplicity = 1

 SCF Done:  E(RHF) =  -952.380153463     A.U. after   12 cycles

 1\1\GINC-SE045\Stability\RHF\Aug-CC-pVDZ\C4H10S2\OHZDE\05-Apr-2025\0\\
 #t hf aug-cc-pvdz symm=none int=(grid=ultrafine) guess=(read,tcheck) s
 table=(opt,rrhf)\\title\\0,1\S,0,1.472597,3.116152,0.\S,0,-1.472597,-3
 .116152,0.\C,0,1.472597,1.273536,0.\C,0,-1.472597,-1.273536,0.\C,0,0.0
 34763,0.765028,0.\C,0,-0.034763,-0.765028,0.\H,0,2.807152,3.283532,0.\
 H,0,-2.807152,-3.283532,0.\H,0,-0.487695,1.15642,0.876726\H,0,-0.48769
 5,1.15642,-0.876726\H,0,0.487695,-1.15642,0.876726\H,0,0.487695,-1.156
 42,-0.876726\H,0,-2.001588,-0.922653,-0.88465\H,0,-2.001588,-0.922653,

 Normal termination of Gaussian 16 at Sat Apr  5 22:22:50 2025.
 Gaussian 16:  ES64L-G16RevC.01  3-Jul-2019

 ----------------------------------------------------------------------
 #t hf aug-cc-pvdz iop(5/13=1,5/36=2,99/5=2) pseudo=read geom=check gue
 ss=(read,tcheck) scf=(maxcycle=1)
 ----------------------------------------------------------------------
 -----
 title
 -----
 Structure from the checkpoint file:  "1-4-butanedithiol.chk"
 Charge =  0 Multiplicity = 1

                         Standard orientation:
 ---------------------------------------------------------------------
 Center     Atomic      Atomic             Coordinates (Angstroms)
 Number     Number       Type             X           Y           Z
 ---------------------------------------------------------------------
      1         16           0        1.472597    3.116152    0.000000
      2         16           0       -1.472597   -3.116152    0.000000
      3          6           0        1.472597    1.273536    0.000000
      4          6           0       -1.472597   -1.273536    0.000000
      5          6           0        0.034763    0.765028    0.000000
      6          6           0       -0.034763   -0.765028    0.000000
      7          1           0        2.807152    3.283532    0.000000
      8          1           0       -2.807152   -3.283532    0.000000
      9          1           0       -0.487695    1.156420    0.876726
     10          1           0       -0.487695    1.156420   -0.876726
     11          1           0        0.487695   -1.156420    0.876726
     12          1           0        0.487695   -1.156420   -0.876726
     13          1           0       -2.001588   -0.922653   -0.884650
     14          1           0       -2.001588   -0.922653    0.884650
     15          1           0        2.001588    0.922653   -0.884650
     16          1           0        2.001588    0.922653    0.884650
 ---------------------------------------------------------------------

 SCF Done:  E(RHF) =  -952.674693685     A.U. after    2 cycles

 The electronic state is 1-AG.
 Alpha  occ. eigenvalues --  -93.94922 -93.94921 -11.27571 -11.27569 -11.24879
 Alpha  occ. eigenvalues --  -11.24855  -8.22988  -8.22988  -6.20843  -6.20842
 Alpha  occ. eigenvalues --   -6.20699  -6.20699  -6.20469  -6.20469  -1.12162
 Alpha  occ. eigenvalues --   -1.07403  -1.00445  -0.92291  -0.83553  -0.81607
 Alpha  occ. eigenvalues --   -0.68100  -0.62958  -0.62443  -0.59101  -0.56655
 Alpha  occ. eigenvalues --   -0.54581  -0.52044  -0.49680  -0.48889  -0.46308
 Alpha  occ. eigenvalues --   -0.45534  -0.36643  -0.36549
 Alpha virt. eigenvalues --    0.03187   0.03799   0.03968   0.04281   0.05204
 Alpha virt. eigenvalues --    0.06135   0.07213   0.07885   0.08053   0.09579
 Alpha virt. eigenvalues --    0.10014   0.10370   0.11465   0.12955   0.14339

 Mulliken charges:
               1
     1  S    0.104200
     2  S    0.104200
     3  C   -0.577887
     4  C   -0.577887
     5  C   -0.287261
     6  C   -0.287261
     7  H    0.306916
     8  H    0.306916
     9  H    0.131050
    10  H    0.131050
    11  H    0.131050
    12  H    0.131050
    13  H    0.095967
    14  H    0.095967
    15  H    0.095967
    16  H    0.095967
 Sum of Mulliken charges =  -0.00000

 Dipole moment (field-independent basis, Debye):
    X=              0.0000    Y=             -0.0000    Z=             -0.0000  Tot=              0.0000

 Test job not archived.
 1\1\GINC-SE045\SP\RHF\Aug-CC-pVDZ\C4H10S2\OHZDE\05-Apr-2025\0\\#t hf a
 ug-cc-pvdz iop(5/13=1,5/36=2,99/5=2) pseudo=read geom=check guess=(rea
 d,tcheck) scf=(maxcycle=1)\\title\\0,1\S,0,1.472597,3.116152,0.\S,0,-1
 .472597,-3.116152,0.\C,0,1.472597,1.273536,0.\C,0,-1.472597,-1.273536,
 0.\C,0,0.034763,0.765028,0.\C,0,-0.034763,-0.765028,0.\H,0,2.807152,3.
 283532,0.\H,0,-2.807152,-3.283532,0.\H,0,-0.487695,1.15642,0.876726\H,
 0,-0.487695,1.15642,-0.876726\H,0,0.487695,-1.15642,0.876726\H,0,0.487
 695,-1.15642,-0.876726\H,0,-2.001588,-0.922653,-0.88465\H,0,-2.001588,

 Normal termination of Gaussian 16 at Sat Apr  5 22:23:22 2025.
