 Gaussian 16, Revision C.01,

 ----------------------------------------------------------------------
 #t hf aug-cc-pvdz symm=none int=(grid=ultrafine) guess=(read,tcheck) s
 table=(opt,rrhf)
 ----------------------------------------------------------------------
 -----
 title
 -----
 Symbolic Z-matrix:
 Charge =  0 Multiplicity = 1

 SCF Done:  E(RHF) =  -312.312087385     A.U. after   11 cycles
 Normal termination of Gaussian 16 at Sat Apr  5 22:24:10 2025.
 Gaussian 16:  ES64L-G16RevC.01  3-Jul-2019

 ----------------------------------------------------------------------
 #t hf aug-cc-pvdz iop(5/13=1,5/36=2,99/5=2) pseudo=read geom=check gue
 ss=(read,tcheck) scf=(maxcycle=1)
 ----------------------------------------------------------------------
 -----
 title
 -----
 Structure from the checkpoint file:  "1-4-dimethylcyclohexane.chk"
 Charge =  0 Multiplicity = 1

                         Standard orientation:
 ---------------------------------------------------------------------
 Center     Atomic      Atomic             Coordinates (Angstroms)
 Number     Number       Type             X           Y           Z
 ---------------------------------------------------------------------
      1          6           0       -0.128603    0.754635    1.257237
      2          6           0        0.128603   -0.754635    1.257237
      3          6           0       -0.128603    0.754635   -1.257237
      4          6           0        0.128603   -0.754635   -1.257237
      5          6           0        0.420511    1.441390    0.000000
      6          6           0       -0.420511   -1.441390    0.000000
      7          6           0        0.128603    2.941424    0.000000
      8          6           0       -0.128603   -2.941424    0.000000
      9          1           0       -1.207697    0.938689    1.316247
     10          1           0        0.309333    1.209266    2.149736
     11          1           0        1.207697   -0.938689    1.316247
     12          1           0       -0.309333   -1.209266    2.149736
     13          1           0        0.309333    1.209266   -2.149736
     14          1           0       -1.207697    0.938689   -1.316247
     15          1           0       -0.309333   -1.209266   -2.149736
     16          1           0        1.207697   -0.938689   -1.316247
     17          1           0        1.509662    1.308301    0.000000
     18          1           0       -1.509662   -1.308301    0.000000
     19          1           0        0.549005    3.428483   -0.881999
     20          1           0       -0.948008    3.128721    0.000000
     21          1           0        0.549005    3.428483    0.881999
     22          1           0        0.948008   -3.128721    0.000000
     23          1           0       -0.549005   -3.428483    0.881999
     24          1           0       -0.549005   -3.428483   -0.881999
 ---------------------------------------------------------------------

 SCF Done:  E(RHF) =  -312.660717467     A.U. after    2 cycles

 The electronic state is 1-AG.
 Alpha  occ. eigenvalues --  -11.22388 -11.22378 -11.21810 -11.21801 -11.21790
 Alpha  occ. eigenvalues --  -11.21765 -11.21645 -11.21642  -1.12655  -1.05000
 Alpha  occ. eigenvalues --   -0.99983  -0.95467  -0.87946  -0.83514  -0.78515
 Alpha  occ. eigenvalues --   -0.75329  -0.64486  -0.61327  -0.60721  -0.60712
 Alpha  occ. eigenvalues --   -0.59170  -0.55711  -0.54454  -0.52899  -0.51914
 Alpha  occ. eigenvalues --   -0.50796  -0.48818  -0.47656  -0.46385  -0.45125
 Alpha  occ. eigenvalues --   -0.43308  -0.42462
 Alpha virt. eigenvalues --    0.03226   0.03391   0.03440   0.04258   0.05235
 Alpha virt. eigenvalues --    0.05572   0.05798   0.06079   0.06408   0.08321
 Alpha virt. eigenvalues --    0.08625   0.08717   0.09185   0.09550   0.10890

 Mulliken charges:
               1
     1  C   -0.010472
     2  C   -0.010472
     3  C   -0.010472
     4  C   -0.010472
     5  C   -1.007451
     6  C   -1.007451
     7  C   -0.168844
     8  C   -0.168844
     9  H    0.187671
    10  H    0.088348
    11  H    0.187671
    12  H    0.088348
    13  H    0.088348
    14  H    0.187671
    15  H    0.088348
    16  H    0.187671
    17  H    0.116375
    18  H    0.116375
    19  H    0.160075
    20  H    0.208678
    21  H    0.160075
    22  H    0.208678
    23  H    0.160075
    24  H    0.160075
 Sum of Mulliken charges =  -0.00000

 Dipole moment (field-independent basis, Debye):
    X=              0.0000    Y=             -0.0000    Z=              0.0000  Tot=              0.0000

 Test job not archived.
 1\1\GINC-SE153\SP\RHF\Aug-CC-pVDZ\C8H16\OHZDE\05-Apr-2025\0\\#t hf aug
 -cc-pvdz iop(5/13=1,5/36=2,99/5=2) pseudo=read geom=check guess=(read,
 tcheck) scf=(maxcycle=1)\\title\\0,1\C,0,-0.128603,0.754635,1.257237\C
 ,0,0.128603,-0.754635,1.257237\C,0,-0.128603,0.754635,-1.257237\C,0,0.
 128603,-0.754635,-1.257237\C,0,0.420511,1.44139,0.\C,0,-0.420511,-1.44
 139,0.\C,0,0.128603,2.941424,0.\C,0,-0.128603,-2.941424,0.\H,0,-1.2076
 97,0.938689,1.316247\H,0,0.309333,1.209266,2.149736\H,0,1.207697,-0.93
 8689,1.316247\H,0,-0.309333,-1.209266,2.149736\H,0,0.309333,1.209266,-

 Normal termination of Gaussian 16 at Sat Apr  5 22:24:51 2025.
