 Gaussian 16, Revision C.01,

 ----------------------------------------------------------------------
 #t hf aug-cc-pvdz symm=none int=(grid=ultrafine) guess=(read,tcheck) s
 table=(opt,rrhf)
 ----------------------------------------------------------------------
 -----
 title
 -----
 Symbolic Z-matrix:
 Charge =  0 Multiplicity = 1

 SCF Done:  E(RHF) =  -531.969158878     A.U. after   15 cycles

 1\1\GINC-SE179\Stability\RHF\Aug-CC-pVDZ\C10H6O2\OHZDE\05-Apr-2025\0\\
 #t hf aug-cc-pvdz symm=none int=(grid=ultrafine) guess=(read,tcheck) s
 table=(opt,rrhf)\\title\\0,1\O,0,-1.061346,-2.675415,0.000027\C,0,-1.0
 22143,-1.45709,0.000009\C,0,0.261151,-0.70165,-0.000016\C,0,0.261151,0
 .70165,0.000016\C,0,-1.022143,1.45709,-0.000009\O,0,-1.061346,2.675415
 ,-0.000027\C,0,-2.274483,0.66794,-0.000007\C,0,-2.274483,-0.66794,0.00
 0007\C,0,1.470163,1.394082,0.000035\C,0,2.669385,0.69678,0.00002\C,0,2
 .669385,-0.69678,-0.00002\C,0,1.470163,-1.394082,-0.000035\H,0,-3.1893

 Normal termination of Gaussian 16 at Sat Apr  5 22:25:11 2025.
 Gaussian 16:  ES64L-G16RevC.01  3-Jul-2019

 ----------------------------------------------------------------------
 #t hf aug-cc-pvdz iop(5/13=1,5/36=2,99/5=2) pseudo=read geom=check gue
 ss=(read,tcheck) scf=(maxcycle=1)
 ----------------------------------------------------------------------
 -----
 title
 -----
 Structure from the checkpoint file:  "1-4-naphthalenedione.chk"
 Charge =  0 Multiplicity = 1

                         Standard orientation:
 ---------------------------------------------------------------------
 Center     Atomic      Atomic             Coordinates (Angstroms)
 Number     Number       Type             X           Y           Z
 ---------------------------------------------------------------------
      1          8           0       -1.061346   -2.675415    0.000027
      2          6           0       -1.022143   -1.457090    0.000009
      3          6           0        0.261151   -0.701650   -0.000016
      4          6           0        0.261151    0.701650    0.000016
      5          6           0       -1.022143    1.457090   -0.000009
      6          8           0       -1.061346    2.675415   -0.000027
      7          6           0       -2.274483    0.667940   -0.000007
      8          6           0       -2.274483   -0.667940    0.000007
      9          6           0        1.470163    1.394082    0.000035
     10          6           0        2.669385    0.696780    0.000020
     11          6           0        2.669385   -0.696780   -0.000020
     12          6           0        1.470163   -1.394082   -0.000035
     13          1           0       -3.189344    1.246182    0.000000
     14          1           0       -3.189344   -1.246182   -0.000001
     15          1           0        1.449164    2.474559    0.000078
     16          1           0        3.606515    1.236642    0.000045
     17          1           0        3.606515   -1.236642   -0.000045
     18          1           0        1.449163   -2.474559   -0.000077
 ---------------------------------------------------------------------

 SCF Done:  E(RHF) =  -532.495724103     A.U. after    2 cycles

 The electronic state is 1-A.
 Alpha  occ. eigenvalues --  -20.55833 -20.55831 -11.36400 -11.36370 -11.28638
 Alpha  occ. eigenvalues --  -11.28522 -11.27682 -11.27617 -11.27143 -11.27065
 Alpha  occ. eigenvalues --  -11.26878 -11.26833  -1.48838  -1.48686  -1.19738
 Alpha  occ. eigenvalues --   -1.13480  -1.05620  -1.05378  -0.96029  -0.89261
 Alpha  occ. eigenvalues --   -0.88219  -0.81884  -0.75292  -0.74853  -0.71263
 Alpha  occ. eigenvalues --   -0.68366  -0.65972  -0.64374  -0.63680  -0.61395
 Alpha  occ. eigenvalues --   -0.60975  -0.60542  -0.55676  -0.55479  -0.53564
 Alpha  occ. eigenvalues --   -0.52027  -0.45205  -0.43519  -0.41564  -0.37517
 Alpha  occ. eigenvalues --   -0.36998
 Alpha virt. eigenvalues --    0.00503   0.02875   0.03381   0.03804   0.04996
 Alpha virt. eigenvalues --    0.05116   0.06654   0.07205   0.08735   0.09242
 Alpha virt. eigenvalues --    0.09481   0.10431   0.11054   0.11277   0.11780

 Mulliken charges:
               1
     1  O   -1.688207
     2  C    0.417081
     3  C    1.694416
     4  C    1.694418
     5  C    0.417080
     6  O   -1.688207
     7  C    0.287303
     8  C    0.287302
     9  C   -0.069292
    10  C    0.161770
    11  C    0.161772
    12  C   -0.069293
    13  H   -0.270453
    14  H   -0.270453
    15  H   -0.313275
    16  H   -0.219344
    17  H   -0.219344
    18  H   -0.313275
 Sum of Mulliken charges =  -0.00000

 Dipole moment (field-independent basis, Debye):
    X=              1.4006    Y=              0.0000    Z=              0.0000  Tot=              1.4006

 Test job not archived.
 1\1\GINC-SE179\SP\RHF\Aug-CC-pVDZ\C10H6O2\OHZDE\05-Apr-2025\0\\#t hf a
 ug-cc-pvdz iop(5/13=1,5/36=2,99/5=2) pseudo=read geom=check guess=(rea
 d,tcheck) scf=(maxcycle=1)\\title\\0,1\O,0,-1.061346,-2.675415,0.00002
 7\C,0,-1.022143,-1.45709,0.000009\C,0,0.261151,-0.70165,-0.000016\C,0,
 0.261151,0.70165,0.000016\C,0,-1.022143,1.45709,-0.000009\O,0,-1.06134
 6,2.675415,-0.000027\C,0,-2.274483,0.66794,-0.000007\C,0,-2.274483,-0.
 66794,0.000007\C,0,1.470163,1.394082,0.000035\C,0,2.669385,0.69678,0.0
 0002\C,0,2.669385,-0.69678,-0.00002\C,0,1.470163,-1.394082,-0.000035\H

 Normal termination of Gaussian 16 at Sat Apr  5 22:26:51 2025.
