 Gaussian 16, Revision C.01,

 ----------------------------------------------------------------------
 #t hf aug-cc-pvdz symm=none int=(grid=ultrafine) guess=(read,tcheck) s
 table=(opt,rrhf)
 ----------------------------------------------------------------------
 -----
 title
 -----
 Symbolic Z-matrix:
 Charge =  0 Multiplicity = 1

 SCF Done:  E(RHF) =  -461.472650549     A.U. after   16 cycles
 Normal termination of Gaussian 16 at Sat Apr  5 22:26:51 2025.
 Gaussian 16:  ES64L-G16RevC.01  3-Jul-2019

 ----------------------------------------------------------------------
 #t hf aug-cc-pvdz iop(5/13=1,5/36=2,99/5=2) pseudo=read geom=check gue
 ss=(read,tcheck) scf=(maxcycle=1)
 ----------------------------------------------------------------------
 -----
 title
 -----
 Structure from the checkpoint file:  "1-4-dimethylnaphthalene.chk"
 Charge =  0 Multiplicity = 1

                         Standard orientation:
 ---------------------------------------------------------------------
 Center     Atomic      Atomic             Coordinates (Angstroms)
 Number     Number       Type             X           Y           Z
 ---------------------------------------------------------------------
      1          6           0        0.000000    0.703009    2.671994
      2          6           0       -0.000000   -0.703009    2.671994
      3          6           0        0.000000    1.389843    1.484704
      4          6           0       -0.000000   -1.389843    1.484704
      5          6           0        0.000000    0.704380   -2.165927
      6          6           0       -0.000000   -0.704380   -2.165927
      7          6           0        0.000000    0.715972    0.238733
      8          6           0       -0.000000   -0.715972    0.238733
      9          6           0        0.000000    1.427436   -1.000485
     10          6           0       -0.000000   -1.427436   -1.000485
     11          6           0        0.000000    2.932491   -1.037034
     12          6           0       -0.000000   -2.932491   -1.037034
     13          1           0        0.000000    1.242469    3.609860
     14          1           0       -0.000000   -1.242469    3.609860
     15          1           0        0.000000    2.470177    1.499421
     16          1           0       -0.000000   -2.470177    1.499421
     17          1           0        0.000000    1.226313   -3.114870
     18          1           0       -0.000000   -1.226313   -3.114870
     19          1           0        0.000000    3.288434   -2.065976
     20          1           0       -0.878303    3.350821   -0.540170
     21          1           0        0.878303    3.350821   -0.540170
     22          1           0       -0.878303   -3.350821   -0.540170
     23          1           0       -0.000000   -3.288434   -2.065976
     24          1           0        0.878303   -3.350821   -0.540170
 ---------------------------------------------------------------------

 SCF Done:  E(RHF) =  -461.952724231     A.U. after    2 cycles

 The electronic state is 1-A1.
 Alpha  occ. eigenvalues --  -11.24436 -11.24391 -11.24318 -11.24311 -11.24048
 Alpha  occ. eigenvalues --  -11.23981 -11.23909 -11.23875 -11.23304 -11.23263
 Alpha  occ. eigenvalues --  -11.23251 -11.23247  -1.17970  -1.11420  -1.07929
 Alpha  occ. eigenvalues --   -1.00663  -1.00239  -0.97775  -0.90094  -0.85315
 Alpha  occ. eigenvalues --   -0.84798  -0.78167  -0.71131  -0.70653  -0.67725
 Alpha  occ. eigenvalues --   -0.63839  -0.61717  -0.59622  -0.59020  -0.58472
 Alpha  occ. eigenvalues --   -0.57763  -0.56302  -0.54946  -0.53867  -0.52949
 Alpha  occ. eigenvalues --   -0.51843  -0.48896  -0.47653  -0.44828  -0.37801
 Alpha  occ. eigenvalues --   -0.32641  -0.28908
 Alpha virt. eigenvalues --    0.03181   0.03209   0.03675   0.04248   0.04391
 Alpha virt. eigenvalues --    0.05052   0.05727   0.06793   0.06802   0.07493
 Alpha virt. eigenvalues --    0.07880   0.08986   0.09910   0.10205   0.10287

 Mulliken charges:
               1
     1  C   -0.316383
     2  C   -0.316383
     3  C   -0.027800
     4  C   -0.027800
     5  C   -0.003233
     6  C   -0.003233
     7  C    0.946166
     8  C    0.946166
     9  C    0.471611
    10  C    0.471611
    11  C   -0.681042
    12  C   -0.681042
    13  H   -0.265798
    14  H   -0.265798
    15  H   -0.420700
    16  H   -0.420700
    17  H   -0.310679
    18  H   -0.310679
    19  H   -0.053720
    20  H    0.330789
    21  H    0.330789
    22  H    0.330789
    23  H   -0.053720
    24  H    0.330789
 Sum of Mulliken charges =  -0.00000

 Dipole moment (field-independent basis, Debye):
    X=              0.0000    Y=              0.0000    Z=             -0.0658  Tot=              0.0658

 Test job not archived.
 1\1\GINC-SE154\SP\RHF\Aug-CC-pVDZ\C12H12\OHZDE\05-Apr-2025\0\\#t hf au
 g-cc-pvdz iop(5/13=1,5/36=2,99/5=2) pseudo=read geom=check guess=(read
 ,tcheck) scf=(maxcycle=1)\\title\\0,1\C,0,-2.671994,-0.703009,0.\C,0,-
 2.671994,0.703009,0.\C,0,-1.484704,-1.389843,0.\C,0,-1.484704,1.389843
 ,0.\C,0,2.165927,-0.70438,0.\C,0,2.165927,0.70438,0.\C,0,-0.238733,-0.
 715972,0.\C,0,-0.238733,0.715972,0.\C,0,1.000485,-1.427436,0.\C,0,1.00
 0485,1.427436,0.\C,0,1.037034,-2.932491,0.\C,0,1.037034,2.932491,0.\H,
 0,-3.60986,-1.242469,0.\H,0,-3.60986,1.242469,0.\H,0,-1.499421,-2.4701

 Normal termination of Gaussian 16 at Sat Apr  5 22:27:09 2025.
