 Gaussian 16, Revision C.01,

 ----------------------------------------------------------------------
 #t hf aug-cc-pvdz symm=none int=(grid=ultrafine) guess=(read,tcheck) s
 table=(opt,rrhf)
 ----------------------------------------------------------------------
 -----
 title
 -----
 Symbolic Z-matrix:
 Charge =  0 Multiplicity = 1

 SCF Done:  E(RHF) =  -233.011801707     A.U. after   12 cycles
 Normal termination of Gaussian 16 at Sat Apr  5 22:23:49 2025.
 Gaussian 16:  ES64L-G16RevC.01  3-Jul-2019

 ----------------------------------------------------------------------
 #t hf aug-cc-pvdz iop(5/13=1,5/36=2,99/5=2) pseudo=read geom=check gue
 ss=(read,tcheck) scf=(maxcycle=1)
 ----------------------------------------------------------------------
 -----
 title
 -----
 Structure from the checkpoint file:  "1-5-hexadiene.chk"
 Charge =  0 Multiplicity = 1

                         Standard orientation:
 ---------------------------------------------------------------------
 Center     Atomic      Atomic             Coordinates (Angstroms)
 Number     Number       Type             X           Y           Z
 ---------------------------------------------------------------------
      1          6           0        0.143509    2.259213   -0.972760
      2          6           0       -0.143509   -2.259213   -0.972760
      3          6           0       -0.493542    1.494787   -0.095250
      4          6           0        0.493542   -1.494787   -0.095250
      5          6           0        0.143509    0.758656    1.044302
      6          6           0       -0.143509   -0.758656    1.044302
      7          1           0       -0.382876    2.769274   -1.768280
      8          1           0        1.216623    2.403065   -0.926974
      9          1           0        0.382876   -2.769274   -1.768280
     10          1           0       -1.216623   -2.403065   -0.926974
     11          1           0       -1.570475    1.377799   -0.187498
     12          1           0        1.570475   -1.377799   -0.187498
     13          1           0       -0.232692    1.168727    1.987200
     14          1           0        1.222919    0.929600    1.037802
     15          1           0       -1.222919   -0.929600    1.037802
     16          1           0        0.232692   -1.168727    1.987200
 ---------------------------------------------------------------------

 SCF Done:  E(RHF) =  -233.266307725     A.U. after    2 cycles

 The electronic state is 1-A.
 Alpha  occ. eigenvalues --  -11.23821 -11.23820 -11.23747 -11.23735 -11.22648
 Alpha  occ. eigenvalues --  -11.22647  -1.10194  -1.04877  -0.97667  -0.87017
 Alpha  occ. eigenvalues --   -0.76602  -0.75980  -0.65425  -0.64381  -0.60919
 Alpha  occ. eigenvalues --   -0.60785  -0.56573  -0.53144  -0.51654  -0.48629
 Alpha  occ. eigenvalues --   -0.48424  -0.36849  -0.36585
 Alpha virt. eigenvalues --    0.03578   0.03680   0.04020   0.04210   0.06016
 Alpha virt. eigenvalues --    0.06059   0.06209   0.06606   0.08864   0.09350
 Alpha virt. eigenvalues --    0.10855   0.11612   0.12560   0.13769   0.14390

 Mulliken charges:
               1
     1  C   -0.254818
     2  C   -0.254818
     3  C    0.954457
     4  C    0.954457
     5  C   -0.541911
     6  C   -0.541911
     7  H   -0.116431
     8  H   -0.087938
     9  H   -0.116431
    10  H   -0.087938
    11  H   -0.199662
    12  H   -0.199662
    13  H    0.194066
    14  H    0.052237
    15  H    0.052237
    16  H    0.194066
 Sum of Mulliken charges =  -0.00000

 Dipole moment (field-independent basis, Debye):
    X=              0.0000    Y=             -0.0000    Z=              0.5045  Tot=              0.5045

 Test job not archived.
 1\1\GINC-SE050\SP\RHF\Aug-CC-pVDZ\C6H10\OHZDE\05-Apr-2025\0\\#t hf aug
 -cc-pvdz iop(5/13=1,5/36=2,99/5=2) pseudo=read geom=check guess=(read,
 tcheck) scf=(maxcycle=1)\\title\\0,1\C,0,0.143509,2.259213,-0.97276\C,
 0,-0.143509,-2.259213,-0.97276\C,0,-0.493542,1.494787,-0.09525\C,0,0.4
 93542,-1.494787,-0.09525\C,0,0.143509,0.758656,1.044302\C,0,-0.143509,
 -0.758656,1.044302\H,0,-0.382876,2.769274,-1.76828\H,0,1.216623,2.4030
 65,-0.926974\H,0,0.382876,-2.769274,-1.76828\H,0,-1.216623,-2.403065,-
 0.926974\H,0,-1.570475,1.377799,-0.187498\H,0,1.570475,-1.377799,-0.18

 Normal termination of Gaussian 16 at Sat Apr  5 22:23:53 2025.
