 Gaussian 16, Revision C.01,

 ----------------------------------------------------------------------
 #t hf aug-cc-pvdz symm=none int=(grid=ultrafine) guess=(read,tcheck) s
 table=(opt,rrhf)
 ----------------------------------------------------------------------
 -----
 title
 -----
 Symbolic Z-matrix:
 Charge =  0 Multiplicity = 1

 SCF Done:  E(RHF) =  -269.641728422     A.U. after   13 cycles
 Normal termination of Gaussian 16 at Sat Apr  5 22:23:55 2025.
 Gaussian 16:  ES64L-G16RevC.01  3-Jul-2019

 ----------------------------------------------------------------------
 #t hf aug-cc-pvdz iop(5/13=1,5/36=2,99/5=2) pseudo=read geom=check gue
 ss=(read,tcheck) scf=(maxcycle=1)
 ----------------------------------------------------------------------
 -----
 title
 -----
 Structure from the checkpoint file:  "1-5-heptadiyne.chk"
 Charge =  0 Multiplicity = 1

                         Standard orientation:
 ---------------------------------------------------------------------
 Center     Atomic      Atomic             Coordinates (Angstroms)
 Number     Number       Type             X           Y           Z
 ---------------------------------------------------------------------
      1          6           0       -2.375167    1.623271   -0.199143
      2          6           0       -2.007050    0.527064    0.118833
      3          6           0        1.874986   -0.008026   -0.044601
      4          6           0        0.850272   -0.614152   -0.202794
      5          6           0        3.114009    0.734257    0.139370
      6          6           0       -1.564604   -0.810976    0.487974
      7          6           0       -0.398446   -1.345731   -0.378509
      8          1           0       -2.697409    2.595513   -0.476233
      9          1           0        3.585287    0.955741   -0.819838
     10          1           0        2.929194    1.683095    0.646012
     11          1           0        3.828780    0.168899    0.739903
     12          1           0       -2.406200   -1.502168    0.396639
     13          1           0       -1.262452   -0.817791    1.537388
     14          1           0       -0.697428   -1.320675   -1.428857
     15          1           0       -0.243770   -2.396855   -0.121794
 ---------------------------------------------------------------------

 SCF Done:  E(RHF) =  -269.928676701     A.U. after    2 cycles

 The electronic state is 1-A.
 Alpha  occ. eigenvalues --  -11.26753 -11.26591 -11.25344 -11.24021 -11.22913
 Alpha  occ. eigenvalues --  -11.22868 -11.22311  -1.10540  -1.05145  -1.01130
 Alpha  occ. eigenvalues --   -0.95555  -0.89261  -0.72742  -0.68387  -0.66286
 Alpha  occ. eigenvalues --   -0.63412  -0.59708  -0.59163  -0.58212  -0.56873
 Alpha  occ. eigenvalues --   -0.54969  -0.39952  -0.39403  -0.37408  -0.37275
 Alpha virt. eigenvalues --    0.03396   0.03562   0.03825   0.04551   0.05480
 Alpha virt. eigenvalues --    0.06250   0.06507   0.06579   0.09953   0.10630
 Alpha virt. eigenvalues --    0.11730   0.12158   0.13076   0.13317   0.14182

 Mulliken charges:
               1
     1  C    0.321687
     2  C    0.397496
     3  C   -0.294569
     4  C    0.630920
     5  C   -0.883355
     6  C   -0.714680
     7  C   -0.795228
     8  H   -0.440442
     9  H    0.268173
    10  H    0.267086
    11  H    0.267844
    12  H    0.227498
    13  H    0.228454
    14  H    0.258753
    15  H    0.260363
 Sum of Mulliken charges =  -0.00000

 Dipole moment (field-independent basis, Debye):
    X=              0.4353    Y=             -0.4501    Z=              0.1586  Tot=              0.6459

 Test job not archived.
 1\1\GINC-SE014\SP\RHF\Aug-CC-pVDZ\C7H8\OHZDE\05-Apr-2025\0\\#t hf aug-
 cc-pvdz iop(5/13=1,5/36=2,99/5=2) pseudo=read geom=check guess=(read,t
 check) scf=(maxcycle=1)\\title\\0,1\C,0,-2.375167,1.623271,-0.199143\C
 ,0,-2.00705,0.527064,0.118833\C,0,1.874986,-0.008026,-0.044601\C,0,0.8
 50272,-0.614152,-0.202794\C,0,3.114009,0.734257,0.13937\C,0,-1.564604,
 -0.810976,0.487974\C,0,-0.398446,-1.345731,-0.378509\H,0,-2.697409,2.5
 95513,-0.476233\H,0,3.585287,0.955741,-0.819838\H,0,2.929194,1.683095,
 0.646012\H,0,3.82878,0.168899,0.739903\H,0,-2.4062,-1.502168,0.396639\

 Normal termination of Gaussian 16 at Sat Apr  5 22:24:01 2025.
