 Gaussian 16, Revision C.01,

 ----------------------------------------------------------------------
 #t hf aug-cc-pvdz symm=none int=(grid=ultrafine) guess=(read,tcheck) s
 table=(opt,rrhf)
 ----------------------------------------------------------------------
 -----
 title
 -----
 Symbolic Z-matrix:
 Charge =  0 Multiplicity = 1

 SCF Done:  E(RHF) =  -461.476556854     A.U. after   15 cycles
 Normal termination of Gaussian 16 at Sat Apr  5 22:27:44 2025.
 Gaussian 16:  ES64L-G16RevC.01  3-Jul-2019

 ----------------------------------------------------------------------
 #t hf aug-cc-pvdz iop(5/13=1,5/36=2,99/5=2) pseudo=read geom=check gue
 ss=(read,tcheck) scf=(maxcycle=1)
 ----------------------------------------------------------------------
 -----
 title
 -----
 Structure from the checkpoint file:  "1-6-dimethylnaphthalene.chk"
 Charge =  0 Multiplicity = 1

                         Standard orientation:
 ---------------------------------------------------------------------
 Center     Atomic      Atomic             Coordinates (Angstroms)
 Number     Number       Type             X           Y           Z
 ---------------------------------------------------------------------
      1          6           0       -0.072264    1.827345   -0.349034
      2          6           0        0.072264   -1.827345    0.349034
      3          6           0       -1.374617    2.108960   -0.034074
      4          6           0        1.374617   -2.108960    0.034074
      5          6           0        1.779072    0.182743   -0.544682
      6          6           0       -1.779072   -0.182743    0.544682
      7          6           0        0.438570    0.512106   -0.228855
      8          6           0       -0.438570   -0.512106    0.228855
      9          6           0       -2.259063    1.098577    0.422509
     10          6           0        2.259063   -1.098577   -0.422509
     11          6           0       -3.684425    1.447260    0.756865
     12          6           0        3.684425   -1.447260   -0.756865
     13          1           0        0.585539    2.614560   -0.696015
     14          1           0       -0.585539   -2.614560    0.696015
     15          1           0       -1.742638    3.122803   -0.134031
     16          1           0        1.742638   -3.122803    0.134031
     17          1           0        2.435555    0.972293   -0.891642
     18          1           0       -2.435555   -0.972293    0.891642
     19          1           0       -4.237087    0.574737    1.102510
     20          1           0       -3.731712    2.207391    1.539862
     21          1           0       -4.206005    1.852269   -0.113324
     22          1           0        4.206005   -1.852269    0.113324
     23          1           0        3.731712   -2.207391   -1.539862
     24          1           0        4.237087   -0.574737   -1.102510
 ---------------------------------------------------------------------

 SCF Done:  E(RHF) =  -461.957309960     A.U. after    2 cycles

 The electronic state is 1-AG.
 Alpha  occ. eigenvalues --  -11.24432 -11.24426 -11.24182 -11.24108 -11.23959
 Alpha  occ. eigenvalues --  -11.23955 -11.23646 -11.23641 -11.23366 -11.23362
 Alpha  occ. eigenvalues --  -11.23291 -11.23286  -1.17799  -1.12158  -1.05161
 Alpha  occ. eigenvalues --   -1.04611  -0.98745  -0.96855  -0.91029  -0.85540
 Alpha  occ. eigenvalues --   -0.82028  -0.80760  -0.70691  -0.70088  -0.67583
 Alpha  occ. eigenvalues --   -0.62849  -0.61217  -0.61059  -0.58894  -0.58487
 Alpha  occ. eigenvalues --   -0.58051  -0.56214  -0.54606  -0.54188  -0.52491
 Alpha  occ. eigenvalues --   -0.51639  -0.49324  -0.47995  -0.43859  -0.38844
 Alpha  occ. eigenvalues --   -0.31698  -0.29160
 Alpha virt. eigenvalues --    0.03156   0.03280   0.03715   0.04158   0.04504
 Alpha virt. eigenvalues --    0.05371   0.05427   0.06467   0.07042   0.07749
 Alpha virt. eigenvalues --    0.07906   0.09131   0.09760   0.10267   0.10820

 Mulliken charges:
               1
     1  C   -0.133743
     2  C   -0.133743
     3  C   -0.051852
     4  C   -0.051852
     5  C    0.569953
     6  C    0.569953
     7  C    0.807162
     8  C    0.807162
     9  C   -0.087247
    10  C   -0.087247
    11  C   -0.723269
    12  C   -0.723269
    13  H   -0.344921
    14  H   -0.344921
    15  H   -0.343462
    16  H   -0.343462
    17  H   -0.265637
    18  H   -0.265637
    19  H    0.035479
    20  H    0.266678
    21  H    0.270858
    22  H    0.270858
    23  H    0.266678
    24  H    0.035479
 Sum of Mulliken charges =  -0.00000

 Dipole moment (field-independent basis, Debye):
    X=              0.0000    Y=             -0.0000    Z=             -0.0000  Tot=              0.0000

 Test job not archived.
 1\1\GINC-SE151\SP\RHF\Aug-CC-pVDZ\C12H12\OHZDE\05-Apr-2025\0\\#t hf au
 g-cc-pvdz iop(5/13=1,5/36=2,99/5=2) pseudo=read geom=check guess=(read
 ,tcheck) scf=(maxcycle=1)\\title\\0,1\C,0,-0.072264,1.827345,-0.349034
 \C,0,0.072264,-1.827345,0.349034\C,0,-1.374617,2.10896,-0.034074\C,0,1
 .374617,-2.10896,0.034074\C,0,1.779072,0.182743,-0.544682\C,0,-1.77907
 2,-0.182743,0.544682\C,0,0.43857,0.512106,-0.228855\C,0,-0.43857,-0.51
 2106,0.228855\C,0,-2.259063,1.098577,0.422509\C,0,2.259063,-1.098577,-
 0.422509\C,0,-3.684425,1.44726,0.756865\C,0,3.684425,-1.44726,-0.75686

 Normal termination of Gaussian 16 at Sat Apr  5 22:28:13 2025.
