 Gaussian 16, Revision C.01,

 ----------------------------------------------------------------------
 #t hf aug-cc-pvdz symm=none int=(grid=ultrafine) guess=(read,tcheck) s
 table=(opt,rrhf)
 ----------------------------------------------------------------------
 -----
 title
 -----
 Symbolic Z-matrix:
 Charge =  0 Multiplicity = 1

 SCF Done:  E(RHF) =  -316.573701508     A.U. after   16 cycles
 Normal termination of Gaussian 16 at Sat Apr  5 22:23:29 2025.
 Gaussian 16:  ES64L-G16RevC.01  3-Jul-2019

 ----------------------------------------------------------------------
 #t hf aug-cc-pvdz iop(5/13=1,5/36=2,99/5=2) pseudo=read geom=check gue
 ss=(read,tcheck) scf=(maxcycle=1)
 ----------------------------------------------------------------------
 -----
 title
 -----
 Structure from the checkpoint file:  "1-amino-1-2-dicyanoethene.chk"
 Charge =  0 Multiplicity = 1

                         Standard orientation:
 ---------------------------------------------------------------------
 Center     Atomic      Atomic             Coordinates (Angstroms)
 Number     Number       Type             X           Y           Z
 ---------------------------------------------------------------------
      1          7           0       -0.215113    1.497969   -0.037148
      2          7           0       -2.925719   -0.543036    0.011247
      3          7           0        2.995579   -0.108089    0.011842
      4          6           0       -0.435847    0.155615   -0.006082
      5          6           0        0.526381   -0.803968   -0.007016
      6          6           0       -1.814276   -0.244776   -0.000475
      7          6           0        1.891978   -0.450754    0.001475
      8          1           0        0.725085    1.844501    0.057268
      9          1           0       -0.969933    2.136882    0.130733
     10          1           0        0.252209   -1.846001   -0.016996
 ---------------------------------------------------------------------

 SCF Done:  E(RHF) =  -316.883231617     A.U. after    2 cycles

 The electronic state is 1-A.
 Alpha  occ. eigenvalues --  -15.57295 -15.56052 -15.52995 -11.38768 -11.32077
 Alpha  occ. eigenvalues --  -11.29996 -11.29916  -1.30632  -1.26848  -1.24739
 Alpha  occ. eigenvalues --   -1.10912  -0.97170  -0.83416  -0.80488  -0.72445
 Alpha  occ. eigenvalues --   -0.68104  -0.64441  -0.63409  -0.61801  -0.55077
 Alpha  occ. eigenvalues --   -0.55023  -0.53646  -0.51750  -0.38989
 Alpha virt. eigenvalues --    0.02083   0.02234   0.04095   0.05451   0.07433
 Alpha virt. eigenvalues --    0.09082   0.09511   0.09903   0.11346   0.11984
 Alpha virt. eigenvalues --    0.12521   0.13057   0.13337   0.14364   0.14842

 Mulliken charges:
               1
     1  N    0.771324
     2  N    0.953023
     3  N    0.930619
     4  C   -0.313341
     5  C    2.067726
     6  C   -1.799401
     7  C   -2.593941
     8  H    0.108943
     9  H    0.037271
    10  H   -0.162223
 Sum of Mulliken charges =   0.00000

 Dipole moment (field-independent basis, Debye):
    X=             -1.1608    Y=              1.6810    Z=              0.3438  Tot=              2.0716

 Test job not archived.
 1\1\GINC-SE196\SP\RHF\Aug-CC-pVDZ\C4H3N3\OHZDE\05-Apr-2025\0\\#t hf au
 g-cc-pvdz iop(5/13=1,5/36=2,99/5=2) pseudo=read geom=check guess=(read
 ,tcheck) scf=(maxcycle=1)\\title\\0,1\N,0,-0.215113,1.497969,-0.037148
 \N,0,-2.925719,-0.543036,0.011247\N,0,2.995579,-0.108089,0.011842\C,0,
 -0.435847,0.155615,-0.006082\C,0,0.526381,-0.803968,-0.007016\C,0,-1.8
 14276,-0.244776,-0.000475\C,0,1.891978,-0.450754,0.001475\H,0,0.725085
 ,1.844501,0.057268\H,0,-0.969933,2.136882,0.130733\H,0,0.252209,-1.846
 001,-0.016996\\Version=ES64L-G16RevC.01\State=1-A\HF=-316.8832316\RMSD

 Normal termination of Gaussian 16 at Sat Apr  5 22:23:37 2025.
