 Gaussian 16, Revision C.01,

 ----------------------------------------------------------------------
 #t hf aug-cc-pvdz symm=none int=(grid=ultrafine) guess=(read,tcheck) s
 table=(opt,rrhf)
 ----------------------------------------------------------------------
 -----
 title
 -----
 Symbolic Z-matrix:
 Charge =  0 Multiplicity = 1

 SCF Done:  E(RHF) =  -700.864344222     A.U. after   15 cycles
 Normal termination of Gaussian 16 at Sat Apr  5 22:23:27 2025.
 Gaussian 16:  ES64L-G16RevC.01  3-Jul-2019

 ----------------------------------------------------------------------
 #t hf aug-cc-pvdz iop(5/13=1,5/36=2,99/5=2) pseudo=read geom=check gue
 ss=(read,tcheck) scf=(maxcycle=1)
 ----------------------------------------------------------------------
 -----
 title
 -----
 Structure from the checkpoint file:  "1-azido-2-chloroethane.chk"
 Charge =  0 Multiplicity = 1

                         Standard orientation:
 ---------------------------------------------------------------------
 Center     Atomic      Atomic             Coordinates (Angstroms)
 Number     Number       Type             X           Y           Z
 ---------------------------------------------------------------------
      1         17           0        1.571721   -0.909942    0.008496
      2          7           0       -1.173896    0.820814   -0.448314
      3          7           0       -1.762173   -0.193172   -0.081847
      4          7           0       -2.396372   -1.096686    0.152096
      5          6           0       -0.060470    1.285982    0.393333
      6          6           0        1.295650    0.872078   -0.145488
      7          1           0       -0.103030    2.376437    0.375286
      8          1           0       -0.177806    0.958752    1.427891
      9          1           0        2.090432    1.359964    0.413029
     10          1           0        1.387147    1.108808   -1.201250
 ---------------------------------------------------------------------

 SCF Done:  E(RHF) =  -701.183351533     A.U. after    2 cycles

 The electronic state is 1-A.
 Alpha  occ. eigenvalues -- -105.56403 -15.72468 -15.60932 -15.55129 -11.31892
 Alpha  occ. eigenvalues --  -11.30870 -10.61217  -7.78155  -7.77788  -7.77774
 Alpha  occ. eigenvalues --   -1.51855  -1.33444  -1.13175  -1.02991  -0.89467
 Alpha  occ. eigenvalues --   -0.78679  -0.76684  -0.75343  -0.72385  -0.64793
 Alpha  occ. eigenvalues --   -0.63817  -0.59909  -0.53922  -0.49381  -0.46379
 Alpha  occ. eigenvalues --   -0.45353  -0.43171
 Alpha virt. eigenvalues --    0.03131   0.04623   0.04656   0.05186   0.07509
 Alpha virt. eigenvalues --    0.07992   0.09465   0.10785   0.11457   0.12335
 Alpha virt. eigenvalues --    0.13181   0.15065   0.15460   0.15745   0.17283

 Mulliken charges:
               1
     1  Cl  -0.064006
     2  N    0.300846
     3  N   -1.340046
     4  N    1.014440
     5  C   -0.320353
     6  C   -0.473382
     7  H    0.103763
     8  H    0.252336
     9  H    0.233374
    10  H    0.293029
 Sum of Mulliken charges =   0.00000

 Dipole moment (field-independent basis, Debye):
    X=              1.3217    Y=              2.8184    Z=              0.9959  Tot=              3.2684

 Test job not archived.
 1\1\GINC-SE232\SP\RHF\Aug-CC-pVDZ\C2H4Cl1N3\OHZDE\05-Apr-2025\0\\#t hf
  aug-cc-pvdz iop(5/13=1,5/36=2,99/5=2) pseudo=read geom=check guess=(r
 ead,tcheck) scf=(maxcycle=1)\\title\\0,1\Cl,0,1.571721,-0.909942,0.008
 496\N,0,-1.173896,0.820814,-0.448314\N,0,-1.762173,-0.193172,-0.081847
 \N,0,-2.396372,-1.096686,0.152096\C,0,-0.06047,1.285982,0.393333\C,0,1
 .29565,0.872078,-0.145488\H,0,-0.10303,2.376437,0.375286\H,0,-0.177806
 ,0.958752,1.427891\H,0,2.090432,1.359964,0.413029\H,0,1.387147,1.10880
 8,-1.20125\\Version=ES64L-G16RevC.01\State=1-A\HF=-701.1833515\RMSD=7.

 Normal termination of Gaussian 16 at Sat Apr  5 22:23:37 2025.
