 Gaussian 16, Revision C.01,

 ----------------------------------------------------------------------
 #t hf aug-cc-pvdz symm=none int=(grid=ultrafine) guess=(read,tcheck) s
 table=(opt,rrhf)
 ----------------------------------------------------------------------
 -----
 title
 -----
 Symbolic Z-matrix:
 Charge =  0 Multiplicity = 1

 SCF Done:  E(RHF) =  -814.774738763     A.U. after   16 cycles
 Normal termination of Gaussian 16 at Sat Apr  5 22:23:58 2025.
 Gaussian 16:  ES64L-G16RevC.01  3-Jul-2019

 ----------------------------------------------------------------------
 #t hf aug-cc-pvdz iop(5/13=1,5/36=2,99/5=2) pseudo=read geom=check gue
 ss=(read,tcheck) scf=(maxcycle=1)
 ----------------------------------------------------------------------
 -----
 title
 -----
 Structure from the checkpoint file:  "1-azido-3-chloro-2-propanol.chk"
 Charge =  0 Multiplicity = 1

                         Standard orientation:
 ---------------------------------------------------------------------
 Center     Atomic      Atomic             Coordinates (Angstroms)
 Number     Number       Type             X           Y           Z
 ---------------------------------------------------------------------
      1         17           0        2.984399   -0.417879   -0.152987
      2          8           0        0.545008    1.604346   -0.451726
      3          7           0       -1.674474   -0.203357   -0.321610
      4          7           0       -2.891489   -0.320120   -0.222649
      5          7           0       -4.011018   -0.462784   -0.239944
      6          6           0        0.486114    0.564884    0.505089
      7          6           0       -0.961721    0.258054    0.891001
      8          6           0        1.212507   -0.698086    0.052682
      9          1           0        0.985966    0.954778    1.392928
     10          1           0       -1.421537    1.170797    1.275391
     11          1           0       -0.999608   -0.510498    1.668236
     12          1           0        1.110587   -1.489064    0.791667
     13          1           0        0.836499   -1.050422   -0.903648
     14          1           0        0.010714    1.348290   -1.213192
 ---------------------------------------------------------------------

 SCF Done:  E(RHF) =  -815.208794345     A.U. after    2 cycles

 The electronic state is 1-A.
 Alpha  occ. eigenvalues -- -105.55561 -20.56153 -15.73976 -15.62498 -15.56432
 Alpha  occ. eigenvalues --  -11.31857 -11.30943 -11.30804 -10.60352  -7.77299
 Alpha  occ. eigenvalues --   -7.76923  -7.76914  -1.53371  -1.46778  -1.34807
 Alpha  occ. eigenvalues --   -1.12408  -1.06436  -0.94800  -0.86502  -0.79396
 Alpha  occ. eigenvalues --   -0.78147  -0.76695  -0.73878  -0.68629  -0.67195
 Alpha  occ. eigenvalues --   -0.65640  -0.61799  -0.58244  -0.54720  -0.51622
 Alpha  occ. eigenvalues --   -0.50856  -0.47425  -0.44959  -0.44323  -0.43724
 Alpha virt. eigenvalues --    0.02933   0.03949   0.04298   0.05554   0.05849
 Alpha virt. eigenvalues --    0.06303   0.06872   0.08339   0.09001   0.09677
 Alpha virt. eigenvalues --    0.11407   0.12288   0.13067   0.14051   0.14918

 Mulliken charges:
               1
     1  Cl  -0.082478
     2  O   -1.390232
     3  N   -0.057670
     4  N   -1.058139
     5  N    0.850120
     6  C    1.253588
     7  C   -0.209629
     8  C   -0.543362
     9  H    0.121689
    10  H    0.128764
    11  H    0.112915
    12  H    0.239382
    13  H    0.297656
    14  H    0.337395
 Sum of Mulliken charges =  -0.00000

 Dipole moment (field-independent basis, Debye):
    X=             -2.0746    Y=             -0.8902    Z=              1.7316  Tot=              2.8451

 Test job not archived.
 1\1\GINC-SE046\SP\RHF\Aug-CC-pVDZ\C3H6Cl1N3O1\OHZDE\05-Apr-2025\0\\#t
 hf aug-cc-pvdz iop(5/13=1,5/36=2,99/5=2) pseudo=read geom=check guess=
 (read,tcheck) scf=(maxcycle=1)\\title\\0,1\Cl,0,2.984399,-0.417879,-0.
 152987\O,0,0.545008,1.604346,-0.451726\N,0,-1.674474,-0.203357,-0.3216
 1\N,0,-2.891489,-0.32012,-0.222649\N,0,-4.011018,-0.462784,-0.239944\C
 ,0,0.486114,0.564884,0.505089\C,0,-0.961721,0.258054,0.891001\C,0,1.21
 2507,-0.698086,0.052682\H,0,0.985966,0.954778,1.392928\H,0,-1.421537,1
 .170797,1.275391\H,0,-0.999608,-0.510498,1.668236\H,0,1.110587,-1.4890

 Normal termination of Gaussian 16 at Sat Apr  5 22:24:03 2025.
