 Gaussian 16, Revision C.01,

 ----------------------------------------------------------------------
 #t hf aug-cc-pvdz symm=none int=(grid=ultrafine) guess=(read,tcheck) s
 table=(opt,rrhf)
 ----------------------------------------------------------------------
 -----
 title
 -----
 Symbolic Z-matrix:
 Charge =  0 Multiplicity = 1

 SCF Done:  E(RHF) =  -153.726467764     A.U. after   14 cycles
 Normal termination of Gaussian 16 at Sat Apr  5 22:23:22 2025.
 Gaussian 16:  ES64L-G16RevC.01  3-Jul-2019

 ----------------------------------------------------------------------
 #t hf aug-cc-pvdz iop(5/13=1,5/36=2,99/5=2) pseudo=read geom=check gue
 ss=(read,tcheck) scf=(maxcycle=1)
 ----------------------------------------------------------------------
 -----
 title
 -----
 Structure from the checkpoint file:  "1-buten-3-yne.chk"
 Charge =  0 Multiplicity = 1

                         Standard orientation:
 ---------------------------------------------------------------------
 Center     Atomic      Atomic             Coordinates (Angstroms)
 Number     Number       Type             X           Y           Z
 ---------------------------------------------------------------------
      1          6           0        0.575831   -0.555754    0.000000
      2          6           0       -0.000000    0.742606   -0.000000
      3          6           0       -0.120645   -1.693322    0.000000
      4          6           0       -0.451906    1.856856   -0.000000
      5          1           0        1.660286   -0.592176    0.000000
      6          1           0        0.382293   -2.649906    0.000000
      7          1           0       -1.201790   -1.696289   -0.000000
      8          1           0       -0.860469    2.836051   -0.000000
 ---------------------------------------------------------------------

 SCF Done:  E(RHF) =  -153.887571194     A.U. after    2 cycles

 The electronic state is 1-A'.
 Alpha  occ. eigenvalues --  -11.27058 -11.25794 -11.24953 -11.24228  -1.09584
 Alpha  occ. eigenvalues --   -1.01178  -0.85146  -0.73195  -0.68842  -0.63967
 Alpha  occ. eigenvalues --   -0.55099  -0.47621  -0.40798  -0.35507
 Alpha virt. eigenvalues --    0.03676   0.03836   0.04659   0.05909   0.07593
 Alpha virt. eigenvalues --    0.10697   0.11416   0.11535   0.12321   0.13075
 Alpha virt. eigenvalues --    0.13349   0.16147   0.16336   0.16678   0.17346

 Mulliken charges:
               1
     1  C    0.539399
     2  C    0.092048
     3  C   -0.096034
     4  C    0.146776
     5  H   -0.181702
     6  H   -0.070891
     7  H   -0.074119
     8  H   -0.355478
 Sum of Mulliken charges =  -0.00000

 Dipole moment (field-independent basis, Debye):
    X=              0.0289    Y=             -0.5295    Z=              0.0000  Tot=              0.5302

 Test job not archived.
 1\1\GINC-SE085\SP\RHF\Aug-CC-pVDZ\C4H4\OHZDE\05-Apr-2025\0\\#t hf aug-
 cc-pvdz iop(5/13=1,5/36=2,99/5=2) pseudo=read geom=check guess=(read,t
 check) scf=(maxcycle=1)\\title\\0,1\C,0,0.575831,-0.555754,0.\C,0,0.,0
 .742606,0.\C,0,-0.120645,-1.693322,0.\C,0,-0.451906,1.856856,0.\H,0,1.
 660286,-0.592176,0.\H,0,0.382293,-2.649906,0.\H,0,-1.20179,-1.696289,0
 .\H,0,-0.860469,2.836051,0.\\Version=ES64L-G16RevC.01\State=1-A'\HF=-1
 53.8875712\RMSD=2.317e-02\Dipole=0.0113896,-0.2083021,0.\Quadrupole=0.
 0503451,3.4887366,-3.5390818,-1.4174643,0.,0.\PG=CS [SG(C4H4)]\\@

 Normal termination of Gaussian 16 at Sat Apr  5 22:23:36 2025.
