 Gaussian 16, Revision C.01,

 ----------------------------------------------------------------------
 #t hf aug-cc-pvdz symm=none int=(grid=ultrafine) guess=(read,tcheck) s
 table=(opt,rrhf)
 ----------------------------------------------------------------------
 -----
 title
 -----
 Symbolic Z-matrix:
 Charge =  0 Multiplicity = 1

 SCF Done:  E(RHF) =  -860.673041534     A.U. after   13 cycles
 Normal termination of Gaussian 16 at Sat Apr  5 22:29:16 2025.
 Gaussian 16:  ES64L-G16RevC.01  3-Jul-2019

 ----------------------------------------------------------------------
 #t hf aug-cc-pvdz iop(5/13=1,5/36=2,99/5=2) pseudo=read geom=check gue
 ss=(read,tcheck) scf=(maxcycle=1)
 ----------------------------------------------------------------------
 -----
 title
 -----
 Structure from the checkpoint file:  "1-butylsulfonylbutane.chk"
 Charge =  0 Multiplicity = 1

                         Standard orientation:
 ---------------------------------------------------------------------
 Center     Atomic      Atomic             Coordinates (Angstroms)
 Number     Number       Type             X           Y           Z
 ---------------------------------------------------------------------
      1          6           0       -4.547650   -1.705638    0.272597
      2          6           0       -3.795689   -0.553081   -0.390005
      3          6           0       -2.349515   -0.430093    0.100464
      4          6           0       -1.615268    0.722413   -0.573309
      5         16           0        0.037748    1.077404    0.089018
      6          8           0        0.541910    2.249760   -0.624888
      7          6           0        1.055947   -0.348493   -0.390800
      8          6           0        2.496572   -0.170036    0.080449
      9          6           0        3.378082   -1.358055   -0.315035
     10          6           0        4.824517   -1.194420    0.147764
     11          8           0       -0.048573    1.105880    1.548995
     12          1           0       -4.067320   -2.663473    0.063479
     13          1           0       -4.581440   -1.582093    1.356437
     14          1           0       -5.575090   -1.764796   -0.087565
     15          1           0       -4.320256    0.386228   -0.194738
     16          1           0       -3.803321   -0.687023   -1.475548
     17          1           0       -1.826735   -1.371038   -0.089908
     18          1           0       -2.336575   -0.275264    1.180431
     19          1           0       -2.130655    1.672755   -0.422484
     20          1           0       -1.487390    0.579358   -1.646641
     21          1           0        0.990394   -0.416247   -1.477160
     22          1           0        0.591980   -1.227121    0.056620
     23          1           0        2.505188   -0.047615    1.164989
     24          1           0        2.901550    0.749170   -0.346134
     25          1           0        3.354143   -1.481736   -1.401693
     26          1           0        2.960814   -2.276931    0.107216
     27          1           0        5.277008   -0.300011   -0.284003
     28          1           0        4.882665   -1.102883    1.233779
     29          1           0        5.432396   -2.050455   -0.146968
 ---------------------------------------------------------------------

 SCF Done:  E(RHF) =  -861.235223113     A.U. after    2 cycles

 The electronic state is 1-A.
 Alpha  occ. eigenvalues --  -94.17411 -20.52211 -20.52151 -11.28321 -11.28255
 Alpha  occ. eigenvalues --  -11.25401 -11.24683 -11.24604 -11.24193 -11.23550
 Alpha  occ. eigenvalues --  -11.22996  -8.42797  -6.40893  -6.40683  -6.40628
 Alpha  occ. eigenvalues --   -1.53194  -1.41462  -1.12238  -1.10485  -1.04822
 Alpha  occ. eigenvalues --   -1.01626  -0.93855  -0.89670  -0.82772  -0.81877
 Alpha  occ. eigenvalues --   -0.80144  -0.69667  -0.68182  -0.67424  -0.65920
 Alpha  occ. eigenvalues --   -0.64047  -0.61463  -0.61247  -0.60244  -0.59771
 Alpha  occ. eigenvalues --   -0.56413  -0.56315  -0.53676  -0.53064  -0.52557
 Alpha  occ. eigenvalues --   -0.50865  -0.50352  -0.49900  -0.49319  -0.48908
 Alpha  occ. eigenvalues --   -0.47272  -0.46569  -0.44341  -0.41492
 Alpha virt. eigenvalues --    0.02537   0.02969   0.03182   0.03747   0.04624
 Alpha virt. eigenvalues --    0.04651   0.04986   0.06222   0.06363   0.07025
 Alpha virt. eigenvalues --    0.07496   0.07672   0.08810   0.08955   0.09533

 Mulliken charges:
               1
     1  C   -0.355143
     2  C   -0.179504
     3  C   -0.056053
     4  C   -0.889002
     5  S    3.670996
     6  O   -1.616592
     7  C   -0.800335
     8  C   -0.078041
     9  C   -0.220016
    10  C   -0.357507
    11  O   -1.646000
    12  H    0.152139
    13  H    0.172253
    14  H    0.114643
    15  H    0.106959
    16  H    0.111258
    17  H    0.095628
    18  H    0.134030
    19  H    0.239727
    20  H    0.134561
    21  H    0.132683
    22  H    0.188081
    23  H    0.139179
    24  H    0.139260
    25  H    0.115508
    26  H    0.108410
    27  H    0.162339
    28  H    0.165307
    29  H    0.115230
 Sum of Mulliken charges =  -0.00000

 Dipole moment (field-independent basis, Debye):
    X=             -1.4244    Y=             -4.4842    Z=             -2.3039  Tot=              5.2388

 Test job not archived.
 1\1\GINC-SE187\SP\RHF\Aug-CC-pVDZ\C8H18O2S1\OHZDE\05-Apr-2025\0\\#t hf
  aug-cc-pvdz iop(5/13=1,5/36=2,99/5=2) pseudo=read geom=check guess=(r
 ead,tcheck) scf=(maxcycle=1)\\title\\0,1\C,0,-4.54765,-1.705638,0.2725
 97\C,0,-3.795689,-0.553081,-0.390005\C,0,-2.349515,-0.430093,0.100464\
 C,0,-1.615268,0.722413,-0.573309\S,0,0.037748,1.077404,0.089018\O,0,0.
 54191,2.24976,-0.624888\C,0,1.055947,-0.348493,-0.3908\C,0,2.496572,-0
 .170036,0.080449\C,0,3.378082,-1.358055,-0.315035\C,0,4.824517,-1.1944
 2,0.147764\O,0,-0.048573,1.10588,1.548995\H,0,-4.06732,-2.663473,0.063

 Normal termination of Gaussian 16 at Sat Apr  5 22:29:45 2025.
