 Gaussian 16, Revision C.01,

 ----------------------------------------------------------------------
 #t hf aug-cc-pvdz symm=none int=(grid=ultrafine) guess=(read,tcheck) s
 table=(opt,rrhf)
 ----------------------------------------------------------------------
 -----
 title
 -----
 Symbolic Z-matrix:
 Charge =  0 Multiplicity = 1

 SCF Done:  E(RHF) =  -232.183029835     A.U. after   12 cycles

 1\1\GINC-SE053\Stability\RHF\Aug-CC-pVDZ\C4H10O1\OHZDE\05-Apr-2025\0\\
 #t hf aug-cc-pvdz symm=none int=(grid=ultrafine) guess=(read,tcheck) s
 table=(opt,rrhf)\\title\\0,1\C,0,2.514552,-0.302534,-0.010159\C,0,1.22
 8558,0.521535,0.028293\C,0,-0.036512,-0.336644,-0.027812\C,0,-1.316665
 ,0.487981,0.016814\O,0,-2.500646,-0.301127,-0.09206\H,0,2.565348,-0.99
 3371,0.833797\H,0,2.57528,-0.895054,-0.925011\H,0,3.397647,0.336304,0.
 030805\H,0,1.214362,1.13096,0.936793\H,0,1.223025,1.225237,-0.809202\H
 ,0,-0.039872,-0.939383,-0.939874\H,0,-0.034575,-1.041035,0.812011\H,0,

 Normal termination of Gaussian 16 at Sat Apr  5 22:23:39 2025.
 Gaussian 16:  ES64L-G16RevC.01  3-Jul-2019

 ----------------------------------------------------------------------
 #t hf aug-cc-pvdz iop(5/13=1,5/36=2,99/5=2) pseudo=read geom=check gue
 ss=(read,tcheck) scf=(maxcycle=1)
 ----------------------------------------------------------------------
 -----
 title
 -----
 Structure from the checkpoint file:  "1-butanol.chk"
 Charge =  0 Multiplicity = 1

                         Standard orientation:
 ---------------------------------------------------------------------
 Center     Atomic      Atomic             Coordinates (Angstroms)
 Number     Number       Type             X           Y           Z
 ---------------------------------------------------------------------
      1          6           0        2.514552   -0.302534   -0.010159
      2          6           0        1.228558    0.521535    0.028293
      3          6           0       -0.036512   -0.336644   -0.027812
      4          6           0       -1.316665    0.487981    0.016814
      5          8           0       -2.500646   -0.301127   -0.092060
      6          1           0        2.565348   -0.993371    0.833797
      7          1           0        2.575280   -0.895054   -0.925011
      8          1           0        3.397647    0.336304    0.030805
      9          1           0        1.214362    1.130960    0.936793
     10          1           0        1.223025    1.225237   -0.809202
     11          1           0       -0.039872   -0.939383   -0.939874
     12          1           0       -0.034575   -1.041035    0.812011
     13          1           0       -1.343796    1.095071    0.929885
     14          1           0       -1.352146    1.175054   -0.829661
     15          1           0       -2.539703   -0.906796    0.654122
 ---------------------------------------------------------------------

 SCF Done:  E(RHF) =  -232.437239200     A.U. after    2 cycles

 The electronic state is 1-A.
 Alpha  occ. eigenvalues --  -20.54351 -11.28004 -11.23243 -11.22843 -11.22577
 Alpha  occ. eigenvalues --   -1.44032  -1.07776  -0.97806  -0.86426  -0.80650
 Alpha  occ. eigenvalues --   -0.69226  -0.64497  -0.61728  -0.60266  -0.55669
 Alpha  occ. eigenvalues --   -0.54875  -0.52248  -0.48844  -0.48335  -0.47228
 Alpha  occ. eigenvalues --   -0.43245
 Alpha virt. eigenvalues --    0.03520   0.03763   0.03960   0.04547   0.06160
 Alpha virt. eigenvalues --    0.06551   0.06845   0.07345   0.09420   0.10290
 Alpha virt. eigenvalues --    0.11000   0.13135   0.15029   0.15420   0.16112

 Mulliken charges:
               1
     1  C   -0.342280
     2  C   -0.321571
     3  C   -0.386934
     4  C    0.822749
     5  O   -1.163098
     6  H    0.160771
     7  H    0.160496
     8  H    0.114296
     9  H    0.127993
    10  H    0.125463
    11  H    0.144539
    12  H    0.096793
    13  H    0.115467
    14  H    0.059280
    15  H    0.286036
 Sum of Mulliken charges =  -0.00000

 Dipole moment (field-independent basis, Debye):
    X=              1.4112    Y=             -0.0802    Z=              1.1718  Tot=              1.8361

 Test job not archived.
 1\1\GINC-SE053\SP\RHF\Aug-CC-pVDZ\C4H10O1\OHZDE\05-Apr-2025\0\\#t hf a
 ug-cc-pvdz iop(5/13=1,5/36=2,99/5=2) pseudo=read geom=check guess=(rea
 d,tcheck) scf=(maxcycle=1)\\title\\0,1\C,0,2.514552,-0.302534,-0.01015
 9\C,0,1.228558,0.521535,0.028293\C,0,-0.036512,-0.336644,-0.027812\C,0
 ,-1.316665,0.487981,0.016814\O,0,-2.500646,-0.301127,-0.09206\H,0,2.56
 5348,-0.993371,0.833797\H,0,2.57528,-0.895054,-0.925011\H,0,3.397647,0
 .336304,0.030805\H,0,1.214362,1.13096,0.936793\H,0,1.223025,1.225237,-
 0.809202\H,0,-0.039872,-0.939383,-0.939874\H,0,-0.034575,-1.041035,0.8

 Normal termination of Gaussian 16 at Sat Apr  5 22:23:44 2025.
