 Gaussian 16, Revision C.01,

 ----------------------------------------------------------------------
 #t hf aug-cc-pvdz symm=none int=(grid=ultrafine) guess=(read,tcheck) s
 table=(opt,rrhf)
 ----------------------------------------------------------------------
 -----
 title
 -----
 Symbolic Z-matrix:
 Charge =  0 Multiplicity = 1

 SCF Done:  E(RHF) =  -154.917114444     A.U. after   13 cycles
 Normal termination of Gaussian 16 at Sat Apr  5 22:23:21 2025.
 Gaussian 16:  ES64L-G16RevC.01  3-Jul-2019

 ----------------------------------------------------------------------
 #t hf aug-cc-pvdz iop(5/13=1,5/36=2,99/5=2) pseudo=read geom=check gue
 ss=(read,tcheck) scf=(maxcycle=1)
 ----------------------------------------------------------------------
 -----
 title
 -----
 Structure from the checkpoint file:  "1-butyne.chk"
 Charge =  0 Multiplicity = 1

                         Standard orientation:
 ---------------------------------------------------------------------
 Center     Atomic      Atomic             Coordinates (Angstroms)
 Number     Number       Type             X           Y           Z
 ---------------------------------------------------------------------
      1          6           0        1.328755   -1.459271    0.000000
      2          6           0        0.738939   -0.414592    0.000000
      3          6           0       -1.523500    0.649784    0.000000
      4          6           0        0.000000    0.843190    0.000000
      5          1           0        1.855677   -2.379937    0.000000
      6          1           0       -1.844031    0.095387    0.881353
      7          1           0       -1.844031    0.095387   -0.881353
      8          1           0       -2.027340    1.616676    0.000000
      9          1           0        0.297280    1.428911    0.873961
     10          1           0        0.297280    1.428911   -0.873961
 ---------------------------------------------------------------------

 SCF Done:  E(RHF) =  -155.086183593     A.U. after    2 cycles

 The electronic state is 1-A'.
 Alpha  occ. eigenvalues --  -11.26134 -11.24013 -11.23594 -11.22842  -1.08266
 Alpha  occ. eigenvalues --   -0.99871  -0.88028  -0.72384  -0.65402  -0.63502
 Alpha  occ. eigenvalues --   -0.56295  -0.53220  -0.52159  -0.39367  -0.39260
 Alpha virt. eigenvalues --    0.03645   0.03858   0.04611   0.04768   0.06202
 Alpha virt. eigenvalues --    0.07514   0.10635   0.11648   0.11993   0.12363
 Alpha virt. eigenvalues --    0.14105   0.14632   0.15353   0.16161   0.16650

 Mulliken charges:
               1
     1  C    0.394478
     2  C    0.256891
     3  C   -0.322237
     4  C   -0.831627
     5  H   -0.421253
     6  H    0.167026
     7  H    0.167026
     8  H    0.125515
     9  H    0.232091
    10  H    0.232091
 Sum of Mulliken charges =  -0.00000

 Dipole moment (field-independent basis, Debye):
    X=             -0.4924    Y=              0.6463    Z=             -0.0000  Tot=              0.8125

 Test job not archived.
 1\1\GINC-SE194\SP\RHF\Aug-CC-pVDZ\C4H6\OHZDE\05-Apr-2025\0\\#t hf aug-
 cc-pvdz iop(5/13=1,5/36=2,99/5=2) pseudo=read geom=check guess=(read,t
 check) scf=(maxcycle=1)\\title\\0,1\C,0,1.328756,-1.459271,0.\C,0,0.73
 8939,-0.414592,0.\C,0,-1.5235,0.649784,0.\C,0,0.,0.84319,0.\H,0,1.8556
 78,-2.379936,0.\H,0,-1.844031,0.095387,0.881353\H,0,-1.844031,0.095387
 ,-0.881353\H,0,-2.02734,1.616676,0.\H,0,0.29728,1.428911,0.873961\H,0,
 0.29728,1.428911,-0.873961\\Version=ES64L-G16RevC.01\State=1-A'\HF=-15
 5.0861836\RMSD=2.354e-02\Dipole=-0.1937389,0.254284,0.\Quadrupole=-0.6

 Normal termination of Gaussian 16 at Sat Apr  5 22:23:36 2025.
