 Gaussian 16, Revision C.01,

 ----------------------------------------------------------------------
 #t hf aug-cc-pvdz symm=none int=(grid=ultrafine) guess=(read,tcheck) s
 table=(opt,rrhf)
 ----------------------------------------------------------------------
 -----
 title
 -----
 Symbolic Z-matrix:
 Charge =  0 Multiplicity = 1

 SCF Done:  E(RHF) =  -388.329746749     A.U. after   11 cycles

 1\1\GINC-SE177\Stability\RHF\Aug-CC-pVDZ\C8H18O1\OHZDE\05-Apr-2025\0\\
 #t hf aug-cc-pvdz symm=none int=(grid=ultrafine) guess=(read,tcheck) s
 table=(opt,rrhf)\\title\\0,1\C,0,0.,4.931161,0.525769\C,0,0.,-4.931161
 ,0.525769\C,0,0.,3.71796,-0.402856\C,0,0.,-3.71796,-0.402856\C,0,0.,2.
 388987,0.353309\C,0,0.,-2.388987,0.353309\C,0,0.,1.184688,-0.571073\C,
 0,0.,-1.184688,-0.571073\O,0,0.,0.,0.205597\H,0,-0.880623,4.932775,1.1
 71072\H,0,0.880623,4.932775,1.171072\H,0,0.,5.864641,-0.038469\H,0,0.8
 80623,-4.932775,1.171072\H,0,-0.880623,-4.932775,1.171072\H,0,0.,-5.86

 Normal termination of Gaussian 16 at Sat Apr  5 22:26:08 2025.
 Gaussian 16:  ES64L-G16RevC.01  3-Jul-2019

 ----------------------------------------------------------------------
 #t hf aug-cc-pvdz iop(5/13=1,5/36=2,99/5=2) pseudo=read geom=check gue
 ss=(read,tcheck) scf=(maxcycle=1)
 ----------------------------------------------------------------------
 -----
 title
 -----
 Structure from the checkpoint file:  "1-butoxybutane.chk"
 Charge =  0 Multiplicity = 1

                         Standard orientation:
 ---------------------------------------------------------------------
 Center     Atomic      Atomic             Coordinates (Angstroms)
 Number     Number       Type             X           Y           Z
 ---------------------------------------------------------------------
      1          6           0        0.000000    4.931161    0.525769
      2          6           0       -0.000000   -4.931161    0.525769
      3          6           0        0.000000    3.717960   -0.402856
      4          6           0       -0.000000   -3.717960   -0.402856
      5          6           0        0.000000    2.388987    0.353309
      6          6           0       -0.000000   -2.388987    0.353309
      7          6           0        0.000000    1.184688   -0.571073
      8          6           0       -0.000000   -1.184688   -0.571073
      9          8           0       -0.000000   -0.000000    0.205597
     10          1           0       -0.880623    4.932775    1.171072
     11          1           0        0.880623    4.932775    1.171072
     12          1           0        0.000000    5.864641   -0.038469
     13          1           0        0.880623   -4.932775    1.171072
     14          1           0       -0.880623   -4.932775    1.171072
     15          1           0       -0.000000   -5.864641   -0.038469
     16          1           0       -0.874418    3.763393   -1.058921
     17          1           0        0.874418    3.763393   -1.058921
     18          1           0        0.874418   -3.763393   -1.058921
     19          1           0       -0.874418   -3.763393   -1.058921
     20          1           0        0.876326    2.331130    1.004232
     21          1           0       -0.876326    2.331130    1.004232
     22          1           0       -0.876326   -2.331130    1.004232
     23          1           0        0.876326   -2.331130    1.004232
     24          1           0       -0.884669    1.203511   -1.223789
     25          1           0        0.884669    1.203511   -1.223789
     26          1           0        0.884669   -1.203511   -1.223789
     27          1           0       -0.884669   -1.203511   -1.223789
 ---------------------------------------------------------------------

 SCF Done:  E(RHF) =  -388.757960723     A.U. after    2 cycles

 The electronic state is 1-A1.
 Alpha  occ. eigenvalues --  -20.53475 -11.27579 -11.27511 -11.22725 -11.22721
 Alpha  occ. eigenvalues --  -11.22120 -11.22118 -11.22094 -11.22078  -1.45253
 Alpha  occ. eigenvalues --   -1.08375  -1.06654  -0.99522  -0.95431  -0.86703
 Alpha  occ. eigenvalues --   -0.83916  -0.80508  -0.79073  -0.68483  -0.65345
 Alpha  occ. eigenvalues --   -0.64867  -0.62434  -0.61724  -0.58406  -0.57787
 Alpha  occ. eigenvalues --   -0.56645  -0.54049  -0.52926  -0.51383  -0.50271
 Alpha  occ. eigenvalues --   -0.48580  -0.48047  -0.47414  -0.46859  -0.46434
 Alpha  occ. eigenvalues --   -0.46337  -0.40888
 Alpha virt. eigenvalues --    0.03459   0.03579   0.03664   0.04150   0.04589
 Alpha virt. eigenvalues --    0.04813   0.05005   0.06430   0.06467   0.07104
 Alpha virt. eigenvalues --    0.07535   0.07917   0.08876   0.09815   0.10523

 Mulliken charges:
               1
     1  C   -0.421622
     2  C   -0.421622
     3  C   -0.144724
     4  C   -0.144724
     5  C   -0.398349
     6  C   -0.398349
     7  C    0.447562
     8  C    0.447562
     9  O   -1.368423
    10  H    0.163690
    11  H    0.163690
    12  H    0.112916
    13  H    0.163690
    14  H    0.163690
    15  H    0.112916
    16  H    0.112815
    17  H    0.112815
    18  H    0.112815
    19  H    0.112815
    20  H    0.108657
    21  H    0.108657
    22  H    0.108657
    23  H    0.108657
    24  H    0.159053
    25  H    0.159053
    26  H    0.159053
    27  H    0.159053
 Sum of Mulliken charges =  -0.00000

 Dipole moment (field-independent basis, Debye):
    X=              0.0000    Y=              0.0000    Z=             -1.1498  Tot=              1.1498

 Test job not archived.
 1\1\GINC-SE177\SP\RHF\Aug-CC-pVDZ\C8H18O1\OHZDE\05-Apr-2025\0\\#t hf a
 ug-cc-pvdz iop(5/13=1,5/36=2,99/5=2) pseudo=read geom=check guess=(rea
 d,tcheck) scf=(maxcycle=1)\\title\\0,1\C,0,0.,4.931161,0.525769\C,0,0.
 ,-4.931161,0.525769\C,0,0.,3.71796,-0.402856\C,0,0.,-3.71796,-0.402856
 \C,0,0.,2.388987,0.353309\C,0,0.,-2.388987,0.353309\C,0,0.,1.184688,-0
 .571073\C,0,0.,-1.184688,-0.571073\O,0,0.,0.,0.205597\H,0,-0.880623,4.
 932775,1.171072\H,0,0.880623,4.932775,1.171072\H,0,0.,5.864641,-0.0384
 69\H,0,0.880623,-4.932775,1.171072\H,0,-0.880623,-4.932775,1.171072\H,

 Normal termination of Gaussian 16 at Sat Apr  5 22:26:58 2025.
