 Gaussian 16, Revision C.01,

 ----------------------------------------------------------------------
 #t hf aug-cc-pvdz symm=none int=(grid=ultrafine) guess=(read,tcheck) s
 table=(opt,rrhf)
 ----------------------------------------------------------------------
 -----
 title
 -----
 Symbolic Z-matrix:
 Charge =  0 Multiplicity = 1

 SCF Done:  E(RHF) =  -212.350192265     A.U. after   12 cycles

 1\1\GINC-SE052\Stability\RHF\Aug-CC-pVDZ\C4H11N1\OHZDE\05-Apr-2025\0\\
 #t hf aug-cc-pvdz symm=none int=(grid=ultrafine) guess=(read,tcheck) s
 table=(opt,rrhf)\\title\\0,1\C,0,2.533757,-0.30622,-0.014186\C,0,1.251
 222,0.522342,0.039823\C,0,-0.016716,-0.327791,-0.039403\C,0,-1.300133,
 0.493422,0.01585\N,0,-2.480785,-0.370083,-0.090337\H,0,3.420315,0.3265
 93,0.045198\H,0,2.57819,-1.017755,0.812928\H,0,2.5949,-0.87728,-0.9426
 85\H,0,1.237543,1.111057,0.961985\H,0,1.251521,1.245452,-0.781337\H,0,
 -0.017096,-0.915524,-0.961024\H,0,-0.0189,-1.049862,0.78514\H,0,-1.293

 Normal termination of Gaussian 16 at Sat Apr  5 22:23:38 2025.
 Gaussian 16:  ES64L-G16RevC.01  3-Jul-2019

 ----------------------------------------------------------------------
 #t hf aug-cc-pvdz iop(5/13=1,5/36=2,99/5=2) pseudo=read geom=check gue
 ss=(read,tcheck) scf=(maxcycle=1)
 ----------------------------------------------------------------------
 -----
 title
 -----
 Structure from the checkpoint file:  "1-butanamine.chk"
 Charge =  0 Multiplicity = 1

                         Standard orientation:
 ---------------------------------------------------------------------
 Center     Atomic      Atomic             Coordinates (Angstroms)
 Number     Number       Type             X           Y           Z
 ---------------------------------------------------------------------
      1          6           0        2.533757   -0.306220   -0.014186
      2          6           0        1.251222    0.522342    0.039823
      3          6           0       -0.016716   -0.327791   -0.039403
      4          6           0       -1.300133    0.493422    0.015850
      5          7           0       -2.480785   -0.370083   -0.090337
      6          1           0        3.420315    0.326593    0.045198
      7          1           0        2.578190   -1.017755    0.812928
      8          1           0        2.594900   -0.877280   -0.942685
      9          1           0        1.237543    1.111057    0.961985
     10          1           0        1.251521    1.245452   -0.781337
     11          1           0       -0.017096   -0.915524   -0.961024
     12          1           0       -0.018900   -1.049862    0.785140
     13          1           0       -1.293033    1.109193    0.926922
     14          1           0       -1.321845    1.185998   -0.829220
     15          1           0       -3.332664    0.176428   -0.103509
     16          1           0       -2.542214   -0.994236    0.705456
 ---------------------------------------------------------------------

 SCF Done:  E(RHF) =  -212.589478119     A.U. after    2 cycles

 The electronic state is 1-A.
 Alpha  occ. eigenvalues --  -15.47936 -11.25080 -11.22473 -11.22003 -11.21987
 Alpha  occ. eigenvalues --   -1.17468  -1.06265  -0.96210  -0.85026  -0.79617
 Alpha  occ. eigenvalues --   -0.68716  -0.65352  -0.62695  -0.59039  -0.57629
 Alpha  occ. eigenvalues --   -0.53713  -0.51155  -0.48029  -0.47857  -0.46981
 Alpha  occ. eigenvalues --   -0.42057
 Alpha virt. eigenvalues --    0.03484   0.04026   0.04125   0.04461   0.06175
 Alpha virt. eigenvalues --    0.06406   0.06543   0.07641   0.08891   0.09468
 Alpha virt. eigenvalues --    0.10064   0.10864   0.13883   0.14490   0.15381

 Mulliken charges:
               1
     1  C   -0.329889
     2  C   -0.255937
     3  C   -0.385686
     4  C   -0.576702
     5  N    0.281030
     6  H    0.117946
     7  H    0.153889
     8  H    0.150737
     9  H    0.100858
    10  H    0.108132
    11  H    0.159205
    12  H    0.126748
    13  H    0.068212
    14  H    0.049087
    15  H    0.114345
    16  H    0.118026
 Sum of Mulliken charges =  -0.00000

 Dipole moment (field-independent basis, Debye):
    X=             -0.0197    Y=              0.7792    Z=              1.1173  Tot=              1.3623

 Test job not archived.
 1\1\GINC-SE052\SP\RHF\Aug-CC-pVDZ\C4H11N1\OHZDE\05-Apr-2025\0\\#t hf a
 ug-cc-pvdz iop(5/13=1,5/36=2,99/5=2) pseudo=read geom=check guess=(rea
 d,tcheck) scf=(maxcycle=1)\\title\\0,1\C,0,2.533757,-0.30622,-0.014186
 \C,0,1.251222,0.522342,0.039823\C,0,-0.016716,-0.327791,-0.039403\C,0,
 -1.300133,0.493422,0.01585\N,0,-2.480785,-0.370083,-0.090337\H,0,3.420
 315,0.326593,0.045198\H,0,2.57819,-1.017755,0.812928\H,0,2.5949,-0.877
 28,-0.942685\H,0,1.237543,1.111057,0.961985\H,0,1.251521,1.245452,-0.7
 81337\H,0,-0.017096,-0.915524,-0.961024\H,0,-0.0189,-1.049862,0.78514\

 Normal termination of Gaussian 16 at Sat Apr  5 22:23:44 2025.
