 Gaussian 16, Revision C.01,

 ----------------------------------------------------------------------
 #t hf aug-cc-pvdz symm=none int=(grid=ultrafine) guess=(read,tcheck) s
 table=(opt,rrhf)
 ----------------------------------------------------------------------
 -----
 title
 -----
 Symbolic Z-matrix:
 Charge =  0 Multiplicity = 1

 SCF Done:  E(RHF) =  -156.125337973     A.U. after   12 cycles
 Normal termination of Gaussian 16 at Sat Apr  5 22:23:25 2025.
 Gaussian 16:  ES64L-G16RevC.01  3-Jul-2019

 ----------------------------------------------------------------------
 #t hf aug-cc-pvdz iop(5/13=1,5/36=2,99/5=2) pseudo=read geom=check gue
 ss=(read,tcheck) scf=(maxcycle=1)
 ----------------------------------------------------------------------
 -----
 title
 -----
 Structure from the checkpoint file:  "1-butene.chk"
 Charge =  0 Multiplicity = 1

                         Standard orientation:
 ---------------------------------------------------------------------
 Center     Atomic      Atomic             Coordinates (Angstroms)
 Number     Number       Type             X           Y           Z
 ---------------------------------------------------------------------
      1          6           0       -1.857174    0.019065   -0.276434
      2          6           0       -0.721381   -0.297100    0.333323
      3          6           0        1.726840   -0.243467   -0.291830
      4          6           0        0.536972    0.517277    0.306749
      5          1           0       -2.729067   -0.618792   -0.220189
      6          1           0       -1.956005    0.931088   -0.853592
      7          1           0       -0.671041   -1.224905    0.898141
      8          1           0        2.633033    0.362779   -0.261767
      9          1           0        1.534052   -0.514731   -1.330436
     10          1           0        1.923869   -1.164107    0.260591
     11          1           0        0.363340    1.438791   -0.253243
     12          1           0        0.790277    0.815231    1.329652
 ---------------------------------------------------------------------

 SCF Done:  E(RHF) =  -156.300256911     A.U. after    2 cycles

 The electronic state is 1-A.
 Alpha  occ. eigenvalues --  -11.23828 -11.23381 -11.22672 -11.22582  -1.08285
 Alpha  occ. eigenvalues --   -0.99141  -0.85966  -0.76002  -0.65199  -0.61707
 Alpha  occ. eigenvalues --   -0.59366  -0.54395  -0.52692  -0.49396  -0.48286
 Alpha  occ. eigenvalues --   -0.36726
 Alpha virt. eigenvalues --    0.03922   0.04025   0.04249   0.04643   0.06214
 Alpha virt. eigenvalues --    0.06786   0.07465   0.08967   0.10875   0.12607
 Alpha virt. eigenvalues --    0.13514   0.14655   0.15389   0.15935   0.16683

 Mulliken charges:
               1
     1  C   -0.148814
     2  C    0.747618
     3  C   -0.382748
     4  C   -0.635177
     5  H   -0.092208
     6  H   -0.075823
     7  H   -0.173702
     8  H    0.106361
     9  H    0.155578
    10  H    0.165872
    11  H    0.116844
    12  H    0.216199
 Sum of Mulliken charges =   0.00000

 Dipole moment (field-independent basis, Debye):
    X=              0.3961    Y=              0.0627    Z=              0.0998  Tot=              0.4133

 Test job not archived.
 1\1\GINC-SE176\SP\RHF\Aug-CC-pVDZ\C4H8\OHZDE\05-Apr-2025\0\\#t hf aug-
 cc-pvdz iop(5/13=1,5/36=2,99/5=2) pseudo=read geom=check guess=(read,t
 check) scf=(maxcycle=1)\\title\\0,1\C,0,-1.857174,0.019065,-0.276434\C
 ,0,-0.721381,-0.2971,0.333323\C,0,1.72684,-0.243467,-0.29183\C,0,0.536
 972,0.517277,0.306749\H,0,-2.729067,-0.618792,-0.220189\H,0,-1.956005,
 0.931088,-0.853592\H,0,-0.671041,-1.224905,0.898141\H,0,2.633033,0.362
 779,-0.261767\H,0,1.534052,-0.514731,-1.330436\H,0,1.923869,-1.164107,
 0.260591\H,0,0.36334,1.438791,-0.253243\H,0,0.790277,0.815231,1.329652

 Normal termination of Gaussian 16 at Sat Apr  5 22:23:36 2025.
