 Gaussian 16, Revision C.01,

 ----------------------------------------------------------------------
 #t hf aug-cc-pvdz symm=none int=(grid=ultrafine) guess=(read,tcheck) s
 table=(opt,rrhf)
 ----------------------------------------------------------------------
 -----
 title
 -----
 Symbolic Z-matrix:
 Charge =  0 Multiplicity = 1

 SCF Done:  E(RHF) =  -542.368336613     A.U. after   16 cycles
 Normal termination of Gaussian 16 at Sat Apr  5 22:24:14 2025.
 Gaussian 16:  ES64L-G16RevC.01  3-Jul-2019

 ----------------------------------------------------------------------
 #t hf aug-cc-pvdz iop(5/13=1,5/36=2,99/5=2) pseudo=read geom=check gue
 ss=(read,tcheck) scf=(maxcycle=1)
 ----------------------------------------------------------------------
 -----
 title
 -----
 Structure from the checkpoint file:  "1-carboxymethylamino-2-diazonioethenolate.chk"
 Charge =  0 Multiplicity = 1

                         Standard orientation:
 ---------------------------------------------------------------------
 Center     Atomic      Atomic             Coordinates (Angstroms)
 Number     Number       Type             X           Y           Z
 ---------------------------------------------------------------------
      1          8           0        2.042882    1.386061   -0.306059
      2          8           0       -0.918032   -1.066477   -0.827288
      3          8           0        3.605054   -0.221660   -0.468251
      4          7           0        0.250255   -0.222810    0.941283
      5          7           0       -3.135574    0.325904   -0.031872
      6          7           0       -4.076826    0.233940   -0.637842
      7          6           0        1.503935   -0.802214    0.535266
      8          6           0       -0.876835   -0.354541    0.164605
      9          6           0        2.504443    0.128212   -0.134773
     10          6           0       -2.026017    0.411410    0.648141
     11          1           0        2.017669   -1.255971    1.383817
     12          1           0        1.288572   -1.598028   -0.176598
     13          1           0        0.261728    0.487240    1.652644
     14          1           0       -2.050184    1.041177    1.521965
     15          1           0        2.744845    1.885755   -0.749461
 ---------------------------------------------------------------------

 SCF Done:  E(RHF) =  -542.897429380     A.U. after    2 cycles

 The electronic state is 1-A.
 Alpha  occ. eigenvalues --  -20.61410 -20.54699 -20.51634 -15.70612 -15.64024
 Alpha  occ. eigenvalues --  -15.54261 -11.40574 -11.38094 -11.30177 -11.29436
 Alpha  occ. eigenvalues --   -1.56052  -1.51843  -1.46790  -1.46467  -1.26170
 Alpha  occ. eigenvalues --   -1.18968  -1.03810  -0.90132  -0.84414  -0.81574
 Alpha  occ. eigenvalues --   -0.78062  -0.74945  -0.74722  -0.72137  -0.71764
 Alpha  occ. eigenvalues --   -0.67389  -0.66062  -0.64729  -0.61422  -0.60343
 Alpha  occ. eigenvalues --   -0.57950  -0.57248  -0.48421  -0.47735  -0.44503
 Alpha  occ. eigenvalues --   -0.42811  -0.37997
 Alpha virt. eigenvalues --    0.02368   0.03825   0.04214   0.05255   0.05602
 Alpha virt. eigenvalues --    0.06664   0.07113   0.08231   0.08766   0.09552
 Alpha virt. eigenvalues --    0.10773   0.11795   0.12577   0.12773   0.13279

 Mulliken charges:
               1
     1  O   -1.298397
     2  O   -1.430962
     3  O   -1.279646
     4  N    0.835598
     5  N   -0.559951
     6  N    0.990417
     7  C   -0.905795
     8  C    0.978732
     9  C    2.209032
    10  C   -0.457762
    11  H    0.217688
    12  H    0.238329
    13  H    0.158202
    14  H   -0.100505
    15  H    0.405021
 Sum of Mulliken charges =   0.00000

 Dipole moment (field-independent basis, Debye):
    X=             -0.3258    Y=              3.1322    Z=              3.8406  Tot=              4.9666

 Test job not archived.
 1\1\GINC-SE198\SP\RHF\Aug-CC-pVDZ\C4H5N3O3\OHZDE\05-Apr-2025\0\\#t hf
 aug-cc-pvdz iop(5/13=1,5/36=2,99/5=2) pseudo=read geom=check guess=(re
 ad,tcheck) scf=(maxcycle=1)\\title\\0,1\O,0,2.042882,1.386061,-0.30605
 9\O,0,-0.918032,-1.066477,-0.827288\O,0,3.605054,-0.22166,-0.468251\N,
 0,0.250255,-0.22281,0.941283\N,0,-3.135574,0.325904,-0.031872\N,0,-4.0
 76826,0.23394,-0.637842\C,0,1.503935,-0.802214,0.535266\C,0,-0.876835,
 -0.354541,0.164605\C,0,2.504443,0.128212,-0.134773\C,0,-2.026017,0.411
 41,0.648141\H,0,2.017669,-1.255971,1.383817\H,0,1.288572,-1.598028,-0.

 Normal termination of Gaussian 16 at Sat Apr  5 22:24:48 2025.
