 Gaussian 16, Revision C.01,

 ----------------------------------------------------------------------
 #t hf aug-cc-pvdz symm=none int=(grid=ultrafine) guess=(read,tcheck) s
 table=(opt,rrhf)
 ----------------------------------------------------------------------
 -----
 title
 -----
 Symbolic Z-matrix:
 Charge =  0 Multiplicity = 1

 SCF Done:  E(RHF) =  -758.586739173     A.U. after   16 cycles
 Normal termination of Gaussian 16 at Sat Apr  5 22:23:51 2025.
 Gaussian 16:  ES64L-G16RevC.01  3-Jul-2019

 ----------------------------------------------------------------------
 #t hf aug-cc-pvdz iop(5/13=1,5/36=2,99/5=2) pseudo=read geom=check gue
 ss=(read,tcheck) scf=(maxcycle=1)
 ----------------------------------------------------------------------
 -----
 title
 -----
 Structure from the checkpoint file:  "1-chloro-3-diazo-2-propanone.chk"
 Charge =  0 Multiplicity = 1

                         Standard orientation:
 ---------------------------------------------------------------------
 Center     Atomic      Atomic             Coordinates (Angstroms)
 Number     Number       Type             X           Y           Z
 ---------------------------------------------------------------------
      1         17           0        2.615902   -0.172641   -0.000080
      2          8           0       -0.165508   -1.237912    0.000142
      3          7           0       -2.509366    0.187022   -0.000312
      4          7           0       -3.469270   -0.391475   -0.000476
      5          6           0       -0.149899   -0.026948    0.000164
      6          6           0       -1.350968    0.797979   -0.000120
      7          6           0        1.130742    0.811941    0.000604
      8          1           0       -1.378265    1.874748   -0.000193
      9          1           0        1.151566    1.448971   -0.881951
     10          1           0        1.151625    1.447808    0.884002
 ---------------------------------------------------------------------

 SCF Done:  E(RHF) =  -758.953154189     A.U. after    2 cycles

 The electronic state is 1-A.
 Alpha  occ. eigenvalues -- -105.56567 -20.54204 -15.71770 -15.65493 -11.36919
 Alpha  occ. eigenvalues --  -11.32604 -11.30070 -10.61353  -7.78313  -7.77903
 Alpha  occ. eigenvalues --   -7.77902  -1.53280  -1.48163  -1.19960  -1.12355
 Alpha  occ. eigenvalues --   -0.98762  -0.85825  -0.78947  -0.75905  -0.75828
 Alpha  occ. eigenvalues --   -0.72429  -0.66637  -0.66258  -0.62202  -0.56762
 Alpha  occ. eigenvalues --   -0.54030  -0.46069  -0.45318  -0.43542  -0.38495
 Alpha virt. eigenvalues --    0.02389   0.04376   0.04486   0.04664   0.05377
 Alpha virt. eigenvalues --    0.06723   0.08957   0.09824   0.11097   0.11284
 Alpha virt. eigenvalues --    0.12656   0.13041   0.13943   0.15098   0.15468

 Mulliken charges:
               1
     1  Cl   0.026753
     2  O   -1.368500
     3  N   -0.740235
     4  N    1.034018
     5  C    1.449730
     6  C   -0.238639
     7  C   -0.792712
     8  H   -0.096011
     9  H    0.362722
    10  H    0.362874
 Sum of Mulliken charges =  -0.00000

 Dipole moment (field-independent basis, Debye):
    X=             -1.3396    Y=              4.6397    Z=              0.0009  Tot=              4.8292

 Test job not archived.
 1\1\GINC-SE040\SP\RHF\Aug-CC-pVDZ\C3H3Cl1N2O1\OHZDE\05-Apr-2025\0\\#t
 hf aug-cc-pvdz iop(5/13=1,5/36=2,99/5=2) pseudo=read geom=check guess=
 (read,tcheck) scf=(maxcycle=1)\\title\\0,1\Cl,0,2.615902,-0.172641,-0.
 00008\O,0,-0.165508,-1.237912,0.000142\N,0,-2.509366,0.187022,-0.00031
 2\N,0,-3.46927,-0.391475,-0.000476\C,0,-0.149899,-0.026948,0.000164\C,
 0,-1.350968,0.797979,-0.00012\C,0,1.130742,0.811941,0.000604\H,0,-1.37
 8265,1.874748,-0.000193\H,0,1.151566,1.448971,-0.881951\H,0,1.151625,1
 .447808,0.884002\\Version=ES64L-G16RevC.01\State=1-A\HF=-758.9531542\R

 Normal termination of Gaussian 16 at Sat Apr  5 22:23:56 2025.
