 Gaussian 16, Revision C.01,

 ----------------------------------------------------------------------
 #t hf aug-cc-pvdz symm=none int=(grid=ultrafine) guess=(read,tcheck) s
 table=(opt,rrhf)
 ----------------------------------------------------------------------
 -----
 title
 -----
 Symbolic Z-matrix:
 Charge =  0 Multiplicity = 1

 SCF Done:  E(RHF) =  -796.514571006     A.U. after   16 cycles
 Normal termination of Gaussian 16 at Sat Apr  5 22:23:39 2025.
 Gaussian 16:  ES64L-G16RevC.01  3-Jul-2019

 ----------------------------------------------------------------------
 #t hf aug-cc-pvdz iop(5/13=1,5/36=2,99/5=2) pseudo=read geom=check gue
 ss=(read,tcheck) scf=(maxcycle=1)
 ----------------------------------------------------------------------
 -----
 title
 -----
 Structure from the checkpoint file:  "1-chloro-1-cyano-2-isocyanatoethane.chk"
 Charge =  0 Multiplicity = 1

                         Standard orientation:
 ---------------------------------------------------------------------
 Center     Atomic      Atomic             Coordinates (Angstroms)
 Number     Number       Type             X           Y           Z
 ---------------------------------------------------------------------
      1         17           0       -0.676413    1.647673   -0.198839
      2          8           0        2.973312   -0.003864   -0.788694
      3          7           0        1.171490   -0.909893    0.447772
      4          7           0       -2.183834   -1.569197   -1.071477
      5          6           0        0.125081   -0.508516    1.336558
      6          6           0       -1.098061    0.085661    0.622655
      7          6           0       -1.695846   -0.827966   -0.341528
      8          6           0        2.065665   -0.383032   -0.161385
      9          1           0        0.479121    0.224746    2.062267
     10          1           0       -0.217303   -1.388512    1.882361
     11          1           0       -1.843922    0.340978    1.373321
 ---------------------------------------------------------------------

 SCF Done:  E(RHF) =  -796.918569993     A.U. after    2 cycles

 The electronic state is 1-A.
 Alpha  occ. eigenvalues -- -105.60266 -20.61163 -15.54646 -15.54290 -11.42956
 Alpha  occ. eigenvalues --  -11.38713 -11.35058 -11.30741 -10.65027  -7.81971
 Alpha  occ. eigenvalues --   -7.81572  -7.81562  -1.55795  -1.30954  -1.26393
 Alpha  occ. eigenvalues --   -1.17482  -1.05933  -0.96735  -0.81891  -0.74723
 Alpha  occ. eigenvalues --   -0.72672  -0.71467  -0.70343  -0.65537  -0.64142
 Alpha  occ. eigenvalues --   -0.62876  -0.59552  -0.53183  -0.52577  -0.49908
 Alpha  occ. eigenvalues --   -0.49147  -0.48536  -0.46731
 Alpha virt. eigenvalues --    0.02071   0.03906   0.04265   0.05983   0.06999
 Alpha virt. eigenvalues --    0.08630   0.09550   0.09672   0.10394   0.11254
 Alpha virt. eigenvalues --    0.11727   0.13174   0.13380   0.13747   0.14288

 Mulliken charges:
               1
     1  Cl   0.041621
     2  O   -0.815684
     3  N    0.832600
     4  N    0.923850
     5  C   -0.259142
     6  C   -0.180934
     7  C   -1.316570
     8  C    0.184660
     9  H    0.160089
    10  H    0.177836
    11  H    0.251675
 Sum of Mulliken charges =  -0.00000

 Dipole moment (field-independent basis, Debye):
    X=             -0.0890    Y=              1.8468    Z=              4.9232  Tot=              5.2590

 Test job not archived.
 1\1\GINC-SE226\SP\RHF\Aug-CC-pVDZ\C4H3Cl1N2O1\OHZDE\05-Apr-2025\0\\#t
 hf aug-cc-pvdz iop(5/13=1,5/36=2,99/5=2) pseudo=read geom=check guess=
 (read,tcheck) scf=(maxcycle=1)\\title\\0,1\Cl,0,-0.676413,1.647673,-0.
 198839\O,0,2.973312,-0.003864,-0.788694\N,0,1.17149,-0.909893,0.447772
 \N,0,-2.183834,-1.569197,-1.071477\C,0,0.125081,-0.508516,1.336558\C,0
 ,-1.098061,0.085661,0.622655\C,0,-1.695846,-0.827966,-0.341528\C,0,2.0
 65665,-0.383032,-0.161385\H,0,0.479121,0.224746,2.062267\H,0,-0.217303
 ,-1.388512,1.882361\H,0,-1.843922,0.340978,1.373321\\Version=ES64L-G16

 Normal termination of Gaussian 16 at Sat Apr  5 22:23:44 2025.
