 Gaussian 16, Revision C.01,

 ----------------------------------------------------------------------
 #t hf aug-cc-pvdz symm=none int=(grid=ultrafine) guess=(read,tcheck) s
 table=(opt,rrhf)
 ----------------------------------------------------------------------
 -----
 title
 -----
 Symbolic Z-matrix:
 Charge =  0 Multiplicity = 1

 SCF Done:  E(RHF) =  -694.320199346     A.U. after   12 cycles
 Normal termination of Gaussian 16 at Sat Apr  5 22:24:33 2025.
 Gaussian 16:  ES64L-G16RevC.01  3-Jul-2019

 ----------------------------------------------------------------------
 #t hf aug-cc-pvdz iop(5/13=1,5/36=2,99/5=2) pseudo=read geom=check gue
 ss=(read,tcheck) scf=(maxcycle=1)
 ----------------------------------------------------------------------
 -----
 title
 -----
 Structure from the checkpoint file:  "1-chlorohexane.chk"
 Charge =  0 Multiplicity = 1

                         Standard orientation:
 ---------------------------------------------------------------------
 Center     Atomic      Atomic             Coordinates (Angstroms)
 Number     Number       Type             X           Y           Z
 ---------------------------------------------------------------------
      1          6           0        4.107657   -0.250205   -0.215211
      2          6           0        2.717325   -0.521399    0.356513
      3          6           0        1.636426    0.390420   -0.225173
      4          6           0        0.242168    0.120079    0.340479
      5          6           0       -0.829692    1.038232   -0.244879
      6          6           0       -2.225201    0.823188    0.309411
      7         17           0       -2.919780   -0.797045   -0.154599
      8          1           0        4.124179   -0.394646   -1.297420
      9          1           0        4.854124   -0.916596    0.218969
     10          1           0        4.423588    0.775876   -0.015423
     11          1           0        2.443823   -1.564425    0.172169
     12          1           0        2.740755   -0.402685    1.443977
     13          1           0        1.613418    0.271434   -1.313552
     14          1           0        1.909906    1.435111   -0.040928
     15          1           0        0.262024    0.239696    1.428936
     16          1           0       -0.032215   -0.919987    0.150936
     17          1           0       -0.857119    0.939470   -1.332660
     18          1           0       -0.568928    2.082139   -0.035424
     19          1           0       -2.240983    0.846311    1.396326
     20          1           0       -2.928401    1.556175   -0.074565
 ---------------------------------------------------------------------

 SCF Done:  E(RHF) =  -694.661574023     A.U. after    2 cycles

 The electronic state is 1-A.
 Alpha  occ. eigenvalues -- -105.54775 -11.30265 -11.24421 -11.22965 -11.22760
 Alpha  occ. eigenvalues --  -11.22705 -11.22241 -10.59581  -7.76514  -7.76161
 Alpha  occ. eigenvalues --   -7.76150  -1.12238  -1.07719  -1.01918  -0.95197
 Alpha  occ. eigenvalues --   -0.87374  -0.80814  -0.79707  -0.66807  -0.64476
 Alpha  occ. eigenvalues --   -0.62609  -0.60391  -0.57358  -0.56689  -0.55281
 Alpha  occ. eigenvalues --   -0.52067  -0.50552  -0.48619  -0.47804  -0.47290
 Alpha  occ. eigenvalues --   -0.47022  -0.43717  -0.43465
 Alpha virt. eigenvalues --    0.03128   0.03444   0.03647   0.04374   0.05252
 Alpha virt. eigenvalues --    0.05734   0.06303   0.06878   0.07955   0.08669
 Alpha virt. eigenvalues --    0.09446   0.09683   0.10669   0.11290   0.12607

 Mulliken charges:
               1
     1  C   -0.397984
     2  C   -0.202851
     3  C   -0.269693
     4  C   -0.218430
     5  C   -0.213738
     6  C   -0.395143
     7  Cl  -0.094481
     8  H    0.160070
     9  H    0.113746
    10  H    0.157830
    11  H    0.115029
    12  H    0.112408
    13  H    0.100641
    14  H    0.094488
    15  H    0.107194
    16  H    0.138319
    17  H    0.109251
    18  H    0.166732
    19  H    0.226041
    20  H    0.190572
 Sum of Mulliken charges =  -0.00000

 Dipole moment (field-independent basis, Debye):
    X=              1.2856    Y=              1.9730    Z=              0.5267  Tot=              2.4131

 Test job not archived.
 1\1\GINC-SE198\SP\RHF\Aug-CC-pVDZ\C6H13Cl1\OHZDE\05-Apr-2025\0\\#t hf
 aug-cc-pvdz iop(5/13=1,5/36=2,99/5=2) pseudo=read geom=check guess=(re
 ad,tcheck) scf=(maxcycle=1)\\title\\0,1\C,0,4.107657,-0.250205,-0.2152
 11\C,0,2.717325,-0.521399,0.356513\C,0,1.636426,0.39042,-0.225173\C,0,
 0.242168,0.120079,0.340479\C,0,-0.829692,1.038232,-0.244879\C,0,-2.225
 201,0.823188,0.309411\Cl,0,-2.91978,-0.797045,-0.154599\H,0,4.124179,-
 0.394646,-1.29742\H,0,4.854124,-0.916596,0.218969\H,0,4.423588,0.77587
 6,-0.015423\H,0,2.443823,-1.564425,0.172169\H,0,2.740755,-0.402685,1.4

 Normal termination of Gaussian 16 at Sat Apr  5 22:24:50 2025.
