 Gaussian 16, Revision C.01,

 ----------------------------------------------------------------------
 #t hf aug-cc-pvdz symm=none int=(grid=ultrafine) guess=(read,tcheck) s
 table=(opt,rrhf)
 ----------------------------------------------------------------------
 -----
 title
 -----
 Symbolic Z-matrix:
 Charge =  0 Multiplicity = 1

 SCF Done:  E(RHF) =  -683.692880731     A.U. after   14 cycles
 Normal termination of Gaussian 16 at Sat Apr  5 22:23:46 2025.
 Gaussian 16:  ES64L-G16RevC.01  3-Jul-2019

 ----------------------------------------------------------------------
 #t hf aug-cc-pvdz iop(5/13=1,5/36=2,99/5=2) pseudo=read geom=check gue
 ss=(read,tcheck) scf=(maxcycle=1)
 ----------------------------------------------------------------------
 -----
 title
 -----
 Structure from the checkpoint file:  "1-chloropyrazole.chk"
 Charge =  0 Multiplicity = 1

                         Standard orientation:
 ---------------------------------------------------------------------
 Center     Atomic      Atomic             Coordinates (Angstroms)
 Number     Number       Type             X           Y           Z
 ---------------------------------------------------------------------
      1         17           0       -1.906509   -0.012464   -0.000003
      2          7           0       -0.208360    0.009411   -0.000000
      3          7           0        0.477354   -1.136970   -0.000000
      4          6           0        0.568717    1.122667    0.000002
      5          6           0        1.748562   -0.743730    0.000002
      6          6           0        1.865057    0.659271    0.000004
      7          1           0        0.143298    2.109292    0.000002
      8          1           0        2.528586   -1.486330    0.000002
      9          1           0        2.761801    1.252584    0.000006
 ---------------------------------------------------------------------

 SCF Done:  E(RHF) =  -683.996790274     A.U. after    2 cycles

 The electronic state is 1-A.
 Alpha  occ. eigenvalues -- -105.62995 -15.63581 -15.54486 -11.30162 -11.27454
 Alpha  occ. eigenvalues --  -11.24517 -10.67444  -7.84440  -7.83904  -7.83863
 Alpha  occ. eigenvalues --   -1.40790  -1.18081  -1.10143  -1.02306  -0.86716
 Alpha  occ. eigenvalues --   -0.80869  -0.76095  -0.69426  -0.64914  -0.62630
 Alpha  occ. eigenvalues --   -0.59983  -0.52352  -0.51912  -0.50553  -0.39735
 Alpha  occ. eigenvalues --   -0.38232
 Alpha virt. eigenvalues --    0.03477   0.04163   0.04754   0.06659   0.08112
 Alpha virt. eigenvalues --    0.09647   0.10408   0.11043   0.11664   0.12872
 Alpha virt. eigenvalues --    0.13301   0.14241   0.14962   0.15448   0.15948

 Mulliken charges:
               1
     1  Cl   0.243904
     2  N    0.038409
     3  N    0.049698
     4  C   -0.241718
     5  C   -0.222272
     6  C    0.551169
     7  H   -0.179827
     8  H   -0.121305
     9  H   -0.118058
 Sum of Mulliken charges =  -0.00000

 Dipole moment (field-independent basis, Debye):
    X=              1.1751    Y=              2.6257    Z=              0.0000  Tot=              2.8766

 Test job not archived.
 1\1\GINC-SE107\SP\RHF\Aug-CC-pVDZ\C3H3Cl1N2\OHZDE\05-Apr-2025\0\\#t hf
  aug-cc-pvdz iop(5/13=1,5/36=2,99/5=2) pseudo=read geom=check guess=(r
 ead,tcheck) scf=(maxcycle=1)\\title\\0,1\Cl,0,-1.906509,-0.012464,-0.0
 00003\N,0,-0.20836,0.009411,0.\N,0,0.477354,-1.13697,0.\C,0,0.568717,1
 .122667,0.000002\C,0,1.748562,-0.74373,0.000002\C,0,1.865057,0.659271,
 0.000004\H,0,0.143298,2.109292,0.000002\H,0,2.528586,-1.48633,0.000002
 \H,0,2.761801,1.252584,0.000006\\Version=ES64L-G16RevC.01\State=1-A\HF
 =-683.9967903\RMSD=3.243e-02\Dipole=0.4623235,1.033016,0.0000012\Quadr

 Normal termination of Gaussian 16 at Sat Apr  5 22:23:50 2025.
