 Gaussian 16, Revision C.01,

 ----------------------------------------------------------------------
 #t hf aug-cc-pvdz symm=none int=(grid=ultrafine) guess=(read,tcheck) s
 table=(opt,rrhf)
 ----------------------------------------------------------------------
 -----
 title
 -----
 Symbolic Z-matrix:
 Charge =  0 Multiplicity = 1

 SCF Done:  E(RHF) =  -655.281363046     A.U. after   12 cycles
 Normal termination of Gaussian 16 at Sat Apr  5 22:24:11 2025.
 Gaussian 16:  ES64L-G16RevC.01  3-Jul-2019

 ----------------------------------------------------------------------
 #t hf aug-cc-pvdz iop(5/13=1,5/36=2,99/5=2) pseudo=read geom=check gue
 ss=(read,tcheck) scf=(maxcycle=1)
 ----------------------------------------------------------------------
 -----
 title
 -----
 Structure from the checkpoint file:  "1-chloropentane.chk"
 Charge =  0 Multiplicity = 1

                         Standard orientation:
 ---------------------------------------------------------------------
 Center     Atomic      Atomic             Coordinates (Angstroms)
 Number     Number       Type             X           Y           Z
 ---------------------------------------------------------------------
      1          6           0        3.289623   -0.683161    0.151762
      2          6           0        2.227943    0.295481   -0.346814
      3          6           0        0.848628    0.047344    0.264611
      4          6           0       -0.212368    1.027510   -0.233040
      5          6           0       -1.589905    0.838545    0.373045
      6         17           0       -2.363950   -0.734686   -0.125608
      7          1           0        3.018596   -1.713424   -0.086887
      8          1           0        3.409472   -0.616939    1.235067
      9          1           0        4.260930   -0.481964   -0.301814
     10          1           0        2.544221    1.319704   -0.126280
     11          1           0        2.154297    0.228978   -1.436338
     12          1           0        0.918418    0.115557    1.355563
     13          1           0        0.530695   -0.973458    0.040898
     14          1           0       -0.289842    0.977813   -1.321766
     15          1           0        0.095882    2.051249    0.008963
     16          1           0       -1.558172    0.815998    1.459589
     17          1           0       -2.280876    1.611830    0.050962
 ---------------------------------------------------------------------

 SCF Done:  E(RHF) =  -655.579149273     A.U. after    2 cycles

 The electronic state is 1-A.
 Alpha  occ. eigenvalues -- -105.54788 -11.30281 -11.24439 -11.23039 -11.22981
 Alpha  occ. eigenvalues --  -11.22383 -10.59594  -7.76527  -7.76173  -7.76163
 Alpha  occ. eigenvalues --   -1.12184  -1.06595  -0.99625  -0.91459  -0.82826
 Alpha  occ. eigenvalues --   -0.79856  -0.66536  -0.64383  -0.61317  -0.59191
 Alpha  occ. eigenvalues --   -0.58068  -0.54559  -0.52549  -0.49846  -0.48590
 Alpha  occ. eigenvalues --   -0.48125  -0.47519  -0.43754  -0.43531
 Alpha virt. eigenvalues --    0.03293   0.03656   0.03669   0.04594   0.05787
 Alpha virt. eigenvalues --    0.06058   0.06513   0.07510   0.08920   0.09328
 Alpha virt. eigenvalues --    0.10005   0.10993   0.11263   0.13834   0.14196

 Mulliken charges:
               1
     1  C   -0.384284
     2  C   -0.234476
     3  C   -0.294986
     4  C   -0.199899
     5  C   -0.400972
     6  Cl  -0.095590
     7  H    0.158314
     8  H    0.161925
     9  H    0.119681
    10  H    0.103662
    11  H    0.115332
    12  H    0.108339
    13  H    0.141122
    14  H    0.108639
    15  H    0.165514
    16  H    0.231237
    17  H    0.196443
 Sum of Mulliken charges =  -0.00000

 Dipole moment (field-independent basis, Debye):
    X=              1.3774    Y=              1.9718    Z=              0.4987  Tot=              2.4564

 Test job not archived.
 1\1\GINC-SE222\SP\RHF\Aug-CC-pVDZ\C5H11Cl1\OHZDE\05-Apr-2025\0\\#t hf
 aug-cc-pvdz iop(5/13=1,5/36=2,99/5=2) pseudo=read geom=check guess=(re
 ad,tcheck) scf=(maxcycle=1)\\title\\0,1\C,0,3.289623,-0.683161,0.15176
 2\C,0,2.227943,0.295481,-0.346814\C,0,0.848628,0.047344,0.264611\C,0,-
 0.212368,1.02751,-0.23304\C,0,-1.589905,0.838545,0.373045\Cl,0,-2.3639
 5,-0.734686,-0.125608\H,0,3.018596,-1.713424,-0.086887\H,0,3.409472,-0
 .616939,1.235067\H,0,4.26093,-0.481964,-0.301814\H,0,2.544221,1.319704
 ,-0.12628\H,0,2.154297,0.228978,-1.436338\H,0,0.918418,0.115557,1.3555

 Normal termination of Gaussian 16 at Sat Apr  5 22:24:48 2025.
