 Gaussian 16, Revision C.01,

 ----------------------------------------------------------------------
 #t hf aug-cc-pvdz symm=none int=(grid=ultrafine) guess=(read,tcheck) s
 table=(opt,rrhf)
 ----------------------------------------------------------------------
 -----
 title
 -----
 Symbolic Z-matrix:
 Charge =  0 Multiplicity = 1

 SCF Done:  E(RHF) =  -1103.10342604     A.U. after   16 cycles
 Normal termination of Gaussian 16 at Sat Apr  5 22:24:03 2025.
 Gaussian 16:  ES64L-G16RevC.01  3-Jul-2019

 ----------------------------------------------------------------------
 #t hf aug-cc-pvdz iop(5/13=1,5/36=2,99/5=2) pseudo=read geom=check gue
 ss=(read,tcheck) scf=(maxcycle=1)
 ----------------------------------------------------------------------
 -----
 title
 -----
 Structure from the checkpoint file:  "1-chloro-4-isothiocyanato-2-butyne.chk"
 Charge =  0 Multiplicity = 1

                         Standard orientation:
 ---------------------------------------------------------------------
 Center     Atomic      Atomic             Coordinates (Angstroms)
 Number     Number       Type             X           Y           Z
 ---------------------------------------------------------------------
      1         17           0       -3.572987   -0.567278   -0.510317
      2         16           0        3.299035   -1.317260   -0.006901
      3          7           0        2.079494    1.156701   -0.250864
      4          6           0        0.857173    1.910593   -0.125215
      5          6           0       -2.394964   -0.380030    0.871471
      6          6           0       -0.304421    1.103913    0.230165
      7          6           0       -1.256817    0.432000    0.515067
      8          6           0        2.559311    0.073133   -0.131631
      9          1           0        0.675175    2.422451   -1.072973
     10          1           0        1.016661    2.691477    0.622020
     11          1           0       -2.961711    0.058649    1.688357
     12          1           0       -2.092050   -1.387238    1.145296
 ---------------------------------------------------------------------

 SCF Done:  E(RHF) =  -1103.48529451     A.U. after    2 cycles

 The electronic state is 1-A.
 Alpha  occ. eigenvalues -- -105.57195 -93.95143 -15.55494 -11.39021 -11.35018
 Alpha  occ. eigenvalues --  -11.34600 -11.27354 -11.26965 -10.61947  -8.23425
 Alpha  occ. eigenvalues --   -7.78889  -7.78500  -7.78489  -6.21322  -6.20900
 Alpha  occ. eigenvalues --   -6.20855  -1.30988  -1.14122  -1.10801  -1.06623
 Alpha  occ. eigenvalues --   -1.02106  -0.94198  -0.80714  -0.72197  -0.69506
 Alpha  occ. eigenvalues --   -0.69138  -0.66695  -0.61867  -0.59022  -0.58172
 Alpha  occ. eigenvalues --   -0.56645  -0.46869  -0.46554  -0.42789  -0.41990
 Alpha  occ. eigenvalues --   -0.39231  -0.37869
 Alpha virt. eigenvalues --    0.02744   0.03350   0.04519   0.05036   0.07265
 Alpha virt. eigenvalues --    0.07509   0.07843   0.08340   0.08555   0.10790
 Alpha virt. eigenvalues --    0.10988   0.11517   0.12495   0.12628   0.13395

 Mulliken charges:
               1
     1  Cl  -0.030992
     2  S    0.298225
     3  N    0.748286
     4  C   -0.801944
     5  C   -1.071157
     6  C    0.354080
     7  C    0.486012
     8  C   -1.065781
     9  H    0.230274
    10  H    0.224470
    11  H    0.307580
    12  H    0.320949
 Sum of Mulliken charges =  -0.00000

 Dipole moment (field-independent basis, Debye):
    X=             -0.9287    Y=              1.7548    Z=              1.6906  Tot=              2.6077

 Test job not archived.
 1\1\GINC-SE104\SP\RHF\Aug-CC-pVDZ\C5H4Cl1N1S1\OHZDE\05-Apr-2025\0\\#t
 hf aug-cc-pvdz iop(5/13=1,5/36=2,99/5=2) pseudo=read geom=check guess=
 (read,tcheck) scf=(maxcycle=1)\\title\\0,1\Cl,0,-3.572987,-0.567278,-0
 .510317\S,0,3.299035,-1.31726,-0.006901\N,0,2.079494,1.156701,-0.25086
 4\C,0,0.857173,1.910593,-0.125215\C,0,-2.394964,-0.38003,0.871471\C,0,
 -0.304421,1.103913,0.230165\C,0,-1.256817,0.432,0.515067\C,0,2.559311,
 0.073133,-0.131631\H,0,0.675175,2.422451,-1.072973\H,0,1.016661,2.6914
 77,0.62202\H,0,-2.961711,0.058649,1.688357\H,0,-2.09205,-1.387238,1.14

 Normal termination of Gaussian 16 at Sat Apr  5 22:24:09 2025.
