 Gaussian 16, Revision C.01,

 ----------------------------------------------------------------------
 #t hf aug-cc-pvdz symm=none int=(grid=ultrafine) guess=(read,tcheck) s
 table=(opt,rrhf)
 ----------------------------------------------------------------------
 -----
 title
 -----
 Symbolic Z-matrix:
 Charge =  0 Multiplicity = 1

 SCF Done:  E(RHF) =  -691.101346237     A.U. after   12 cycles
 Normal termination of Gaussian 16 at Sat Apr  5 22:24:03 2025.
 Gaussian 16:  ES64L-G16RevC.01  3-Jul-2019

 ----------------------------------------------------------------------
 #t hf aug-cc-pvdz iop(5/13=1,5/36=2,99/5=2) pseudo=read geom=check gue
 ss=(read,tcheck) scf=(maxcycle=1)
 ----------------------------------------------------------------------
 -----
 title
 -----
 Structure from the checkpoint file:  "1-chloro-2-ethoxyethane.chk"
 Charge =  0 Multiplicity = 1

                         Standard orientation:
 ---------------------------------------------------------------------
 Center     Atomic      Atomic             Coordinates (Angstroms)
 Number     Number       Type             X           Y           Z
 ---------------------------------------------------------------------
      1          6           0       -1.364294   -0.257422    0.000000
      2         17           0       -2.663967    1.000357    0.000000
      3          6           0        0.000000    0.402791    0.000000
      4          6           0        3.235965   -1.355048    0.000000
      5          6           0        2.301786   -0.163749    0.000000
      6          8           0        0.959835   -0.634578    0.000000
      7          1           0        4.273451   -1.018738    0.000000
      8          1           0       -1.508982   -0.865324    0.887556
      9          1           0       -1.508982   -0.865324   -0.887556
     10          1           0        0.111166    1.038659   -0.886420
     11          1           0        0.111166    1.038659    0.886420
     12          1           0        3.073565   -1.971524   -0.883887
     13          1           0        3.073565   -1.971524    0.883887
     14          1           0        2.471534    0.463118    0.884863
     15          1           0        2.471534    0.463118   -0.884863
 ---------------------------------------------------------------------

 SCF Done:  E(RHF) =  -691.426506141     A.U. after    2 cycles

 The electronic state is 1-A'.
 Alpha  occ. eigenvalues -- -105.55618 -20.55401 -11.30355 -11.29927 -11.29215
 Alpha  occ. eigenvalues --  -11.23118 -10.60414  -7.77355  -7.76989  -7.76977
 Alpha  occ. eigenvalues --   -1.47206  -1.11430  -1.03661  -0.95990  -0.84790
 Alpha  occ. eigenvalues --   -0.84582  -0.70224  -0.68069  -0.64379  -0.63005
 Alpha  occ. eigenvalues --   -0.57260  -0.56206  -0.54840  -0.52539  -0.51543
 Alpha  occ. eigenvalues --   -0.48971  -0.44546  -0.44427  -0.42788
 Alpha virt. eigenvalues --    0.03607   0.03951   0.03993   0.04561   0.06291
 Alpha virt. eigenvalues --    0.06572   0.07144   0.07293   0.09613   0.10012
 Alpha virt. eigenvalues --    0.11205   0.13161   0.14044   0.15180   0.15192

 Mulliken charges:
               1
     1  C   -0.605264
     2  Cl  -0.072040
     3  C    0.639911
     4  C   -0.542289
     5  C    0.359379
     6  O   -1.348850
     7  H    0.149712
     8  H    0.212220
     9  H    0.212220
    10  H    0.178593
    11  H    0.178593
    12  H    0.172928
    13  H    0.172928
    14  H    0.145980
    15  H    0.145980
 Sum of Mulliken charges =  -0.00000

 Dipole moment (field-independent basis, Debye):
    X=              2.3346    Y=             -0.3663    Z=             -0.0000  Tot=              2.3632

 Test job not archived.
 1\1\GINC-SE013\SP\RHF\Aug-CC-pVDZ\C4H9Cl1O1\OHZDE\05-Apr-2025\0\\#t hf
  aug-cc-pvdz iop(5/13=1,5/36=2,99/5=2) pseudo=read geom=check guess=(r
 ead,tcheck) scf=(maxcycle=1)\\title\\0,1\C,0,-1.364294,-0.257422,0.\Cl
 ,0,-2.663967,1.000357,0.\C,0,0.,0.402791,0.\C,0,3.235965,-1.355048,0.\
 C,0,2.301786,-0.163749,0.\O,0,0.959835,-0.634578,0.\H,0,4.273451,-1.01
 8738,0.\H,0,-1.508982,-0.865324,0.887556\H,0,-1.508982,-0.865324,-0.88
 7556\H,0,0.111166,1.038659,-0.88642\H,0,0.111166,1.038659,0.88642\H,0,
 3.073565,-1.971524,-0.883887\H,0,3.073565,-1.971524,0.883887\H,0,2.471

 Normal termination of Gaussian 16 at Sat Apr  5 22:24:08 2025.
