 Gaussian 16, Revision C.01,

 ----------------------------------------------------------------------
 #t hf aug-cc-pvdz symm=none int=(grid=ultrafine) guess=(read,tcheck) s
 table=(opt,rrhf)
 ----------------------------------------------------------------------
 -----
 title
 -----
 Symbolic Z-matrix:
 Charge =  0 Multiplicity = 1

 SCF Done:  E(RHF) =  -700.832559443     A.U. after   16 cycles
 Normal termination of Gaussian 16 at Sat Apr  5 22:23:49 2025.
 Gaussian 16:  ES64L-G16RevC.01  3-Jul-2019

 ----------------------------------------------------------------------
 #t hf aug-cc-pvdz iop(5/13=1,5/36=2,99/5=2) pseudo=read geom=check gue
 ss=(read,tcheck) scf=(maxcycle=1)
 ----------------------------------------------------------------------
 -----
 title
 -----
 Structure from the checkpoint file:  "1-chloro-4-5-dihydro-1H-1-2-3-triazole.chk"
 Charge =  0 Multiplicity = 1

                         Standard orientation:
 ---------------------------------------------------------------------
 Center     Atomic      Atomic             Coordinates (Angstroms)
 Number     Number       Type             X           Y           Z
 ---------------------------------------------------------------------
      1         17           0       -1.920947    0.002248    0.086589
      2          7           0       -0.262504    0.015809   -0.439109
      3          7           0        0.411868   -1.174015   -0.049153
      4          7           0        1.602483   -0.955892    0.169301
      5          6           0        0.539461    1.153832    0.050933
      6          6           0        1.913135    0.495408    0.023525
      7          1           0        0.436411    1.995512   -0.626647
      8          1           0        0.234666    1.446107    1.058692
      9          1           0        2.588289    0.800194    0.817850
     10          1           0        2.418220    0.623228   -0.935934
 ---------------------------------------------------------------------

 SCF Done:  E(RHF) =  -701.152892010     A.U. after    2 cycles

 The electronic state is 1-A.
 Alpha  occ. eigenvalues -- -105.60395 -15.62026 -15.60527 -15.57593 -11.30103
 Alpha  occ. eigenvalues --  -11.29613 -10.64912  -7.81870  -7.81394  -7.81362
 Alpha  occ. eigenvalues --   -1.44226  -1.24644  -1.10320  -1.04106  -0.91769
 Alpha  occ. eigenvalues --   -0.84240  -0.74432  -0.73081  -0.67859  -0.61616
 Alpha  occ. eigenvalues --   -0.60312  -0.59601  -0.56868  -0.50627  -0.49856
 Alpha  occ. eigenvalues --   -0.46743  -0.42600
 Alpha virt. eigenvalues --    0.03260   0.04298   0.04532   0.05485   0.06099
 Alpha virt. eigenvalues --    0.07829   0.08523   0.10781   0.12062   0.13097
 Alpha virt. eigenvalues --    0.13975   0.14885   0.16043   0.16177   0.16725

 Mulliken charges:
               1
     1  Cl   0.136306
     2  N    0.006534
     3  N   -0.335795
     4  N    0.091104
     5  C   -0.104571
     6  C   -0.152243
     7  H    0.128733
     8  H    0.037137
     9  H    0.090395
    10  H    0.102401
 Sum of Mulliken charges =  -0.00000

 Dipole moment (field-independent basis, Debye):
    X=              1.4213    Y=              3.7894    Z=              0.4056  Tot=              4.0675

 Test job not archived.
 1\1\GINC-SE084\SP\RHF\Aug-CC-pVDZ\C2H4Cl1N3\OHZDE\05-Apr-2025\0\\#t hf
  aug-cc-pvdz iop(5/13=1,5/36=2,99/5=2) pseudo=read geom=check guess=(r
 ead,tcheck) scf=(maxcycle=1)\\title\\0,1\Cl,0,-1.920947,0.002248,0.086
 589\N,0,-0.262504,0.015809,-0.439109\N,0,0.411868,-1.174015,-0.049153\
 N,0,1.602483,-0.955892,0.169301\C,0,0.539461,1.153832,0.050933\C,0,1.9
 13135,0.495408,0.023525\H,0,0.436411,1.995512,-0.626647\H,0,0.234666,1
 .446107,1.058692\H,0,2.588289,0.800194,0.81785\H,0,2.41822,0.623228,-0
 .935934\\Version=ES64L-G16RevC.01\State=1-A\HF=-701.152892\RMSD=3.811e

 Normal termination of Gaussian 16 at Sat Apr  5 22:23:53 2025.
