 Gaussian 16, Revision C.01,

 ----------------------------------------------------------------------
 #t hf aug-cc-pvdz symm=none int=(grid=ultrafine) guess=(read,tcheck) s
 table=(opt,rrhf)
 ----------------------------------------------------------------------
 -----
 title
 -----
 Symbolic Z-matrix:
 Charge =  0 Multiplicity = 1

 SCF Done:  E(RHF) =  -728.691425957     A.U. after   15 cycles

 1\1\GINC-SE041\Stability\RHF\Aug-CC-pVDZ\C7H7Cl1\OHZDE\05-Apr-2025\0\\
 #t hf aug-cc-pvdz symm=none int=(grid=ultrafine) guess=(read,tcheck) s
 table=(opt,rrhf)\\title\\0,1\C,0,1.683448,-1.663575,0.\C,0,2.220125,-0
 .382943,0.\C,0,0.305726,-1.835687,0.\C,0,1.373807,0.717619,0.\C,0,-0.5
 7387,-0.75119,0.\C,0,0.,0.522425,0.\C,0,-2.061411,-0.96093,0.\Cl,0,-1.
 036566,1.943162,0.\H,0,2.334268,-2.527315,0.\H,0,3.291363,-0.235053,0.
 \H,0,-0.108141,-2.835976,0.\H,0,1.769429,1.722783,0.\H,0,-2.526446,-0.
 504646,0.875379\H,0,-2.526446,-0.504646,-0.875379\H,0,-2.299351,-2.023

 Normal termination of Gaussian 16 at Sat Apr  5 22:24:43 2025.
 Gaussian 16:  ES64L-G16RevC.01  3-Jul-2019

 ----------------------------------------------------------------------
 #t hf aug-cc-pvdz iop(5/13=1,5/36=2,99/5=2) pseudo=read geom=check gue
 ss=(read,tcheck) scf=(maxcycle=1)
 ----------------------------------------------------------------------
 -----
 title
 -----
 Structure from the checkpoint file:  "1-chloro-2-methylbenzene.chk"
 Charge =  0 Multiplicity = 1

                         Standard orientation:
 ---------------------------------------------------------------------
 Center     Atomic      Atomic             Coordinates (Angstroms)
 Number     Number       Type             X           Y           Z
 ---------------------------------------------------------------------
      1          6           0        1.683448   -1.663575    0.000000
      2          6           0        2.220125   -0.382944    0.000000
      3          6           0        0.305726   -1.835687    0.000000
      4          6           0        1.373807    0.717619    0.000000
      5          6           0       -0.573870   -0.751190    0.000000
      6          6           0        0.000000    0.522425    0.000000
      7          6           0       -2.061411   -0.960930    0.000000
      8         17           0       -1.036566    1.943162    0.000000
      9          1           0        2.334268   -2.527316    0.000000
     10          1           0        3.291363   -0.235054    0.000000
     11          1           0       -0.108141   -2.835976    0.000000
     12          1           0        1.769429    1.722783    0.000000
     13          1           0       -2.526446   -0.504646    0.875379
     14          1           0       -2.526446   -0.504646   -0.875379
     15          1           0       -2.299351   -2.023197    0.000000
 ---------------------------------------------------------------------

 SCF Done:  E(RHF) =  -729.048404032     A.U. after    2 cycles

 The electronic state is 1-A'.
 Alpha  occ. eigenvalues -- -105.56914 -11.30556 -11.26341 -11.25539 -11.25108
 Alpha  occ. eigenvalues --  -11.25032 -11.24961 -11.23944 -10.61724  -7.78685
 Alpha  occ. eigenvalues --   -7.78302  -7.78282  -1.18734  -1.09532  -1.05980
 Alpha  occ. eigenvalues --   -0.99278  -0.94519  -0.84454  -0.81475  -0.70851
 Alpha  occ. eigenvalues --   -0.67696  -0.64448  -0.60314  -0.59645  -0.59154
 Alpha  occ. eigenvalues --   -0.55997  -0.53174  -0.52360  -0.51190  -0.47703
 Alpha  occ. eigenvalues --   -0.46205  -0.35304  -0.34191
 Alpha virt. eigenvalues --    0.03244   0.03565   0.04100   0.05259   0.05819
 Alpha virt. eigenvalues --    0.05830   0.07990   0.09433   0.10138   0.10232
 Alpha virt. eigenvalues --    0.10538   0.12175   0.12873   0.13232   0.13643

 Mulliken charges:
               1
     1  C   -0.142445
     2  C    0.115917
     3  C    0.466328
     4  C    0.210507
     5  C    1.014032
     6  C   -0.299470
     7  C   -0.542436
     8  Cl  -0.421610
     9  H   -0.236097
    10  H   -0.213740
    11  H   -0.292012
    12  H   -0.193558
    13  H    0.260244
    14  H    0.260244
    15  H    0.014096
 Sum of Mulliken charges =  -0.00000

 Dipole moment (field-independent basis, Debye):
    X=              0.7082    Y=             -1.6623    Z=             -0.0000  Tot=              1.8069

 Test job not archived.
 1\1\GINC-SE041\SP\RHF\Aug-CC-pVDZ\C7H7Cl1\OHZDE\05-Apr-2025\0\\#t hf a
 ug-cc-pvdz iop(5/13=1,5/36=2,99/5=2) pseudo=read geom=check guess=(rea
 d,tcheck) scf=(maxcycle=1)\\title\\0,1\C,0,1.683448,-1.663575,0.\C,0,2
 .220125,-0.382943,0.\C,0,0.305726,-1.835687,0.\C,0,1.373807,0.717619,0
 .\C,0,-0.57387,-0.75119,0.\C,0,0.,0.522425,0.\C,0,-2.061411,-0.96093,0
 .\Cl,0,-1.036566,1.943162,0.\H,0,2.334268,-2.527315,0.\H,0,3.291363,-0
 .235053,0.\H,0,-0.108141,-2.835976,0.\H,0,1.769429,1.722783,0.\H,0,-2.
 526446,-0.504646,0.875379\H,0,-2.526446,-0.504646,-0.875379\H,0,-2.299

 Normal termination of Gaussian 16 at Sat Apr  5 22:24:49 2025.
