 Gaussian 16, Revision C.01,

 ----------------------------------------------------------------------
 #t hf aug-cc-pvdz symm=none int=(grid=ultrafine) guess=(read,tcheck) s
 table=(opt,rrhf)
 ----------------------------------------------------------------------
 -----
 title
 -----
 Symbolic Z-matrix:
 Charge =  0 Multiplicity = 1

 SCF Done:  E(RHF) =  -635.827201760     A.U. after   13 cycles
 Normal termination of Gaussian 16 at Sat Apr  5 22:22:40 2025.
 Gaussian 16:  ES64L-G16RevC.01  3-Jul-2019

 ----------------------------------------------------------------------
 #t hf aug-cc-pvdz iop(5/13=1,5/36=2,99/5=2) pseudo=read geom=check gue
 ss=(read,tcheck) scf=(maxcycle=1)
 ----------------------------------------------------------------------
 -----
 title
 -----
 Structure from the checkpoint file:  "1-chloro-1-fluoroethene.chk"
 Charge =  0 Multiplicity = 1

                         Standard orientation:
 ---------------------------------------------------------------------
 Center     Atomic      Atomic             Coordinates (Angstroms)
 Number     Number       Type             X           Y           Z
 ---------------------------------------------------------------------
      1         17           0        1.271311   -0.098836   -0.000000
      2          9           0       -0.891538    1.237651   -0.000000
      3          6           0       -0.455870   -0.024081   -0.000000
      4          6           0       -1.271817   -1.059180    0.000002
      5          1           0       -0.883624   -2.063138    0.000003
      6          1           0       -2.338704   -0.895954    0.000003
 ---------------------------------------------------------------------

 SCF Done:  E(RHF) =  -636.072583850     A.U. after    2 cycles

 The electronic state is 1-A.
 Alpha  occ. eigenvalues -- -105.59812 -26.50504 -11.40713 -11.26366 -10.64653
 Alpha  occ. eigenvalues --   -7.81619  -7.81187  -7.81176  -1.64117  -1.14656
 Alpha  occ. eigenvalues --   -1.03493  -0.83086  -0.72768  -0.71334  -0.70450
 Alpha  occ. eigenvalues --   -0.61022  -0.57715  -0.52762  -0.49370  -0.39195
 Alpha virt. eigenvalues --    0.03791   0.05011   0.07525   0.09187   0.09598
 Alpha virt. eigenvalues --    0.13026   0.13035   0.14175   0.15992   0.16272
 Alpha virt. eigenvalues --    0.17595   0.17921   0.18109   0.20802   0.23170

 Mulliken charges:
               1
     1  Cl  -0.084629
     2  F   -0.757944
     3  C    0.754483
     4  C    0.102271
     5  H    0.009485
     6  H   -0.023666
 Sum of Mulliken charges =  -0.00000

 Dipole moment (field-independent basis, Debye):
    X=             -0.8231    Y=             -1.3116    Z=              0.0000  Tot=              1.5485

 Test job not archived.
 1\1\GINC-SE106\SP\RHF\Aug-CC-pVDZ\C2H2Cl1F1\OHZDE\05-Apr-2025\0\\#t hf
  aug-cc-pvdz iop(5/13=1,5/36=2,99/5=2) pseudo=read geom=check guess=(r
 ead,tcheck) scf=(maxcycle=1)\\title\\0,1\Cl,0,1.271311,-0.098836,0.\F,
 0,-0.891537,1.237652,0.\C,0,-0.45587,-0.024081,0.\C,0,-1.271818,-1.059
 179,0.000002\H,0,-0.883625,-2.063137,0.000003\H,0,-2.338704,-0.895953,
 0.000003\\Version=ES64L-G16RevC.01\State=1-A\HF=-636.0725838\RMSD=8.62
 0e-03\Dipole=-0.3238368,-0.5160314,0.0000009\Quadrupole=1.4204187,0.02
 32137,-1.4436324,1.3028182,-0.0000035,-0.0000039\PG=C01 [X(C2H2Cl1F1)]

 Normal termination of Gaussian 16 at Sat Apr  5 22:23:18 2025.
