 Gaussian 16, Revision C.01,

 ----------------------------------------------------------------------
 #t hf aug-cc-pvdz symm=none int=(grid=ultrafine) guess=(read,tcheck) s
 table=(opt,rrhf)
 ----------------------------------------------------------------------
 -----
 title
 -----
 Symbolic Z-matrix:
 Charge =  0 Multiplicity = 1

 SCF Done:  E(RHF) =  -577.203689264     A.U. after   12 cycles

 1\1\GINC-SE106\Stability\RHF\Aug-CC-pVDZ\C3H7Cl1\OHZDE\05-Apr-2025\0\\
 #t hf aug-cc-pvdz symm=none int=(grid=ultrafine) guess=(read,tcheck) s
 table=(opt,rrhf)\\title\\0,1\C,0,-1.818641,-0.717279,0.144096\C,0,-1.1
 50092,0.559242,-0.35835\C,0,0.172758,0.883165,0.310034\Cl,0,1.464599,-
 0.345613,-0.067396\H,0,-2.003786,-0.667711,1.219027\H,0,-2.776988,-0.8
 72261,-0.351812\H,0,-1.195361,-1.589705,-0.048379\H,0,-1.001591,0.5096
 88,-1.438752\H,0,-1.806916,1.416179,-0.174399\H,0,0.089223,0.894421,1.
 394122\H,0,0.57309,1.83404,-0.028754\\Version=ES64L-G16RevC.01\HF=-577

 Normal termination of Gaussian 16 at Sat Apr  5 22:23:44 2025.
 Gaussian 16:  ES64L-G16RevC.01  3-Jul-2019

 ----------------------------------------------------------------------
 #t hf aug-cc-pvdz iop(5/13=1,5/36=2,99/5=2) pseudo=read geom=check gue
 ss=(read,tcheck) scf=(maxcycle=1)
 ----------------------------------------------------------------------
 -----
 title
 -----
 Structure from the checkpoint file:  "1-chloropropane.chk"
 Charge =  0 Multiplicity = 1

                         Standard orientation:
 ---------------------------------------------------------------------
 Center     Atomic      Atomic             Coordinates (Angstroms)
 Number     Number       Type             X           Y           Z
 ---------------------------------------------------------------------
      1          6           0       -1.818641   -0.717279    0.144096
      2          6           0       -1.150092    0.559242   -0.358350
      3          6           0        0.172758    0.883165    0.310034
      4         17           0        1.464599   -0.345613   -0.067396
      5          1           0       -2.003786   -0.667711    1.219027
      6          1           0       -2.776988   -0.872261   -0.351812
      7          1           0       -1.195361   -1.589705   -0.048379
      8          1           0       -1.001591    0.509688   -1.438752
      9          1           0       -1.806916    1.416179   -0.174399
     10          1           0        0.089223    0.894421    1.394122
     11          1           0        0.573090    1.834040   -0.028754
 ---------------------------------------------------------------------

 SCF Done:  E(RHF) =  -577.414219711     A.U. after    2 cycles

 The electronic state is 1-A.
 Alpha  occ. eigenvalues -- -105.54852 -11.30336 -11.24787 -11.22997 -10.59662
 Alpha  occ. eigenvalues --   -7.76594  -7.76239  -7.76230  -1.11736  -1.02353
 Alpha  occ. eigenvalues --   -0.91777  -0.81164  -0.65597  -0.64248  -0.59585
 Alpha  occ. eigenvalues --   -0.54995  -0.52605  -0.51158  -0.49210  -0.43884
 Alpha  occ. eigenvalues --   -0.43748
 Alpha virt. eigenvalues --    0.03452   0.04049   0.04210   0.05200   0.06833
 Alpha virt. eigenvalues --    0.07245   0.07677   0.09688   0.12222   0.14331
 Alpha virt. eigenvalues --    0.14726   0.15228   0.16147   0.16276   0.16926

 Mulliken charges:
               1
     1  C   -0.311609
     2  C   -0.363692
     3  C   -0.457244
     4  Cl  -0.110124
     5  H    0.158369
     6  H    0.121529
     7  H    0.185385
     8  H    0.142570
     9  H    0.191153
    10  H    0.238481
    11  H    0.205184
 Sum of Mulliken charges =  -0.00000

 Dipole moment (field-independent basis, Debye):
    X=             -1.9431    Y=              1.4681    Z=              0.3492  Tot=              2.4603

 Test job not archived.
 1\1\GINC-SE106\SP\RHF\Aug-CC-pVDZ\C3H7Cl1\OHZDE\05-Apr-2025\0\\#t hf a
 ug-cc-pvdz iop(5/13=1,5/36=2,99/5=2) pseudo=read geom=check guess=(rea
 d,tcheck) scf=(maxcycle=1)\\title\\0,1\C,0,-1.818641,-0.717279,0.14409
 6\C,0,-1.150092,0.559242,-0.35835\C,0,0.172758,0.883165,0.310034\Cl,0,
 1.464599,-0.345613,-0.067396\H,0,-2.003786,-0.667711,1.219027\H,0,-2.7
 76988,-0.872261,-0.351812\H,0,-1.195361,-1.589705,-0.048379\H,0,-1.001
 591,0.509688,-1.438752\H,0,-1.806916,1.416179,-0.174399\H,0,0.089223,0
 .894421,1.394122\H,0,0.57309,1.83404,-0.028754\\Version=ES64L-G16RevC.

 Normal termination of Gaussian 16 at Sat Apr  5 22:23:47 2025.
