 Gaussian 16, Revision C.01,

 ----------------------------------------------------------------------
 #t hf aug-cc-pvdz symm=none int=(grid=ultrafine) guess=(read,tcheck) s
 table=(opt,rrhf)
 ----------------------------------------------------------------------
 -----
 title
 -----
 Symbolic Z-matrix:
 Charge =  0 Multiplicity = 1

 SCF Done:  E(RHF) =  -889.607750589     A.U. after   17 cycles
 Normal termination of Gaussian 16 at Sat Apr  5 22:24:43 2025.
 Gaussian 16:  ES64L-G16RevC.01  3-Jul-2019

 ----------------------------------------------------------------------
 #t hf aug-cc-pvdz iop(5/13=1,5/36=2,99/5=2) pseudo=read geom=check gue
 ss=(read,tcheck) scf=(maxcycle=1)
 ----------------------------------------------------------------------
 -----
 title
 -----
 Structure from the checkpoint file:  "1-chloro-1-ethyl-3-nitrosourea.chk"
 Charge =  0 Multiplicity = 1

                         Standard orientation:
 ---------------------------------------------------------------------
 Center     Atomic      Atomic             Coordinates (Angstroms)
 Number     Number       Type             X           Y           Z
 ---------------------------------------------------------------------
      1         17           0        2.286656   -0.909638   -0.094329
      2          8           0       -0.348592   -1.741340    0.570157
      3          8           0       -3.591259    0.368778   -0.156789
      4          7           0        0.834131   -0.041900   -0.440896
      5          7           0       -1.480456    0.074394   -0.263918
      6          7           0       -2.680962   -0.317585    0.233515
      7          6           0        1.034960    1.411899   -0.556362
      8          6           0        1.208429    2.133260    0.774373
      9          6           0       -0.314225   -0.670944    0.029846
     10          1           0        0.193913    1.822214   -1.115508
     11          1           0        1.908061    1.546450   -1.191269
     12          1           0        1.383554    3.194973    0.597832
     13          1           0        0.320409    2.034185    1.398486
     14          1           0        2.061221    1.735025    1.322072
     15          1           0       -1.505481    0.861831   -0.903010
 ---------------------------------------------------------------------

 SCF Done:  E(RHF) =  -890.107839910     A.U. after    2 cycles

 The electronic state is 1-A.
 Alpha  occ. eigenvalues -- -105.61806 -20.61712 -20.54519 -15.70347 -15.60377
 Alpha  occ. eigenvalues --  -15.60169 -11.43304 -11.32024 -11.25879 -10.66275
 Alpha  occ. eigenvalues --   -7.83255  -7.82757  -7.82719  -1.62588  -1.51155
 Alpha  occ. eigenvalues --   -1.32961  -1.29286  -1.08553  -1.07013  -0.99011
 Alpha  occ. eigenvalues --   -0.92829  -0.88043  -0.79851  -0.76358  -0.72769
 Alpha  occ. eigenvalues --   -0.69865  -0.68904  -0.67076  -0.65527  -0.62651
 Alpha  occ. eigenvalues --   -0.59220  -0.56929  -0.54701  -0.53429  -0.50468
 Alpha  occ. eigenvalues --   -0.48267  -0.47378  -0.45979  -0.43268
 Alpha virt. eigenvalues --    0.02508   0.03519   0.04113   0.04600   0.05094
 Alpha virt. eigenvalues --    0.05958   0.07152   0.07980   0.09995   0.10690
 Alpha virt. eigenvalues --    0.11167   0.11876   0.12474   0.12971   0.13968

 Mulliken charges:
               1
     1  Cl   0.148133
     2  O   -1.140209
     3  O   -0.978286
     4  N    0.698027
     5  N    0.247960
     6  N    1.096716
     7  C   -0.639583
     8  C   -0.220102
     9  C    0.040761
    10  H    0.100199
    11  H    0.060392
    12  H    0.148028
    13  H    0.174105
    14  H    0.173409
    15  H    0.090449
 Sum of Mulliken charges =  -0.00000

 Dipole moment (field-independent basis, Debye):
    X=              2.4044    Y=              4.7061    Z=             -1.7303  Tot=              5.5608

 Test job not archived.
 1\1\GINC-SE226\SP\RHF\Aug-CC-pVDZ\C3H6Cl1N3O2\OHZDE\05-Apr-2025\0\\#t
 hf aug-cc-pvdz iop(5/13=1,5/36=2,99/5=2) pseudo=read geom=check guess=
 (read,tcheck) scf=(maxcycle=1)\\title\\0,1\Cl,0,2.286656,-0.909638,-0.
 094329\O,0,-0.348592,-1.74134,0.570157\O,0,-3.591259,0.368778,-0.15678
 9\N,0,0.834131,-0.0419,-0.440896\N,0,-1.480456,0.074394,-0.263918\N,0,
 -2.680962,-0.317585,0.233515\C,0,1.03496,1.411899,-0.556362\C,0,1.2084
 29,2.13326,0.774373\C,0,-0.314225,-0.670944,0.029846\H,0,0.193913,1.82
 2214,-1.115508\H,0,1.908061,1.54645,-1.191269\H,0,1.383554,3.194973,0.

 Normal termination of Gaussian 16 at Sat Apr  5 22:24:50 2025.
