 Gaussian 16, Revision C.01,

 ----------------------------------------------------------------------
 #t hf aug-cc-pvdz symm=none int=(grid=ultrafine) guess=(read,tcheck) s
 table=(opt,rrhf)
 ----------------------------------------------------------------------
 -----
 title
 -----
 Symbolic Z-matrix:
 Charge =  0 Multiplicity = 1

 SCF Done:  E(RHF) =  -1065.27174283     A.U. after   15 cycles
 Normal termination of Gaussian 16 at Sat Apr  5 22:23:56 2025.
 Gaussian 16:  ES64L-G16RevC.01  3-Jul-2019

 ----------------------------------------------------------------------
 #t hf aug-cc-pvdz iop(5/13=1,5/36=2,99/5=2) pseudo=read geom=check gue
 ss=(read,tcheck) scf=(maxcycle=1)
 ----------------------------------------------------------------------
 -----
 title
 -----
 Structure from the checkpoint file:  "1-chloroallyl_isothiocyanate.chk"
 Charge =  0 Multiplicity = 1

                         Standard orientation:
 ---------------------------------------------------------------------
 Center     Atomic      Atomic             Coordinates (Angstroms)
 Number     Number       Type             X           Y           Z
 ---------------------------------------------------------------------
      1         17           0        1.206649    1.711643   -0.227494
      2         16           0       -3.019563   -0.139639   -0.082460
      3          7           0       -0.291654   -0.495146    0.196818
      4          6           0        0.951475    0.047369    0.568780
      5          6           0        2.117266   -0.819228    0.224719
      6          6           0        2.032356   -1.986494   -0.395802
      7          6           0       -1.463636   -0.293893    0.095615
      8          1           0        0.943371    0.294738    1.629473
      9          1           0        3.072452   -0.416382    0.534896
     10          1           0        2.918954   -2.568416   -0.603567
     11          1           0        1.082018   -2.394155   -0.711641
 ---------------------------------------------------------------------

 SCF Done:  E(RHF) =  -1065.61512876     A.U. after    2 cycles

 The electronic state is 1-A.
 Alpha  occ. eigenvalues -- -105.57188 -93.96252 -15.56216 -11.40346 -11.39252
 Alpha  occ. eigenvalues --  -11.27386 -11.26446 -10.61961  -8.24538  -7.78884
 Alpha  occ. eigenvalues --   -7.78513  -7.78498  -6.22429  -6.22004  -6.21968
 Alpha  occ. eigenvalues --   -1.32627  -1.15291  -1.08629  -1.05562  -0.97558
 Alpha  occ. eigenvalues --   -0.85414  -0.75809  -0.70527  -0.66675  -0.64400
 Alpha  occ. eigenvalues --   -0.62186  -0.58621  -0.56293  -0.54219  -0.47712
 Alpha  occ. eigenvalues --   -0.46528  -0.40556  -0.39953  -0.39064
 Alpha virt. eigenvalues --    0.03066   0.03922   0.04234   0.05683   0.06237
 Alpha virt. eigenvalues --    0.07154   0.08387   0.08855   0.09310   0.10482
 Alpha virt. eigenvalues --    0.11270   0.12362   0.13158   0.13871   0.14263

 Mulliken charges:
               1
     1  Cl   0.011274
     2  S    0.323151
     3  N    1.000939
     4  C   -1.043280
     5  C    1.014856
     6  C   -0.109160
     7  C   -1.088194
     8  H    0.167393
     9  H   -0.126172
    10  H   -0.092000
    11  H   -0.058807
 Sum of Mulliken charges =  -0.00000

 Dipole moment (field-independent basis, Debye):
    X=              1.6577    Y=             -1.4649    Z=              1.1453  Tot=              2.4911

 Test job not archived.
 1\1\GINC-SE152\SP\RHF\Aug-CC-pVDZ\C4H4Cl1N1S1\OHZDE\05-Apr-2025\0\\#t
 hf aug-cc-pvdz iop(5/13=1,5/36=2,99/5=2) pseudo=read geom=check guess=
 (read,tcheck) scf=(maxcycle=1)\\title\\0,1\Cl,0,1.206649,1.711643,-0.2
 27494\S,0,-3.019563,-0.139639,-0.08246\N,0,-0.291654,-0.495146,0.19681
 8\C,0,0.951475,0.047369,0.56878\C,0,2.117266,-0.819228,0.224719\C,0,2.
 032356,-1.986494,-0.395802\C,0,-1.463636,-0.293893,0.095615\H,0,0.9433
 71,0.294738,1.629473\H,0,3.072452,-0.416382,0.534896\H,0,2.918954,-2.5
 68416,-0.603567\H,0,1.082018,-2.394155,-0.711641\\Version=ES64L-G16Rev

 Normal termination of Gaussian 16 at Sat Apr  5 22:24:01 2025.
