 Gaussian 16, Revision C.01,

 ----------------------------------------------------------------------
 #t hf aug-cc-pvdz symm=none int=(grid=ultrafine) guess=(read,tcheck) s
 table=(opt,rrhf)
 ----------------------------------------------------------------------
 -----
 title
 -----
 Symbolic Z-matrix:
 Charge =  0 Multiplicity = 1

 SCF Done:  E(RHF) =  -1102.29441295     A.U. after   15 cycles
 Normal termination of Gaussian 16 at Sat Apr  5 22:23:55 2025.
 Gaussian 16:  ES64L-G16RevC.01  3-Jul-2019

 ----------------------------------------------------------------------
 #t hf aug-cc-pvdz iop(5/13=1,5/36=2,99/5=2) pseudo=read geom=check gue
 ss=(read,tcheck) scf=(maxcycle=1)
 ----------------------------------------------------------------------
 -----
 title
 -----
 Structure from the checkpoint file:  "1-chloroethylsulfanyliminomethanone.chk"
 Charge =  0 Multiplicity = 1

                         Standard orientation:
 ---------------------------------------------------------------------
 Center     Atomic      Atomic             Coordinates (Angstroms)
 Number     Number       Type             X           Y           Z
 ---------------------------------------------------------------------
      1         17           0        1.561680    1.458583   -0.139280
      2         16           0       -0.199332   -0.989403   -0.363561
      3          8           0       -3.703891    0.379365   -0.024728
      4          7           0       -1.406676   -0.052559    0.379697
      5          6           0        1.249977   -0.250731    0.422674
      6          6           0       -2.570828    0.137435    0.120568
      7          6           0        2.453915   -1.127919    0.131443
      8          1           0        1.049046   -0.158737    1.484752
      9          1           0        2.308548   -2.119331    0.561143
     10          1           0        3.342765   -0.681353    0.571677
     11          1           0        2.619862   -1.225756   -0.940992
 ---------------------------------------------------------------------

 SCF Done:  E(RHF) =  -1102.67439558     A.U. after    2 cycles

 The electronic state is 1-A.
 Alpha  occ. eigenvalues -- -105.56874 -94.02892 -20.61325 -15.55539 -11.42882
 Alpha  occ. eigenvalues --  -11.36000 -11.26916 -10.61671  -8.30507  -7.78606
 Alpha  occ. eigenvalues --   -7.78230  -7.78222  -6.28332  -6.28104  -6.27836
 Alpha  occ. eigenvalues --   -1.55767  -1.30544  -1.16315  -1.04629  -1.00558
 Alpha  occ. eigenvalues --   -0.84988  -0.76479  -0.73001  -0.68399  -0.68126
 Alpha  occ. eigenvalues --   -0.65364  -0.61305  -0.59851  -0.56102  -0.54724
 Alpha  occ. eigenvalues --   -0.51825  -0.48446  -0.45988  -0.44662  -0.37668
 Alpha virt. eigenvalues --    0.03205   0.04099   0.04957   0.05495   0.06743
 Alpha virt. eigenvalues --    0.08277   0.08829   0.09359   0.09709   0.11133
 Alpha virt. eigenvalues --    0.11535   0.12207   0.14052   0.14476   0.15071

 Mulliken charges:
               1
     1  Cl  -0.084251
     2  S    0.696229
     3  O   -0.842389
     4  N    0.412856
     5  C   -0.976781
     6  C    0.060234
     7  C   -0.109809
     8  H    0.266995
     9  H    0.207429
    10  H    0.150712
    11  H    0.218776
 Sum of Mulliken charges =  -0.00000

 Dipole moment (field-independent basis, Debye):
    X=              2.2356    Y=             -2.2771    Z=              0.5412  Tot=              3.2367

 Test job not archived.
 1\1\GINC-SE188\SP\RHF\Aug-CC-pVDZ\C3H4Cl1N1O1S1\OHZDE\05-Apr-2025\0\\#
 t hf aug-cc-pvdz iop(5/13=1,5/36=2,99/5=2) pseudo=read geom=check gues
 s=(read,tcheck) scf=(maxcycle=1)\\title\\0,1\Cl,0,1.56168,1.458583,-0.
 13928\S,0,-0.199332,-0.989403,-0.363561\O,0,-3.703891,0.379365,-0.0247
 28\N,0,-1.406676,-0.052559,0.379697\C,0,1.249977,-0.250731,0.422674\C,
 0,-2.570828,0.137435,0.120568\C,0,2.453915,-1.127919,0.131443\H,0,1.04
 9046,-0.158737,1.484752\H,0,2.308548,-2.119331,0.561143\H,0,3.342765,-
 0.681353,0.571677\H,0,2.619862,-1.225756,-0.940992\\Version=ES64L-G16R

 Normal termination of Gaussian 16 at Sat Apr  5 22:24:01 2025.
