 Gaussian 16, Revision C.01,

 ----------------------------------------------------------------------
 #t hf aug-cc-pvdz symm=none int=(grid=ultrafine) guess=(read,tcheck) s
 table=(opt,rrhf)
 ----------------------------------------------------------------------
 -----
 title
 -----
 Symbolic Z-matrix:
 Charge =  0 Multiplicity = 1

 SCF Done:  E(RHF) =  -735.904644288     A.U. after   12 cycles
 Normal termination of Gaussian 16 at Sat Apr  5 22:23:22 2025.
 Gaussian 16:  ES64L-G16RevC.01  3-Jul-2019

 ----------------------------------------------------------------------
 #t hf aug-cc-pvdz iop(5/13=1,5/36=2,99/5=2) pseudo=read geom=check gue
 ss=(read,tcheck) scf=(maxcycle=1)
 ----------------------------------------------------------------------
 -----
 title
 -----
 Structure from the checkpoint file:  "1-chloro-1-1-difluoroethane.chk"
 Charge =  0 Multiplicity = 1

                         Standard orientation:
 ---------------------------------------------------------------------
 Center     Atomic      Atomic             Coordinates (Angstroms)
 Number     Number       Type             X           Y           Z
 ---------------------------------------------------------------------
      1          6           0       -0.355891    0.007246    0.000000
      2          6           0       -0.817838    1.438371    0.000000
      3         17           0        1.445175   -0.130990    0.000000
      4          9           0       -0.817838   -0.654552    1.085396
      5          9           0       -0.817838   -0.654552   -1.085396
      6          1           0       -1.907414    1.446254    0.000000
      7          1           0       -0.448549    1.944401    0.887913
      8          1           0       -0.448549    1.944401   -0.887913
 ---------------------------------------------------------------------

 SCF Done:  E(RHF) =  -736.243074183     A.U. after    2 cycles

 The electronic state is 1-A'.
 Alpha  occ. eigenvalues -- -105.58478 -26.50365 -26.50362 -11.49704 -11.27246
 Alpha  occ. eigenvalues --  -10.63371  -7.80307  -7.79900  -7.79899  -1.67895
 Alpha  occ. eigenvalues --   -1.60575  -1.12698  -1.03676  -0.88507  -0.78214
 Alpha  occ. eigenvalues --   -0.75468  -0.75038  -0.67004  -0.63582  -0.63000
 Alpha  occ. eigenvalues --   -0.59335  -0.58735  -0.53375  -0.48592  -0.48241
 Alpha virt. eigenvalues --    0.03488   0.05378   0.05399   0.08058   0.09476
 Alpha virt. eigenvalues --    0.11900   0.12300   0.13056   0.14353   0.15281
 Alpha virt. eigenvalues --    0.16245   0.17839   0.18074   0.19928   0.23177

 Mulliken charges:
               1
     1  C    1.369429
     2  C   -0.393261
     3  Cl  -0.134846
     4  F   -0.722776
     5  F   -0.722776
     6  H    0.193771
     7  H    0.205230
     8  H    0.205230
 Sum of Mulliken charges =  -0.00000

 Dipole moment (field-independent basis, Debye):
    X=             -0.8351    Y=              2.2016    Z=             -0.0000  Tot=              2.3547

 Test job not archived.
 1\1\GINC-SE199\SP\RHF\Aug-CC-pVDZ\C2H3Cl1F2\OHZDE\05-Apr-2025\0\\#t hf
  aug-cc-pvdz iop(5/13=1,5/36=2,99/5=2) pseudo=read geom=check guess=(r
 ead,tcheck) scf=(maxcycle=1)\\title\\0,1\C,0,-0.355891,0.007246,0.\C,0
 ,-0.817838,1.438371,0.\Cl,0,1.445175,-0.13099,0.\F,0,-0.817838,-0.6545
 52,1.085396\F,0,-0.817838,-0.654552,-1.085396\H,0,-1.907414,1.446254,0
 .\H,0,-0.448549,1.944401,0.887913\H,0,-0.448549,1.944401,-0.887913\\Ve
 rsion=ES64L-G16RevC.01\State=1-A'\HF=-736.2430742\RMSD=6.116e-03\Dipol
 e=-0.3285652,0.8661872,0.\Quadrupole=0.1112515,1.1017991,-1.2130506,-1

 Normal termination of Gaussian 16 at Sat Apr  5 22:23:36 2025.
