 Gaussian 16, Revision C.01,

 ----------------------------------------------------------------------
 #t hf aug-cc-pvdz symm=none int=(grid=ultrafine) guess=(read,tcheck) s
 table=(opt,rrhf)
 ----------------------------------------------------------------------
 -----
 title
 -----
 Symbolic Z-matrix:
 Charge =  0 Multiplicity = 1

 SCF Done:  E(RHF) =  -842.314408286     A.U. after   18 cycles
 Normal termination of Gaussian 16 at Sat Apr  5 22:25:51 2025.
 Gaussian 16:  ES64L-G16RevC.01  3-Jul-2019

 ----------------------------------------------------------------------
 #t hf aug-cc-pvdz iop(5/13=1,5/36=2,99/5=2) pseudo=read geom=check gue
 ss=(read,tcheck) scf=(maxcycle=1)
 ----------------------------------------------------------------------
 -----
 title
 -----
 Structure from the checkpoint file:  "1-chloronaphthalene.chk"
 Charge =  0 Multiplicity = 1

                         Standard orientation:
 ---------------------------------------------------------------------
 Center     Atomic      Atomic             Coordinates (Angstroms)
 Number     Number       Type             X           Y           Z
 ---------------------------------------------------------------------
      1          6           0        1.134283   -0.569029    0.000000
      2          6           0        1.016492   -1.932922    0.000000
      3          6           0       -0.261594   -2.526193    0.000000
      4          6           0       -1.387179   -1.747660    0.000000
      5          6           0       -2.441560    0.487066    0.000000
      6          6           0       -2.335638    1.852213    0.000000
      7          6           0       -1.064302    2.461445    0.000000
      8          6           0        0.074645    1.699051    0.000000
      9          6           0        0.000000    0.285851    0.000000
     10          6           0       -1.289332   -0.336021    0.000000
     11         17           0        2.747884    0.124724    0.000000
     12          1           0        1.904173   -2.548108    0.000000
     13          1           0       -0.340512   -3.604770    0.000000
     14          1           0       -2.369483   -2.201792    0.000000
     15          1           0       -3.414600    0.012616    0.000000
     16          1           0       -3.225734    2.466898    0.000000
     17          1           0       -0.988024    3.540457    0.000000
     18          1           0        1.045261    2.171590    0.000000
 ---------------------------------------------------------------------

 SCF Done:  E(RHF) =  -842.780606924     A.U. after    2 cycles

 The electronic state is 1-A'.
 Alpha  occ. eigenvalues -- -105.57247 -11.31260 -11.26524 -11.26187 -11.25802
 Alpha  occ. eigenvalues --  -11.25572 -11.25380 -11.25235 -11.25146 -11.25081
 Alpha  occ. eigenvalues --  -11.24956 -10.62053  -7.79017  -7.78634  -7.78606
 Alpha  occ. eigenvalues --   -1.20182  -1.13732  -1.10154  -1.03290  -1.02561
 Alpha  occ. eigenvalues --   -0.97880  -0.87253  -0.86477  -0.81578  -0.73253
 Alpha  occ. eigenvalues --   -0.71850  -0.70750  -0.64470  -0.63135  -0.61880
 Alpha  occ. eigenvalues --   -0.60201  -0.58920  -0.57029  -0.54943  -0.52008
 Alpha  occ. eigenvalues --   -0.50428  -0.50103  -0.46516  -0.46041  -0.39403
 Alpha  occ. eigenvalues --   -0.34204  -0.30641
 Alpha virt. eigenvalues --    0.03156   0.03206   0.03807   0.04636   0.05169
 Alpha virt. eigenvalues --    0.05753   0.07047   0.07982   0.08431   0.09764
 Alpha virt. eigenvalues --    0.09886   0.11459   0.11846   0.11973   0.12371

 Mulliken charges:
               1
     1  C   -0.228533
     2  C   -0.143769
     3  C    0.051630
     4  C   -0.045883
     5  C   -0.102724
     6  C   -0.020462
     7  C   -0.142718
     8  C    0.150342
     9  C    2.018284
    10  C    0.660990
    11  Cl  -0.398532
    12  H   -0.207494
    13  H   -0.237146
    14  H   -0.305231
    15  H   -0.317451
    16  H   -0.242733
    17  H   -0.232723
    18  H   -0.255847
 Sum of Mulliken charges =  -0.00000

 Dipole moment (field-independent basis, Debye):
    X=             -1.9118    Y=             -0.5075    Z=              0.0000  Tot=              1.9780

 Test job not archived.
 1\1\GINC-SE220\SP\RHF\Aug-CC-pVDZ\C10H7Cl1\OHZDE\05-Apr-2025\0\\#t hf
 aug-cc-pvdz iop(5/13=1,5/36=2,99/5=2) pseudo=read geom=check guess=(re
 ad,tcheck) scf=(maxcycle=1)\\title\\0,1\C,0,1.134283,-0.569029,0.\C,0,
 1.016492,-1.932922,0.\C,0,-0.261594,-2.526193,0.\C,0,-1.387179,-1.7476
 6,0.\C,0,-2.44156,0.487066,0.\C,0,-2.335638,1.852213,0.\C,0,-1.064302,
 2.461445,0.\C,0,0.074645,1.699051,0.\C,0,0.,0.285851,0.\C,0,-1.289332,
 -0.336021,0.\Cl,0,2.747884,0.124724,0.\H,0,1.904173,-2.548108,0.\H,0,-
 0.340512,-3.60477,0.\H,0,-2.369483,-2.201792,0.\H,0,-3.4146,0.012616,0

 Normal termination of Gaussian 16 at Sat Apr  5 22:26:51 2025.
