 Gaussian 16, Revision C.01,

 ----------------------------------------------------------------------
 #t hf aug-cc-pvdz symm=none int=(grid=ultrafine) guess=(read,tcheck) s
 table=(opt,rrhf)
 ----------------------------------------------------------------------
 -----
 title
 -----
 Symbolic Z-matrix:
 Charge =  0 Multiplicity = 1

 SCF Done:  E(RHF) =  -615.054845393     A.U. after   14 cycles

 1\1\GINC-SE202\Stability\RHF\Aug-CC-pVDZ\C4H7Cl1\OHZDE\05-Apr-2025\0\\
 #t hf aug-cc-pvdz symm=none int=(grid=ultrafine) guess=(read,tcheck) s
 table=(opt,rrhf)\\title\\0,1\C,0,2.920911,-0.389382,0.000288\H,0,2.911
 727,-0.857297,0.984172\H,0,3.71282,0.363693,-0.014052\H,0,3.197836,-1.
 147075,-0.737175\C,0,0.524673,0.206787,0.450874\H,0,1.523663,0.702405,
 -1.30571\C,0,1.597085,0.217659,-0.335522\H,0,-1.130829,1.516651,0.8568
 98\H,0,-0.71593,1.36214,-0.864008\C,0,-0.765272,0.84204,0.087533\Cl,0,
 -2.101674,-0.407151,-0.091662\H,0,0.564791,-0.281572,1.419098\\Version

 Normal termination of Gaussian 16 at Sat Apr  5 22:23:27 2025.
 Gaussian 16:  ES64L-G16RevC.01  3-Jul-2019

 ----------------------------------------------------------------------
 #t hf aug-cc-pvdz iop(5/13=1,5/36=2,99/5=2) pseudo=read geom=check gue
 ss=(read,tcheck) scf=(maxcycle=1)
 ----------------------------------------------------------------------
 -----
 title
 -----
 Structure from the checkpoint file:  "1-chloro-2-butene.chk"
 Charge =  0 Multiplicity = 1

                         Standard orientation:
 ---------------------------------------------------------------------
 Center     Atomic      Atomic             Coordinates (Angstroms)
 Number     Number       Type             X           Y           Z
 ---------------------------------------------------------------------
      1          6           0        2.920911   -0.389382    0.000288
      2          1           0        2.911727   -0.857297    0.984172
      3          1           0        3.712820    0.363693   -0.014052
      4          1           0        3.197836   -1.147075   -0.737175
      5          6           0        0.524673    0.206787    0.450874
      6          1           0        1.523663    0.702405   -1.305710
      7          6           0        1.597085    0.217659   -0.335522
      8          1           0       -1.130829    1.516651    0.856898
      9          1           0       -0.715930    1.362140   -0.864008
     10          6           0       -0.765272    0.842040    0.087533
     11         17           0       -2.101674   -0.407151   -0.091662
     12          1           0        0.564791   -0.281572    1.419098
 ---------------------------------------------------------------------

 SCF Done:  E(RHF) =  -615.301769707     A.U. after    2 cycles

 The electronic state is 1-A.
 Alpha  occ. eigenvalues -- -105.54784 -11.30839 -11.25583 -11.24744 -11.24202
 Alpha  occ. eigenvalues --  -10.59567  -7.76497  -7.76135  -7.76128  -1.12473
 Alpha  occ. eigenvalues --   -1.06010  -0.96861  -0.87613  -0.77561  -0.65578
 Alpha  occ. eigenvalues --   -0.65323  -0.59040  -0.57947  -0.55779  -0.53848
 Alpha  occ. eigenvalues --   -0.51879  -0.44290  -0.43821  -0.37336
 Alpha virt. eigenvalues --    0.03501   0.03880   0.04071   0.05166   0.06162
 Alpha virt. eigenvalues --    0.06519   0.08107   0.09602   0.10546   0.12030
 Alpha virt. eigenvalues --    0.13244   0.14072   0.15047   0.15846   0.15952

 Mulliken charges:
               1
     1  C   -0.730813
     2  H    0.109941
     3  H    0.229097
     4  H    0.233249
     5  C    0.729144
     6  H   -0.180217
     7  C    0.266977
     8  H    0.201348
     9  H    0.151294
    10  C   -0.749812
    11  Cl  -0.108442
    12  H   -0.151766
 Sum of Mulliken charges =   0.00000

 Dipole moment (field-independent basis, Debye):
    X=              2.4675    Y=              1.3738    Z=              0.0904  Tot=              2.8256

 Test job not archived.
 1\1\GINC-SE202\SP\RHF\Aug-CC-pVDZ\C4H7Cl1\OHZDE\05-Apr-2025\0\\#t hf a
 ug-cc-pvdz iop(5/13=1,5/36=2,99/5=2) pseudo=read geom=check guess=(rea
 d,tcheck) scf=(maxcycle=1)\\title\\0,1\C,0,2.920911,-0.389382,0.000288
 \H,0,2.911727,-0.857297,0.984172\H,0,3.71282,0.363693,-0.014052\H,0,3.
 197836,-1.147075,-0.737175\C,0,0.524673,0.206787,0.450874\H,0,1.523663
 ,0.702405,-1.30571\C,0,1.597085,0.217659,-0.335522\H,0,-1.130829,1.516
 651,0.856898\H,0,-0.71593,1.36214,-0.864008\C,0,-0.765272,0.84204,0.08
 7533\Cl,0,-2.101674,-0.407151,-0.091662\H,0,0.564791,-0.281572,1.41909

 Normal termination of Gaussian 16 at Sat Apr  5 22:23:38 2025.
