 Gaussian 16, Revision C.01,

 ----------------------------------------------------------------------
 #t hf aug-cc-pvdz symm=none int=(grid=ultrafine) guess=(read,tcheck) s
 table=(opt,rrhf)
 ----------------------------------------------------------------------
 -----
 title
 -----
 Symbolic Z-matrix:
 Charge =  0 Multiplicity = 1

 SCF Done:  E(RHF) =  -616.243060960     A.U. after   12 cycles

 1\1\GINC-SE180\Stability\RHF\Aug-CC-pVDZ\C4H9Cl1\OHZDE\05-Apr-2025\0\\
 #t hf aug-cc-pvdz symm=none int=(grid=ultrafine) guess=(read,tcheck) s
 table=(opt,rrhf)\\title\\0,1\C,0,1.161089,2.783469,0.\C,0,1.336413,1.2
 65667,0.\C,0,0.,0.516511,0.\C,0,0.195757,-0.9872,0.\Cl,0,-1.389892,-1.
 875231,0.\H,0,0.609343,3.116554,0.880936\H,0,2.125518,3.29244,0.\H,0,0
 .609343,3.116554,-0.880936\H,0,1.921195,0.966651,0.874698\H,0,1.921195
 ,0.966651,-0.874698\H,0,-0.585899,0.802883,0.876235\H,0,-0.585899,0.80
 2883,-0.876235\H,0,0.72691,-1.328188,0.885109\H,0,0.72691,-1.328188,-0

 Normal termination of Gaussian 16 at Sat Apr  5 22:23:57 2025.
 Gaussian 16:  ES64L-G16RevC.01  3-Jul-2019

 ----------------------------------------------------------------------
 #t hf aug-cc-pvdz iop(5/13=1,5/36=2,99/5=2) pseudo=read geom=check gue
 ss=(read,tcheck) scf=(maxcycle=1)
 ----------------------------------------------------------------------
 -----
 title
 -----
 Structure from the checkpoint file:  "1-chlorobutane.chk"
 Charge =  0 Multiplicity = 1

                         Standard orientation:
 ---------------------------------------------------------------------
 Center     Atomic      Atomic             Coordinates (Angstroms)
 Number     Number       Type             X           Y           Z
 ---------------------------------------------------------------------
      1          6           0        1.161090    2.783469    0.000000
      2          6           0        1.336413    1.265667    0.000000
      3          6           0        0.000000    0.516511    0.000000
      4          6           0        0.195757   -0.987200    0.000000
      5         17           0       -1.389893   -1.875231    0.000000
      6          1           0        0.609344    3.116554    0.880936
      7          1           0        2.125519    3.292440    0.000000
      8          1           0        0.609344    3.116554   -0.880936
      9          1           0        1.921195    0.966651    0.874698
     10          1           0        1.921195    0.966651   -0.874698
     11          1           0       -0.585899    0.802883    0.876235
     12          1           0       -0.585899    0.802883   -0.876235
     13          1           0        0.726910   -1.328188    0.885109
     14          1           0        0.726910   -1.328188   -0.885109
 ---------------------------------------------------------------------

 SCF Done:  E(RHF) =  -616.497279428     A.U. after    2 cycles

 The electronic state is 1-A'.
 Alpha  occ. eigenvalues -- -105.54882 -11.30180 -11.24317 -11.24134 -11.23170
 Alpha  occ. eigenvalues --  -10.59680  -7.76618  -7.76256  -7.76248  -1.12128
 Alpha  occ. eigenvalues --   -1.05508  -0.96317  -0.85763  -0.81389  -0.67714
 Alpha  occ. eigenvalues --   -0.61902  -0.61306  -0.58675  -0.54957  -0.53414
 Alpha  occ. eigenvalues --   -0.50793  -0.48833  -0.48801  -0.43801  -0.43577
 Alpha virt. eigenvalues --    0.03439   0.03747   0.03888   0.04618   0.06389
 Alpha virt. eigenvalues --    0.06748   0.07350   0.07507   0.10086   0.10452
 Alpha virt. eigenvalues --    0.10923   0.13515   0.14867   0.15346   0.16107

 Mulliken charges:
               1
     1  C   -0.350834
     2  C   -0.244785
     3  C   -0.217655
     4  C   -0.490057
     5  Cl  -0.104499
     6  H    0.158439
     7  H    0.121816
     8  H    0.158439
     9  H    0.114264
    10  H    0.114264
    11  H    0.161087
    12  H    0.161087
    13  H    0.209217
    14  H    0.209217
 Sum of Mulliken charges =  -0.00000

 Dipole moment (field-independent basis, Debye):
    X=              2.1321    Y=              1.5696    Z=              0.0000  Tot=              2.6476

 Test job not archived.
 1\1\GINC-SE180\SP\RHF\Aug-CC-pVDZ\C4H9Cl1\OHZDE\05-Apr-2025\0\\#t hf a
 ug-cc-pvdz iop(5/13=1,5/36=2,99/5=2) pseudo=read geom=check guess=(rea
 d,tcheck) scf=(maxcycle=1)\\title\\0,1\C,0,1.161089,2.783469,0.\C,0,1.
 336413,1.265667,0.\C,0,0.,0.516511,0.\C,0,0.195757,-0.9872,0.\Cl,0,-1.
 389892,-1.875231,0.\H,0,0.609343,3.116554,0.880936\H,0,2.125518,3.2924
 4,0.\H,0,0.609343,3.116554,-0.880936\H,0,1.921195,0.966651,0.874698\H,
 0,1.921195,0.966651,-0.874698\H,0,-0.585899,0.802883,0.876235\H,0,-0.5
 85899,0.802883,-0.876235\H,0,0.72691,-1.328188,0.885109\H,0,0.72691,-1

 Normal termination of Gaussian 16 at Sat Apr  5 22:24:00 2025.
