 Gaussian 16, Revision C.01,

 ----------------------------------------------------------------------
 #t hf aug-cc-pvdz symm=none int=(grid=ultrafine) guess=(read,tcheck) s
 table=(opt,rrhf)
 ----------------------------------------------------------------------
 -----
 title
 -----
 Symbolic Z-matrix:
 Charge =  0 Multiplicity = 1

 SCF Done:  E(RHF) =  -368.709081984     A.U. after   13 cycles
 Normal termination of Gaussian 16 at Sat Apr  5 22:23:48 2025.
 Gaussian 16:  ES64L-G16RevC.01  3-Jul-2019

 ----------------------------------------------------------------------
 #t hf aug-cc-pvdz iop(5/13=1,5/36=2,99/5=2) pseudo=read geom=check gue
 ss=(read,tcheck) scf=(maxcycle=1)
 ----------------------------------------------------------------------
 -----
 title
 -----
 Structure from the checkpoint file:  "1-cyano-1-1-difluoroethane.chk"
 Charge =  0 Multiplicity = 1

                         Standard orientation:
 ---------------------------------------------------------------------
 Center     Atomic      Atomic             Coordinates (Angstroms)
 Number     Number       Type             X           Y           Z
 ---------------------------------------------------------------------
      1          9           0       -0.675349   -0.769946    1.097109
      2          9           0       -0.675515   -0.770081   -1.096910
      3          7           0        2.321971    0.174000   -0.000189
      4          6           0       -0.299060   -0.045692    0.000026
      5          6           0       -0.986636    1.297029   -0.000005
      6          6           0        1.181140    0.048530   -0.000093
      7          1           0       -2.061714    1.126864    0.000085
      8          1           0       -0.703552    1.858035   -0.887970
      9          1           0       -0.703421    1.858143    0.887851
 ---------------------------------------------------------------------

 SCF Done:  E(RHF) =  -369.058635528     A.U. after    2 cycles

 The electronic state is 1-A.
 Alpha  occ. eigenvalues --  -26.51163 -26.51160 -15.55384 -11.48935 -11.30972
 Alpha  occ. eigenvalues --  -11.28414  -1.67959  -1.60982  -1.26986  -1.10182
 Alpha  occ. eigenvalues --   -0.96336  -0.83558  -0.78603  -0.75669  -0.67961
 Alpha  occ. eigenvalues --   -0.66889  -0.64309  -0.63716  -0.60584  -0.60337
 Alpha  occ. eigenvalues --   -0.57446  -0.54151  -0.53683
 Alpha virt. eigenvalues --    0.03038   0.04769   0.04838   0.06985   0.09357
 Alpha virt. eigenvalues --    0.10393   0.11235   0.12265   0.12611   0.13617
 Alpha virt. eigenvalues --    0.14382   0.15112   0.15650   0.15925   0.16620

 Mulliken charges:
               1
     1  F   -0.791780
     2  F   -0.791779
     3  N    0.879331
     4  C    2.318388
     5  C   -0.453351
     6  C   -1.834138
     7  H    0.200594
     8  H    0.236366
     9  H    0.236368
 Sum of Mulliken charges =  -0.00000

 Dipole moment (field-independent basis, Debye):
    X=             -3.3629    Y=              1.9541    Z=              0.0001  Tot=              3.8894

 Test job not archived.
 1\1\GINC-SE164\SP\RHF\Aug-CC-pVDZ\C3H3F2N1\OHZDE\05-Apr-2025\0\\#t hf
 aug-cc-pvdz iop(5/13=1,5/36=2,99/5=2) pseudo=read geom=check guess=(re
 ad,tcheck) scf=(maxcycle=1)\\title\\0,1\F,0,-0.675349,-0.769946,1.0971
 09\F,0,-0.675515,-0.770081,-1.09691\N,0,2.321971,0.174,-0.000189\C,0,-
 0.29906,-0.045692,0.000026\C,0,-0.986636,1.297029,-0.000005\C,0,1.1811
 4,0.04853,-0.000093\H,0,-2.061714,1.126864,0.000085\H,0,-0.703552,1.85
 8035,-0.88797\H,0,-0.703421,1.858143,0.887851\\Version=ES64L-G16RevC.0
 1\State=1-A\HF=-369.0586355\RMSD=1.697e-02\Dipole=-1.323069,0.7688051,

 Normal termination of Gaussian 16 at Sat Apr  5 22:23:51 2025.
