 Gaussian 16, Revision C.01,

 ----------------------------------------------------------------------
 #t hf aug-cc-pvdz symm=none int=(grid=ultrafine) guess=(read,tcheck) s
 table=(opt,rrhf)
 ----------------------------------------------------------------------
 -----
 title
 -----
 Symbolic Z-matrix:
 Charge =  0 Multiplicity = 1

 SCF Done:  E(RHF) =  -386.021708710     A.U. after   14 cycles

 1\1\GINC-SE190\Stability\RHF\Aug-CC-pVDZ\C8H14O1\OHZDE\05-Apr-2025\0\\
 #t hf aug-cc-pvdz symm=none int=(grid=ultrafine) guess=(read,tcheck) s
 table=(opt,rrhf)\\title\\0,1\C,0,1.811591,-0.159551,-0.096424\C,0,-2.5
 56321,0.066825,-0.240521\C,0,-1.75119,1.356259,-0.059733\C,0,-1.921204
 ,-1.099327,0.52149\C,0,-0.281229,1.164125,-0.442828\C,0,-0.451165,-1.2
 9352,0.140424\C,0,0.359157,-0.006631,0.338914\C,0,2.843613,0.624195,0.
 685597\O,0,2.127563,-0.8614,-1.032\H,0,-3.586727,0.21757,0.088357\H,0,
 -2.602212,-0.181621,-1.305799\H,0,-2.183986,2.161109,-0.657926\H,0,-1.

 Normal termination of Gaussian 16 at Sat Apr  5 22:25:47 2025.
 Gaussian 16:  ES64L-G16RevC.01  3-Jul-2019

 ----------------------------------------------------------------------
 #t hf aug-cc-pvdz iop(5/13=1,5/36=2,99/5=2) pseudo=read geom=check gue
 ss=(read,tcheck) scf=(maxcycle=1)
 ----------------------------------------------------------------------
 -----
 title
 -----
 Structure from the checkpoint file:  "1-cyclohexylethanone.chk"
 Charge =  0 Multiplicity = 1

                         Standard orientation:
 ---------------------------------------------------------------------
 Center     Atomic      Atomic             Coordinates (Angstroms)
 Number     Number       Type             X           Y           Z
 ---------------------------------------------------------------------
      1          6           0        1.811591   -0.159551   -0.096424
      2          6           0       -2.556321    0.066825   -0.240521
      3          6           0       -1.751190    1.356259   -0.059733
      4          6           0       -1.921204   -1.099327    0.521490
      5          6           0       -0.281229    1.164125   -0.442828
      6          6           0       -0.451165   -1.293520    0.140424
      7          6           0        0.359157   -0.006631    0.338914
      8          6           0        2.843613    0.624195    0.685597
      9          8           0        2.127563   -0.861400   -1.032000
     10          1           0       -3.586727    0.217570    0.088357
     11          1           0       -2.602212   -0.181621   -1.305799
     12          1           0       -2.183986    2.161109   -0.657926
     13          1           0       -1.812407    1.678111    0.985184
     14          1           0       -1.997578   -0.910144    1.597770
     15          1           0       -2.475926   -2.020574    0.331373
     16          1           0       -0.204618    0.946364   -1.511824
     17          1           0        0.274902    2.088076   -0.268004
     18          1           0       -0.011128   -2.101922    0.728414
     19          1           0       -0.371415   -1.596118   -0.905549
     20          1           0        0.351723    0.262560    1.401185
     21          1           0        2.520697    1.654562    0.843527
     22          1           0        2.957113    0.173697    1.675299
     23          1           0        3.801543    0.605286    0.172476
 ---------------------------------------------------------------------

 SCF Done:  E(RHF) =  -386.433777344     A.U. after    2 cycles

 The electronic state is 1-A.
 Alpha  occ. eigenvalues --  -20.52867 -11.33139 -11.24178 -11.24161 -11.23727
 Alpha  occ. eigenvalues --  -11.23087 -11.22668 -11.22646 -11.22531  -1.46320
 Alpha  occ. eigenvalues --   -1.13098  -1.04356  -1.01065  -0.99342  -0.86396
 Alpha  occ. eigenvalues --   -0.84256  -0.77284  -0.73819  -0.67240  -0.65193
 Alpha  occ. eigenvalues --   -0.62774  -0.61943  -0.60350  -0.59947  -0.58356
 Alpha  occ. eigenvalues --   -0.54622  -0.54169  -0.53623  -0.50011  -0.49694
 Alpha  occ. eigenvalues --   -0.48396  -0.46809  -0.46103  -0.44146  -0.39526
 Alpha virt. eigenvalues --    0.02936   0.03247   0.03384   0.04135   0.05154
 Alpha virt. eigenvalues --    0.05339   0.05818   0.06423   0.06837   0.08287
 Alpha virt. eigenvalues --    0.08388   0.09019   0.09520   0.09841   0.12751

 Mulliken charges:
               1
     1  C    1.586805
     2  C   -0.252631
     3  C   -0.211524
     4  C   -0.232956
     5  C   -0.183617
     6  C   -0.023156
     7  C   -0.560186
     8  C   -0.630751
     9  O   -1.509632
    10  H    0.105065
    11  H    0.148370
    12  H    0.101698
    13  H    0.155366
    14  H    0.149852
    15  H    0.112029
    16  H    0.167845
    17  H    0.083063
    18  H    0.065790
    19  H    0.209104
    20  H    0.079724
    21  H    0.208831
    22  H    0.290345
    23  H    0.140568
 Sum of Mulliken charges =  -0.00000

 Dipole moment (field-independent basis, Debye):
    X=             -1.1803    Y=              1.7548    Z=              2.2023  Tot=              3.0533

 Test job not archived.
 1\1\GINC-SE190\SP\RHF\Aug-CC-pVDZ\C8H14O1\OHZDE\05-Apr-2025\0\\#t hf a
 ug-cc-pvdz iop(5/13=1,5/36=2,99/5=2) pseudo=read geom=check guess=(rea
 d,tcheck) scf=(maxcycle=1)\\title\\0,1\C,0,1.811591,-0.159551,-0.09642
 4\C,0,-2.556321,0.066825,-0.240521\C,0,-1.75119,1.356259,-0.059733\C,0
 ,-1.921204,-1.099327,0.52149\C,0,-0.281229,1.164125,-0.442828\C,0,-0.4
 51165,-1.29352,0.140424\C,0,0.359157,-0.006631,0.338914\C,0,2.843613,0
 .624195,0.685597\O,0,2.127563,-0.8614,-1.032\H,0,-3.586727,0.21757,0.0
 88357\H,0,-2.602212,-0.181621,-1.305799\H,0,-2.183986,2.161109,-0.6579

 Normal termination of Gaussian 16 at Sat Apr  5 22:26:52 2025.
