 Gaussian 16, Revision C.01,

 ----------------------------------------------------------------------
 #t hf aug-cc-pvdz symm=none int=(grid=ultrafine) guess=(read,tcheck) s
 table=(opt,rrhf)
 ----------------------------------------------------------------------
 -----
 title
 -----
 Symbolic Z-matrix:
 Charge =  0 Multiplicity = 1

 SCF Done:  E(RHF) =  -268.649526978     A.U. after   13 cycles
 Normal termination of Gaussian 16 at Sat Apr  5 22:23:41 2025.
 Gaussian 16:  ES64L-G16RevC.01  3-Jul-2019

 ----------------------------------------------------------------------
 #t hf aug-cc-pvdz iop(5/13=1,5/36=2,99/5=2) pseudo=read geom=check gue
 ss=(read,tcheck) scf=(maxcycle=1)
 ----------------------------------------------------------------------
 -----
 title
 -----
 Structure from the checkpoint file:  "1-cyano-2-fluoroethene.chk"
 Charge =  0 Multiplicity = 1

                         Standard orientation:
 ---------------------------------------------------------------------
 Center     Atomic      Atomic             Coordinates (Angstroms)
 Number     Number       Type             X           Y           Z
 ---------------------------------------------------------------------
      1          9           0        2.208132    0.011420   -0.000000
      2          7           0       -2.522866   -0.216097    0.000001
      3          6           0       -0.054551    0.505268   -0.000000
      4          6           0        0.934896   -0.381578   -0.000000
      5          6           0       -1.412545    0.093056   -0.000000
      6          1           0        0.158393    1.565950    0.000001
      7          1           0        0.821683   -1.456525   -0.000000
 ---------------------------------------------------------------------

 SCF Done:  E(RHF) =  -268.906542881     A.U. after    2 cycles

 The electronic state is 1-A.
 Alpha  occ. eigenvalues --  -26.52098 -15.52817 -11.39431 -11.30703 -11.29905
 Alpha  occ. eigenvalues --   -1.65458  -1.24915  -1.12154  -0.91251  -0.80905
 Alpha  occ. eigenvalues --   -0.75607  -0.71265  -0.68514  -0.61605  -0.61107
 Alpha  occ. eigenvalues --   -0.55748  -0.51586  -0.42115
 Alpha virt. eigenvalues --    0.03248   0.03790   0.06033   0.06918   0.09795
 Alpha virt. eigenvalues --    0.10485   0.11364   0.13048   0.13613   0.13920
 Alpha virt. eigenvalues --    0.14017   0.14805   0.15962   0.16936   0.20333

 Mulliken charges:
               1
     1  F   -0.744488
     2  N    0.777872
     3  C    0.827960
     4  C    1.031844
     5  C   -1.847087
     6  H   -0.098308
     7  H    0.052207
 Sum of Mulliken charges =  -0.00000

 Dipole moment (field-independent basis, Debye):
    X=              3.6563    Y=              0.3357    Z=             -0.0000  Tot=              3.6717

 Test job not archived.
 1\1\GINC-SE190\SP\RHF\Aug-CC-pVDZ\C3H2F1N1\OHZDE\05-Apr-2025\0\\#t hf
 aug-cc-pvdz iop(5/13=1,5/36=2,99/5=2) pseudo=read geom=check guess=(re
 ad,tcheck) scf=(maxcycle=1)\\title\\0,1\F,0,2.208132,0.01142,0.\N,0,-2
 .522866,-0.216097,0.000001\C,0,-0.054551,0.505268,0.\C,0,0.934896,-0.3
 81578,0.\C,0,-1.412545,0.093056,0.\H,0,0.158393,1.56595,0.000001\H,0,0
 .821683,-1.456525,0.\\Version=ES64L-G16RevC.01\State=1-A\HF=-268.90654
 29\RMSD=2.088e-02\Dipole=1.4384903,0.1320757,-0.0000005\Quadrupole=-8.
 0076318,5.7681675,2.2394644,-2.1215274,0.000004,0.0000017\PG=C01 [X(C3

 Normal termination of Gaussian 16 at Sat Apr  5 22:23:43 2025.
