 Gaussian 16, Revision C.01,

 ----------------------------------------------------------------------
 #t hf aug-cc-pvdz symm=none int=(grid=ultrafine) guess=(read,tcheck) s
 table=(opt,rrhf)
 ----------------------------------------------------------------------
 -----
 title
 -----
 Symbolic Z-matrix:
 Charge =  0 Multiplicity = 1

 SCF Done:  E(RHF) =  -368.697164884     A.U. after   13 cycles
 Normal termination of Gaussian 16 at Sat Apr  5 22:23:50 2025.
 Gaussian 16:  ES64L-G16RevC.01  3-Jul-2019

 ----------------------------------------------------------------------
 #t hf aug-cc-pvdz iop(5/13=1,5/36=2,99/5=2) pseudo=read geom=check gue
 ss=(read,tcheck) scf=(maxcycle=1)
 ----------------------------------------------------------------------
 -----
 title
 -----
 Structure from the checkpoint file:  "1-cyano-1-2-difluoroethane.chk"
 Charge =  0 Multiplicity = 1

                         Standard orientation:
 ---------------------------------------------------------------------
 Center     Atomic      Atomic             Coordinates (Angstroms)
 Number     Number       Type             X           Y           Z
 ---------------------------------------------------------------------
      1          9           0       -0.068610    1.517102   -0.198375
      2          9           0       -2.172960   -0.385347    0.136936
      3          7           0        2.539942   -0.590490   -0.068123
      4          6           0        0.095496    0.250121    0.339624
      5          6           0       -0.898581   -0.714336   -0.288536
      6          6           0        1.473579   -0.202694    0.110068
      7          1           0       -0.088862    0.322052    1.413853
      8          1           0       -0.677638   -1.735688    0.024438
      9          1           0       -0.861929   -0.637279   -1.375414
 ---------------------------------------------------------------------

 SCF Done:  E(RHF) =  -369.047848509     A.U. after    2 cycles

 The electronic state is 1-A.
 Alpha  occ. eigenvalues --  -26.49683 -26.48332 -15.55170 -11.40509 -11.36851
 Alpha  occ. eigenvalues --  -11.31091  -1.62395  -1.60366  -1.26979  -1.10558
 Alpha  occ. eigenvalues --   -0.94428  -0.80758  -0.77173  -0.73918  -0.70495
 Alpha  occ. eigenvalues --   -0.69972  -0.65171  -0.63954  -0.59930  -0.57094
 Alpha  occ. eigenvalues --   -0.56110  -0.53940  -0.52031
 Alpha virt. eigenvalues --    0.03211   0.03853   0.04985   0.06820   0.08920
 Alpha virt. eigenvalues --    0.10683   0.11266   0.12051   0.12538   0.12984
 Alpha virt. eigenvalues --    0.13664   0.14629   0.16024   0.16413   0.16751

 Mulliken charges:
               1
     1  F   -0.755592
     2  F   -0.702229
     3  N    0.850120
     4  C    1.163112
     5  C    0.597429
     6  C   -1.621741
     7  H    0.199814
     8  H    0.122139
     9  H    0.146948
 Sum of Mulliken charges =  -0.00000

 Dipole moment (field-independent basis, Debye):
    X=             -2.1566    Y=             -0.8173    Z=              0.6946  Tot=              2.4086

 Test job not archived.
 1\1\GINC-SE165\SP\RHF\Aug-CC-pVDZ\C3H3F2N1\OHZDE\05-Apr-2025\0\\#t hf
 aug-cc-pvdz iop(5/13=1,5/36=2,99/5=2) pseudo=read geom=check guess=(re
 ad,tcheck) scf=(maxcycle=1)\\title\\0,1\F,0,-0.06861,1.517102,-0.19837
 5\F,0,-2.17296,-0.385347,0.136936\N,0,2.539942,-0.59049,-0.068123\C,0,
 0.095496,0.250121,0.339624\C,0,-0.898581,-0.714336,-0.288536\C,0,1.473
 579,-0.202694,0.110068\H,0,-0.088862,0.322052,1.413853\H,0,-0.677638,-
 1.735688,0.024438\H,0,-0.861929,-0.637279,-1.375414\\Version=ES64L-G16
 RevC.01\State=1-A\HF=-369.0478485\RMSD=1.507e-02\Dipole=-0.8484648,-0.

 Normal termination of Gaussian 16 at Sat Apr  5 22:23:53 2025.
