 Gaussian 16, Revision C.01,

 ----------------------------------------------------------------------
 #t hf aug-cc-pvdz symm=none int=(grid=ultrafine) guess=(read,tcheck) s
 table=(opt,rrhf)
 ----------------------------------------------------------------------
 -----
 title
 -----
 Symbolic Z-matrix:
 Charge =  0 Multiplicity = 1

 SCF Done:  E(RHF) =  -466.416267281     A.U. after   12 cycles
 Normal termination of Gaussian 16 at Sat Apr  5 22:29:00 2025.
 Gaussian 16:  ES64L-G16RevC.01  3-Jul-2019

 ----------------------------------------------------------------------
 #t hf aug-cc-pvdz iop(5/13=1,5/36=2,99/5=2) pseudo=read geom=check gue
 ss=(read,tcheck) scf=(maxcycle=1)
 ----------------------------------------------------------------------
 -----
 title
 -----
 Structure from the checkpoint file:  "1-decanol.chk"
 Charge =  0 Multiplicity = 1

                         Standard orientation:
 ---------------------------------------------------------------------
 Center     Atomic      Atomic             Coordinates (Angstroms)
 Number     Number       Type             X           Y           Z
 ---------------------------------------------------------------------
      1          6           0       -6.348463   -0.676838    0.000000
      2          6           0       -5.115500    0.225307    0.000000
      3          6           0       -3.797980   -0.550892    0.000000
      4          6           0       -2.557416    0.342637    0.000000
      5          6           0       -1.240689   -0.434878    0.000000
      6          6           0        0.000000    0.458845    0.000000
      7          6           0        1.316086   -0.319402    0.000000
      8          6           0        2.556349    0.575341    0.000000
      9          6           0        3.868290   -0.209696    0.000000
     10          6           0        5.092393    0.687237    0.000000
     11          8           0        6.258306   -0.139838    0.000000
     12          1           0       -6.364365   -1.322364    0.880634
     13          1           0       -6.364365   -1.322364   -0.880634
     14          1           0       -7.270587   -0.093915    0.000000
     15          1           0       -5.145071    0.883042   -0.873992
     16          1           0       -5.145071    0.883042    0.873992
     17          1           0       -3.769111   -1.209699    0.874515
     18          1           0       -3.769111   -1.209699   -0.874515
     19          1           0       -2.587308    1.001155    0.874567
     20          1           0       -2.587308    1.001155   -0.874567
     21          1           0       -1.210788   -1.093366    0.874472
     22          1           0       -1.210788   -1.093366   -0.874472
     23          1           0       -0.029832    1.117282    0.874617
     24          1           0       -0.029832    1.117282   -0.874617
     25          1           0        1.346921   -0.977463   -0.874449
     26          1           0        1.346921   -0.977463    0.874449
     27          1           0        2.524211    1.232959    0.875019
     28          1           0        2.524211    1.232959   -0.875019
     29          1           0        3.914692   -0.861511    0.876340
     30          1           0        3.914692   -0.861511   -0.876340
     31          1           0        5.083448    1.333838    0.885549
     32          1           0        5.083448    1.333838   -0.885549
     33          1           0        7.040122    0.418910    0.000000
 ---------------------------------------------------------------------

 SCF Done:  E(RHF) =  -466.932075087     A.U. after    2 cycles

 The electronic state is 1-A'.
 Alpha  occ. eigenvalues --  -20.54301 -11.27980 -11.22525 -11.22254 -11.22231
 Alpha  occ. eigenvalues --  -11.22161 -11.22134 -11.22065 -11.22037 -11.22000
 Alpha  occ. eigenvalues --  -11.21888  -1.43962  -1.10060  -1.07791  -1.04141
 Alpha  occ. eigenvalues --   -0.99458  -0.94013  -0.88159  -0.82791  -0.79862
 Alpha  occ. eigenvalues --   -0.79028  -0.78739  -0.68732  -0.67191  -0.65754
 Alpha  occ. eigenvalues --   -0.63265  -0.60083  -0.59962  -0.59683  -0.56898
 Alpha  occ. eigenvalues --   -0.56220  -0.55983  -0.53360  -0.52497  -0.50584
 Alpha  occ. eigenvalues --   -0.49651  -0.49394  -0.48000  -0.47362  -0.47218
 Alpha  occ. eigenvalues --   -0.46480  -0.46401  -0.46262  -0.43796  -0.43612
 Alpha virt. eigenvalues --    0.03045   0.03282   0.03342   0.03781   0.04337
 Alpha virt. eigenvalues --    0.04711   0.04776   0.05465   0.06169   0.06553
 Alpha virt. eigenvalues --    0.06612   0.07704   0.07860   0.08973   0.09163

 Mulliken charges:
               1
     1  C   -0.382486
     2  C   -0.158019
     3  C   -0.287543
     4  C   -0.224458
     5  C   -0.202026
     6  C   -0.206342
     7  C   -0.254151
     8  C   -0.212960
     9  C   -0.399611
    10  C    0.935002
    11  O   -1.289548
    12  H    0.158544
    13  H    0.158544
    14  H    0.108878
    15  H    0.111435
    16  H    0.111435
    17  H    0.101243
    18  H    0.101243
    19  H    0.101172
    20  H    0.101172
    21  H    0.112522
    22  H    0.112522
    23  H    0.108286
    24  H    0.108286
    25  H    0.094688
    26  H    0.094688
    27  H    0.109858
    28  H    0.109858
    29  H    0.131671
    30  H    0.131671
    31  H    0.086554
    32  H    0.086554
    33  H    0.341316
 Sum of Mulliken charges =  -0.00000

 Dipole moment (field-independent basis, Debye):
    X=             -0.1775    Y=              1.6099    Z=             -0.0000  Tot=              1.6196

 Test job not archived.
 1\1\GINC-SE231\SP\RHF\Aug-CC-pVDZ\C10H22O1\OHZDE\05-Apr-2025\0\\#t hf
 aug-cc-pvdz iop(5/13=1,5/36=2,99/5=2) pseudo=read geom=check guess=(re
 ad,tcheck) scf=(maxcycle=1)\\title\\0,1\C,0,-6.348463,-0.676838,0.\C,0
 ,-5.1155,0.225307,0.\C,0,-3.79798,-0.550892,0.\C,0,-2.557416,0.342637,
 0.\C,0,-1.240689,-0.434878,0.\C,0,0.,0.458845,0.\C,0,1.316086,-0.31940
 2,0.\C,0,2.556349,0.575341,0.\C,0,3.86829,-0.209696,0.\C,0,5.092393,0.
 687237,0.\O,0,6.258306,-0.139839,0.\H,0,-6.364365,-1.322364,0.880634\H
 ,0,-6.364365,-1.322364,-0.880634\H,0,-7.270587,-0.093915,0.\H,0,-5.145

 Normal termination of Gaussian 16 at Sat Apr  5 22:29:38 2025.
