 Gaussian 16, Revision C.01,

 ----------------------------------------------------------------------
 #t hf aug-cc-pvdz symm=none int=(grid=ultrafine) guess=(read,tcheck) s
 table=(opt,rrhf)
 ----------------------------------------------------------------------
 -----
 title
 -----
 Symbolic Z-matrix:
 Charge =  0 Multiplicity = 1

 SCF Done:  E(RHF) =  -406.743039152     A.U. after   14 cycles
 Normal termination of Gaussian 16 at Sat Apr  5 22:23:49 2025.
 Gaussian 16:  ES64L-G16RevC.01  3-Jul-2019

 ----------------------------------------------------------------------
 #t hf aug-cc-pvdz iop(5/13=1,5/36=2,99/5=2) pseudo=read geom=check gue
 ss=(read,tcheck) scf=(maxcycle=1)
 ----------------------------------------------------------------------
 -----
 title
 -----
 Structure from the checkpoint file:  "1-difluoroaminoethanol.chk"
 Charge =  0 Multiplicity = 1

                         Standard orientation:
 ---------------------------------------------------------------------
 Center     Atomic      Atomic             Coordinates (Angstroms)
 Number     Number       Type             X           Y           Z
 ---------------------------------------------------------------------
      1          9           0       -1.669344    0.483858   -0.453523
      2          9           0       -0.788373   -1.103319    0.767200
      3          8           0        0.629635    1.223624    0.727671
      4          7           0       -0.619879   -0.472984   -0.472184
      5          6           0        0.621002    0.357868   -0.363789
      6          6           0        1.814672   -0.567909   -0.285540
      7          1           0       -0.126057    1.819060    0.668820
      8          1           0        0.599329    0.897393   -1.316545
      9          1           0        2.723091    0.026037   -0.362124
     10          1           0        1.817974   -1.095028    0.666070
     11          1           0        1.793148   -1.290166   -1.099425
 ---------------------------------------------------------------------

 SCF Done:  E(RHF) =  -407.134881820     A.U. after    2 cycles

 The electronic state is 1-A.
 Alpha  occ. eigenvalues --  -26.50439 -26.50259 -20.58097 -15.71439 -11.35903
 Alpha  occ. eigenvalues --  -11.25144  -1.66318  -1.57674  -1.49268  -1.16792
 Alpha  occ. eigenvalues --   -1.02046  -0.87620  -0.77992  -0.77867  -0.75761
 Alpha  occ. eigenvalues --   -0.71673  -0.65821  -0.63404  -0.61140  -0.60629
 Alpha  occ. eigenvalues --   -0.57391  -0.56653  -0.55266  -0.51469  -0.49019
 Alpha virt. eigenvalues --    0.03537   0.04551   0.05088   0.05472   0.06839
 Alpha virt. eigenvalues --    0.10976   0.11648   0.12588   0.13772   0.15348
 Alpha virt. eigenvalues --    0.15606   0.15992   0.17321   0.18138   0.18778

 Mulliken charges:
               1
     1  F   -0.678287
     2  F   -0.663634
     3  O   -1.273919
     4  N    1.444584
     5  C    0.520949
     6  C   -0.353346
     7  H    0.292413
     8  H    0.144662
     9  H    0.187069
    10  H    0.194712
    11  H    0.184795
 Sum of Mulliken charges =  -0.00000

 Dipole moment (field-independent basis, Debye):
    X=              1.5886    Y=              1.1136    Z=             -1.1202  Tot=              2.2403

 Test job not archived.
 1\1\GINC-SE010\SP\RHF\Aug-CC-pVDZ\C2H5F2N1O1\OHZDE\05-Apr-2025\0\\#t h
 f aug-cc-pvdz iop(5/13=1,5/36=2,99/5=2) pseudo=read geom=check guess=(
 read,tcheck) scf=(maxcycle=1)\\title\\0,1\F,0,-1.669344,0.483858,-0.45
 3523\F,0,-0.788373,-1.103319,0.7672\O,0,0.629635,1.223624,0.727671\N,0
 ,-0.619879,-0.472984,-0.472184\C,0,0.621002,0.357868,-0.363789\C,0,1.8
 14672,-0.567909,-0.28554\H,0,-0.126057,1.81906,0.66882\H,0,0.599329,0.
 897393,-1.316545\H,0,2.723091,0.026037,-0.362124\H,0,1.817974,-1.09502
 8,0.66607\H,0,1.793148,-1.290166,-1.099425\\Version=ES64L-G16RevC.01\S

 Normal termination of Gaussian 16 at Sat Apr  5 22:23:53 2025.
