 Gaussian 16, Revision C.01,

 ----------------------------------------------------------------------
 #t hf aug-cc-pvdz symm=none int=(grid=ultrafine) guess=(read,tcheck) s
 table=(opt,rrhf)
 ----------------------------------------------------------------------
 -----
 title
 -----
 Symbolic Z-matrix:
 Charge =  0 Multiplicity = 1

 SCF Done:  E(RHF) =  -1239.53930001     A.U. after   15 cycles
 Normal termination of Gaussian 16 at Sat Apr  5 22:24:18 2025.
 Gaussian 16:  ES64L-G16RevC.01  3-Jul-2019

 ----------------------------------------------------------------------
 #t hf aug-cc-pvdz iop(5/13=1,5/36=2,99/5=2) pseudo=read geom=check gue
 ss=(read,tcheck) scf=(maxcycle=1)
 ----------------------------------------------------------------------
 -----
 title
 -----
 Structure from the checkpoint file:  "1-dichloroamino-oxy-1-methoxyethene.chk"
 Charge =  0 Multiplicity = 1

                         Standard orientation:
 ---------------------------------------------------------------------
 Center     Atomic      Atomic             Coordinates (Angstroms)
 Number     Number       Type             X           Y           Z
 ---------------------------------------------------------------------
      1         17           0       -2.228128   -1.021501   -0.416681
      2         17           0       -1.176042    1.636902    0.087881
      3          8           0        0.217710   -0.557728   -0.248136
      4          8           0        2.451588   -0.549725   -0.247351
      5          7           0       -0.936161   -0.161967    0.426500
      6          6           0        1.373759   -0.430493    0.538916
      7          6           0        1.403284   -0.296492    1.855640
      8          6           0        2.597789    0.411824   -1.311164
      9          1           0        0.502906   -0.317994    2.444647
     10          1           0        2.358608   -0.182888    2.340675
     11          1           0        3.551083    0.185303   -1.778270
     12          1           0        1.794461    0.315767   -2.038707
     13          1           0        2.613575    1.422361   -0.900703
 ---------------------------------------------------------------------

 SCF Done:  E(RHF) =  -1240.00586465     A.U. after    2 cycles

 The electronic state is 1-A.
 Alpha  occ. eigenvalues -- -105.62316-105.60984 -20.64807 -20.58795 -15.71795
 Alpha  occ. eigenvalues --  -11.37725 -11.30454 -11.23497 -10.66853 -10.65490
 Alpha  occ. eigenvalues --   -7.83806  -7.83293  -7.83270  -7.82421  -7.81952
 Alpha  occ. eigenvalues --   -7.81928  -1.59521  -1.50705  -1.22615  -1.07119
 Alpha  occ. eigenvalues --   -1.05740  -0.97133  -0.95468  -0.81567  -0.74911
 Alpha  occ. eigenvalues --   -0.72235  -0.71381  -0.66076  -0.65634  -0.63398
 Alpha  occ. eigenvalues --   -0.59228  -0.57489  -0.55796  -0.53230  -0.51533
 Alpha  occ. eigenvalues --   -0.49061  -0.47914  -0.47220  -0.45334  -0.36728
 Alpha virt. eigenvalues --    0.02140   0.03727   0.04664   0.05096   0.05670
 Alpha virt. eigenvalues --    0.06946   0.07161   0.08974   0.10393   0.11013
 Alpha virt. eigenvalues --    0.12389   0.13266   0.13999   0.14073   0.14813

 Mulliken charges:
               1
     1  Cl   0.152744
     2  Cl   0.091720
     3  O   -1.171527
     4  O   -1.487953
     5  N    0.167621
     6  C    2.118082
     7  C   -0.165694
     8  C    0.100305
     9  H   -0.055438
    10  H   -0.098619
    11  H   -0.018141
    12  H    0.187566
    13  H    0.179335
 Sum of Mulliken charges =  -0.00000

 Dipole moment (field-independent basis, Debye):
    X=              0.9141    Y=              1.0024    Z=             -0.9215  Tot=              1.6400

 Test job not archived.
 1\1\GINC-SE231\SP\RHF\Aug-CC-pVDZ\C3H5Cl2N1O2\OHZDE\05-Apr-2025\0\\#t
 hf aug-cc-pvdz iop(5/13=1,5/36=2,99/5=2) pseudo=read geom=check guess=
 (read,tcheck) scf=(maxcycle=1)\\title\\0,1\Cl,0,-2.228128,-1.021501,-0
 .416681\Cl,0,-1.176042,1.636902,0.087881\O,0,0.21771,-0.557728,-0.2481
 36\O,0,2.451588,-0.549725,-0.247351\N,0,-0.936161,-0.161967,0.4265\C,0
 ,1.373759,-0.430493,0.538916\C,0,1.403284,-0.296492,1.85564\C,0,2.5977
 89,0.411824,-1.311164\H,0,0.502906,-0.317994,2.444647\H,0,2.358608,-0.
 182888,2.340675\H,0,3.551083,0.185303,-1.77827\H,0,1.794461,0.315767,-

 Normal termination of Gaussian 16 at Sat Apr  5 22:24:48 2025.
