 Gaussian 16, Revision C.01,

 ----------------------------------------------------------------------
 #t hf aug-cc-pvdz symm=none int=(grid=ultrafine) guess=(read,tcheck) s
 table=(opt,rrhf)
 ----------------------------------------------------------------------
 -----
 title
 -----
 Symbolic Z-matrix:
 Charge =  0 Multiplicity = 1

 SCF Done:  E(RHF) =  -461.470128723     A.U. after   16 cycles
 Normal termination of Gaussian 16 at Sat Apr  5 22:28:42 2025.
 Gaussian 16:  ES64L-G16RevC.01  3-Jul-2019

 ----------------------------------------------------------------------
 #t hf aug-cc-pvdz iop(5/13=1,5/36=2,99/5=2) pseudo=read geom=check gue
 ss=(read,tcheck) scf=(maxcycle=1)
 ----------------------------------------------------------------------
 -----
 title
 -----
 Structure from the checkpoint file:  "1-ethylnaphthalene.chk"
 Charge =  0 Multiplicity = 1

                         Standard orientation:
 ---------------------------------------------------------------------
 Center     Atomic      Atomic             Coordinates (Angstroms)
 Number     Number       Type             X           Y           Z
 ---------------------------------------------------------------------
      1          6           0        2.843382   -0.911793    0.095853
      2          6           0        1.865295   -1.900259   -0.134234
      3          6           0       -0.579750    2.511077    0.033711
      4          6           0        2.473262    0.403278    0.193327
      5          6           0        0.543571   -1.555480   -0.257841
      6          6           0        0.733917    2.152826    0.165181
      7          6           0       -1.562211    1.527220   -0.196166
      8          6           0        1.117464    0.793908    0.069366
      9          6           0        0.119466   -0.205263   -0.160726
     10          6           0       -1.248770    0.190590   -0.290811
     11          6           0       -2.802522   -1.523090    0.785080
     12          6           0       -2.351636   -0.819638   -0.504417
     13          1           0        3.882886   -1.194986    0.192496
     14          1           0        2.160956   -2.937871   -0.214193
     15          1           0       -0.872273    3.550458    0.101606
     16          1           0        3.218207    1.169736    0.366401
     17          1           0       -0.186369   -2.331752   -0.434482
     18          1           0        1.496318    2.901125    0.340027
     19          1           0       -2.595290    1.834475   -0.303229
     20          1           0       -1.982937   -2.067541    1.253974
     21          1           0       -3.604229   -2.233272    0.576827
     22          1           0       -3.173490   -0.797867    1.510083
     23          1           0       -3.209005   -0.305295   -0.941733
     24          1           0       -2.043584   -1.567462   -1.237707
 ---------------------------------------------------------------------

 SCF Done:  E(RHF) =  -461.950863123     A.U. after    2 cycles

 The electronic state is 1-A.
 Alpha  occ. eigenvalues --  -11.24672 -11.24630 -11.24580 -11.24177 -11.24137
 Alpha  occ. eigenvalues --  -11.24060 -11.24041 -11.23993 -11.23757 -11.23702
 Alpha  occ. eigenvalues --  -11.23520 -11.22648  -1.18015  -1.11533  -1.07581
 Alpha  occ. eigenvalues --   -1.01864  -1.00848  -0.97362  -0.87461  -0.85069
 Alpha  occ. eigenvalues --   -0.84657  -0.79094  -0.71638  -0.70647  -0.69165
 Alpha  occ. eigenvalues --   -0.64054  -0.62554  -0.60921  -0.60127  -0.58751
 Alpha  occ. eigenvalues --   -0.57260  -0.56157  -0.54189  -0.52344  -0.51959
 Alpha  occ. eigenvalues --   -0.50606  -0.48741  -0.47277  -0.45300  -0.38637
 Alpha  occ. eigenvalues --   -0.32763  -0.29309
 Alpha virt. eigenvalues --    0.03140   0.03254   0.03565   0.04268   0.04400
 Alpha virt. eigenvalues --    0.04522   0.06495   0.06883   0.06986   0.07222
 Alpha virt. eigenvalues --    0.07702   0.09300   0.09483   0.09779   0.10564

 Mulliken charges:
               1
     1  C   -0.115996
     2  C   -0.423233
     3  C   -0.360257
     4  C    0.344414
     5  C    0.296319
     6  C    0.431162
     7  C    0.372210
     8  C    0.955245
     9  C    0.707735
    10  C    0.574715
    11  C   -0.417146
    12  C   -0.711220
    13  H   -0.246690
    14  H   -0.267858
    15  H   -0.253086
    16  H   -0.310686
    17  H   -0.487147
    18  H   -0.312002
    19  H   -0.357166
    20  H    0.126199
    21  H    0.102624
    22  H    0.157222
    23  H    0.003450
    24  H    0.191191
 Sum of Mulliken charges =   0.00000

 Dipole moment (field-independent basis, Debye):
    X=             -0.3230    Y=             -0.2170    Z=             -0.0124  Tot=              0.3893

 Test job not archived.
 1\1\GINC-SE170\SP\RHF\Aug-CC-pVDZ\C12H12\OHZDE\05-Apr-2025\0\\#t hf au
 g-cc-pvdz iop(5/13=1,5/36=2,99/5=2) pseudo=read geom=check guess=(read
 ,tcheck) scf=(maxcycle=1)\\title\\0,1\C,0,2.843382,-0.911793,0.095853\
 C,0,1.865295,-1.900259,-0.134234\C,0,-0.57975,2.511077,0.033711\C,0,2.
 473262,0.403278,0.193327\C,0,0.543571,-1.55548,-0.257841\C,0,0.733917,
 2.152826,0.165181\C,0,-1.562211,1.52722,-0.196166\C,0,1.117464,0.79390
 8,0.069366\C,0,0.119466,-0.205263,-0.160726\C,0,-1.24877,0.19059,-0.29
 0811\C,0,-2.802522,-1.52309,0.78508\C,0,-2.351636,-0.819638,-0.504417\

 Normal termination of Gaussian 16 at Sat Apr  5 22:29:41 2025.
