 Gaussian 16, Revision C.01,

 ----------------------------------------------------------------------
 #t hf aug-cc-pvdz symm=none int=(grid=ultrafine) guess=(read,tcheck) s
 table=(opt,rrhf)
 ----------------------------------------------------------------------
 -----
 title
 -----
 Symbolic Z-matrix:
 Charge =  0 Multiplicity = 1

 SCF Done:  E(RHF) =  -271.213702317     A.U. after   12 cycles

 1\1\GINC-SE145\Stability\RHF\Aug-CC-pVDZ\C5H12O1\OHZDE\05-Apr-2025\0\\
 #t hf aug-cc-pvdz symm=none int=(grid=ultrafine) guess=(read,tcheck) s
 table=(opt,rrhf)\\title\\0,1\C,0,0.98919,2.876892,0.\H,0,1.934526,3.42
 1126,0.\H,0,0.422313,3.170372,0.883513\H,0,0.422313,3.170372,-0.883513
 \C,0,1.244016,1.383759,0.\H,0,1.827047,1.091952,-0.88441\H,0,1.827047,
 1.091952,0.88441\O,0,0.,0.70477,0.\C,0,0.125303,-0.705775,0.\H,0,0.691
 231,-1.031792,-0.884779\H,0,0.691231,-1.031792,0.884779\C,0,-1.257913,
 -1.331654,0.\H,0,-1.802831,-0.97298,0.875837\H,0,-1.802831,-0.97298,-0

 Normal termination of Gaussian 16 at Sat Apr  5 22:24:23 2025.
 Gaussian 16:  ES64L-G16RevC.01  3-Jul-2019

 ----------------------------------------------------------------------
 #t hf aug-cc-pvdz iop(5/13=1,5/36=2,99/5=2) pseudo=read geom=check gue
 ss=(read,tcheck) scf=(maxcycle=1)
 ----------------------------------------------------------------------
 -----
 title
 -----
 Structure from the checkpoint file:  "1-ethoxypropane.chk"
 Charge =  0 Multiplicity = 1

                         Standard orientation:
 ---------------------------------------------------------------------
 Center     Atomic      Atomic             Coordinates (Angstroms)
 Number     Number       Type             X           Y           Z
 ---------------------------------------------------------------------
      1          6           0        0.989190    2.876892    0.000000
      2          1           0        1.934526    3.421126    0.000000
      3          1           0        0.422313    3.170372    0.883513
      4          1           0        0.422313    3.170372   -0.883513
      5          6           0        1.244016    1.383759    0.000000
      6          1           0        1.827047    1.091952   -0.884410
      7          1           0        1.827047    1.091952    0.884410
      8          8           0        0.000000    0.704770    0.000000
      9          6           0        0.125303   -0.705775    0.000000
     10          1           0        0.691231   -1.031792   -0.884779
     11          1           0        0.691231   -1.031792    0.884779
     12          6           0       -1.257913   -1.331654    0.000000
     13          1           0       -1.802831   -0.972980    0.875837
     14          1           0       -1.802831   -0.972980   -0.875837
     15          6           0       -1.205589   -2.858427    0.000000
     16          1           0       -0.685547   -3.239386   -0.881267
     17          1           0       -0.685547   -3.239386    0.881267
     18          1           0       -2.208990   -3.284394    0.000000
 ---------------------------------------------------------------------

 SCF Done:  E(RHF) =  -271.510894450     A.U. after    2 cycles

 The electronic state is 1-A'.
 Alpha  occ. eigenvalues --  -20.53552 -11.27901 -11.27604 -11.22436 -11.22398
 Alpha  occ. eigenvalues --  -11.22141  -1.45351  -1.06420  -1.01168  -0.91244
 Alpha  occ. eigenvalues --   -0.83409  -0.80916  -0.68095  -0.66439  -0.62585
 Alpha  occ. eigenvalues --   -0.61161  -0.56684  -0.55958  -0.54264  -0.51142
 Alpha  occ. eigenvalues --   -0.50823  -0.48636  -0.47911  -0.46530  -0.40991
 Alpha virt. eigenvalues --    0.03762   0.03835   0.04011   0.04251   0.05565
 Alpha virt. eigenvalues --    0.05927   0.06246   0.07294   0.08225   0.09207
 Alpha virt. eigenvalues --    0.09512   0.10128   0.11561   0.13815   0.14169

 Mulliken charges:
               1
     1  C   -0.555419
     2  H    0.141598
     3  H    0.174733
     4  H    0.174733
     5  C    0.261450
     6  H    0.150210
     7  H    0.150210
     8  O   -1.368478
     9  C    0.651437
    10  H    0.142390
    11  H    0.142390
    12  C   -0.460820
    13  H    0.132339
    14  H    0.132339
    15  C   -0.309503
    16  H    0.164638
    17  H    0.164638
    18  H    0.111116
 Sum of Mulliken charges =  -0.00000

 Dipole moment (field-independent basis, Debye):
    X=              0.9633    Y=             -0.5550    Z=              0.0000  Tot=              1.1118

 Test job not archived.
 1\1\GINC-SE145\SP\RHF\Aug-CC-pVDZ\C5H12O1\OHZDE\05-Apr-2025\0\\#t hf a
 ug-cc-pvdz iop(5/13=1,5/36=2,99/5=2) pseudo=read geom=check guess=(rea
 d,tcheck) scf=(maxcycle=1)\\title\\0,1\C,0,0.98919,2.876892,0.\H,0,1.9
 34526,3.421126,0.\H,0,0.422313,3.170372,0.883513\H,0,0.422313,3.170372
 ,-0.883513\C,0,1.244016,1.383759,0.\H,0,1.827047,1.091952,-0.88441\H,0
 ,1.827047,1.091952,0.88441\O,0,0.,0.70477,0.\C,0,0.125303,-0.705775,0.
 \H,0,0.691231,-1.031792,-0.884779\H,0,0.691231,-1.031792,0.884779\C,0,
 -1.257913,-1.331654,0.\H,0,-1.802831,-0.97298,0.875837\H,0,-1.802831,-

 Normal termination of Gaussian 16 at Sat Apr  5 22:24:46 2025.
