 Gaussian 16, Revision C.01,

 ----------------------------------------------------------------------
 #t hf aug-cc-pvdz symm=none int=(grid=ultrafine) guess=(read,tcheck) s
 table=(opt,rrhf)
 ----------------------------------------------------------------------
 -----
 title
 -----
 Symbolic Z-matrix:
 Charge =  0 Multiplicity = 1

 SCF Done:  E(RHF) =  -347.845153932     A.U. after   15 cycles
 Normal termination of Gaussian 16 at Sat Apr  5 22:25:15 2025.
 Gaussian 16:  ES64L-G16RevC.01  3-Jul-2019

 ----------------------------------------------------------------------
 #t hf aug-cc-pvdz iop(5/13=1,5/36=2,99/5=2) pseudo=read geom=check gue
 ss=(read,tcheck) scf=(maxcycle=1)
 ----------------------------------------------------------------------
 -----
 title
 -----
 Structure from the checkpoint file:  "1-ethyl-2-methylbenzene.chk"
 Charge =  0 Multiplicity = 1

                         Standard orientation:
 ---------------------------------------------------------------------
 Center     Atomic      Atomic             Coordinates (Angstroms)
 Number     Number       Type             X           Y           Z
 ---------------------------------------------------------------------
      1          6           0        2.405659   -0.121060    0.246773
      2          6           0        1.838083   -1.367505    0.021924
      3          6           0        1.605620    1.013405    0.195074
      4          6           0        0.478870   -1.458493   -0.249138
      5          6           0        0.238294    0.935373   -0.073405
      6          6           0       -0.337705   -0.327932   -0.297810
      7          6           0       -0.578927    2.201942   -0.131830
      8          6           0       -2.647406   -0.664207    0.717826
      9          6           0       -1.815959   -0.498821   -0.563287
     10          1           0        3.462852   -0.029351    0.457059
     11          1           0        2.446720   -2.261366    0.052064
     12          1           0        2.051065    1.985879    0.364968
     13          1           0        0.037240   -2.430840   -0.432374
     14          1           0       -1.016171    2.353512   -1.121381
     15          1           0       -1.404257    2.191747    0.581999
     16          1           0        0.039632    3.069984    0.091030
     17          1           0       -2.324469   -1.542269    1.278281
     18          1           0       -3.705954   -0.783853    0.481579
     19          1           0       -2.545656    0.200048    1.374935
     20          1           0       -2.198729    0.349580   -1.132566
     21          1           0       -1.961452   -1.379284   -1.192367
 ---------------------------------------------------------------------

 SCF Done:  E(RHF) =  -348.216942621     A.U. after    2 cycles

 The electronic state is 1-A.
 Alpha  occ. eigenvalues --  -11.24065 -11.23722 -11.23353 -11.23330 -11.23255
 Alpha  occ. eigenvalues --  -11.23188 -11.23150 -11.23127 -11.22571  -1.15764
 Alpha  occ. eigenvalues --   -1.06376  -1.03924  -0.98461  -0.93424  -0.86539
 Alpha  occ. eigenvalues --   -0.81794  -0.78584  -0.69079  -0.66488  -0.63334
 Alpha  occ. eigenvalues --   -0.60157  -0.59522  -0.58019  -0.57814  -0.55395
 Alpha  occ. eigenvalues --   -0.53964  -0.52603  -0.50546  -0.48596  -0.48122
 Alpha  occ. eigenvalues --   -0.47561  -0.33577  -0.32603
 Alpha virt. eigenvalues --    0.03374   0.03391   0.03785   0.04258   0.04731
 Alpha virt. eigenvalues --    0.05114   0.06501   0.07096   0.07640   0.08321
 Alpha virt. eigenvalues --    0.08627   0.10671   0.11013   0.11555   0.11767

 Mulliken charges:
               1
     1  C   -0.122652
     2  C   -0.175530
     3  C    0.213539
     4  C    0.155565
     5  C    0.608769
     6  C    1.072468
     7  C   -0.852469
     8  C   -0.328434
     9  C   -0.609221
    10  H   -0.246777
    11  H   -0.238214
    12  H   -0.302472
    13  H   -0.367001
    14  H    0.344351
    15  H    0.297455
    16  H   -0.019707
    17  H    0.158261
    18  H    0.108554
    19  H    0.121543
    20  H    0.138114
    21  H    0.043858
 Sum of Mulliken charges =  -0.00000

 Dipole moment (field-independent basis, Debye):
    X=             -0.5772    Y=              0.2416    Z=             -0.0726  Tot=              0.6299

 Test job not archived.
 1\1\GINC-SE146\SP\RHF\Aug-CC-pVDZ\C9H12\OHZDE\05-Apr-2025\0\\#t hf aug
 -cc-pvdz iop(5/13=1,5/36=2,99/5=2) pseudo=read geom=check guess=(read,
 tcheck) scf=(maxcycle=1)\\title\\0,1\C,0,2.405659,-0.12106,0.246773\C,
 0,1.838083,-1.367505,0.021924\C,0,1.60562,1.013405,0.195074\C,0,0.4788
 7,-1.458493,-0.249138\C,0,0.238294,0.935373,-0.073405\C,0,-0.337705,-0
 .327932,-0.29781\C,0,-0.578927,2.201942,-0.13183\C,0,-2.647406,-0.6642
 07,0.717826\C,0,-1.815959,-0.498821,-0.563287\H,0,3.462852,-0.02935,0.
 457059\H,0,2.44672,-2.261366,0.052064\H,0,2.051065,1.985879,0.364968\H

 Normal termination of Gaussian 16 at Sat Apr  5 22:26:50 2025.
