 Gaussian 16, Revision C.01,

 ----------------------------------------------------------------------
 #t hf aug-cc-pvdz symm=none int=(grid=ultrafine) guess=(read,tcheck) s
 table=(opt,rrhf)
 ----------------------------------------------------------------------
 -----
 title
 -----
 Symbolic Z-matrix:
 Charge =  0 Multiplicity = 1

 SCF Done:  E(RHF) =  -668.700985297     A.U. after   14 cycles
 Normal termination of Gaussian 16 at Sat Apr  5 22:24:34 2025.
 Gaussian 16:  ES64L-G16RevC.01  3-Jul-2019

 ----------------------------------------------------------------------
 #t hf aug-cc-pvdz iop(5/13=1,5/36=2,99/5=2) pseudo=read geom=check gue
 ss=(read,tcheck) scf=(maxcycle=1)
 ----------------------------------------------------------------------
 -----
 title
 -----
 Structure from the checkpoint file:  "1-ethylsulfinylpropane.chk"
 Charge =  0 Multiplicity = 1

                         Standard orientation:
 ---------------------------------------------------------------------
 Center     Atomic      Atomic             Coordinates (Angstroms)
 Number     Number       Type             X           Y           Z
 ---------------------------------------------------------------------
      1          6           0        3.493846   -0.421699    0.204243
      2          6           0       -3.184549   -0.384832    0.026086
      3          6           0        2.208239    0.268987   -0.251395
      4          6           0       -1.762741   -0.898519    0.195965
      5          6           0        0.966634   -0.554479    0.069940
      6          8           0       -0.668107    1.544752    0.490797
      7         16           0       -0.558033    0.349232   -0.423484
      8          1           0        4.366226    0.187832   -0.033018
      9          1           0        3.490187   -0.590172    1.282549
     10          1           0        3.622266   -1.390088   -0.283365
     11          1           0       -3.313566    0.561793    0.548967
     12          1           0       -3.430342   -0.232732   -1.025459
     13          1           0       -3.894890   -1.102230    0.438056
     14          1           0        2.251096    0.456272   -1.327242
     15          1           0        2.117148    1.242262    0.233126
     16          1           0       -1.584775   -1.813954   -0.371007
     17          1           0       -1.518743   -1.069941    1.245101
     18          1           0        0.880940   -0.746643    1.141226
     19          1           0        0.959278   -1.504876   -0.468592
 ---------------------------------------------------------------------

 SCF Done:  E(RHF) =  -669.056831414     A.U. after    2 cycles

 The electronic state is 1-A.
 Alpha  occ. eigenvalues --  -94.05719 -20.48600 -11.27448 -11.27136 -11.24288
 Alpha  occ. eigenvalues --  -11.24010 -11.23433  -8.32590  -6.30432  -6.30309
 Alpha  occ. eigenvalues --   -6.30102  -1.41500  -1.10676  -1.06856  -0.98857
 Alpha  occ. eigenvalues --   -0.90314  -0.82893  -0.80882  -0.67094  -0.64949
 Alpha  occ. eigenvalues --   -0.64178  -0.61114  -0.57982  -0.57457  -0.56444
 Alpha  occ. eigenvalues --   -0.53259  -0.53241  -0.51138  -0.50378  -0.50200
 Alpha  occ. eigenvalues --   -0.49203  -0.40017  -0.35573
 Alpha virt. eigenvalues --    0.02975   0.03348   0.03622   0.04294   0.05564
 Alpha virt. eigenvalues --    0.05747   0.05929   0.07258   0.07863   0.08902
 Alpha virt. eigenvalues --    0.09403   0.09794   0.10949   0.12306   0.13134

 Mulliken charges:
               1
     1  C   -0.391001
     2  C   -0.368151
     3  C   -0.174736
     4  C   -0.548570
     5  C   -0.676180
     6  O   -1.544547
     7  S    1.853443
     8  H    0.119779
     9  H    0.157025
    10  H    0.151069
    11  H    0.202749
    12  H    0.177473
    13  H    0.149244
    14  H    0.141510
    15  H    0.164250
    16  H    0.135234
    17  H    0.164158
    18  H    0.144681
    19  H    0.142570
 Sum of Mulliken charges =  -0.00000

 Dipole moment (field-independent basis, Debye):
    X=              0.6165    Y=             -4.1486    Z=             -0.7507  Tot=              4.2608

 Test job not archived.
 1\1\GINC-SE203\SP\RHF\Aug-CC-pVDZ\C5H12O1S1\OHZDE\05-Apr-2025\0\\#t hf
  aug-cc-pvdz iop(5/13=1,5/36=2,99/5=2) pseudo=read geom=check guess=(r
 ead,tcheck) scf=(maxcycle=1)\\title\\0,1\C,0,3.493846,-0.421699,0.2042
 43\C,0,-3.184549,-0.384832,0.026086\C,0,2.208239,0.268987,-0.251395\C,
 0,-1.762741,-0.898519,0.195965\C,0,0.966634,-0.554479,0.06994\O,0,-0.6
 68107,1.544752,0.490797\S,0,-0.558033,0.349232,-0.423484\H,0,4.366226,
 0.187832,-0.033018\H,0,3.490187,-0.590172,1.282549\H,0,3.622266,-1.390
 088,-0.283365\H,0,-3.313566,0.561793,0.548967\H,0,-3.430342,-0.232732,

 Normal termination of Gaussian 16 at Sat Apr  5 22:24:50 2025.
