 Gaussian 16, Revision C.01,

 ----------------------------------------------------------------------
 #t hf aug-cc-pvdz symm=none int=(grid=ultrafine) guess=(read,tcheck) s
 table=(opt,rrhf)
 ----------------------------------------------------------------------
 -----
 title
 -----
 Symbolic Z-matrix:
 Charge =  0 Multiplicity = 1

 SCF Done:  E(RHF) =  -385.121683620     A.U. after   12 cycles

 1\1\GINC-SE012\Stability\RHF\Aug-CC-pVDZ\C6H14O2\OHZDE\05-Apr-2025\0\\
 #t hf aug-cc-pvdz symm=none int=(grid=ultrafine) guess=(read,tcheck) s
 table=(opt,rrhf)\\title\\0,1\C,0,2.945747,-1.326432,-0.272137\C,0,-3.2
 05462,-0.965279,-0.174465\C,0,0.235796,2.251178,-0.163046\C,0,2.11899,
 -0.25769,0.413385\C,0,-1.783395,-0.782436,0.311995\C,0,-0.023554,0.819
 576,0.264379\O,0,0.911871,-0.08384,-0.314715\O,0,-1.30245,0.472628,-0.
 168283\H,0,3.881046,-1.483282,0.266831\H,0,2.403192,-2.271186,-0.3049\
 H,0,3.18213,-1.03224,-1.294481\H,0,-3.603189,-1.917908,0.177985\H,0,-3

 Normal termination of Gaussian 16 at Sat Apr  5 22:25:15 2025.
 Gaussian 16:  ES64L-G16RevC.01  3-Jul-2019

 ----------------------------------------------------------------------
 #t hf aug-cc-pvdz iop(5/13=1,5/36=2,99/5=2) pseudo=read geom=check gue
 ss=(read,tcheck) scf=(maxcycle=1)
 ----------------------------------------------------------------------
 -----
 title
 -----
 Structure from the checkpoint file:  "1-ethoxyethoxyethane.chk"
 Charge =  0 Multiplicity = 1

                         Standard orientation:
 ---------------------------------------------------------------------
 Center     Atomic      Atomic             Coordinates (Angstroms)
 Number     Number       Type             X           Y           Z
 ---------------------------------------------------------------------
      1          6           0        2.945747   -1.326432   -0.272137
      2          6           0       -3.205462   -0.965279   -0.174465
      3          6           0        0.235796    2.251178   -0.163046
      4          6           0        2.118990   -0.257690    0.413385
      5          6           0       -1.783395   -0.782436    0.311995
      6          6           0       -0.023554    0.819576    0.264379
      7          8           0        0.911871   -0.083840   -0.314715
      8          8           0       -1.302450    0.472628   -0.168283
      9          1           0        3.881046   -1.483282    0.266831
     10          1           0        2.403192   -2.271186   -0.304900
     11          1           0        3.182130   -1.032240   -1.294481
     12          1           0       -3.603189   -1.917908    0.177985
     13          1           0       -3.848536   -0.165468    0.192996
     14          1           0       -3.241225   -0.960448   -1.263778
     15          1           0        0.138687    2.326594   -1.245260
     16          1           0        1.239390    2.563008    0.124892
     17          1           0       -0.483643    2.921348    0.306118
     18          1           0        2.680904    0.683225    0.457447
     19          1           0        1.890021   -0.550298    1.446690
     20          1           0       -1.139904   -1.586590   -0.051523
     21          1           0       -1.743586   -0.787738    1.409110
     22          1           0        0.040618    0.717179    1.361201
 ---------------------------------------------------------------------

 SCF Done:  E(RHF) =  -385.532815910     A.U. after    2 cycles

 The electronic state is 1-A.
 Alpha  occ. eigenvalues --  -20.53989 -20.53835 -11.33453 -11.28530 -11.27695
 Alpha  occ. eigenvalues --  -11.22567 -11.22105 -11.22070  -1.49327  -1.42769
 Alpha  occ. eigenvalues --   -1.05216  -1.01510  -0.98167  -0.85782  -0.83894
 Alpha  occ. eigenvalues --   -0.82121  -0.69975  -0.68902  -0.66620  -0.62984
 Alpha  occ. eigenvalues --   -0.61503  -0.57082  -0.56650  -0.55428  -0.54171
 Alpha  occ. eigenvalues --   -0.53175  -0.52313  -0.51871  -0.50415  -0.47861
 Alpha  occ. eigenvalues --   -0.47035  -0.42570  -0.41391
 Alpha virt. eigenvalues --    0.03460   0.03821   0.03874   0.04269   0.05477
 Alpha virt. eigenvalues --    0.05594   0.06124   0.06518   0.06855   0.08038
 Alpha virt. eigenvalues --    0.08742   0.08981   0.09877   0.10960   0.12747

 Mulliken charges:
               1
     1  C   -0.525405
     2  C   -0.580121
     3  C   -0.583185
     4  C    0.438706
     5  C    0.412524
     6  C    1.642359
     7  O   -1.515173
     8  O   -1.567741
     9  H    0.138403
    10  H    0.164276
    11  H    0.157878
    12  H    0.146776
    13  H    0.178502
    14  H    0.192988
    15  H    0.231344
    16  H    0.111203
    17  H    0.163440
    18  H    0.128557
    19  H    0.140933
    20  H    0.119460
    21  H    0.138222
    22  H    0.266054
 Sum of Mulliken charges =   0.00000

 Dipole moment (field-independent basis, Debye):
    X=              0.9170    Y=             -0.3157    Z=              1.7079  Tot=              1.9640

 Test job not archived.
 1\1\GINC-SE012\SP\RHF\Aug-CC-pVDZ\C6H14O2\OHZDE\05-Apr-2025\0\\#t hf a
 ug-cc-pvdz iop(5/13=1,5/36=2,99/5=2) pseudo=read geom=check guess=(rea
 d,tcheck) scf=(maxcycle=1)\\title\\0,1\C,0,2.945747,-1.326432,-0.27213
 7\C,0,-3.205462,-0.965279,-0.174465\C,0,0.235796,2.251178,-0.163046\C,
 0,2.11899,-0.25769,0.413385\C,0,-1.783395,-0.782436,0.311995\C,0,-0.02
 3554,0.819576,0.264379\O,0,0.911871,-0.08384,-0.314715\O,0,-1.30245,0.
 472628,-0.168283\H,0,3.881046,-1.483282,0.266831\H,0,2.403192,-2.27118
 6,-0.3049\H,0,3.18213,-1.03224,-1.294481\H,0,-3.603189,-1.917908,0.177

 Normal termination of Gaussian 16 at Sat Apr  5 22:26:49 2025.
