 Gaussian 16, Revision C.01,

 ----------------------------------------------------------------------
 #t hf aug-cc-pvdz symm=none int=(grid=ultrafine) guess=(read,tcheck) s
 table=(opt,rrhf)
 ----------------------------------------------------------------------
 -----
 title
 -----
 Symbolic Z-matrix:
 Charge =  0 Multiplicity = 1

 SCF Done:  E(RHF) =  -347.847540590     A.U. after   15 cycles
 Normal termination of Gaussian 16 at Sat Apr  5 22:25:44 2025.
 Gaussian 16:  ES64L-G16RevC.01  3-Jul-2019

 ----------------------------------------------------------------------
 #t hf aug-cc-pvdz iop(5/13=1,5/36=2,99/5=2) pseudo=read geom=check gue
 ss=(read,tcheck) scf=(maxcycle=1)
 ----------------------------------------------------------------------
 -----
 title
 -----
 Structure from the checkpoint file:  "1-ethyl-4-methylbenzene.chk"
 Charge =  0 Multiplicity = 1

                         Standard orientation:
 ---------------------------------------------------------------------
 Center     Atomic      Atomic             Coordinates (Angstroms)
 Number     Number       Type             X           Y           Z
 ---------------------------------------------------------------------
      1          6           0        1.146241    1.193842   -0.045431
      2          6           0        1.145772   -1.192583   -0.047381
      3          6           0       -0.230006    1.193850   -0.240696
      4          6           0       -0.229569   -1.192065   -0.242263
      5          6           0        1.860578    0.000971    0.058338
      6          6           0       -0.945645    0.001362   -0.341139
      7          6           0        3.348664   -0.001567    0.293250
      8          6           0       -3.212526   -0.002676    0.806592
      9          6           0       -2.443952    0.001078   -0.522341
     10          1           0        1.673704    2.137762    0.019717
     11          1           0        1.673111   -2.136822    0.016045
     12          1           0       -0.753713    2.138576   -0.325696
     13          1           0       -0.753659   -2.136478   -0.328520
     14          1           0        3.832697   -0.827825   -0.228257
     15          1           0        3.806428    0.927029   -0.047139
     16          1           0        3.579777   -0.109506    1.356230
     17          1           0       -2.964444   -0.884319    1.399104
     18          1           0       -4.290020   -0.003069    0.634112
     19          1           0       -2.965687    0.876560    1.403176
     20          1           0       -2.738175    0.877564   -1.103946
     21          1           0       -2.737362   -0.872740   -1.108399
 ---------------------------------------------------------------------

 SCF Done:  E(RHF) =  -348.219734284     A.U. after    2 cycles

 The electronic state is 1-A.
 Alpha  occ. eigenvalues --  -11.23955 -11.23617 -11.23290 -11.23273 -11.23236
 Alpha  occ. eigenvalues --  -11.23191 -11.23163 -11.23047 -11.22381  -1.15669
 Alpha  occ. eigenvalues --   -1.07279  -1.00939  -1.00843  -0.93093  -0.85080
 Alpha  occ. eigenvalues --   -0.83364  -0.78622  -0.68065  -0.66332  -0.63452
 Alpha  occ. eigenvalues --   -0.59693  -0.59469  -0.58849  -0.57884  -0.54655
 Alpha  occ. eigenvalues --   -0.54498  -0.52309  -0.50043  -0.48134  -0.48121
 Alpha  occ. eigenvalues --   -0.48026  -0.34035  -0.32176
 Alpha virt. eigenvalues --    0.03328   0.03512   0.03796   0.04301   0.04599
 Alpha virt. eigenvalues --    0.05078   0.05640   0.07208   0.07252   0.08050
 Alpha virt. eigenvalues --    0.08259   0.09894   0.10562   0.11341   0.11513

 Mulliken charges:
               1
     1  C    0.216524
     2  C    0.235108
     3  C   -0.111943
     4  C   -0.109758
     5  C    0.369906
     6  C    1.460264
     7  C   -0.701412
     8  C   -0.426541
     9  C   -0.715811
    10  H   -0.306403
    11  H   -0.307742
    12  H   -0.348775
    13  H   -0.350536
    14  H    0.143262
    15  H    0.098405
    16  H    0.280036
    17  H    0.157608
    18  H    0.112158
    19  H    0.157480
    20  H    0.074001
    21  H    0.074170
 Sum of Mulliken charges =  -0.00000

 Dipole moment (field-independent basis, Debye):
    X=              0.0024    Y=             -0.0108    Z=              0.0562  Tot=              0.0573

 Test job not archived.
 1\1\GINC-SE168\SP\RHF\Aug-CC-pVDZ\C9H12\OHZDE\05-Apr-2025\0\\#t hf aug
 -cc-pvdz iop(5/13=1,5/36=2,99/5=2) pseudo=read geom=check guess=(read,
 tcheck) scf=(maxcycle=1)\\title\\0,1\C,0,1.146241,1.193842,-0.045431\C
 ,0,1.145772,-1.192583,-0.047381\C,0,-0.230006,1.19385,-0.240696\C,0,-0
 .229569,-1.192065,-0.242263\C,0,1.860578,0.000971,0.058338\C,0,-0.9456
 45,0.001362,-0.341139\C,0,3.348664,-0.001567,0.29325\C,0,-3.212526,-0.
 002676,0.806592\C,0,-2.443952,0.001078,-0.522341\H,0,1.673704,2.137762
 ,0.019717\H,0,1.673111,-2.136822,0.016045\H,0,-0.753713,2.138576,-0.32

 Normal termination of Gaussian 16 at Sat Apr  5 22:26:50 2025.
