 Gaussian 16, Revision C.01,

 ----------------------------------------------------------------------
 #t hf aug-cc-pvdz symm=none int=(grid=ultrafine) guess=(read,tcheck) s
 table=(opt,rrhf)
 ----------------------------------------------------------------------
 -----
 title
 -----
 Symbolic Z-matrix:
 Charge =  0 Multiplicity = 1

 SCF Done:  E(RHF) =  -743.556782812     A.U. after   13 cycles
 Normal termination of Gaussian 16 at Sat Apr  5 22:25:15 2025.
 Gaussian 16:  ES64L-G16RevC.01  3-Jul-2019

 ----------------------------------------------------------------------
 #t hf aug-cc-pvdz iop(5/13=1,5/36=2,99/5=2) pseudo=read geom=check gue
 ss=(read,tcheck) scf=(maxcycle=1)
 ----------------------------------------------------------------------
 -----
 title
 -----
 Structure from the checkpoint file:  "1-ethylsulfonylpropane.chk"
 Charge =  0 Multiplicity = 1

                         Standard orientation:
 ---------------------------------------------------------------------
 Center     Atomic      Atomic             Coordinates (Angstroms)
 Number     Number       Type             X           Y           Z
 ---------------------------------------------------------------------
      1          6           0       -2.143446   -2.929295    0.000000
      2          6           0        1.157418    2.955149    0.000000
      3          6           0       -0.838198   -2.133417    0.000000
      4          6           0       -0.055932    2.033897    0.000000
      5          6           0       -1.094835   -0.628266    0.000000
      6          8           0        1.157418    0.026179    1.262499
      7          8           0        1.157418    0.026179   -1.262499
      8         16           0        0.468746    0.293929    0.000000
      9          1           0       -1.938473   -3.999896    0.000000
     10          1           0       -2.746355   -2.706824    0.882228
     11          1           0       -2.746355   -2.706824   -0.882228
     12          1           0        0.824711    3.992976    0.000000
     13          1           0        1.770380    2.790531    0.884210
     14          1           0        1.770380    2.790531   -0.884210
     15          1           0       -0.242657   -2.391528   -0.876212
     16          1           0       -0.242657   -2.391528    0.876212
     17          1           0       -0.670671    2.165871   -0.889878
     18          1           0       -0.670671    2.165871    0.889878
     19          1           0       -1.638152   -0.309656   -0.890168
     20          1           0       -1.638152   -0.309656    0.890168
 ---------------------------------------------------------------------

 SCF Done:  E(RHF) =  -743.988379275     A.U. after    2 cycles

 The electronic state is 1-A'.
 Alpha  occ. eigenvalues --  -94.17509 -20.52337 -20.52333 -11.28807 -11.28479
 Alpha  occ. eigenvalues --  -11.25060 -11.24845 -11.24017  -8.42923  -6.41014
 Alpha  occ. eigenvalues --   -6.40809  -6.40748  -1.53339  -1.41610  -1.11358
 Alpha  occ. eigenvalues --   -1.08413  -0.99806  -0.91569  -0.84126  -0.80626
 Alpha  occ. eigenvalues --   -0.70142  -0.68532  -0.66208  -0.65789  -0.61781
 Alpha  occ. eigenvalues --   -0.60287  -0.58235  -0.57726  -0.55820  -0.53681
 Alpha  occ. eigenvalues --   -0.53450  -0.51510  -0.50368  -0.47622  -0.46948
 Alpha  occ. eigenvalues --   -0.44481  -0.41942
 Alpha virt. eigenvalues --    0.02732   0.03251   0.03703   0.04157   0.05528
 Alpha virt. eigenvalues --    0.05805   0.05849   0.07138   0.07902   0.08904
 Alpha virt. eigenvalues --    0.09186   0.09709   0.10580   0.13002   0.13415

 Mulliken charges:
               1
     1  C   -0.401852
     2  C   -0.392223
     3  C   -0.120280
     4  C   -0.547594
     5  C   -0.735052
     6  O   -1.606546
     7  O   -1.606546
     8  S    3.519248
     9  H    0.124804
    10  H    0.159808
    11  H    0.159808
    12  H    0.149633
    13  H    0.199147
    14  H    0.199147
    15  H    0.148708
    16  H    0.148708
    17  H    0.159581
    18  H    0.159581
    19  H    0.140960
    20  H    0.140960
 Sum of Mulliken charges =  -0.00000

 Dipole moment (field-independent basis, Debye):
    X=             -4.5622    Y=              1.5992    Z=             -0.0000  Tot=              4.8343

 Test job not archived.
 1\1\GINC-SE204\SP\RHF\Aug-CC-pVDZ\C5H12O2S1\OHZDE\05-Apr-2025\0\\#t hf
  aug-cc-pvdz iop(5/13=1,5/36=2,99/5=2) pseudo=read geom=check guess=(r
 ead,tcheck) scf=(maxcycle=1)\\title\\0,1\C,0,-2.143446,-2.929295,0.\C,
 0,1.157418,2.955149,0.\C,0,-0.838198,-2.133417,0.\C,0,-0.055932,2.0338
 97,0.\C,0,-1.094835,-0.628266,0.\O,0,1.157418,0.026179,1.262499\O,0,1.
 157418,0.026179,-1.262499\S,0,0.468746,0.293929,0.\H,0,-1.938473,-3.99
 9896,0.\H,0,-2.746355,-2.706824,0.882228\H,0,-2.746355,-2.706824,-0.88
 2228\H,0,0.824711,3.992976,0.\H,0,1.77038,2.790531,0.88421\H,0,1.77038

 Normal termination of Gaussian 16 at Sat Apr  5 22:26:46 2025.
