 Gaussian 16, Revision C.01,

 ----------------------------------------------------------------------
 #t hf aug-cc-pvdz symm=none int=(grid=ultrafine) guess=(read,tcheck) s
 table=(opt,rrhf)
 ----------------------------------------------------------------------
 -----
 title
 -----
 Symbolic Z-matrix:
 Charge =  0 Multiplicity = 1

 SCF Done:  E(RHF) =  -302.921734546     A.U. after   14 cycles
 Normal termination of Gaussian 16 at Sat Apr  5 22:24:12 2025.
 Gaussian 16:  ES64L-G16RevC.01  3-Jul-2019

 ----------------------------------------------------------------------
 #t hf aug-cc-pvdz iop(5/13=1,5/36=2,99/5=2) pseudo=read geom=check gue
 ss=(read,tcheck) scf=(maxcycle=1)
 ----------------------------------------------------------------------
 -----
 title
 -----
 Structure from the checkpoint file:  "1-ethyl-1H-imidazole.chk"
 Charge =  0 Multiplicity = 1

                         Standard orientation:
 ---------------------------------------------------------------------
 Center     Atomic      Atomic             Coordinates (Angstroms)
 Number     Number       Type             X           Y           Z
 ---------------------------------------------------------------------
      1          7           0        1.951229   -0.653592    0.274179
      2          6           0       -1.544566   -0.217982   -0.577174
      3          6           0        0.599777    1.081360   -0.202261
      4          1           0        0.156334    2.041637   -0.396652
      5          6           0        1.871547    0.709910    0.140798
      6          1           0        2.728958    1.343392    0.292022
      7          1           0        0.434363   -2.128670    0.020356
      8          6           0        0.743448   -1.095776    0.014974
      9          7           0       -0.123330   -0.087560   -0.284887
     10          1           0       -1.720891   -1.257639   -0.851818
     11          1           0       -1.770847    0.387341   -1.456142
     12          6           0       -2.439557    0.181938    0.592297
     13          1           0       -2.233726   -0.434183    1.467321
     14          1           0       -3.488111    0.054549    0.320622
     15          1           0       -2.285276    1.224935    0.867450
 ---------------------------------------------------------------------

 SCF Done:  E(RHF) =  -303.240337245     A.U. after    2 cycles

 The electronic state is 1-A.
 Alpha  occ. eigenvalues --  -15.55376 -15.47729 -11.29540 -11.29200 -11.25797
 Alpha  occ. eigenvalues --  -11.24560 -11.24351  -1.33894  -1.18876  -1.05098
 Alpha  occ. eigenvalues --   -1.01076  -0.90329  -0.83387  -0.79963  -0.74036
 Alpha  occ. eigenvalues --   -0.66486  -0.64231  -0.62383  -0.61097  -0.58996
 Alpha  occ. eigenvalues --   -0.56226  -0.54578  -0.52749  -0.47169  -0.41985
 Alpha  occ. eigenvalues --   -0.32998
 Alpha virt. eigenvalues --    0.03022   0.03837   0.03986   0.04145   0.05464
 Alpha virt. eigenvalues --    0.06214   0.06886   0.07403   0.09778   0.11071
 Alpha virt. eigenvalues --    0.12066   0.12567   0.13424   0.13839   0.14768

 Mulliken charges:
               1
     1  N    0.747151
     2  C   -0.628712
     3  C    0.091810
     4  H   -0.253845
     5  C   -0.380407
     6  H   -0.104480
     7  H   -0.135216
     8  C   -0.773119
     9  N    1.126474
    10  H    0.037461
    11  H    0.051833
    12  C   -0.229073
    13  H    0.162781
    14  H    0.138068
    15  H    0.149276
 Sum of Mulliken charges =  -0.00000

 Dipole moment (field-independent basis, Debye):
    X=             -4.3172    Y=              0.8454    Z=             -0.9097  Tot=              4.4923

 Test job not archived.
 1\1\GINC-SE146\SP\RHF\Aug-CC-pVDZ\C5H8N2\OHZDE\05-Apr-2025\0\\#t hf au
 g-cc-pvdz iop(5/13=1,5/36=2,99/5=2) pseudo=read geom=check guess=(read
 ,tcheck) scf=(maxcycle=1)\\title\\0,1\N,0,1.951229,-0.653592,0.274179\
 C,0,-1.544566,-0.217982,-0.577174\C,0,0.599777,1.08136,-0.202261\H,0,0
 .156334,2.041637,-0.396652\C,0,1.871547,0.70991,0.140798\H,0,2.728958,
 1.343392,0.292022\H,0,0.434363,-2.12867,0.020356\C,0,0.743448,-1.09577
 6,0.014974\N,0,-0.12333,-0.08756,-0.284887\H,0,-1.720891,-1.257639,-0.
 851818\H,0,-1.770847,0.387341,-1.456142\C,0,-2.439557,0.181938,0.59229

 Normal termination of Gaussian 16 at Sat Apr  5 22:24:47 2025.
