 Gaussian 16, Revision C.01,

 ----------------------------------------------------------------------
 #t hf aug-cc-pvdz symm=none int=(grid=ultrafine) guess=(read,tcheck) s
 table=(opt,rrhf)
 ----------------------------------------------------------------------
 -----
 title
 -----
 Symbolic Z-matrix:
 Charge =  0 Multiplicity = 1

 SCF Done:  E(RHF) =  -346.064330657     A.U. after   12 cycles

 1\1\GINC-SE011\Stability\RHF\Aug-CC-pVDZ\C5H12O2\OHZDE\05-Apr-2025\0\\
 #t hf aug-cc-pvdz symm=none int=(grid=ultrafine) guess=(read,tcheck) s
 table=(opt,rrhf)\\title\\0,1\C,0,3.132473,0.770972,0.253731\C,0,-3.489
 777,0.102524,0.120232\C,0,2.46306,-0.488339,-0.280821\C,0,-1.182999,-0
 .374018,0.214782\C,0,0.153763,0.132123,-0.293733\O,0,-2.191518,0.48364
 5,-0.283274\O,0,1.15856,-0.710687,0.238596\H,0,4.155816,0.833282,-0.12
 0982\H,0,2.611059,1.675762,-0.058785\H,0,3.16746,0.751844,1.34334\H,0,
 -4.186566,0.819251,-0.309463\H,0,-3.589678,0.116485,1.212175\H,0,-3.74

 Normal termination of Gaussian 16 at Sat Apr  5 22:24:26 2025.
 Gaussian 16:  ES64L-G16RevC.01  3-Jul-2019

 ----------------------------------------------------------------------
 #t hf aug-cc-pvdz iop(5/13=1,5/36=2,99/5=2) pseudo=read geom=check gue
 ss=(read,tcheck) scf=(maxcycle=1)
 ----------------------------------------------------------------------
 -----
 title
 -----
 Structure from the checkpoint file:  "1-ethoxy-2-methoxyethane.chk"
 Charge =  0 Multiplicity = 1

                         Standard orientation:
 ---------------------------------------------------------------------
 Center     Atomic      Atomic             Coordinates (Angstroms)
 Number     Number       Type             X           Y           Z
 ---------------------------------------------------------------------
      1          6           0        3.132473    0.770972    0.253731
      2          6           0       -3.489777    0.102524    0.120232
      3          6           0        2.463060   -0.488339   -0.280821
      4          6           0       -1.182999   -0.374018    0.214782
      5          6           0        0.153763    0.132123   -0.293733
      6          8           0       -2.191518    0.483645   -0.283274
      7          8           0        1.158560   -0.710687    0.238596
      8          1           0        4.155816    0.833282   -0.120982
      9          1           0        2.611059    1.675762   -0.058785
     10          1           0        3.167460    0.751844    1.343340
     11          1           0       -4.186566    0.819251   -0.309463
     12          1           0       -3.589678    0.116485    1.212175
     13          1           0       -3.741954   -0.902048   -0.239929
     14          1           0        3.038609   -1.367952    0.008601
     15          1           0        2.422491   -0.463753   -1.377404
     16          1           0       -1.184178   -0.379223    1.312052
     17          1           0       -1.345961   -1.404224   -0.125418
     18          1           0        0.289010    1.172957    0.018531
     19          1           0        0.168426    0.104380   -1.390449
 ---------------------------------------------------------------------

 SCF Done:  E(RHF) =  -346.432392983     A.U. after    2 cycles

 The electronic state is 1-A.
 Alpha  occ. eigenvalues --  -20.54315 -20.53967 -11.28236 -11.28017 -11.27826
 Alpha  occ. eigenvalues --  -11.27756 -11.22581  -1.46377  -1.45227  -1.04276
 Alpha  occ. eigenvalues --   -0.99679  -0.91558  -0.84985  -0.82138  -0.68982
 Alpha  occ. eigenvalues --   -0.67278  -0.66600  -0.63603  -0.61884  -0.61547
 Alpha  occ. eigenvalues --   -0.57742  -0.54888  -0.54052  -0.51883  -0.49920
 Alpha  occ. eigenvalues --   -0.47902  -0.46404  -0.41722  -0.41298
 Alpha virt. eigenvalues --    0.03816   0.04041   0.04122   0.04312   0.05566
 Alpha virt. eigenvalues --    0.05787   0.05973   0.07445   0.08155   0.08738
 Alpha virt. eigenvalues --    0.08934   0.09255   0.12510   0.13078   0.14382

 Mulliken charges:
               1
     1  C   -0.375245
     2  C    0.142046
     3  C    0.386507
     4  C    0.501598
     5  C    0.500695
     6  O   -1.262452
     7  O   -1.352304
     8  H    0.139215
     9  H    0.159582
    10  H    0.171301
    11  H   -0.035706
    12  H    0.183220
    13  H    0.181915
    14  H   -0.028983
    15  H    0.217596
    16  H    0.123118
    17  H    0.119980
    18  H    0.075973
    19  H    0.151945
 Sum of Mulliken charges =  -0.00000

 Dipole moment (field-independent basis, Debye):
    X=              0.1409    Y=             -0.0762    Z=             -0.1122  Tot=              0.1956

 Test job not archived.
 1\1\GINC-SE011\SP\RHF\Aug-CC-pVDZ\C5H12O2\OHZDE\05-Apr-2025\0\\#t hf a
 ug-cc-pvdz iop(5/13=1,5/36=2,99/5=2) pseudo=read geom=check guess=(rea
 d,tcheck) scf=(maxcycle=1)\\title\\0,1\C,0,3.132473,0.770972,0.253731\
 C,0,-3.489777,0.102524,0.120232\C,0,2.46306,-0.488339,-0.280821\C,0,-1
 .182999,-0.374018,0.214782\C,0,0.153763,0.132123,-0.293733\O,0,-2.1915
 18,0.483645,-0.283274\O,0,1.15856,-0.710687,0.238596\H,0,4.155816,0.83
 3282,-0.120982\H,0,2.611059,1.675762,-0.058785\H,0,3.16746,0.751844,1.
 34334\H,0,-4.186566,0.819251,-0.309463\H,0,-3.589678,0.116485,1.212175

 Normal termination of Gaussian 16 at Sat Apr  5 22:26:46 2025.
