 Gaussian 16, Revision C.01,

 ----------------------------------------------------------------------
 #t hf aug-cc-pvdz symm=none int=(grid=ultrafine) guess=(read,tcheck) s
 table=(opt,rrhf)
 ----------------------------------------------------------------------
 -----
 title
 -----
 Symbolic Z-matrix:
 Charge =  0 Multiplicity = 1

 SCF Done:  E(RHF) =  -991.409658381     A.U. after   13 cycles

 1\1\GINC-SE169\Stability\RHF\Aug-CC-pVDZ\C5H12S2\OHZDE\05-Apr-2025\0\\
 #t hf aug-cc-pvdz symm=none int=(grid=ultrafine) guess=(read,tcheck) s
 table=(opt,rrhf)\\title\\0,1\C,0,4.257269,-0.037794,0.00003\C,0,-3.949
 908,-0.598011,0.000036\C,0,2.887553,0.627975,0.000013\C,0,-1.167307,-0
 .413074,-0.000018\C,0,0.091194,0.440608,-0.00002\S,0,-2.645575,0.67099
 8,-0.000005\S,0,1.568672,-0.643862,-0.000022\H,0,4.392436,-0.663324,0.
 882566\H,0,4.392468,-0.663306,-0.882513\H,0,5.04203,0.719953,0.000052\
 H,0,-3.88965,-1.219817,-0.891752\H,0,-4.901476,-0.07084,0.000059\H,0,-

 Normal termination of Gaussian 16 at Sat Apr  5 22:24:52 2025.
 Gaussian 16:  ES64L-G16RevC.01  3-Jul-2019

 ----------------------------------------------------------------------
 #t hf aug-cc-pvdz iop(5/13=1,5/36=2,99/5=2) pseudo=read geom=check gue
 ss=(read,tcheck) scf=(maxcycle=1)
 ----------------------------------------------------------------------
 -----
 title
 -----
 Structure from the checkpoint file:  "1-ethylsulfanyl-2-methylsulfanyl-ethane.chk"
 Charge =  0 Multiplicity = 1

                         Standard orientation:
 ---------------------------------------------------------------------
 Center     Atomic      Atomic             Coordinates (Angstroms)
 Number     Number       Type             X           Y           Z
 ---------------------------------------------------------------------
      1          6           0        4.257269   -0.037794    0.000030
      2          6           0       -3.949908   -0.598011    0.000036
      3          6           0        2.887553    0.627975    0.000013
      4          6           0       -1.167307   -0.413074   -0.000018
      5          6           0        0.091194    0.440608   -0.000020
      6         16           0       -2.645575    0.670998   -0.000005
      7         16           0        1.568672   -0.643862   -0.000022
      8          1           0        4.392436   -0.663324    0.882566
      9          1           0        4.392468   -0.663306   -0.882513
     10          1           0        5.042030    0.719953    0.000052
     11          1           0       -3.889650   -1.219817   -0.891752
     12          1           0       -4.901476   -0.070840    0.000059
     13          1           0       -3.889600   -1.219808    0.891826
     14          1           0        2.763247    1.254670   -0.883576
     15          1           0        2.763215    1.254650    0.883612
     16          1           0       -1.197075   -1.048863    0.885008
     17          1           0       -1.197083   -1.048856   -0.885049
     18          1           0        0.119565    1.076575   -0.884964
     19          1           0        0.119567    1.076572    0.884926
 ---------------------------------------------------------------------

 SCF Done:  E(RHF) =  -991.749781001     A.U. after    2 cycles

 The electronic state is 1-A.
 Alpha  occ. eigenvalues --  -93.94067 -93.93694 -11.27135 -11.27094 -11.26785
 Alpha  occ. eigenvalues --  -11.26474 -11.23581  -8.22145  -8.21796  -6.19974
 Alpha  occ. eigenvalues --   -6.19821  -6.19619  -6.19592  -6.19470  -6.19244
 Alpha  occ. eigenvalues --   -1.11893  -1.07935  -1.02598  -0.94901  -0.86986
 Alpha  occ. eigenvalues --   -0.81565  -0.80569  -0.66076  -0.63338  -0.61588
 Alpha  occ. eigenvalues --   -0.60311  -0.59492  -0.57262  -0.54272  -0.53752
 Alpha  occ. eigenvalues --   -0.53525  -0.51333  -0.46645  -0.44137  -0.43406
 Alpha  occ. eigenvalues --   -0.35185  -0.34031
 Alpha virt. eigenvalues --    0.03387   0.03875   0.04180   0.04256   0.04951
 Alpha virt. eigenvalues --    0.05633   0.05762   0.07298   0.07795   0.07983
 Alpha virt. eigenvalues --    0.08649   0.10575   0.10691   0.11219   0.12660

 Mulliken charges:
               1
     1  C   -0.344612
     2  C   -0.612702
     3  C   -0.577834
     4  C   -0.683871
     5  C   -0.630378
     6  S    0.441007
     7  S    0.483747
     8  H    0.174959
     9  H    0.174957
    10  H    0.150469
    11  H    0.174347
    12  H    0.129082
    13  H    0.174344
    14  H    0.136728
    15  H    0.136730
    16  H    0.167696
    17  H    0.167695
    18  H    0.168816
    19  H    0.168818
 Sum of Mulliken charges =  -0.00000

 Dipole moment (field-independent basis, Debye):
    X=              0.2123    Y=              0.0256    Z=              0.0001  Tot=              0.2138

 Test job not archived.
 1\1\GINC-SE169\SP\RHF\Aug-CC-pVDZ\C5H12S2\OHZDE\05-Apr-2025\0\\#t hf a
 ug-cc-pvdz iop(5/13=1,5/36=2,99/5=2) pseudo=read geom=check guess=(rea
 d,tcheck) scf=(maxcycle=1)\\title\\0,1\C,0,4.257269,-0.037794,0.00003\
 C,0,-3.949908,-0.598011,0.000036\C,0,2.887553,0.627975,0.000013\C,0,-1
 .167307,-0.413074,-0.000018\C,0,0.091194,0.440608,-0.00002\S,0,-2.6455
 75,0.670998,-0.000005\S,0,1.568672,-0.643862,-0.000022\H,0,4.392436,-0
 .663324,0.882566\H,0,4.392468,-0.663306,-0.882513\H,0,5.04203,0.719953
 ,0.000052\H,0,-3.88965,-1.219817,-0.891752\H,0,-4.901476,-0.07084,0.00

 Normal termination of Gaussian 16 at Sat Apr  5 22:26:47 2025.
