 Gaussian 16, Revision C.01,

 ----------------------------------------------------------------------
 #t hf aug-cc-pvdz symm=none int=(grid=ultrafine) guess=(read,tcheck) s
 table=(opt,rrhf)
 ----------------------------------------------------------------------
 -----
 title
 -----
 Symbolic Z-matrix:
 Charge =  0 Multiplicity = 1

 SCF Done:  E(RHF) =  -416.512722794     A.U. after   15 cycles
 Normal termination of Gaussian 16 at Sat Apr  5 22:24:59 2025.
 Gaussian 16:  ES64L-G16RevC.01  3-Jul-2019

 ----------------------------------------------------------------------
 #t hf aug-cc-pvdz iop(5/13=1,5/36=2,99/5=2) pseudo=read geom=check gue
 ss=(read,tcheck) scf=(maxcycle=1)
 ----------------------------------------------------------------------
 -----
 title
 -----
 Structure from the checkpoint file:  "1-H-1-2--bipyrrole.chk"
 Charge =  0 Multiplicity = 1

                         Standard orientation:
 ---------------------------------------------------------------------
 Center     Atomic      Atomic             Coordinates (Angstroms)
 Number     Number       Type             X           Y           Z
 ---------------------------------------------------------------------
      1          6           0        2.841297    0.623378   -0.306532
      2          6           0        2.814080   -0.667434    0.287849
      3          6           0       -2.861574    0.594094    0.254885
      4          6           0       -1.540425    1.066662    0.485810
      5          6           0       -2.766925   -0.654559   -0.305131
      6          6           0        1.541870    1.032508   -0.460978
      7          6           0        1.498859   -1.002720    0.481775
      8          6           0       -0.682616    0.087435    0.048268
      9          7           0       -1.432507   -0.956411   -0.430976
     10          7           0        0.716428    0.038300    0.020394
     11          1           0        3.714040    1.183550   -0.595045
     12          1           0        3.662216   -1.274837    0.553684
     13          1           0       -3.776525    1.109760    0.489826
     14          1           0       -1.248499    1.997823    0.938908
     15          1           0       -3.525636   -1.349731   -0.616531
     16          1           0        1.122489    1.926638   -0.885807
     17          1           0        1.048662   -1.865483    0.939940
     18          1           0       -1.051588   -1.777123   -0.866575
 ---------------------------------------------------------------------

 SCF Done:  E(RHF) =  -416.942112078     A.U. after    2 cycles

 The electronic state is 1-A.
 Alpha  occ. eigenvalues --  -15.55897 -15.55531 -11.30699 -11.26621 -11.26368
 Alpha  occ. eigenvalues --  -11.26279 -11.22663 -11.22518 -11.22424 -11.22199
 Alpha  occ. eigenvalues --   -1.33301  -1.28329  -1.09067  -1.06484  -0.99528
 Alpha  occ. eigenvalues --   -0.97895  -0.84517  -0.82483  -0.81746  -0.78839
 Alpha  occ. eigenvalues --   -0.76073  -0.68645  -0.64290  -0.63171  -0.62065
 Alpha  occ. eigenvalues --   -0.60723  -0.59113  -0.57263  -0.56712  -0.55184
 Alpha  occ. eigenvalues --   -0.54910  -0.39112  -0.37892  -0.31648  -0.30594
 Alpha virt. eigenvalues --    0.03085   0.04104   0.04207   0.04343   0.04462
 Alpha virt. eigenvalues --    0.05600   0.06168   0.06354   0.09769   0.10444
 Alpha virt. eigenvalues --    0.10999   0.11568   0.11853   0.12934   0.13615

 Mulliken charges:
               1
     1  C    0.306452
     2  C    0.345308
     3  C    0.376864
     4  C    1.077824
     5  C   -0.271875
     6  C    0.052247
     7  C    0.036781
     8  C   -2.919698
     9  N    0.983736
    10  N    1.665626
    11  H   -0.149350
    12  H   -0.158503
    13  H   -0.147485
    14  H   -0.247479
    15  H   -0.233900
    16  H   -0.329074
    17  H   -0.355260
    18  H   -0.032212
 Sum of Mulliken charges =  -0.00000

 Dipole moment (field-independent basis, Debye):
    X=             -0.6618    Y=             -1.0518    Z=             -0.5496  Tot=              1.3588

 Test job not archived.
 1\1\GINC-SE173\SP\RHF\Aug-CC-pVDZ\C8H8N2\OHZDE\05-Apr-2025\0\\#t hf au
 g-cc-pvdz iop(5/13=1,5/36=2,99/5=2) pseudo=read geom=check guess=(read
 ,tcheck) scf=(maxcycle=1)\\title\\0,1\C,0,2.841297,0.623378,-0.306532\
 C,0,2.81408,-0.667434,0.287849\C,0,-2.861574,0.594094,0.254885\C,0,-1.
 540425,1.066662,0.48581\C,0,-2.766925,-0.654559,-0.305131\C,0,1.54187,
 1.032508,-0.460978\C,0,1.498859,-1.00272,0.481775\C,0,-0.682616,0.0874
 35,0.048268\N,0,-1.432507,-0.956411,-0.430976\N,0,0.716428,0.0383,0.02
 0394\H,0,3.71404,1.18355,-0.595045\H,0,3.662216,-1.274837,0.553684\H,0

 Normal termination of Gaussian 16 at Sat Apr  5 22:26:48 2025.
