 Gaussian 16, Revision C.01,

 ----------------------------------------------------------------------
 #t hf aug-cc-pvdz symm=none int=(grid=ultrafine) guess=(read,tcheck) s
 table=(opt,rrhf)
 ----------------------------------------------------------------------
 -----
 title
 -----
 Symbolic Z-matrix:
 Charge =  0 Multiplicity = 1

 SCF Done:  E(RHF) =  -310.260714444     A.U. after   12 cycles

 1\1\GINC-SE158\Stability\RHF\Aug-CC-pVDZ\C6H14O1\OHZDE\05-Apr-2025\0\\
 #t hf aug-cc-pvdz symm=none int=(grid=ultrafine) guess=(read,tcheck) s
 table=(opt,rrhf)\\title\\0,1\C,0,3.803979,-0.333546,-0.007335\C,0,2.52
 3952,0.499934,0.021358\C,0,1.251148,-0.346744,-0.014028\C,0,-0.035517,
 0.479205,0.013309\C,0,-1.306448,-0.371112,-0.02505\C,0,-2.580107,0.464
 187,0.009234\O,0,-3.7705,-0.317449,-0.083397\H,0,4.692588,0.298478,0.0
 20787\H,0,3.852231,-1.011503,0.847324\H,0,3.858181,-0.941543,-0.912719
 \H,0,2.519811,1.190707,-0.827105\H,0,2.515487,1.124471,0.919783\H,0,1.

 Normal termination of Gaussian 16 at Sat Apr  5 22:25:54 2025.
 Gaussian 16:  ES64L-G16RevC.01  3-Jul-2019

 ----------------------------------------------------------------------
 #t hf aug-cc-pvdz iop(5/13=1,5/36=2,99/5=2) pseudo=read geom=check gue
 ss=(read,tcheck) scf=(maxcycle=1)
 ----------------------------------------------------------------------
 -----
 title
 -----
 Structure from the checkpoint file:  "1-hexanol.chk"
 Charge =  0 Multiplicity = 1

                         Standard orientation:
 ---------------------------------------------------------------------
 Center     Atomic      Atomic             Coordinates (Angstroms)
 Number     Number       Type             X           Y           Z
 ---------------------------------------------------------------------
      1          6           0        3.803979   -0.333546   -0.007335
      2          6           0        2.523952    0.499934    0.021358
      3          6           0        1.251148   -0.346744   -0.014028
      4          6           0       -0.035517    0.479205    0.013309
      5          6           0       -1.306448   -0.371112   -0.025050
      6          6           0       -2.580107    0.464187    0.009234
      7          8           0       -3.770500   -0.317449   -0.083397
      8          1           0        4.692588    0.298478    0.020787
      9          1           0        3.852231   -1.011503    0.847324
     10          1           0        3.858181   -0.941543   -0.912719
     11          1           0        2.519811    1.190707   -0.827105
     12          1           0        2.515487    1.124471    0.919783
     13          1           0        1.255049   -1.037842    0.835498
     14          1           0        1.259420   -0.972533   -0.912499
     15          1           0       -0.037623    1.169441   -0.836563
     16          1           0       -0.042076    1.104927    0.911889
     17          1           0       -1.308490   -1.061289    0.826320
     18          1           0       -1.317911   -0.988628   -0.926931
     19          1           0       -2.600079    1.086487    0.912165
     20          1           0       -2.612653    1.137348   -0.848433
     21          1           0       -3.811971   -0.910475    0.672738
 ---------------------------------------------------------------------

 SCF Done:  E(RHF) =  -310.602121686     A.U. after    2 cycles

 The electronic state is 1-A.
 Alpha  occ. eigenvalues --  -20.54315 -11.27964 -11.22943 -11.22805 -11.22683
 Alpha  occ. eigenvalues --  -11.22618 -11.22223  -1.43994  -1.09419  -1.03880
 Alpha  occ. eigenvalues --   -0.95946  -0.87398  -0.81439  -0.79604  -0.69211
 Alpha  occ. eigenvalues --   -0.65761  -0.62562  -0.60962  -0.59609  -0.57820
 Alpha  occ. eigenvalues --   -0.55628  -0.53661  -0.50749  -0.50166  -0.48557
 Alpha  occ. eigenvalues --   -0.47426  -0.46981  -0.46619  -0.42924
 Alpha virt. eigenvalues --    0.03220   0.03443   0.03630   0.04200   0.05171
 Alpha virt. eigenvalues --    0.05747   0.06119   0.06497   0.07893   0.08585
 Alpha virt. eigenvalues --    0.08854   0.09712   0.10373   0.11040   0.12253

 Mulliken charges:
               1
     1  C   -0.392201
     2  C   -0.188113
     3  C   -0.262251
     4  C   -0.261792
     5  C   -0.212909
     6  C    0.755548
     7  O   -1.196521
     8  H    0.110855
     9  H    0.157105
    10  H    0.158971
    11  H    0.113540
    12  H    0.112105
    13  H    0.102848
    14  H    0.096901
    15  H    0.110321
    16  H    0.112841
    17  H    0.092498
    18  H    0.137232
    19  H    0.107743
    20  H    0.049179
    21  H    0.296100
 Sum of Mulliken charges =  -0.00000

 Dipole moment (field-independent basis, Debye):
    X=              1.4560    Y=             -0.0698    Z=              1.1630  Tot=              1.8648

 Test job not archived.
 1\1\GINC-SE158\SP\RHF\Aug-CC-pVDZ\C6H14O1\OHZDE\05-Apr-2025\0\\#t hf a
 ug-cc-pvdz iop(5/13=1,5/36=2,99/5=2) pseudo=read geom=check guess=(rea
 d,tcheck) scf=(maxcycle=1)\\title\\0,1\C,0,3.803979,-0.333546,-0.00733
 5\C,0,2.523952,0.499934,0.021358\C,0,1.251148,-0.346744,-0.014028\C,0,
 -0.035517,0.479205,0.013309\C,0,-1.306448,-0.371112,-0.02505\C,0,-2.58
 0107,0.464187,0.009234\O,0,-3.7705,-0.317449,-0.083397\H,0,4.692588,0.
 298478,0.020787\H,0,3.852231,-1.011503,0.847324\H,0,3.858181,-0.941543
 ,-0.912719\H,0,2.519811,1.190707,-0.827105\H,0,2.515487,1.124471,0.919

 Normal termination of Gaussian 16 at Sat Apr  5 22:26:47 2025.
