 Gaussian 16, Revision C.01,

 ----------------------------------------------------------------------
 #t hf aug-cc-pvdz symm=none int=(grid=ultrafine) guess=(read,tcheck) s
 table=(opt,rrhf)
 ----------------------------------------------------------------------
 -----
 title
 -----
 Symbolic Z-matrix:
 Charge =  0 Multiplicity = 1

 SCF Done:  E(RHF) =  -290.427621575     A.U. after   12 cycles

 1\1\GINC-SE129\Stability\RHF\Aug-CC-pVDZ\C6H15N1\OHZDE\05-Apr-2025\0\\
 #t hf aug-cc-pvdz symm=none int=(grid=ultrafine) guess=(read,tcheck) s
 table=(opt,rrhf)\\title\\0,1\C,0,3.802935,-0.49061,0.\C,0,2.559112,0.3
 96474,0.\C,0,1.251338,-0.396094,0.\C,0,0.,0.482704,0.\C,0,-1.308018,-0
 .309699,0.\C,0,-2.556134,0.578683,0.\N,0,-3.845546,-0.114188,0.\H,0,4.
 717679,0.103723,0.\H,0,3.826861,-1.135787,0.880692\H,0,3.826861,-1.135
 787,-0.880692\H,0,2.580491,1.054451,0.873988\H,0,2.580491,1.054451,-0.
 873988\H,0,1.230295,-1.055016,0.874553\H,0,1.230295,-1.055016,-0.87455

 Normal termination of Gaussian 16 at Sat Apr  5 22:25:54 2025.
 Gaussian 16:  ES64L-G16RevC.01  3-Jul-2019

 ----------------------------------------------------------------------
 #t hf aug-cc-pvdz iop(5/13=1,5/36=2,99/5=2) pseudo=read geom=check gue
 ss=(read,tcheck) scf=(maxcycle=1)
 ----------------------------------------------------------------------
 -----
 title
 -----
 Structure from the checkpoint file:  "1-hexanamine.chk"
 Charge =  0 Multiplicity = 1

                         Standard orientation:
 ---------------------------------------------------------------------
 Center     Atomic      Atomic             Coordinates (Angstroms)
 Number     Number       Type             X           Y           Z
 ---------------------------------------------------------------------
      1          6           0        3.802935   -0.490610    0.000000
      2          6           0        2.559112    0.396474    0.000000
      3          6           0        1.251338   -0.396094    0.000000
      4          6           0        0.000000    0.482704    0.000000
      5          6           0       -1.308018   -0.309699    0.000000
      6          6           0       -2.556134    0.578683    0.000000
      7          7           0       -3.845546   -0.114188    0.000000
      8          1           0        4.717679    0.103723    0.000000
      9          1           0        3.826861   -1.135787    0.880692
     10          1           0        3.826861   -1.135787   -0.880692
     11          1           0        2.580491    1.054451    0.873988
     12          1           0        2.580491    1.054451   -0.873988
     13          1           0        1.230295   -1.055016    0.874553
     14          1           0        1.230295   -1.055016   -0.874553
     15          1           0        0.022835    1.141535   -0.874500
     16          1           0        0.022835    1.141535    0.874500
     17          1           0       -1.338505   -0.966435    0.876192
     18          1           0       -1.338505   -0.966435   -0.876192
     19          1           0       -2.533944    1.235791    0.873348
     20          1           0       -2.533944    1.235791   -0.873348
     21          1           0       -3.935161   -0.711119    0.813635
     22          1           0       -3.935161   -0.711119   -0.813635
 ---------------------------------------------------------------------

 SCF Done:  E(RHF) =  -290.754064697     A.U. after    2 cycles

 The electronic state is 1-A'.
 Alpha  occ. eigenvalues --  -15.47903 -11.25052 -11.22476 -11.22464 -11.22339
 Alpha  occ. eigenvalues --  -11.22314 -11.22075  -1.17502  -1.08669  -1.02727
 Alpha  occ. eigenvalues --   -0.94802  -0.86598  -0.80831  -0.79280  -0.69963
 Alpha  occ. eigenvalues --   -0.65482  -0.62564  -0.60884  -0.59526  -0.57526
 Alpha  occ. eigenvalues --   -0.55379  -0.54743  -0.50484  -0.49844  -0.48232
 Alpha  occ. eigenvalues --   -0.47565  -0.46924  -0.46648  -0.41282
 Alpha virt. eigenvalues --    0.03247   0.03584   0.03607   0.04030   0.05293
 Alpha virt. eigenvalues --    0.05935   0.06072   0.06126   0.07816   0.08226
 Alpha virt. eigenvalues --    0.08585   0.09147   0.10164   0.10691   0.11756

 Mulliken charges:
               1
     1  C   -0.403218
     2  C   -0.180156
     3  C   -0.304698
     4  C   -0.120695
     5  C   -0.289054
     6  C   -0.801099
     7  N    0.324522
     8  H    0.107888
     9  H    0.159882
    10  H    0.159882
    11  H    0.117568
    12  H    0.117568
    13  H    0.088505
    14  H    0.088505
    15  H    0.095443
    16  H    0.095443
    17  H    0.128001
    18  H    0.128001
    19  H    0.098420
    20  H    0.098420
    21  H    0.145436
    22  H    0.145436
 Sum of Mulliken charges =   0.00000

 Dipole moment (field-independent basis, Debye):
    X=              1.2112    Y=             -0.8805    Z=              0.0000  Tot=              1.4974

 Test job not archived.
 1\1\GINC-SE129\SP\RHF\Aug-CC-pVDZ\C6H15N1\OHZDE\05-Apr-2025\0\\#t hf a
 ug-cc-pvdz iop(5/13=1,5/36=2,99/5=2) pseudo=read geom=check guess=(rea
 d,tcheck) scf=(maxcycle=1)\\title\\0,1\C,0,3.802935,-0.49061,0.\C,0,2.
 559112,0.396474,0.\C,0,1.251338,-0.396094,0.\C,0,0.,0.482704,0.\C,0,-1
 .308018,-0.309699,0.\C,0,-2.556134,0.578683,0.\N,0,-3.845546,-0.114188
 ,0.\H,0,4.717679,0.103723,0.\H,0,3.826861,-1.135787,0.880692\H,0,3.826
 861,-1.135787,-0.880692\H,0,2.580491,1.054451,0.873988\H,0,2.580491,1.
 054451,-0.873988\H,0,1.230295,-1.055016,0.874553\H,0,1.230295,-1.05501

 Normal termination of Gaussian 16 at Sat Apr  5 22:26:45 2025.
