 Gaussian 16, Revision C.01,

 ----------------------------------------------------------------------
 #t hf aug-cc-pvdz symm=none int=(grid=ultrafine) guess=(read,tcheck) s
 table=(opt,rrhf)
 ----------------------------------------------------------------------
 -----
 title
 -----
 Symbolic Z-matrix:
 Charge =  0 Multiplicity = 1

 SCF Done:  E(RHF) =  -349.299525550     A.U. after   12 cycles

 1\1\GINC-SE036\Stability\RHF\Aug-CC-pVDZ\C7H16O1\OHZDE\05-Apr-2025\0\\
 #t hf aug-cc-pvdz symm=none int=(grid=ultrafine) guess=(read,tcheck) s
 table=(opt,rrhf)\\title\\0,1\C,0,4.455953,0.270233,0.013128\C,0,3.1564
 86,-0.532657,-0.01481\C,0,1.903604,0.343655,0.01125\C,0,0.597863,-0.45
 1106,-0.015679\C,0,-0.653922,0.427229,0.00904\C,0,-1.958782,-0.3703,-0
 .0225\C,0,-3.196862,0.516964,0.008447\O,0,-4.418615,-0.215524,-0.07787
 3\H,0,4.523173,0.941403,-0.845601\H,0,5.329459,-0.382837,-0.007953\H,0
 ,4.521716,0.882668,0.914818\H,0,3.133472,-1.218292,0.837586\H,0,3.1361

 Normal termination of Gaussian 16 at Sat Apr  5 22:28:13 2025.
 Gaussian 16:  ES64L-G16RevC.01  3-Jul-2019

 ----------------------------------------------------------------------
 #t hf aug-cc-pvdz iop(5/13=1,5/36=2,99/5=2) pseudo=read geom=check gue
 ss=(read,tcheck) scf=(maxcycle=1)
 ----------------------------------------------------------------------
 -----
 title
 -----
 Structure from the checkpoint file:  "1-heptanol.chk"
 Charge =  0 Multiplicity = 1

                         Standard orientation:
 ---------------------------------------------------------------------
 Center     Atomic      Atomic             Coordinates (Angstroms)
 Number     Number       Type             X           Y           Z
 ---------------------------------------------------------------------
      1          6           0        4.455953    0.270233    0.013128
      2          6           0        3.156486   -0.532657   -0.014810
      3          6           0        1.903604    0.343655    0.011250
      4          6           0        0.597863   -0.451106   -0.015679
      5          6           0       -0.653922    0.427229    0.009040
      6          6           0       -1.958782   -0.370300   -0.022500
      7          6           0       -3.196862    0.516964    0.008447
      8          8           0       -4.418615   -0.215524   -0.077873
      9          1           0        4.523173    0.941403   -0.845601
     10          1           0        5.329459   -0.382837   -0.007953
     11          1           0        4.521716    0.882668    0.914818
     12          1           0        3.133472   -1.218292    0.837586
     13          1           0        3.136119   -1.162088   -0.909563
     14          1           0        1.926908    1.029567   -0.842248
     15          1           0        1.924665    0.974859    0.906112
     16          1           0        0.577344   -1.082187   -0.910093
     17          1           0        0.574572   -1.136132    0.838283
     18          1           0       -0.629327    1.112199   -0.844708
     19          1           0       -0.633266    1.057787    0.903988
     20          1           0       -1.987895   -1.054978    0.832841
     21          1           0       -1.997124   -0.992014   -0.920763
     22          1           0       -3.202967    1.185677   -0.853276
     23          1           0       -3.189897    1.145038    0.907556
     24          1           0       -4.484069   -0.800583    0.682753
 ---------------------------------------------------------------------

 SCF Done:  E(RHF) =  -349.684524826     A.U. after    2 cycles

 The electronic state is 1-A.
 Alpha  occ. eigenvalues --  -20.54306 -11.27953 -11.22928 -11.22789 -11.22607
 Alpha  occ. eigenvalues --  -11.22558 -11.22407 -11.22132  -1.43984  -1.09788
 Alpha  occ. eigenvalues --   -1.05478  -0.99055  -0.91479  -0.84471  -0.80380
 Alpha  occ. eigenvalues --   -0.79377  -0.69206  -0.66123  -0.63210  -0.61442
 Alpha  occ. eigenvalues --   -0.60201  -0.58413  -0.57110  -0.55270  -0.53044
 Alpha  occ. eigenvalues --   -0.51524  -0.49797  -0.48759  -0.47633  -0.47125
 Alpha  occ. eigenvalues --   -0.46769  -0.46211  -0.42820
 Alpha virt. eigenvalues --    0.03126   0.03286   0.03537   0.04169   0.04867
 Alpha virt. eigenvalues --    0.05210   0.05714   0.06268   0.07469   0.07755
 Alpha virt. eigenvalues --    0.08363   0.08634   0.10201   0.10643   0.10922

 Mulliken charges:
               1
     1  C   -0.389259
     2  C   -0.189427
     3  C   -0.275256
     4  C   -0.183167
     5  C   -0.305004
     6  C   -0.194878
     7  C    0.776143
     8  O   -1.215322
     9  H    0.157826
    10  H    0.109117
    11  H    0.157791
    12  H    0.112928
    13  H    0.114298
    14  H    0.105231
    15  H    0.103687
    16  H    0.096987
    17  H    0.103070
    18  H    0.116615
    19  H    0.119775
    20  H    0.089826
    21  H    0.135412
    22  H    0.047600
    23  H    0.105710
    24  H    0.300295
 Sum of Mulliken charges =  -0.00000

 Dipole moment (field-independent basis, Debye):
    X=              1.4613    Y=             -0.2048    Z=              1.1587  Tot=              1.8762

 Test job not archived.
 1\1\GINC-SE036\SP\RHF\Aug-CC-pVDZ\C7H16O1\OHZDE\05-Apr-2025\0\\#t hf a
 ug-cc-pvdz iop(5/13=1,5/36=2,99/5=2) pseudo=read geom=check guess=(rea
 d,tcheck) scf=(maxcycle=1)\\title\\0,1\C,0,4.455953,0.270233,0.013128\
 C,0,3.156486,-0.532657,-0.01481\C,0,1.903604,0.343655,0.01125\C,0,0.59
 7863,-0.451106,-0.015679\C,0,-0.653922,0.427229,0.00904\C,0,-1.958782,
 -0.3703,-0.0225\C,0,-3.196862,0.516964,0.008447\O,0,-4.418615,-0.21552
 4,-0.077873\H,0,4.523173,0.941403,-0.845601\H,0,5.329459,-0.382837,-0.
 007953\H,0,4.521716,0.882668,0.914818\H,0,3.133472,-1.218292,0.837586\

 Normal termination of Gaussian 16 at Sat Apr  5 22:29:10 2025.
