 Gaussian 16, Revision C.01,

 ----------------------------------------------------------------------
 #t hf aug-cc-pvdz symm=none int=(grid=ultrafine) guess=(read,tcheck) s
 table=(opt,rrhf)
 ----------------------------------------------------------------------
 -----
 title
 -----
 Symbolic Z-matrix:
 Charge =  0 Multiplicity = 1

 SCF Done:  E(RHF) =  -234.203139322     A.U. after   13 cycles
 Normal termination of Gaussian 16 at Sat Apr  5 22:25:32 2025.
 Gaussian 16:  ES64L-G16RevC.01  3-Jul-2019

 ----------------------------------------------------------------------
 #t hf aug-cc-pvdz iop(5/13=1,5/36=2,99/5=2) pseudo=read geom=check gue
 ss=(read,tcheck) scf=(maxcycle=1)
 ----------------------------------------------------------------------
 -----
 title
 -----
 Structure from the checkpoint file:  "1-hexene.chk"
 Charge =  0 Multiplicity = 1

                         Standard orientation:
 ---------------------------------------------------------------------
 Center     Atomic      Atomic             Coordinates (Angstroms)
 Number     Number       Type             X           Y           Z
 ---------------------------------------------------------------------
      1          6           0        3.083882   -0.164653   -0.435306
      2          6           0        2.038689   -0.211887    0.381630
      3          6           0       -3.012649   -0.378385   -0.169663
      4          6           0        0.775189    0.578680    0.225667
      5          6           0       -1.771338    0.499840   -0.023071
      6          6           0       -0.474243   -0.302353    0.082056
      7          1           0        3.964976   -0.769042   -0.266002
      8          1           0        3.096130    0.483870   -1.303601
      9          1           0        2.074756   -0.880467    1.238236
     10          1           0       -2.952804   -0.999751   -1.065528
     11          1           0       -3.919711    0.223030   -0.243990
     12          1           0       -3.127075   -1.046179    0.686669
     13          1           0        0.861213    1.241498   -0.639318
     14          1           0        0.645805    1.223387    1.102645
     15          1           0       -1.704688    1.181440   -0.876345
     16          1           0       -1.875165    1.133412    0.863013
     17          1           0       -0.537082   -0.981633    0.938389
     18          1           0       -0.363539   -0.937015   -0.802044
 ---------------------------------------------------------------------

 SCF Done:  E(RHF) =  -234.465241011     A.U. after    2 cycles

 The electronic state is 1-A.
 Alpha  occ. eigenvalues --  -11.23781 -11.23067 -11.22627 -11.22608 -11.22600
 Alpha  occ. eigenvalues --  -11.22139  -1.09605  -1.04503  -0.96901  -0.87291
 Alpha  occ. eigenvalues --   -0.79828  -0.76014  -0.66145  -0.63178  -0.60637
 Alpha  occ. eigenvalues --   -0.59280  -0.56485  -0.54366  -0.51433  -0.49647
 Alpha  occ. eigenvalues --   -0.48355  -0.47109  -0.46845  -0.36569
 Alpha virt. eigenvalues --    0.03561   0.03687   0.04043   0.04107   0.05368
 Alpha virt. eigenvalues --    0.05928   0.06635   0.06889   0.07780   0.08909
 Alpha virt. eigenvalues --    0.09740   0.09979   0.11600   0.12236   0.14022

 Mulliken charges:
               1
     1  C   -0.133615
     2  C    0.952303
     3  C   -0.361770
     4  C   -0.468424
     5  C   -0.253664
     6  C   -0.479767
     7  H   -0.109160
     8  H   -0.084833
     9  H   -0.196012
    10  H    0.161917
    11  H    0.117772
    12  H    0.156327
    13  H    0.057970
    14  H    0.188028
    15  H    0.106393
    16  H    0.113183
    17  H    0.108483
    18  H    0.124869
 Sum of Mulliken charges =  -0.00000

 Dipole moment (field-independent basis, Debye):
    X=             -0.4374    Y=              0.1033    Z=              0.1093  Tot=              0.4625

 Test job not archived.
 1\1\GINC-SE190\SP\RHF\Aug-CC-pVDZ\C6H12\OHZDE\05-Apr-2025\0\\#t hf aug
 -cc-pvdz iop(5/13=1,5/36=2,99/5=2) pseudo=read geom=check guess=(read,
 tcheck) scf=(maxcycle=1)\\title\\0,1\C,0,3.083882,-0.164653,-0.435306\
 C,0,2.038689,-0.211887,0.38163\C,0,-3.012649,-0.378385,-0.169663\C,0,0
 .775189,0.57868,0.225667\C,0,-1.771338,0.49984,-0.023071\C,0,-0.474243
 ,-0.302353,0.082056\H,0,3.964976,-0.769042,-0.266002\H,0,3.09613,0.483
 87,-1.303601\H,0,2.074756,-0.880467,1.238236\H,0,-2.952804,-0.999751,-
 1.065528\H,0,-3.919711,0.22303,-0.24399\H,0,-3.127075,-1.046179,0.6866

 Normal termination of Gaussian 16 at Sat Apr  5 22:26:45 2025.
