 Gaussian 16, Revision C.01,

 ----------------------------------------------------------------------
 #t hf aug-cc-pvdz symm=none int=(grid=ultrafine) guess=(read,tcheck) s
 table=(opt,rrhf)
 ----------------------------------------------------------------------
 -----
 title
 -----
 Symbolic Z-matrix:
 Charge =  0 Multiplicity = 1

 SCF Done:  E(RHF) =  -329.466427186     A.U. after   12 cycles

 1\1\GINC-SE205\Stability\RHF\Aug-CC-pVDZ\C7H17N1\OHZDE\05-Apr-2025\0\\
 #t hf aug-cc-pvdz symm=none int=(grid=ultrafine) guess=(read,tcheck) s
 table=(opt,rrhf)\\title\\0,1\C,0,2.858294,3.448276,0.\C,0,1.443396,2.8
 72081,0.\C,0,1.412286,1.343354,0.\C,0,0.,0.757661,0.\C,0,-0.030717,-0.
 771281,0.\C,0,-1.443246,-1.357334,0.\C,0,-1.465482,-2.889128,0.\N,0,-2
 .786976,-3.51851,0.\H,0,3.416468,3.123539,0.880618\H,0,3.416468,3.1235
 39,-0.880618\H,0,2.845446,4.539098,0.\H,0,0.899109,3.242456,0.874013\H
 ,0,0.899109,3.242456,-0.874013\H,0,1.957625,0.972748,0.874556\H,0,1.95

 Normal termination of Gaussian 16 at Sat Apr  5 22:25:20 2025.
 Gaussian 16:  ES64L-G16RevC.01  3-Jul-2019

 ----------------------------------------------------------------------
 #t hf aug-cc-pvdz iop(5/13=1,5/36=2,99/5=2) pseudo=read geom=check gue
 ss=(read,tcheck) scf=(maxcycle=1)
 ----------------------------------------------------------------------
 -----
 title
 -----
 Structure from the checkpoint file:  "1-heptanamine.chk"
 Charge =  0 Multiplicity = 1

                         Standard orientation:
 ---------------------------------------------------------------------
 Center     Atomic      Atomic             Coordinates (Angstroms)
 Number     Number       Type             X           Y           Z
 ---------------------------------------------------------------------
      1          6           0        2.858294    3.448276    0.000000
      2          6           0        1.443396    2.872081    0.000000
      3          6           0        1.412286    1.343354    0.000000
      4          6           0        0.000000    0.757661    0.000000
      5          6           0       -0.030717   -0.771281    0.000000
      6          6           0       -1.443246   -1.357334    0.000000
      7          6           0       -1.465482   -2.889128    0.000000
      8          7           0       -2.786976   -3.518510    0.000000
      9          1           0        3.416468    3.123539    0.880618
     10          1           0        3.416468    3.123539   -0.880618
     11          1           0        2.845446    4.539098    0.000000
     12          1           0        0.899109    3.242456    0.874013
     13          1           0        0.899109    3.242456   -0.874013
     14          1           0        1.957625    0.972748    0.874556
     15          1           0        1.957625    0.972748   -0.874556
     16          1           0       -0.544592    1.128853    0.874555
     17          1           0       -0.544592    1.128853   -0.874555
     18          1           0        0.514279   -1.142144   -0.874488
     19          1           0        0.514279   -1.142144    0.874488
     20          1           0       -1.990914   -0.993618    0.876239
     21          1           0       -1.990914   -0.993618   -0.876239
     22          1           0       -0.922544   -3.259922   -0.873380
     23          1           0       -0.922544   -3.259922    0.873380
     24          1           0       -3.321330   -3.237562   -0.813570
     25          1           0       -3.321330   -3.237562    0.813570
 ---------------------------------------------------------------------

 SCF Done:  E(RHF) =  -329.836456515     A.U. after    2 cycles

 The electronic state is 1-A'.
 Alpha  occ. eigenvalues --  -15.47898 -11.25042 -11.22452 -11.22415 -11.22329
 Alpha  occ. eigenvalues --  -11.22301 -11.22205 -11.22018  -1.17496  -1.09194
 Alpha  occ. eigenvalues --   -1.04522  -0.97995  -0.90591  -0.83848  -0.79857
 Alpha  occ. eigenvalues --   -0.79151  -0.69955  -0.65925  -0.62340  -0.62225
 Alpha  occ. eigenvalues --   -0.60409  -0.57477  -0.57258  -0.55687  -0.52713
 Alpha  occ. eigenvalues --   -0.52388  -0.49024  -0.49022  -0.47090  -0.46858
 Alpha  occ. eigenvalues --   -0.46787  -0.46524  -0.41217
 Alpha virt. eigenvalues --    0.03172   0.03408   0.03455   0.04064   0.04936
 Alpha virt. eigenvalues --    0.05488   0.05551   0.06079   0.07497   0.07648
 Alpha virt. eigenvalues --    0.08072   0.08176   0.10039   0.10310   0.10321

 Mulliken charges:
               1
     1  C   -0.394216
     2  C   -0.196871
     3  C   -0.265256
     4  C   -0.212961
     5  C   -0.142754
     6  C   -0.307567
     7  C   -0.809545
     8  N    0.341206
     9  H    0.157385
    10  H    0.157385
    11  H    0.108374
    12  H    0.115897
    13  H    0.115897
    14  H    0.111853
    15  H    0.111853
    16  H    0.087790
    17  H    0.087790
    18  H    0.099535
    19  H    0.099535
    20  H    0.124670
    21  H    0.124670
    22  H    0.097609
    23  H    0.097609
    24  H    0.145057
    25  H    0.145057
 Sum of Mulliken charges =  -0.00000

 Dipole moment (field-independent basis, Debye):
    X=             -0.0590    Y=              1.5500    Z=             -0.0000  Tot=              1.5511

 Test job not archived.
 1\1\GINC-SE205\SP\RHF\Aug-CC-pVDZ\C7H17N1\OHZDE\05-Apr-2025\0\\#t hf a
 ug-cc-pvdz iop(5/13=1,5/36=2,99/5=2) pseudo=read geom=check guess=(rea
 d,tcheck) scf=(maxcycle=1)\\title\\0,1\C,0,2.858294,3.448276,0.\C,0,1.
 443396,2.872081,0.\C,0,1.412286,1.343354,0.\C,0,0.,0.757661,0.\C,0,-0.
 030717,-0.771281,0.\C,0,-1.443246,-1.357334,0.\C,0,-1.465482,-2.889128
 ,0.\N,0,-2.786976,-3.51851,0.\H,0,3.416468,3.123539,0.880618\H,0,3.416
 468,3.123539,-0.880618\H,0,2.845446,4.539098,0.\H,0,0.899109,3.242456,
 0.874013\H,0,0.899109,3.242456,-0.874013\H,0,1.957625,0.972748,0.87455

 Normal termination of Gaussian 16 at Sat Apr  5 22:26:48 2025.
