 Gaussian 16, Revision C.01,

 ----------------------------------------------------------------------
 #t hf aug-cc-pvdz symm=none int=(grid=ultrafine) guess=(read,tcheck) s
 table=(opt,rrhf)
 ----------------------------------------------------------------------
 -----
 title
 -----
 Symbolic Z-matrix:
 Charge =  0 Multiplicity = 1

 SCF Done:  E(RHF) =  -232.995144955     A.U. after   13 cycles
 Normal termination of Gaussian 16 at Sat Apr  5 22:27:08 2025.
 Gaussian 16:  ES64L-G16RevC.01  3-Jul-2019

 ----------------------------------------------------------------------
 #t hf aug-cc-pvdz iop(5/13=1,5/36=2,99/5=2) pseudo=read geom=check gue
 ss=(read,tcheck) scf=(maxcycle=1)
 ----------------------------------------------------------------------
 -----
 title
 -----
 Structure from the checkpoint file:  "1-hexyne.chk"
 Charge =  0 Multiplicity = 1

                         Standard orientation:
 ---------------------------------------------------------------------
 Center     Atomic      Atomic             Coordinates (Angstroms)
 Number     Number       Type             X           Y           Z
 ---------------------------------------------------------------------
      1          6           0       -2.312498   -2.277578    0.000000
      2          6           0       -1.228339   -1.763422    0.000000
      3          6           0        1.311092    2.604422    0.000000
      4          6           0        0.077794   -1.116147    0.000000
      5          6           0        1.378741    1.078321    0.000000
      6          6           0        0.000000    0.420250    0.000000
      7          1           0       -3.268709   -2.737512    0.000000
      8          1           0        2.308010    3.046780    0.000000
      9          1           0        0.783276    2.975425    0.880761
     10          1           0        0.783276    2.975425   -0.880761
     11          1           0        0.642365   -1.452734    0.874593
     12          1           0        0.642365   -1.452734   -0.874593
     13          1           0        1.941609    0.738131   -0.874478
     14          1           0        1.941609    0.738131    0.874478
     15          1           0       -0.567271    0.747005    0.874792
     16          1           0       -0.567271    0.747005   -0.874792
 ---------------------------------------------------------------------

 SCF Done:  E(RHF) =  -233.251255073     A.U. after    2 cycles

 The electronic state is 1-A'.
 Alpha  occ. eigenvalues --  -11.25741 -11.23929 -11.23540 -11.23221 -11.22717
 Alpha  occ. eigenvalues --  -11.22551  -1.10081  -1.04089  -0.98093  -0.88855
 Alpha  occ. eigenvalues --   -0.80678  -0.72293  -0.66141  -0.64559  -0.60448
 Alpha  occ. eigenvalues --   -0.59742  -0.54742  -0.52265  -0.50310  -0.48640
 Alpha  occ. eigenvalues --   -0.47902  -0.39144  -0.39078
 Alpha virt. eigenvalues --    0.03529   0.03902   0.03954   0.04082   0.05042
 Alpha virt. eigenvalues --    0.06576   0.06836   0.07356   0.08165   0.10116
 Alpha virt. eigenvalues --    0.10573   0.11930   0.12498   0.12946   0.13903

 Mulliken charges:
               1
     1  C    0.246002
     2  C    0.468227
     3  C   -0.362526
     4  C   -0.683440
     5  C   -0.225825
     6  C   -0.242025
     7  H   -0.452110
     8  H    0.114155
     9  H    0.165010
    10  H    0.165010
    11  H    0.205049
    12  H    0.205049
    13  H    0.104774
    14  H    0.104774
    15  H    0.093938
    16  H    0.093938
 Sum of Mulliken charges =  -0.00000

 Dipole moment (field-independent basis, Debye):
    X=              0.7454    Y=              0.5655    Z=              0.0000  Tot=              0.9356

 Test job not archived.
 1\1\GINC-SE196\SP\RHF\Aug-CC-pVDZ\C6H10\OHZDE\05-Apr-2025\0\\#t hf aug
 -cc-pvdz iop(5/13=1,5/36=2,99/5=2) pseudo=read geom=check guess=(read,
 tcheck) scf=(maxcycle=1)\\title\\0,1\C,0,-2.312498,-2.277578,0.\C,0,-1
 .228339,-1.763422,0.\C,0,1.311092,2.604422,0.\C,0,0.077794,-1.116147,0
 .\C,0,1.378741,1.078321,0.\C,0,0.,0.42025,0.\H,0,-3.268709,-2.737512,0
 .\H,0,2.30801,3.04678,0.\H,0,0.783276,2.975425,0.880761\H,0,0.783276,2
 .975425,-0.880761\H,0,0.642365,-1.452734,0.874593\H,0,0.642365,-1.4527
 34,-0.874593\H,0,1.941609,0.738131,-0.874478\H,0,1.941609,0.738131,0.8

 Normal termination of Gaussian 16 at Sat Apr  5 22:28:05 2025.
