 Gaussian 16, Revision C.01,

 ----------------------------------------------------------------------
 #t hf aug-cc-pvdz symm=none int=(grid=ultrafine) guess=(read,tcheck) s
 table=(opt,rrhf)
 ----------------------------------------------------------------------
 -----
 title
 -----
 Symbolic Z-matrix:
 Charge =  0 Multiplicity = 1

 SCF Done:  E(RHF) =  -273.241960795     A.U. after   13 cycles
 Normal termination of Gaussian 16 at Sat Apr  5 22:25:51 2025.
 Gaussian 16:  ES64L-G16RevC.01  3-Jul-2019

 ----------------------------------------------------------------------
 #t hf aug-cc-pvdz iop(5/13=1,5/36=2,99/5=2) pseudo=read geom=check gue
 ss=(read,tcheck) scf=(maxcycle=1)
 ----------------------------------------------------------------------
 -----
 title
 -----
 Structure from the checkpoint file:  "1-heptene.chk"
 Charge =  0 Multiplicity = 1

                         Standard orientation:
 ---------------------------------------------------------------------
 Center     Atomic      Atomic             Coordinates (Angstroms)
 Number     Number       Type             X           Y           Z
 ---------------------------------------------------------------------
      1          6           0       -3.718906    0.008129   -0.494379
      2          6           0       -2.699428    0.209382    0.331599
      3          6           0        3.687893   -0.207825   -0.120495
      4          6           0       -1.396675   -0.530695    0.303389
      5          6           0        2.358809    0.545407   -0.139559
      6          6           0       -0.186173    0.386338    0.074430
      7          6           0        1.148183   -0.358947    0.093708
      8          1           0       -4.631597    0.584270   -0.421349
      9          1           0       -3.677416   -0.743766   -1.273896
     10          1           0       -2.790163    0.977233    1.096030
     11          1           0        3.716728   -0.976298   -0.895791
     12          1           0        3.846764   -0.703368    0.839542
     13          1           0        4.530129    0.464536   -0.289388
     14          1           0       -1.260508   -1.052629    1.257535
     15          1           0       -1.428811   -1.300599   -0.471834
     16          1           0        2.244636    1.058481   -1.099103
     17          1           0        2.373926    1.330018    0.622906
     18          1           0       -0.176694    1.167721    0.841095
     19          1           0       -0.305655    0.900978   -0.883282
     20          1           0        1.134469   -1.144791   -0.669046
     21          1           0        1.261978   -0.872523    1.054419
 ---------------------------------------------------------------------

 SCF Done:  E(RHF) =  -273.547639143     A.U. after    2 cycles

 The electronic state is 1-A.
 Alpha  occ. eigenvalues --  -11.23768 -11.23052 -11.22603 -11.22590 -11.22473
 Alpha  occ. eigenvalues --  -11.22345 -11.22055  -1.09908  -1.05913  -0.99827
 Alpha  occ. eigenvalues --   -0.92096  -0.83453  -0.79317  -0.75914  -0.66390
 Alpha  occ. eigenvalues --   -0.63872  -0.61347  -0.59560  -0.57625  -0.56759
 Alpha  occ. eigenvalues --   -0.53276  -0.51746  -0.50121  -0.48421  -0.47237
 Alpha  occ. eigenvalues --   -0.46752  -0.46288  -0.36549
 Alpha virt. eigenvalues --    0.03446   0.03604   0.03716   0.04148   0.05077
 Alpha virt. eigenvalues --    0.05447   0.06165   0.06518   0.07474   0.08130
 Alpha virt. eigenvalues --    0.09234   0.09384   0.09635   0.11280   0.11740

 Mulliken charges:
               1
     1  C   -0.143999
     2  C    0.995324
     3  C   -0.379180
     4  C   -0.437432
     5  C   -0.204412
     6  C   -0.462209
     7  C   -0.285610
     8  H   -0.110593
     9  H   -0.097933
    10  H   -0.208840
    11  H    0.155392
    12  H    0.158379
    13  H    0.112919
    14  H    0.190167
    15  H    0.064418
    16  H    0.114330
    17  H    0.111891
    18  H    0.109353
    19  H    0.126296
    20  H    0.091202
    21  H    0.100537
 Sum of Mulliken charges =   0.00000

 Dipole moment (field-independent basis, Debye):
    X=              0.4424    Y=              0.0164    Z=              0.1168  Tot=              0.4578

 Test job not archived.
 1\1\GINC-SE042\SP\RHF\Aug-CC-pVDZ\C7H14\OHZDE\05-Apr-2025\0\\#t hf aug
 -cc-pvdz iop(5/13=1,5/36=2,99/5=2) pseudo=read geom=check guess=(read,
 tcheck) scf=(maxcycle=1)\\title\\0,1\C,0,-3.718906,0.008129,-0.494379\
 C,0,-2.699428,0.209382,0.331599\C,0,3.687893,-0.207825,-0.120495\C,0,-
 1.396675,-0.530695,0.303389\C,0,2.358809,0.545407,-0.139559\C,0,-0.186
 173,0.386338,0.07443\C,0,1.148183,-0.358947,0.093708\H,0,-4.631597,0.5
 8427,-0.421349\H,0,-3.677416,-0.743766,-1.273896\H,0,-2.790163,0.97723
 3,1.09603\H,0,3.716728,-0.976298,-0.895791\H,0,3.846764,-0.703368,0.83

 Normal termination of Gaussian 16 at Sat Apr  5 22:26:47 2025.
