 Gaussian 16, Revision C.01,

 ----------------------------------------------------------------------
 #t hf aug-cc-pvdz symm=none int=(grid=ultrafine) guess=(read,tcheck) s
 table=(opt,rrhf)
 ----------------------------------------------------------------------
 -----
 title
 -----
 Symbolic Z-matrix:
 Charge =  0 Multiplicity = 1

 SCF Done:  E(RHF) =  -412.570770610     A.U. after   17 cycles
 Normal termination of Gaussian 16 at Sat Apr  5 22:25:10 2025.
 Gaussian 16:  ES64L-G16RevC.01  3-Jul-2019

 ----------------------------------------------------------------------
 #t hf aug-cc-pvdz iop(5/13=1,5/36=2,99/5=2) pseudo=read geom=check gue
 ss=(read,tcheck) scf=(maxcycle=1)
 ----------------------------------------------------------------------
 -----
 title
 -----
 Structure from the checkpoint file:  "1-hydroperoxy-N-nitrosodimethylamine.chk"
 Charge =  0 Multiplicity = 1

                         Standard orientation:
 ---------------------------------------------------------------------
 Center     Atomic      Atomic             Coordinates (Angstroms)
 Number     Number       Type             X           Y           Z
 ---------------------------------------------------------------------
      1          8           0        1.527751   -0.041787   -0.537922
      2          8           0        2.903656   -0.081519   -0.081598
      3          8           0       -2.550243   -0.648905   -0.302870
      4          7           0       -0.622833    0.129378    0.252599
      5          7           0       -1.430434   -0.925890    0.075880
      6          6           0        0.715920   -0.171147    0.638713
      7          6           0       -1.072890    1.482292   -0.050054
      8          1           0        1.075986    0.533849    1.388665
      9          1           0        0.743524   -1.191858    1.019263
     10          1           0       -0.254371    2.165555    0.153369
     11          1           0       -1.938584    1.731739    0.562219
     12          1           0       -1.363685    1.558623   -1.097009
     13          1           0        3.202517   -0.911506   -0.478692
 ---------------------------------------------------------------------

 SCF Done:  E(RHF) =  -412.977940845     A.U. after    2 cycles

 The electronic state is 1-A.
 Alpha  occ. eigenvalues --  -20.63193 -20.63023 -20.57909 -15.67390 -15.57760
 Alpha  occ. eigenvalues --  -11.35113 -11.28578  -1.60210  -1.58675  -1.34119
 Alpha  occ. eigenvalues --   -1.28161  -1.05112  -0.99888  -0.83772  -0.77339
 Alpha  occ. eigenvalues --   -0.75703  -0.72986  -0.71162  -0.65400  -0.64225
 Alpha  occ. eigenvalues --   -0.62487  -0.59524  -0.58704  -0.57317  -0.50968
 Alpha  occ. eigenvalues --   -0.46733  -0.43914  -0.43471
 Alpha virt. eigenvalues --    0.03376   0.04090   0.05019   0.05186   0.05969
 Alpha virt. eigenvalues --    0.07019   0.08587   0.09256   0.12178   0.13049
 Alpha virt. eigenvalues --    0.13846   0.15031   0.15911   0.16227   0.17049

 Mulliken charges:
               1
     1  O   -0.750682
     2  O   -0.450820
     3  O   -1.055169
     4  N   -0.063546
     5  N    1.007763
     6  C    0.467101
     7  C   -0.191367
     8  H    0.131640
     9  H    0.057151
    10  H    0.078256
    11  H    0.165771
    12  H    0.201844
    13  H    0.402058
 Sum of Mulliken charges =  -0.00000

 Dipole moment (field-independent basis, Debye):
    X=              1.9840    Y=              0.9272    Z=              1.1020  Tot=              2.4516

 Test job not archived.
 1\1\GINC-SE009\SP\RHF\Aug-CC-pVDZ\C2H6N2O3\OHZDE\05-Apr-2025\0\\#t hf
 aug-cc-pvdz iop(5/13=1,5/36=2,99/5=2) pseudo=read geom=check guess=(re
 ad,tcheck) scf=(maxcycle=1)\\title\\0,1\O,0,1.527751,-0.041787,-0.5379
 22\O,0,2.903656,-0.081519,-0.081598\O,0,-2.550243,-0.648905,-0.30287\N
 ,0,-0.622833,0.129378,0.252599\N,0,-1.430434,-0.92589,0.07588\C,0,0.71
 592,-0.171147,0.638713\C,0,-1.07289,1.482292,-0.050054\H,0,1.075986,0.
 533849,1.388665\H,0,0.743524,-1.191858,1.019263\H,0,-0.25437,2.165555,
 0.153369\H,0,-1.938584,1.731739,0.562219\H,0,-1.363685,1.558623,-1.097

 Normal termination of Gaussian 16 at Sat Apr  5 22:26:43 2025.
