 Gaussian 16, Revision C.01,

 ----------------------------------------------------------------------
 #t hf aug-cc-pvdz symm=none int=(grid=ultrafine) guess=(read,tcheck) s
 table=(opt,rrhf)
 ----------------------------------------------------------------------
 -----
 title
 -----
 Symbolic Z-matrix:
 Charge =  0 Multiplicity = 1

 SCF Done:  E(RHF) =  -227.374601981     A.U. after   16 cycles
 Normal termination of Gaussian 16 at Sat Apr  5 22:26:44 2025.
 Gaussian 16:  ES64L-G16RevC.01  3-Jul-2019

 ----------------------------------------------------------------------
 #t hf aug-cc-pvdz iop(5/13=1,5/36=2,99/5=2) pseudo=read geom=check gue
 ss=(read,tcheck) scf=(maxcycle=1)
 ----------------------------------------------------------------------
 -----
 title
 -----
 Structure from the checkpoint file:  "1-hydroxy-1-3-dibutyne.chk"
 Charge =  0 Multiplicity = 1

                         Standard orientation:
 ---------------------------------------------------------------------
 Center     Atomic      Atomic             Coordinates (Angstroms)
 Number     Number       Type             X           Y           Z
 ---------------------------------------------------------------------
      1          8           0       -2.416628   -0.098841   -0.000028
      2          6           0        0.087033   -0.011100    0.000005
      3          6           0       -1.117057   -0.002424   -0.000010
      4          6           0        1.449836    0.001422    0.000013
      5          6           0        2.655112    0.011669    0.000023
      6          1           0       -2.832487    0.773856    0.000005
      7          1           0        3.715965    0.019465    0.000027
 ---------------------------------------------------------------------

 SCF Done:  E(RHF) =  -227.600253199     A.U. after    2 cycles

 The electronic state is 1-A.
 Alpha  occ. eigenvalues --  -20.64245 -11.33047 -11.26720 -11.25999 -11.25374
 Alpha  occ. eigenvalues --   -1.55734  -1.08689  -1.02062  -0.86516  -0.81184
 Alpha  occ. eigenvalues --   -0.71823  -0.68192  -0.63477  -0.49121  -0.48363
 Alpha  occ. eigenvalues --   -0.36839  -0.35489
 Alpha virt. eigenvalues --    0.02518   0.03792   0.08378   0.09234   0.09549
 Alpha virt. eigenvalues --    0.09601   0.09968   0.10891   0.13659   0.14123
 Alpha virt. eigenvalues --    0.14438   0.15162   0.18047   0.19305   0.20759

 Mulliken charges:
               1
     1  O   -1.270752
     2  C    1.855961
     3  C   -0.867378
     4  C    1.055027
     5  C   -0.510426
     6  H    0.338504
     7  H   -0.600935
 Sum of Mulliken charges =  -0.00000

 Dipole moment (field-independent basis, Debye):
    X=             -1.1689    Y=              1.5470    Z=              0.0000  Tot=              1.9389

 Test job not archived.
 1\1\GINC-SE085\SP\RHF\Aug-CC-pVDZ\C4H2O1\OHZDE\05-Apr-2025\0\\#t hf au
 g-cc-pvdz iop(5/13=1,5/36=2,99/5=2) pseudo=read geom=check guess=(read
 ,tcheck) scf=(maxcycle=1)\\title\\0,1\O,0,-2.416628,-0.098841,-0.00002
 8\C,0,0.087033,-0.0111,0.000005\C,0,-1.117057,-0.002424,-0.00001\C,0,1
 .449836,0.001422,0.000013\C,0,2.655112,0.011669,0.000023\H,0,-2.832487
 ,0.773856,0.000005\H,0,3.715965,0.019465,0.000027\\Version=ES64L-G16Re
 vC.01\State=1-A\HF=-227.6002532\RMSD=5.078e-02\Dipole=-0.4598664,0.608
 621,0.0000172\Quadrupole=6.8900986,-2.7608381,-4.1292606,-3.6820103,-0

 Normal termination of Gaussian 16 at Sat Apr  5 22:26:47 2025.
