 Gaussian 16, Revision C.01,

 ----------------------------------------------------------------------
 #t hf aug-cc-pvdz symm=none int=(grid=ultrafine) guess=(read,tcheck) s
 table=(opt,rrhf)
 ----------------------------------------------------------------------
 -----
 title
 -----
 Symbolic Z-matrix:
 Charge =  0 Multiplicity = 1

 SCF Done:  E(RHF) =  -278.974878858     A.U. after   13 cycles
 Normal termination of Gaussian 16 at Sat Apr  5 22:24:51 2025.
 Gaussian 16:  ES64L-G16RevC.01  3-Jul-2019

 ----------------------------------------------------------------------
 #t hf aug-cc-pvdz iop(5/13=1,5/36=2,99/5=2) pseudo=read geom=check gue
 ss=(read,tcheck) scf=(maxcycle=1)
 ----------------------------------------------------------------------
 -----
 title
 -----
 Structure from the checkpoint file:  "1-hydroxyguanidine.chk"
 Charge =  0 Multiplicity = 1

                         Standard orientation:
 ---------------------------------------------------------------------
 Center     Atomic      Atomic             Coordinates (Angstroms)
 Number     Number       Type             X           Y           Z
 ---------------------------------------------------------------------
      1          8           0        1.787242    0.003282   -0.184204
      2          7           0        0.624265   -0.739187    0.193069
      3          7           0       -1.728663   -0.614242   -0.065776
      4          7           0       -0.477517    1.325874    0.083465
      5          6           0       -0.595184   -0.035554    0.023160
      6          1           0        2.301487    0.044235    0.629806
      7          1           0        0.630705   -1.583507   -0.364470
      8          1           0       -1.653756   -1.625649   -0.018118
      9          1           0       -1.320486    1.821828   -0.150356
     10          1           0        0.388624    1.723041   -0.237498
 ---------------------------------------------------------------------

 SCF Done:  E(RHF) =  -279.261272307     A.U. after    2 cycles

 The electronic state is 1-A.
 Alpha  occ. eigenvalues --  -20.61222 -15.58214 -15.51585 -15.45797 -11.35384
 Alpha  occ. eigenvalues --   -1.51388  -1.28080  -1.16878  -1.12266  -0.85889
 Alpha  occ. eigenvalues --   -0.79047  -0.74047  -0.70309  -0.68657  -0.66133
 Alpha  occ. eigenvalues --   -0.58353  -0.52972  -0.48500  -0.46537  -0.40650
 Alpha virt. eigenvalues --    0.03105   0.04649   0.04848   0.06442   0.07030
 Alpha virt. eigenvalues --    0.11412   0.11761   0.13289   0.14328   0.14944
 Alpha virt. eigenvalues --    0.16009   0.16649   0.17838   0.18567   0.19904

 Mulliken charges:
               1
     1  O   -1.072970
     2  N    0.886380
     3  N    0.576781
     4  N    0.410921
     5  C   -1.819284
     6  H    0.329562
     7  H    0.203248
     8  H    0.135961
     9  H    0.138567
    10  H    0.210834
 Sum of Mulliken charges =  -0.00000

 Dipole moment (field-independent basis, Debye):
    X=              3.2076    Y=              0.2614    Z=             -0.2479  Tot=              3.2278

 Test job not archived.
 1\1\GINC-SE180\SP\RHF\Aug-CC-pVDZ\C1H5N3O1\OHZDE\05-Apr-2025\0\\#t hf
 aug-cc-pvdz iop(5/13=1,5/36=2,99/5=2) pseudo=read geom=check guess=(re
 ad,tcheck) scf=(maxcycle=1)\\title\\0,1\O,0,1.787242,0.003282,-0.18420
 4\N,0,0.624265,-0.739187,0.193069\N,0,-1.728663,-0.614242,-0.065776\N,
 0,-0.477517,1.325874,0.083465\C,0,-0.595184,-0.035554,0.02316\H,0,2.30
 1487,0.044235,0.629806\H,0,0.630705,-1.583507,-0.36447\H,0,-1.653756,-
 1.625649,-0.018118\H,0,-1.320486,1.821828,-0.150356\H,0,0.388624,1.723
 041,-0.237498\\Version=ES64L-G16RevC.01\State=1-A\HF=-279.2612723\RMSD

 Normal termination of Gaussian 16 at Sat Apr  5 22:26:42 2025.
