 Gaussian 16, Revision C.01,

 ----------------------------------------------------------------------
 #t hf aug-cc-pvdz symm=none int=(grid=ultrafine) guess=(read,tcheck) s
 table=(opt,rrhf)
 ----------------------------------------------------------------------
 -----
 title
 -----
 Symbolic Z-matrix:
 Charge =  0 Multiplicity = 1

 SCF Done:  E(RHF) =  -391.386119045     A.U. after   16 cycles
 Normal termination of Gaussian 16 at Sat Apr  5 22:27:00 2025.
 Gaussian 16:  ES64L-G16RevC.01  3-Jul-2019

 ----------------------------------------------------------------------
 #t hf aug-cc-pvdz iop(5/13=1,5/36=2,99/5=2) pseudo=read geom=check gue
 ss=(read,tcheck) scf=(maxcycle=1)
 ----------------------------------------------------------------------
 -----
 title
 -----
 Structure from the checkpoint file:  "1-hydroxy-1H-imidazole-2-carbonitrile.chk"
 Charge =  0 Multiplicity = 1

                         Standard orientation:
 ---------------------------------------------------------------------
 Center     Atomic      Atomic             Coordinates (Angstroms)
 Number     Number       Type             X           Y           Z
 ---------------------------------------------------------------------
      1          8           0       -0.027776    1.986911   -0.109462
      2          7           0        0.447489    0.699855    0.009592
      3          7           0        0.482610   -1.505368    0.002437
      4          7           0       -2.871050   -0.377420    0.004695
      5          6           0       -0.304395   -0.445800   -0.010178
      6          6           0        1.764045    0.350395    0.006510
      7          6           0        1.757719   -1.024291    0.007880
      8          6           0       -1.719987   -0.424794   -0.008428
      9          1           0       -0.325015    2.249084    0.774101
     10          1           0        2.543576    1.089605   -0.002664
     11          1           0        2.606018   -1.686508    0.012487
 ---------------------------------------------------------------------

 SCF Done:  E(RHF) =  -391.770554844     A.U. after    2 cycles

 The electronic state is 1-A.
 Alpha  occ. eigenvalues --  -20.66220 -15.65511 -15.53990 -15.53339 -11.35843
 Alpha  occ. eigenvalues --  -11.30833 -11.30454 -11.28574  -1.58172  -1.36733
 Alpha  occ. eigenvalues --   -1.25470  -1.19059  -1.08363  -0.91490  -0.89224
 Alpha  occ. eigenvalues --   -0.85488  -0.76427  -0.72613  -0.68205  -0.65207
 Alpha  occ. eigenvalues --   -0.63629  -0.62525  -0.58052  -0.54299  -0.52951
 Alpha  occ. eigenvalues --   -0.51496  -0.46800  -0.36905
 Alpha virt. eigenvalues --    0.02296   0.03563   0.04149   0.04935   0.07667
 Alpha virt. eigenvalues --    0.08689   0.09770   0.10077   0.10452   0.11842
 Alpha virt. eigenvalues --    0.12386   0.13154   0.13697   0.14174   0.14794

 Mulliken charges:
               1
     1  O   -1.344269
     2  N    1.501537
     3  N    0.935240
     4  N    1.206490
     5  C   -0.276538
     6  C    0.461099
     7  C   -0.319466
     8  C   -2.137759
     9  H    0.272702
    10  H   -0.174066
    11  H   -0.124970
 Sum of Mulliken charges =  -0.00000

 Dipole moment (field-independent basis, Debye):
    X=              4.7990    Y=              3.2503    Z=              1.3902  Tot=              5.9605

 Test job not archived.
 1\1\GINC-SE168\SP\RHF\Aug-CC-pVDZ\C4H3N3O1\OHZDE\05-Apr-2025\0\\#t hf
 aug-cc-pvdz iop(5/13=1,5/36=2,99/5=2) pseudo=read geom=check guess=(re
 ad,tcheck) scf=(maxcycle=1)\\title\\0,1\O,0,-0.027776,1.986911,-0.1094
 62\N,0,0.447489,0.699855,0.009592\N,0,0.48261,-1.505368,0.002437\N,0,-
 2.87105,-0.37742,0.004695\C,0,-0.304395,-0.4458,-0.010178\C,0,1.764045
 ,0.350395,0.00651\C,0,1.757719,-1.024291,0.00788\C,0,-1.719987,-0.4247
 94,-0.008428\H,0,-0.325015,2.249084,0.774101\H,0,2.543576,1.089605,-0.
 002664\H,0,2.606018,-1.686508,0.012487\\Version=ES64L-G16RevC.01\State

 Normal termination of Gaussian 16 at Sat Apr  5 22:27:07 2025.
