 Gaussian 16, Revision C.01,

 ----------------------------------------------------------------------
 #t hf aug-cc-pvdz symm=none int=(grid=ultrafine) guess=(read,tcheck) s
 table=(opt,rrhf)
 ----------------------------------------------------------------------
 -----
 title
 -----
 Symbolic Z-matrix:
 Charge =  0 Multiplicity = 1

 SCF Done:  E(RHF) =  -550.266324196     A.U. after   17 cycles
 Normal termination of Gaussian 16 at Sat Apr  5 22:29:00 2025.
 Gaussian 16:  ES64L-G16RevC.01  3-Jul-2019

 ----------------------------------------------------------------------
 #t hf aug-cc-pvdz iop(5/13=1,5/36=2,99/5=2) pseudo=read geom=check gue
 ss=(read,tcheck) scf=(maxcycle=1)
 ----------------------------------------------------------------------
 -----
 title
 -----
 Structure from the checkpoint file:  "1-hydroxy-3-4-dihydroquinolin-2-one.chk"
 Charge =  0 Multiplicity = 1

                         Standard orientation:
 ---------------------------------------------------------------------
 Center     Atomic      Atomic             Coordinates (Angstroms)
 Number     Number       Type             X           Y           Z
 ---------------------------------------------------------------------
      1          6           0        3.077395    0.196598   -0.111658
      2          6           0        2.666570   -1.128501   -0.161156
      3          6           0        2.129143    1.205688    0.034852
      4          6           0        1.317412   -1.453527   -0.078360
      5          6           0        0.776833    0.911753    0.133669
      6          6           0        0.382349   -0.432412    0.060180
      7          6           0       -2.008325    0.164976   -0.109593
      8          6           0       -0.286188    1.954073    0.363802
      9          6           0       -1.588515    1.593777   -0.354663
     10          7           0       -0.990799   -0.704017    0.145273
     11          8           0       -3.161157   -0.254176   -0.157240
     12          8           0       -1.361171   -2.042198    0.243835
     13          1           0        4.126728    0.446251   -0.182912
     14          1           0        3.395360   -1.919946   -0.269911
     15          1           0        2.445503    2.240189    0.082160
     16          1           0        0.987299   -2.479262   -0.120828
     17          1           0       -0.484242    2.028309    1.438806
     18          1           0        0.064034    2.934551    0.042685
     19          1           0       -1.473721    1.707651   -1.437370
     20          1           0       -2.413797    2.234873   -0.051575
     21          1           0       -2.332996   -1.968059    0.126836
 ---------------------------------------------------------------------

 SCF Done:  E(RHF) =  -550.822296493     A.U. after    2 cycles

 The electronic state is 1-A.
 Alpha  occ. eigenvalues --  -20.60344 -20.53150 -15.60079 -11.37773 -11.30183
 Alpha  occ. eigenvalues --  -11.26724 -11.26368 -11.25900 -11.25389 -11.25181
 Alpha  occ. eigenvalues --  -11.24791 -11.24528  -1.53922  -1.46272  -1.24669
 Alpha  occ. eigenvalues --   -1.15566  -1.09724  -1.03620  -1.02420  -0.91477
 Alpha  occ. eigenvalues --   -0.90065  -0.85413  -0.78744  -0.74828  -0.72039
 Alpha  occ. eigenvalues --   -0.70399  -0.67881  -0.66568  -0.64416  -0.63481
 Alpha  occ. eigenvalues --   -0.61944  -0.60423  -0.58225  -0.57346  -0.56895
 Alpha  occ. eigenvalues --   -0.52523  -0.52037  -0.51047  -0.50083  -0.44741
 Alpha  occ. eigenvalues --   -0.44015  -0.35532  -0.32474
 Alpha virt. eigenvalues --    0.03002   0.03233   0.03809   0.04172   0.04845
 Alpha virt. eigenvalues --    0.05291   0.06089   0.07705   0.07964   0.09432
 Alpha virt. eigenvalues --    0.09600   0.10473   0.10722   0.11330   0.12020

 Mulliken charges:
               1
     1  C   -0.016781
     2  C   -0.041441
     3  C    0.727534
     4  C    0.517829
     5  C    1.314413
     6  C   -1.697662
     7  C    0.986862
     8  C   -0.656273
     9  C   -0.321571
    10  N    1.975746
    11  O   -1.486803
    12  O   -1.434076
    13  H   -0.249119
    14  H   -0.235026
    15  H   -0.305551
    16  H   -0.274149
    17  H    0.232620
    18  H    0.122566
    19  H    0.257973
    20  H    0.204273
    21  H    0.378634
 Sum of Mulliken charges =   0.00000

 Dipole moment (field-independent basis, Debye):
    X=              2.3297    Y=              2.3005    Z=             -0.2501  Tot=              3.2836

 Test job not archived.
 1\1\GINC-SE169\SP\RHF\Aug-CC-pVDZ\C9H9N1O2\OHZDE\05-Apr-2025\0\\#t hf
 aug-cc-pvdz iop(5/13=1,5/36=2,99/5=2) pseudo=read geom=check guess=(re
 ad,tcheck) scf=(maxcycle=1)\\title\\0,1\C,0,3.077395,0.196598,-0.11165
 8\C,0,2.66657,-1.128501,-0.161156\C,0,2.129143,1.205688,0.034852\C,0,1
 .317412,-1.453527,-0.07836\C,0,0.776833,0.911753,0.133669\C,0,0.382349
 ,-0.432412,0.06018\C,0,-2.008325,0.164976,-0.109593\C,0,-0.286188,1.95
 4073,0.363802\C,0,-1.588515,1.593777,-0.354663\N,0,-0.990799,-0.704017
 ,0.145273\O,0,-3.161157,-0.254175,-0.15724\O,0,-1.361171,-2.042198,0.2

 Normal termination of Gaussian 16 at Sat Apr  5 22:29:37 2025.
