 Gaussian 16, Revision C.01,

 ----------------------------------------------------------------------
 #t hf aug-cc-pvdz symm=none int=(grid=ultrafine) guess=(read,tcheck) s
 table=(opt,rrhf)
 ----------------------------------------------------------------------
 -----
 title
 -----
 Symbolic Z-matrix:
 Charge =  0 Multiplicity = 1

 SCF Done:  E(RHF) =  -470.490269693     A.U. after   14 cycles
 Normal termination of Gaussian 16 at Sat Apr  5 22:25:14 2025.
 Gaussian 16:  ES64L-G16RevC.01  3-Jul-2019

 ----------------------------------------------------------------------
 #t hf aug-cc-pvdz iop(5/13=1,5/36=2,99/5=2) pseudo=read geom=check gue
 ss=(read,tcheck) scf=(maxcycle=1)
 ----------------------------------------------------------------------
 -----
 title
 -----
 Structure from the checkpoint file:  "1-isocyanato-1-1-2-ethanetriol.chk"
 Charge =  0 Multiplicity = 1

                         Standard orientation:
 ---------------------------------------------------------------------
 Center     Atomic      Atomic             Coordinates (Angstroms)
 Number     Number       Type             X           Y           Z
 ---------------------------------------------------------------------
      1          8           0       -0.307443   -0.870123   -1.164144
      2          8           0       -0.307406   -0.869880    1.164290
      3          8           0       -2.627780    0.100056    0.000029
      4          8           0        3.229423    0.053522    0.000030
      5          7           0        0.941114    0.662461   -0.000117
      6          6           0       -0.281383   -0.078177   -0.000011
      7          6           0       -1.450502    0.910137   -0.000090
      8          6           0        2.088626    0.280911   -0.000031
      9          1           0       -1.215065   -1.172916   -1.295790
     10          1           0       -1.215054   -1.172515    1.296121
     11          1           0       -3.410450    0.656719   -0.000033
     12          1           0       -1.390992    1.532924    0.893801
     13          1           0       -1.391037    1.532728   -0.894121
 ---------------------------------------------------------------------

 SCF Done:  E(RHF) =  -470.955536488     A.U. after    2 cycles

 The electronic state is 1-A.
 Alpha  occ. eigenvalues --  -20.60637 -20.59090 -20.57105 -20.57098 -15.52480
 Alpha  occ. eigenvalues --  -11.42028 -11.41661 -11.31609  -1.55366  -1.52850
 Alpha  occ. eigenvalues --   -1.48321  -1.44895  -1.28227  -1.04383  -0.91839
 Alpha  occ. eigenvalues --   -0.78064  -0.75367  -0.75027  -0.73391  -0.69262
 Alpha  occ. eigenvalues --   -0.67863  -0.65214  -0.64254  -0.59533  -0.57462
 Alpha  occ. eigenvalues --   -0.56675  -0.50592  -0.49332  -0.47910  -0.47355
 Alpha  occ. eigenvalues --   -0.46430
 Alpha virt. eigenvalues --    0.02339   0.04244   0.04508   0.04926   0.06747
 Alpha virt. eigenvalues --    0.08553   0.09794   0.10883   0.10988   0.11931
 Alpha virt. eigenvalues --    0.13269   0.14787   0.14909   0.15674   0.16705

 Mulliken charges:
               1
     1  O   -1.551511
     2  O   -1.551519
     3  O   -1.242378
     4  O   -0.912883
     5  N    0.953133
     6  C    1.565253
     7  C    0.916658
     8  C    0.449394
     9  H    0.370469
    10  H    0.370490
    11  H    0.350338
    12  H    0.141276
    13  H    0.141278
 Sum of Mulliken charges =  -0.00000

 Dipole moment (field-independent basis, Debye):
    X=             -4.7959    Y=              1.3181    Z=              0.0000  Tot=              4.9738

 Test job not archived.
 1\1\GINC-SE199\SP\RHF\Aug-CC-pVDZ\C3H5N1O4\OHZDE\05-Apr-2025\0\\#t hf
 aug-cc-pvdz iop(5/13=1,5/36=2,99/5=2) pseudo=read geom=check guess=(re
 ad,tcheck) scf=(maxcycle=1)\\title\\0,1\O,0,-0.307443,-0.870123,-1.164
 144\O,0,-0.307406,-0.86988,1.16429\O,0,-2.62778,0.100056,0.000029\O,0,
 3.229423,0.053522,0.00003\N,0,0.941114,0.662461,-0.000117\C,0,-0.28138
 3,-0.078177,-0.000011\C,0,-1.450502,0.910137,-0.00009\C,0,2.088626,0.2
 80911,-0.000031\H,0,-1.215065,-1.172916,-1.29579\H,0,-1.215054,-1.1725
 15,1.296121\H,0,-3.41045,0.656719,-0.000033\H,0,-1.390992,1.532924,0.8

 Normal termination of Gaussian 16 at Sat Apr  5 22:26:44 2025.
