 Gaussian 16, Revision C.01,

 ----------------------------------------------------------------------
 #t hf aug-cc-pvdz symm=none int=(grid=ultrafine) guess=(read,tcheck) s
 table=(opt,rrhf)
 ----------------------------------------------------------------------
 -----
 title
 -----
 Symbolic Z-matrix:
 Charge =  0 Multiplicity = 1

 SCF Done:  E(RHF) =  -470.489091831     A.U. after   14 cycles
 Normal termination of Gaussian 16 at Sat Apr  5 22:25:15 2025.
 Gaussian 16:  ES64L-G16RevC.01  3-Jul-2019

 ----------------------------------------------------------------------
 #t hf aug-cc-pvdz iop(5/13=1,5/36=2,99/5=2) pseudo=read geom=check gue
 ss=(read,tcheck) scf=(maxcycle=1)
 ----------------------------------------------------------------------
 -----
 title
 -----
 Structure from the checkpoint file:  "1-isocyanato-1-2-2-ethanetriol.chk"
 Charge =  0 Multiplicity = 1

                         Standard orientation:
 ---------------------------------------------------------------------
 Center     Atomic      Atomic             Coordinates (Angstroms)
 Number     Number       Type             X           Y           Z
 ---------------------------------------------------------------------
      1          8           0       -1.482146   -1.542331    0.230188
      2          8           0       -0.780161    0.943861    1.241654
      3          8           0       -0.288525    1.618368   -0.871586
      4          8           0        2.697279    0.071265    0.337982
      5          7           0        0.716696   -0.999336   -0.393493
      6          6           0       -0.677117   -0.691619   -0.564145
      7          6           0       -1.055012    0.730034   -0.123074
      8          6           0        1.681516   -0.387203   -0.003450
      9          1           0       -1.203672   -2.453161    0.090455
     10          1           0       -1.228041    0.256337    1.750743
     11          1           0       -0.405482    2.503660   -0.509998
     12          1           0       -0.919496   -0.810808   -1.623032
     13          1           0       -2.128076    0.862744   -0.315611
 ---------------------------------------------------------------------

 SCF Done:  E(RHF) =  -470.953583926     A.U. after    2 cycles

 The electronic state is 1-A.
 Alpha  occ. eigenvalues --  -20.59739 -20.58403 -20.57743 -20.57170 -15.52492
 Alpha  occ. eigenvalues --  -11.41456 -11.36575 -11.36467  -1.54433  -1.52577
 Alpha  occ. eigenvalues --   -1.49068  -1.44612  -1.27996  -1.03641  -0.91086
 Alpha  occ. eigenvalues --   -0.79833  -0.75477  -0.74323  -0.73366  -0.70800
 Alpha  occ. eigenvalues --   -0.67255  -0.65029  -0.63036  -0.59385  -0.57398
 Alpha  occ. eigenvalues --   -0.55592  -0.51295  -0.50159  -0.49437  -0.45691
 Alpha  occ. eigenvalues --   -0.44449
 Alpha virt. eigenvalues --    0.03295   0.04004   0.04612   0.05141   0.06127
 Alpha virt. eigenvalues --    0.08469   0.10269   0.10464   0.10814   0.12683
 Alpha virt. eigenvalues --    0.12938   0.14425   0.14924   0.15665   0.16381

 Mulliken charges:
               1
     1  O   -1.353684
     2  O   -1.259478
     3  O   -1.238053
     4  O   -0.809109
     5  N    0.776486
     6  C    0.622619
     7  C    1.886135
     8  C    0.210752
     9  H    0.311264
    10  H    0.335886
    11  H    0.263346
    12  H    0.116640
    13  H    0.137196
 Sum of Mulliken charges =  -0.00000

 Dipole moment (field-independent basis, Debye):
    X=             -2.8774    Y=             -0.5665    Z=             -0.3894  Tot=              2.9584

 Test job not archived.
 1\1\GINC-SE202\SP\RHF\Aug-CC-pVDZ\C3H5N1O4\OHZDE\05-Apr-2025\0\\#t hf
 aug-cc-pvdz iop(5/13=1,5/36=2,99/5=2) pseudo=read geom=check guess=(re
 ad,tcheck) scf=(maxcycle=1)\\title\\0,1\O,0,-1.482146,-1.542331,0.2301
 88\O,0,-0.780161,0.943861,1.241654\O,0,-0.288525,1.618368,-0.871586\O,
 0,2.697279,0.071265,0.337982\N,0,0.716696,-0.999336,-0.393493\C,0,-0.6
 77117,-0.691619,-0.564145\C,0,-1.055012,0.730034,-0.123074\C,0,1.68151
 6,-0.387203,-0.00345\H,0,-1.203672,-2.453161,0.090455\H,0,-1.228041,0.
 256337,1.750743\H,0,-0.405482,2.50366,-0.509998\H,0,-0.919496,-0.81080

 Normal termination of Gaussian 16 at Sat Apr  5 22:26:44 2025.
