 Gaussian 16, Revision C.01,

 ----------------------------------------------------------------------
 #t hf aug-cc-pvdz symm=none int=(grid=ultrafine) guess=(read,tcheck) s
 table=(opt,rrhf)
 ----------------------------------------------------------------------
 -----
 title
 -----
 Symbolic Z-matrix:
 Charge =  0 Multiplicity = 1

 SCF Done:  E(RHF) =  -735.128874387     A.U. after   16 cycles
 Normal termination of Gaussian 16 at Sat Apr  5 22:27:01 2025.
 Gaussian 16:  ES64L-G16RevC.01  3-Jul-2019

 ----------------------------------------------------------------------
 #t hf aug-cc-pvdz iop(5/13=1,5/36=2,99/5=2) pseudo=read geom=check gue
 ss=(read,tcheck) scf=(maxcycle=1)
 ----------------------------------------------------------------------
 -----
 title
 -----
 Structure from the checkpoint file:  "1-isocyanato-2-isothiocyanatoethane.chk"
 Charge =  0 Multiplicity = 1

                         Standard orientation:
 ---------------------------------------------------------------------
 Center     Atomic      Atomic             Coordinates (Angstroms)
 Number     Number       Type             X           Y           Z
 ---------------------------------------------------------------------
      1         16           0       -3.986894   -0.049708   -0.000087
      2          8           0        4.775654   -0.113191   -0.000147
      3          7           0       -1.218888   -0.119564    0.000118
      4          7           0        2.439468    0.263192    0.000069
      5          6           0        0.039669    0.560667    0.000057
      6          6           0        1.185169   -0.449890    0.000115
      7          6           0       -2.404278   -0.042911    0.000025
      8          6           0        3.612272    0.010529   -0.000044
      9          1           0        0.112187    1.198876   -0.883098
     10          1           0        0.112207    1.198992    0.883127
     11          1           0        1.109813   -1.086449   -0.883060
     12          1           0        1.109821   -1.086333    0.883374
 ---------------------------------------------------------------------

 SCF Done:  E(RHF) =  -735.519624052     A.U. after    2 cycles

 The electronic state is 1-A.
 Alpha  occ. eigenvalues --  -93.95151 -20.60697 -15.55849 -15.54282 -11.42358
 Alpha  occ. eigenvalues --  -11.39210 -11.32878 -11.32651  -8.23429  -6.21329
 Alpha  occ. eigenvalues --   -6.20897  -6.20866  -1.55229  -1.31520  -1.29709
 Alpha  occ. eigenvalues --   -1.11820  -1.06982  -0.97149  -0.79934  -0.75982
 Alpha  occ. eigenvalues --   -0.72652  -0.72553  -0.68785  -0.67390  -0.63749
 Alpha  occ. eigenvalues --   -0.61677  -0.61364  -0.56074  -0.54694  -0.48441
 Alpha  occ. eigenvalues --   -0.46103  -0.39086  -0.38158
 Alpha virt. eigenvalues --    0.02604   0.04256   0.04483   0.05292   0.06101
 Alpha virt. eigenvalues --    0.07370   0.08086   0.08855   0.09224   0.09729
 Alpha virt. eigenvalues --    0.09794   0.10500   0.11981   0.13185   0.13754

 Mulliken charges:
               1
     1  S    0.285492
     2  O   -0.917383
     3  N    0.836716
     4  N    0.869062
     5  C   -0.287113
     6  C   -0.226783
     7  C   -1.073702
     8  C    0.156483
     9  H    0.085289
    10  H    0.085306
    11  H    0.093307
    12  H    0.093327
 Sum of Mulliken charges =   0.00000

 Dipole moment (field-independent basis, Debye):
    X=              0.5123    Y=             -0.0663    Z=              0.0001  Tot=              0.5165

 Test job not archived.
 1\1\GINC-SE203\SP\RHF\Aug-CC-pVDZ\C4H4N2O1S1\OHZDE\05-Apr-2025\0\\#t h
 f aug-cc-pvdz iop(5/13=1,5/36=2,99/5=2) pseudo=read geom=check guess=(
 read,tcheck) scf=(maxcycle=1)\\title\\0,1\S,0,-3.986894,-0.049708,-0.0
 00087\O,0,4.775654,-0.113191,-0.000147\N,0,-1.218888,-0.119564,0.00011
 8\N,0,2.439468,0.263192,0.000069\C,0,0.039669,0.560667,0.000057\C,0,1.
 185169,-0.44989,0.000115\C,0,-2.404278,-0.042911,0.000025\C,0,3.612272
 ,0.010529,-0.000044\H,0,0.112187,1.198876,-0.883098\H,0,0.112207,1.198
 992,0.883127\H,0,1.109813,-1.086449,-0.88306\H,0,1.109821,-1.086333,0.

 Normal termination of Gaussian 16 at Sat Apr  5 22:27:06 2025.
