 Gaussian 16, Revision C.01,

 ----------------------------------------------------------------------
 #t hf aug-cc-pvdz symm=none int=(grid=ultrafine) guess=(read,tcheck) s
 table=(opt,rrhf)
 ----------------------------------------------------------------------
 -----
 title
 -----
 Symbolic Z-matrix:
 Charge =  0 Multiplicity = 1

 SCF Done:  E(RHF) =  -386.885232006     A.U. after   15 cycles
 Normal termination of Gaussian 16 at Sat Apr  5 22:29:52 2025.
 Gaussian 16:  ES64L-G16RevC.01  3-Jul-2019

 ----------------------------------------------------------------------
 #t hf aug-cc-pvdz iop(5/13=1,5/36=2,99/5=2) pseudo=read geom=check gue
 ss=(read,tcheck) scf=(maxcycle=1)
 ----------------------------------------------------------------------
 -----
 title
 -----
 Structure from the checkpoint file:  "1-isopropyl-4-methylbenzene.chk"
 Charge =  0 Multiplicity = 1

                         Standard orientation:
 ---------------------------------------------------------------------
 Center     Atomic      Atomic             Coordinates (Angstroms)
 Number     Number       Type             X           Y           Z
 ---------------------------------------------------------------------
      1          6           0        1.600593    1.193755    0.000030
      2          6           0        1.362015   -1.179084   -0.000623
      3          6           0        0.214960    1.329237    0.000273
      4          6           0       -0.018274   -1.043342   -0.000385
      5          6           0        2.201025   -0.061784   -0.000327
      6          6           0       -0.622831    0.217224    0.000106
      7          6           0        3.699139   -0.219727    0.000340
      8          6           0       -2.774529   -0.208537    1.265773
      9          6           0       -2.774681   -0.207345   -1.265700
     10          6           0       -2.132337    0.379225    0.000275
     11          1           0        2.220883    2.081689    0.000055
     12          1           0        1.797012   -2.171508   -0.001121
     13          1           0       -0.219605    2.321673    0.000499
     14          1           0       -0.631041   -1.935901   -0.000690
     15          1           0        4.039551   -0.780061   -0.872912
     16          1           0        4.199664    0.747760   -0.008810
     17          1           0        4.040365   -0.763522    0.883764
     18          1           0       -2.623372   -1.288055    1.321226
     19          1           0       -3.850322   -0.023817    1.272330
     20          1           0       -2.347796    0.233736    2.166427
     21          1           0       -2.348059    0.235781   -2.165987
     22          1           0       -3.850477   -0.022626   -1.271955
     23          1           0       -2.623518   -1.286809   -1.322188
     24          1           0       -2.333765    1.453939    0.000792
 ---------------------------------------------------------------------

 SCF Done:  E(RHF) =  -387.300116510     A.U. after    2 cycles

 The electronic state is 1-A.
 Alpha  occ. eigenvalues --  -11.23923 -11.23773 -11.23466 -11.23253 -11.23179
 Alpha  occ. eigenvalues --  -11.23172 -11.23109 -11.23036 -11.22150 -11.22148
 Alpha  occ. eigenvalues --   -1.15790  -1.08726  -1.02165  -1.00905  -0.93139
 Alpha  occ. eigenvalues --   -0.93048  -0.83894  -0.82374  -0.77435  -0.68433
 Alpha  occ. eigenvalues --   -0.65899  -0.63314  -0.60548  -0.59842  -0.58784
 Alpha  occ. eigenvalues --   -0.58143  -0.57162  -0.54556  -0.54272  -0.52861
 Alpha  occ. eigenvalues --   -0.49980  -0.49721  -0.47556  -0.47210  -0.46930
 Alpha  occ. eigenvalues --   -0.34001  -0.32201
 Alpha virt. eigenvalues --    0.03263   0.03423   0.03800   0.04182   0.04503
 Alpha virt. eigenvalues --    0.04936   0.05589   0.06214   0.07217   0.07338
 Alpha virt. eigenvalues --    0.07809   0.08312   0.09672   0.10613   0.10795

 Mulliken charges:
               1
     1  C    0.196560
     2  C    0.172931
     3  C   -0.038756
     4  C    0.091402
     5  C    0.446753
     6  C    1.490467
     7  C   -0.640451
     8  C   -0.183434
     9  C   -0.183622
    10  C   -1.434726
    11  H   -0.305191
    12  H   -0.314849
    13  H   -0.393156
    14  H   -0.380417
    15  H    0.237349
    16  H    0.048970
    17  H    0.241032
    18  H    0.206137
    19  H    0.113405
    20  H    0.135477
    21  H    0.135449
    22  H    0.113475
    23  H    0.206163
    24  H    0.039030
 Sum of Mulliken charges =  -0.00000

 Dipole moment (field-independent basis, Debye):
    X=              0.0211    Y=              0.0048    Z=              0.0009  Tot=              0.0217

 Test job not archived.
 1\1\GINC-SE232\SP\RHF\Aug-CC-pVDZ\C10H14\OHZDE\05-Apr-2025\0\\#t hf au
 g-cc-pvdz iop(5/13=1,5/36=2,99/5=2) pseudo=read geom=check guess=(read
 ,tcheck) scf=(maxcycle=1)\\title\\0,1\C,0,1.600593,1.193755,0.00003\C,
 0,1.362015,-1.179084,-0.000623\C,0,0.21496,1.329237,0.000273\C,0,-0.01
 8274,-1.043342,-0.000385\C,0,2.201025,-0.061784,-0.000327\C,0,-0.62283
 1,0.217224,0.000106\C,0,3.699139,-0.219727,0.00034\C,0,-2.774529,-0.20
 8537,1.265773\C,0,-2.774681,-0.207345,-1.2657\C,0,-2.132337,0.379225,0
 .000275\H,0,2.220883,2.081689,0.000055\H,0,1.797012,-2.171508,-0.00112

 Normal termination of Gaussian 16 at Sat Apr  5 22:30:41 2025.
