 Gaussian 16, Revision C.01,

 ----------------------------------------------------------------------
 #t hf aug-cc-pvdz symm=none int=(grid=ultrafine) guess=(read,tcheck) s
 table=(opt,rrhf)
 ----------------------------------------------------------------------
 -----
 title
 -----
 Symbolic Z-matrix:
 Charge =  0 Multiplicity = 1

 SCF Done:  E(RHF) =  -268.811718456     A.U. after   13 cycles
 Normal termination of Gaussian 16 at Sat Apr  5 22:27:00 2025.
 Gaussian 16:  ES64L-G16RevC.01  3-Jul-2019

 ----------------------------------------------------------------------
 #t hf aug-cc-pvdz iop(5/13=1,5/36=2,99/5=2) pseudo=read geom=check gue
 ss=(read,tcheck) scf=(maxcycle=1)
 ----------------------------------------------------------------------
 -----
 title
 -----
 Structure from the checkpoint file:  "1-methoxybut-2-yne.chk"
 Charge =  0 Multiplicity = 1

                         Standard orientation:
 ---------------------------------------------------------------------
 Center     Atomic      Atomic             Coordinates (Angstroms)
 Number     Number       Type             X           Y           Z
 ---------------------------------------------------------------------
      1          6           0       -1.854995    0.059212    0.000286
      2          6           0       -0.682965    0.318398    0.000121
      3          6           0       -3.272404   -0.269344   -0.000016
      4          6           0        2.908916   -0.231355   -0.000182
      5          6           0        0.731823    0.658966   -0.000000
      6          8           0        1.525377   -0.520062    0.000268
      7          1           0       -3.785213    0.196056   -0.843401
      8          1           0       -3.757047    0.068458    0.917494
      9          1           0       -3.416982   -1.348358   -0.076266
     10          1           0        3.201339    0.338694    0.890135
     11          1           0        3.200880    0.338009   -0.891089
     12          1           0        3.434078   -1.183772    0.000063
     13          1           0        0.968850    1.268307    0.883485
     14          1           0        0.968823    1.267833   -0.883814
 ---------------------------------------------------------------------

 SCF Done:  E(RHF) =  -269.095665683     A.U. after    2 cycles

 The electronic state is 1-A.
 Alpha  occ. eigenvalues --  -20.54908 -11.30926 -11.28350 -11.25556 -11.23405
 Alpha  occ. eigenvalues --  -11.22416  -1.46401  -1.06733  -1.00857  -0.94124
 Alpha  occ. eigenvalues --   -0.89372  -0.70077  -0.67562  -0.65817  -0.63760
 Alpha  occ. eigenvalues --   -0.59532  -0.59230  -0.57441  -0.56796  -0.49108
 Alpha  occ. eigenvalues --   -0.42944  -0.38560  -0.37520
 Alpha virt. eigenvalues --    0.03578   0.03718   0.04677   0.04800   0.06030
 Alpha virt. eigenvalues --    0.06261   0.06402   0.08674   0.09673   0.11367
 Alpha virt. eigenvalues --    0.13331   0.13934   0.14495   0.14908   0.15866

 Mulliken charges:
               1
     1  C   -0.107505
     2  C    0.080688
     3  C   -0.725536
     4  C    0.179556
     5  C    0.099167
     6  O   -1.181396
     7  H    0.271667
     8  H    0.270693
     9  H    0.279949
    10  H    0.194650
    11  H    0.194736
    12  H   -0.017868
    13  H    0.230762
    14  H    0.230438
 Sum of Mulliken charges =  -0.00000

 Dipole moment (field-independent basis, Debye):
    X=              0.1725    Y=              1.0984    Z=             -0.0027  Tot=              1.1118

 Test job not archived.
 1\1\GINC-SE053\SP\RHF\Aug-CC-pVDZ\C5H8O1\OHZDE\05-Apr-2025\0\\#t hf au
 g-cc-pvdz iop(5/13=1,5/36=2,99/5=2) pseudo=read geom=check guess=(read
 ,tcheck) scf=(maxcycle=1)\\title\\0,1\C,0,-1.854995,0.059212,0.000286\
 C,0,-0.682965,0.318398,0.000121\C,0,-3.272404,-0.269344,-0.000016\C,0,
 2.908916,-0.231355,-0.000182\C,0,0.731823,0.658966,0.\O,0,1.525377,-0.
 520062,0.000268\H,0,-3.785213,0.196056,-0.843401\H,0,-3.757047,0.06845
 8,0.917494\H,0,-3.416982,-1.348358,-0.076266\H,0,3.201339,0.338694,0.8
 90135\H,0,3.20088,0.338009,-0.891089\H,0,3.434078,-1.183772,0.000063\H

 Normal termination of Gaussian 16 at Sat Apr  5 22:27:05 2025.
