 Gaussian 16, Revision C.01,

 ----------------------------------------------------------------------
 #t hf aug-cc-pvdz symm=none int=(grid=ultrafine) guess=(read,tcheck) s
 table=(opt,rrhf)
 ----------------------------------------------------------------------
 -----
 title
 -----
 Symbolic Z-matrix:
 Charge =  0 Multiplicity = 1

 SCF Done:  E(RHF) =  -233.043309075     A.U. after   13 cycles
 Normal termination of Gaussian 16 at Sat Apr  5 22:25:11 2025.
 Gaussian 16:  ES64L-G16RevC.01  3-Jul-2019

 ----------------------------------------------------------------------
 #t hf aug-cc-pvdz iop(5/13=1,5/36=2,99/5=2) pseudo=read geom=check gue
 ss=(read,tcheck) scf=(maxcycle=1)
 ----------------------------------------------------------------------
 -----
 title
 -----
 Structure from the checkpoint file:  "1-methylcyclopentene.chk"
 Charge =  0 Multiplicity = 1

                         Standard orientation:
 ---------------------------------------------------------------------
 Center     Atomic      Atomic             Coordinates (Angstroms)
 Number     Number       Type             X           Y           Z
 ---------------------------------------------------------------------
      1          6           0       -0.756198    0.073934   -0.002520
      2          1           0       -0.343604    2.171486   -0.066463
      3          6           0        0.023743    1.153783   -0.022376
      4          1           0       -2.647844   -0.452806    0.859762
      5          1           0       -2.606606   -0.553100   -0.889410
      6          1           0       -2.679983    1.029419   -0.103430
      7          6           0       -2.248786    0.030965   -0.036722
      8          1           0       -0.043702   -1.617124    1.120770
      9          1           0       -0.250301   -1.964412   -0.582053
     10          6           0        0.069948   -1.188503    0.117983
     11          1           0        1.780513   -0.916913   -1.185058
     12          1           0        2.249118   -1.218041    0.478619
     13          6           0        1.515599   -0.711239   -0.147209
     14          1           0        1.879408    1.089875    1.069321
     15          1           0        2.101884    1.357766   -0.645531
     16          6           0        1.489213    0.820035    0.081422
 ---------------------------------------------------------------------

 SCF Done:  E(RHF) =  -233.300032620     A.U. after    2 cycles

 The electronic state is 1-A.
 Alpha  occ. eigenvalues --  -11.22858 -11.22761 -11.22528 -11.22411 -11.22313
 Alpha  occ. eigenvalues --  -11.21605  -1.13414  -1.00899  -0.95632  -0.90356
 Alpha  occ. eigenvalues --   -0.79082  -0.70887  -0.65191  -0.64158  -0.58198
 Alpha  occ. eigenvalues --   -0.57229  -0.54791  -0.52259  -0.49198  -0.48495
 Alpha  occ. eigenvalues --   -0.48273  -0.47499  -0.33622
 Alpha virt. eigenvalues --    0.03745   0.03969   0.04073   0.04150   0.05867
 Alpha virt. eigenvalues --    0.06059   0.06329   0.07119   0.08092   0.09249
 Alpha virt. eigenvalues --    0.11870   0.13142   0.13735   0.14313   0.14936

 Mulliken charges:
               1
     1  C    0.456886
     2  H   -0.186812
     3  C    0.103716
     4  H    0.223813
     5  H    0.221183
     6  H    0.104943
     7  C   -0.605291
     8  H    0.199815
     9  H    0.173227
    10  C   -0.740110
    11  H    0.118405
    12  H    0.125933
    13  C   -0.042020
    14  H    0.185992
    15  H    0.172659
    16  C   -0.512338
 Sum of Mulliken charges =  -0.00000

 Dipole moment (field-independent basis, Debye):
    X=             -0.1314    Y=             -0.2206    Z=              0.0755  Tot=              0.2676

 Test job not archived.
 1\1\GINC-SE046\SP\RHF\Aug-CC-pVDZ\C6H10\OHZDE\05-Apr-2025\0\\#t hf aug
 -cc-pvdz iop(5/13=1,5/36=2,99/5=2) pseudo=read geom=check guess=(read,
 tcheck) scf=(maxcycle=1)\\title\\0,1\C,0,-0.756198,0.073934,-0.00252\H
 ,0,-0.343604,2.171486,-0.066463\C,0,0.023743,1.153783,-0.022376\H,0,-2
 .647844,-0.452806,0.859762\H,0,-2.606606,-0.5531,-0.88941\H,0,-2.67998
 3,1.029419,-0.10343\C,0,-2.248786,0.030965,-0.036722\H,0,-0.043702,-1.
 617124,1.12077\H,0,-0.250301,-1.964412,-0.582053\C,0,0.069948,-1.18850
 3,0.117983\H,0,1.780513,-0.916913,-1.185058\H,0,2.249118,-1.218041,0.4

 Normal termination of Gaussian 16 at Sat Apr  5 22:26:44 2025.
