 Gaussian 16, Revision C.01,

 ----------------------------------------------------------------------
 #t hf aug-cc-pvdz symm=none int=(grid=ultrafine) guess=(read,tcheck) s
 table=(opt,rrhf)
 ----------------------------------------------------------------------
 -----
 title
 -----
 Symbolic Z-matrix:
 Charge =  0 Multiplicity = 1

 SCF Done:  E(RHF) =  -154.884777059     A.U. after   13 cycles
 Normal termination of Gaussian 16 at Sat Apr  5 22:24:48 2025.
 Gaussian 16:  ES64L-G16RevC.01  3-Jul-2019

 ----------------------------------------------------------------------
 #t hf aug-cc-pvdz iop(5/13=1,5/36=2,99/5=2) pseudo=read geom=check gue
 ss=(read,tcheck) scf=(maxcycle=1)
 ----------------------------------------------------------------------
 -----
 title
 -----
 Structure from the checkpoint file:  "1-methylcyclopropene.chk"
 Charge =  0 Multiplicity = 1

                         Standard orientation:
 ---------------------------------------------------------------------
 Center     Atomic      Atomic             Coordinates (Angstroms)
 Number     Number       Type             X           Y           Z
 ---------------------------------------------------------------------
      1          1           0       -2.225998   -0.334424    0.000000
      2          6           0       -1.153292   -0.397232    0.000000
      3          6           0        0.000000    0.177369    0.000000
      4          1           0        0.299783   -1.863186    0.910841
      5          1           0        0.299783   -1.863186   -0.910841
      6          6           0        0.031358   -1.328906    0.000000
      7          1           0        1.501617    1.388240    0.877063
      8          1           0        0.254351    2.293402    0.000000
      9          1           0        1.501617    1.388240   -0.877063
     10          6           0        0.850075    1.380588    0.000000
 ---------------------------------------------------------------------

 SCF Done:  E(RHF) =  -155.054540680     A.U. after    2 cycles

 The electronic state is 1-A'.
 Alpha  occ. eigenvalues --  -11.24961 -11.24625 -11.23828 -11.23734  -1.16179
 Alpha  occ. eigenvalues --   -0.99190  -0.81695  -0.73235  -0.64691  -0.61230
 Alpha  occ. eigenvalues --   -0.59550  -0.56603  -0.48138  -0.41516  -0.35137
 Alpha virt. eigenvalues --    0.03694   0.03944   0.04540   0.04722   0.06771
 Alpha virt. eigenvalues --    0.07475   0.09318   0.11419   0.11512   0.14329
 Alpha virt. eigenvalues --    0.14699   0.15809   0.15859   0.15975   0.17139

 Mulliken charges:
               1
     1  H   -0.312342
     2  C    0.287865
     3  C    0.218541
     4  H   -0.009015
     5  H   -0.009015
     6  C    0.024712
     7  H    0.217288
     8  H    0.180228
     9  H    0.217288
    10  C   -0.815549
 Sum of Mulliken charges =  -0.00000

 Dipole moment (field-independent basis, Debye):
    X=              0.1525    Y=              0.9028    Z=              0.0000  Tot=              0.9156

 Test job not archived.
 1\1\GINC-SE047\SP\RHF\Aug-CC-pVDZ\C4H6\OHZDE\05-Apr-2025\0\\#t hf aug-
 cc-pvdz iop(5/13=1,5/36=2,99/5=2) pseudo=read geom=check guess=(read,t
 check) scf=(maxcycle=1)\\title\\0,1\H,0,-2.225998,-0.334426,0.\C,0,-1.
 153291,-0.397233,0.\C,0,0.,0.177369,0.\H,0,0.299785,-1.863186,0.910841
 \H,0,0.299785,-1.863186,-0.910841\C,0,0.031359,-1.328906,0.\H,0,1.5016
 16,1.388241,0.877063\H,0,0.254349,2.293402,0.\H,0,1.501616,1.388241,-0
 .877063\C,0,0.850074,1.380589,0.\\Version=ES64L-G16RevC.01\State=1-A'\
 HF=-155.0545407\RMSD=1.990e-02\Dipole=0.0599826,0.3551945,0.\Quadrupol

 Normal termination of Gaussian 16 at Sat Apr  5 22:26:41 2025.
