 Gaussian 16, Revision C.01,

 ----------------------------------------------------------------------
 #t hf aug-cc-pvdz symm=none int=(grid=ultrafine) guess=(read,tcheck) s
 table=(opt,rrhf)
 ----------------------------------------------------------------------
 -----
 title
 -----
 Symbolic Z-matrix:
 Charge =  0 Multiplicity = 1

 SCF Done:  E(RHF) =  -593.882062742     A.U. after   12 cycles

 1\1\GINC-SE014\Stability\RHF\Aug-CC-pVDZ\C5H12S1\OHZDE\05-Apr-2025\0\\
 #t hf aug-cc-pvdz symm=none int=(grid=ultrafine) guess=(read,tcheck) s
 table=(opt,rrhf)\\title\\0,1\C,0,-2.90053,-2.06119,0.\C,0,-2.210491,-0
 .698205,0.\C,0,2.318193,2.117672,0.\S,0,1.820699,0.367544,0.\C,0,0.,0.
 560581,0.\C,0,-0.683216,-0.803015,0.\H,0,3.406072,2.138869,0.\H,0,-3.9
 86273,-1.956738,0.\H,0,-2.623158,-2.643745,0.880787\H,0,-2.623158,-2.6
 43745,-0.880787\H,0,-2.53334,-0.125846,0.874655\H,0,-2.53334,-0.125846
 ,-0.874655\H,0,1.955763,2.628694,0.891218\H,0,1.955763,2.628694,-0.891

 Normal termination of Gaussian 16 at Sat Apr  5 22:28:59 2025.
 Gaussian 16:  ES64L-G16RevC.01  3-Jul-2019

 ----------------------------------------------------------------------
 #t hf aug-cc-pvdz iop(5/13=1,5/36=2,99/5=2) pseudo=read geom=check gue
 ss=(read,tcheck) scf=(maxcycle=1)
 ----------------------------------------------------------------------
 -----
 title
 -----
 Structure from the checkpoint file:  "1-methylthiobutane.chk"
 Charge =  0 Multiplicity = 1

                         Standard orientation:
 ---------------------------------------------------------------------
 Center     Atomic      Atomic             Coordinates (Angstroms)
 Number     Number       Type             X           Y           Z
 ---------------------------------------------------------------------
      1          6           0       -2.900530   -2.061190    0.000000
      2          6           0       -2.210491   -0.698205    0.000000
      3          6           0        2.318193    2.117672    0.000000
      4         16           0        1.820699    0.367544    0.000000
      5          6           0        0.000000    0.560581    0.000000
      6          6           0       -0.683216   -0.803015    0.000000
      7          1           0        3.406072    2.138869    0.000000
      8          1           0       -3.986273   -1.956738    0.000000
      9          1           0       -2.623158   -2.643745    0.880787
     10          1           0       -2.623158   -2.643745   -0.880787
     11          1           0       -2.533340   -0.125846    0.874655
     12          1           0       -2.533340   -0.125846   -0.874655
     13          1           0        1.955763    2.628694    0.891218
     14          1           0        1.955763    2.628694   -0.891218
     15          1           0       -0.357222   -1.371028   -0.875684
     16          1           0       -0.357222   -1.371028    0.875684
     17          1           0       -0.289402    1.132982   -0.883547
     18          1           0       -0.289402    1.132982    0.883547
 ---------------------------------------------------------------------

 SCF Done:  E(RHF) =  -594.165186475     A.U. after    2 cycles

 The electronic state is 1-A'.
 Alpha  occ. eigenvalues --  -93.93341 -11.26048 -11.25973 -11.23276 -11.23133
 Alpha  occ. eigenvalues --  -11.22426  -8.21419  -6.19248  -6.19095  -6.18870
 Alpha  occ. eigenvalues --   -1.10406  -1.05298  -0.98161  -0.89151  -0.81705
 Alpha  occ. eigenvalues --   -0.79875  -0.66081  -0.60711  -0.60478  -0.59766
 Alpha  occ. eigenvalues --   -0.57935  -0.55424  -0.53925  -0.51656  -0.48858
 Alpha  occ. eigenvalues --   -0.47685  -0.46408  -0.43277  -0.33976
 Alpha virt. eigenvalues --    0.03441   0.03635   0.03948   0.04364   0.05273
 Alpha virt. eigenvalues --    0.06030   0.06333   0.07431   0.08154   0.08783
 Alpha virt. eigenvalues --    0.09058   0.11030   0.11476   0.11662   0.13568

 Mulliken charges:
               1
     1  C   -0.376844
     2  C   -0.279502
     3  C   -0.600329
     4  S    0.467153
     5  C   -0.614246
     6  C   -0.281537
     7  H    0.123242
     8  H    0.113403
     9  H    0.155195
    10  H    0.155195
    11  H    0.113709
    12  H    0.113709
    13  H    0.173540
    14  H    0.173540
    15  H    0.139751
    16  H    0.139751
    17  H    0.142135
    18  H    0.142135
 Sum of Mulliken charges =  -0.00000

 Dipole moment (field-independent basis, Debye):
    X=             -1.2602    Y=              1.3588    Z=              0.0000  Tot=              1.8532

 Test job not archived.
 1\1\GINC-SE014\SP\RHF\Aug-CC-pVDZ\C5H12S1\OHZDE\05-Apr-2025\0\\#t hf a
 ug-cc-pvdz iop(5/13=1,5/36=2,99/5=2) pseudo=read geom=check guess=(rea
 d,tcheck) scf=(maxcycle=1)\\title\\0,1\C,0,-2.90053,-2.06119,0.\C,0,-2
 .210491,-0.698205,0.\C,0,2.318193,2.117672,0.\S,0,1.820699,0.367544,0.
 \C,0,0.,0.560581,0.\C,0,-0.683216,-0.803015,0.\H,0,3.406072,2.138869,0
 .\H,0,-3.986273,-1.956738,0.\H,0,-2.623158,-2.643745,0.880787\H,0,-2.6
 23158,-2.643745,-0.880787\H,0,-2.53334,-0.125846,0.874655\H,0,-2.53334
 ,-0.125846,-0.874655\H,0,1.955763,2.628694,0.891218\H,0,1.955763,2.628

 Normal termination of Gaussian 16 at Sat Apr  5 22:29:26 2025.
