 Gaussian 16, Revision C.01,

 ----------------------------------------------------------------------
 #t hf aug-cc-pvdz symm=none int=(grid=ultrafine) guess=(read,tcheck) s
 table=(opt,rrhf)
 ----------------------------------------------------------------------
 -----
 title
 -----
 Symbolic Z-matrix:
 Charge =  0 Multiplicity = 1

 SCF Done:  E(RHF) =  -422.433605195     A.U. after   16 cycles
 Normal termination of Gaussian 16 at Sat Apr  5 22:29:13 2025.
 Gaussian 16:  ES64L-G16RevC.01  3-Jul-2019

 ----------------------------------------------------------------------
 #t hf aug-cc-pvdz iop(5/13=1,5/36=2,99/5=2) pseudo=read geom=check gue
 ss=(read,tcheck) scf=(maxcycle=1)
 ----------------------------------------------------------------------
 -----
 title
 -----
 Structure from the checkpoint file:  "1-methylnaphthalene.chk"
 Charge =  0 Multiplicity = 1

                         Standard orientation:
 ---------------------------------------------------------------------
 Center     Atomic      Atomic             Coordinates (Angstroms)
 Number     Number       Type             X           Y           Z
 ---------------------------------------------------------------------
      1          6           0       -2.758791   -0.172613    0.000000
      2          6           0       -2.313124    1.163831    0.000000
      3          6           0        1.829385   -1.714991    0.000000
      4          6           0       -1.848500   -1.196479    0.000000
      5          6           0       -0.971197    1.448460    0.000000
      6          6           0        0.490239   -1.990790    0.000000
      7          6           0        2.279504   -0.378589    0.000000
      8          6           0       -0.456727   -0.938145    0.000000
      9          6           0        0.000000    0.416294    0.000000
     10          6           0        1.404403    0.681450    0.000000
     11          6           0        1.923414    2.094614    0.000000
     12          1           0       -3.819371   -0.385995    0.000000
     13          1           0       -3.035350    1.969462    0.000000
     14          1           0        2.552743   -2.519608    0.000000
     15          1           0       -2.183644   -2.226204    0.000000
     16          1           0       -0.648972    2.479854    0.000000
     17          1           0        0.135900   -3.013788    0.000000
     18          1           0        3.344718   -0.184203    0.000000
     19          1           0        1.585123    2.649219    0.878154
     20          1           0        3.012097    2.103796    0.000000
     21          1           0        1.585123    2.649219   -0.878154
 ---------------------------------------------------------------------

 SCF Done:  E(RHF) =  -422.871016423     A.U. after    2 cycles

 The electronic state is 1-A'.
 Alpha  occ. eigenvalues --  -11.24887 -11.24673 -11.24525 -11.24222 -11.24178
 Alpha  occ. eigenvalues --  -11.24104 -11.24068 -11.24025 -11.23786 -11.23574
 Alpha  occ. eigenvalues --  -11.23483  -1.18029  -1.11461  -1.06704  -1.00906
 Alpha  occ. eigenvalues --   -1.00121  -0.93700  -0.85668  -0.84788  -0.79887
 Alpha  occ. eigenvalues --   -0.71649  -0.70686  -0.69170  -0.63533  -0.61894
 Alpha  occ. eigenvalues --   -0.60161  -0.58741  -0.58736  -0.57300  -0.54670
 Alpha  occ. eigenvalues --   -0.53331  -0.52983  -0.49553  -0.48225  -0.45417
 Alpha  occ. eigenvalues --   -0.38608  -0.32815  -0.29404
 Alpha virt. eigenvalues --    0.03235   0.03334   0.03627   0.04378   0.04555
 Alpha virt. eigenvalues --    0.05265   0.06848   0.07071   0.07303   0.08139
 Alpha virt. eigenvalues --    0.09451   0.09515   0.10596   0.10700   0.12074

 Mulliken charges:
               1
     1  C   -0.093095
     2  C   -0.303590
     3  C   -0.245919
     4  C    0.359501
     5  C    0.083399
     6  C    0.259386
     7  C    0.290356
     8  C    0.945093
     9  C    0.699641
    10  C    0.242557
    11  C   -0.750406
    12  H   -0.245462
    13  H   -0.251231
    14  H   -0.253972
    15  H   -0.306231
    16  H   -0.416135
    17  H   -0.297614
    18  H   -0.300474
    19  H    0.320707
    20  H   -0.057218
    21  H    0.320707
 Sum of Mulliken charges =  -0.00000

 Dipole moment (field-independent basis, Debye):
    X=              0.1481    Y=              0.3288    Z=             -0.0000  Tot=              0.3606

 Test job not archived.
 1\1\GINC-SE107\SP\RHF\Aug-CC-pVDZ\C11H10\OHZDE\05-Apr-2025\0\\#t hf au
 g-cc-pvdz iop(5/13=1,5/36=2,99/5=2) pseudo=read geom=check guess=(read
 ,tcheck) scf=(maxcycle=1)\\title\\0,1\C,0,-2.758791,-0.172612,0.\C,0,-
 2.313124,1.163832,0.\C,0,1.829384,-1.714992,0.\C,0,-1.848501,-1.196478
 ,0.\C,0,-0.971197,1.44846,0.\C,0,0.490238,-1.99079,0.\C,0,2.279504,-0.
 37859,0.\C,0,-0.456728,-0.938145,0.\C,0,0.,0.416294,0.\C,0,1.404403,0.
 681449,0.\C,0,1.923415,2.094613,0.\H,0,-3.819371,-0.385993,0.\H,0,-3.0
 35349,1.969463,0.\H,0,2.552742,-2.519609,0.\H,0,-2.183645,-2.226203,0.

 Normal termination of Gaussian 16 at Sat Apr  5 22:29:35 2025.
