 Gaussian 16, Revision C.01,

 ----------------------------------------------------------------------
 #t hf aug-cc-pvdz symm=none int=(grid=ultrafine) guess=(read,tcheck) s
 table=(opt,rrhf)
 ----------------------------------------------------------------------
 -----
 title
 -----
 Symbolic Z-matrix:
 Charge =  0 Multiplicity = 1

 SCF Done:  E(RHF) =  -893.846914192     A.U. after   16 cycles
 Normal termination of Gaussian 16 at Sat Apr  5 22:28:31 2025.
 Gaussian 16:  ES64L-G16RevC.01  3-Jul-2019

 ----------------------------------------------------------------------
 #t hf aug-cc-pvdz iop(5/13=1,5/36=2,99/5=2) pseudo=read geom=check gue
 ss=(read,tcheck) scf=(maxcycle=1)
 ----------------------------------------------------------------------
 -----
 title
 -----
 Structure from the checkpoint file:  "1-methyl-4-vinylsulfonylbenzene.chk"
 Charge =  0 Multiplicity = 1

                         Standard orientation:
 ---------------------------------------------------------------------
 Center     Atomic      Atomic             Coordinates (Angstroms)
 Number     Number       Type             X           Y           Z
 ---------------------------------------------------------------------
      1          6           0       -3.078529   -1.367977    1.210348
      2          6           0       -2.305286   -0.296520    1.197245
      3         16           0       -1.653876    0.347458   -0.339227
      4          8           0       -2.103694   -0.521011   -1.422004
      5          8           0       -1.949843    1.776690   -0.353711
      6          6           0        0.119813    0.156743   -0.166060
      7          6           0        0.875233    1.211605    0.329411
      8          6           0        2.250170    1.058628    0.455227
      9          6           0        2.880484   -0.132464    0.093069
     10          6           0        4.367008   -0.302232    0.252868
     11          6           0        2.095867   -1.173407   -0.412746
     12          6           0        0.722573   -1.038461   -0.544117
     13          1           0       -3.301679   -1.900515    0.295654
     14          1           0       -3.514621   -1.728332    2.132549
     15          1           0       -2.049479    0.296576    2.064631
     16          1           0        0.392477    2.143116    0.587644
     17          1           0        2.842356    1.882699    0.831571
     18          1           0        4.794103   -0.860951   -0.579957
     19          1           0        4.597393   -0.855973    1.166365
     20          1           0        4.873811    0.659644    0.314839
     21          1           0        2.568975   -2.098441   -0.716657
     22          1           0        0.122971   -1.838083   -0.954756
 ---------------------------------------------------------------------

 SCF Done:  E(RHF) =  -894.415671253     A.U. after    2 cycles

 The electronic state is 1-A.
 Alpha  occ. eigenvalues --  -94.18953 -20.53021 -20.52821 -11.28543 -11.27957
 Alpha  occ. eigenvalues --  -11.27863 -11.27472 -11.27083 -11.27059 -11.25724
 Alpha  occ. eigenvalues --  -11.25697 -11.25089  -8.44173  -6.42298  -6.42090
 Alpha  occ. eigenvalues --   -6.42012  -1.54159  -1.42503  -1.18832  -1.10739
 Alpha  occ. eigenvalues --   -1.07959  -1.04195  -0.98783  -0.92403  -0.86489
 Alpha  occ. eigenvalues --   -0.83783  -0.79313  -0.73953  -0.69951  -0.68705
 Alpha  occ. eigenvalues --   -0.66830  -0.66218  -0.63837  -0.62449  -0.62166
 Alpha  occ. eigenvalues --   -0.60169  -0.57970  -0.56837  -0.54316  -0.52838
 Alpha  occ. eigenvalues --   -0.52197  -0.48733  -0.48473  -0.45849  -0.43742
 Alpha  occ. eigenvalues --   -0.42600  -0.36804  -0.36273
 Alpha virt. eigenvalues --    0.02867   0.03023   0.03250   0.04162   0.04293
 Alpha virt. eigenvalues --    0.04871   0.06305   0.06561   0.06885   0.07850
 Alpha virt. eigenvalues --    0.08185   0.08911   0.09616   0.10253   0.10693

 Mulliken charges:
               1
     1  C   -0.025309
     2  C   -0.115506
     3  S    4.509670
     4  O   -1.742637
     5  O   -1.719866
     6  C    0.472117
     7  C   -0.754463
     8  C    0.805848
     9  C   -0.078413
    10  C   -0.629588
    11  C    0.790393
    12  C   -0.543364
    13  H   -0.048841
    14  H   -0.039547
    15  H   -0.185744
    16  H   -0.304010
    17  H   -0.302993
    18  H    0.157768
    19  H    0.277441
    20  H    0.083932
    21  H   -0.301865
    22  H   -0.305022
 Sum of Mulliken charges =  -0.00000

 Dipole moment (field-independent basis, Debye):
    X=              3.7198    Y=             -2.6012    Z=              3.8094  Tot=              5.9257

 Test job not archived.
 1\1\GINC-SE223\SP\RHF\Aug-CC-pVDZ\C9H10O2S1\OHZDE\05-Apr-2025\0\\#t hf
  aug-cc-pvdz iop(5/13=1,5/36=2,99/5=2) pseudo=read geom=check guess=(r
 ead,tcheck) scf=(maxcycle=1)\\title\\0,1\C,0,-3.078529,-1.367977,1.210
 348\C,0,-2.305286,-0.29652,1.197245\S,0,-1.653876,0.347458,-0.339227\O
 ,0,-2.103694,-0.521011,-1.422004\O,0,-1.949843,1.77669,-0.353711\C,0,0
 .119813,0.156743,-0.16606\C,0,0.875233,1.211605,0.329411\C,0,2.25017,1
 .058628,0.455227\C,0,2.880484,-0.132464,0.093069\C,0,4.367008,-0.30223
 2,0.252868\C,0,2.095867,-1.173407,-0.412746\C,0,0.722573,-1.038461,-0.

 Normal termination of Gaussian 16 at Sat Apr  5 22:29:15 2025.
