 Gaussian 16, Revision C.01,

 ----------------------------------------------------------------------
 #t hf aug-cc-pvdz symm=none int=(grid=ultrafine) guess=(read,tcheck) s
 table=(opt,rrhf)
 ----------------------------------------------------------------------
 -----
 title
 -----
 Symbolic Z-matrix:
 Charge =  0 Multiplicity = 1

 SCF Done:  E(RHF) =  -473.274372617     A.U. after   16 cycles
 Normal termination of Gaussian 16 at Sat Apr  5 22:26:08 2025.
 Gaussian 16:  ES64L-G16RevC.01  3-Jul-2019

 ----------------------------------------------------------------------
 #t hf aug-cc-pvdz iop(5/13=1,5/36=2,99/5=2) pseudo=read geom=check gue
 ss=(read,tcheck) scf=(maxcycle=1)
 ----------------------------------------------------------------------
 -----
 title
 -----
 Structure from the checkpoint file:  "1-methyl-3-nitro-benzene.chk"
 Charge =  0 Multiplicity = 1

                         Standard orientation:
 ---------------------------------------------------------------------
 Center     Atomic      Atomic             Coordinates (Angstroms)
 Number     Number       Type             X           Y           Z
 ---------------------------------------------------------------------
      1          6           0       -2.057620   -0.570893    0.000000
      2          6           0       -1.349473   -1.765667    0.000000
      3          6           0       -1.385262    0.643953    0.000000
      4          6           0        0.722393   -0.566463    0.000000
      5          6           0        0.048829   -1.783697    0.000000
      6          6           0       -0.000000    0.619586    0.000000
      7          6           0        0.801538   -3.087682    0.000000
      8          7           0        0.736402    1.899710    0.000000
      9          8           0        0.081540    2.932000    0.000000
     10          8           0        1.958229    1.853894    0.000000
     11          1           0       -3.138638   -0.583862    0.000000
     12          1           0       -1.890749   -2.703493    0.000000
     13          1           0       -1.907623    1.587184    0.000000
     14          1           0        1.800839   -0.524533    0.000000
     15          1           0        1.877726   -2.925062    0.000000
     16          1           0        0.551524   -3.685088    0.878569
     17          1           0        0.551524   -3.685088   -0.878569
 ---------------------------------------------------------------------

 SCF Done:  E(RHF) =  -473.747273168     A.U. after    2 cycles

 The electronic state is 1-A'.
 Alpha  occ. eigenvalues --  -20.58743 -20.58737 -15.79045 -11.31283 -11.27589
 Alpha  occ. eigenvalues --  -11.27559 -11.27359 -11.27207 -11.26949 -11.25344
 Alpha  occ. eigenvalues --   -1.66894  -1.50470  -1.20589  -1.11546  -1.07095
 Alpha  occ. eigenvalues --   -0.98648  -0.96525  -0.86079  -0.83977  -0.78575
 Alpha  occ. eigenvalues --   -0.74750  -0.74403  -0.71726  -0.68413  -0.64751
 Alpha  occ. eigenvalues --   -0.61605  -0.60515  -0.57561  -0.55283  -0.53281
 Alpha  occ. eigenvalues --   -0.53194  -0.49598  -0.48459  -0.44910  -0.38305
 Alpha  occ. eigenvalues --   -0.36625
 Alpha virt. eigenvalues --    0.02427   0.02703   0.03029   0.03917   0.04483
 Alpha virt. eigenvalues --    0.05715   0.05858   0.07834   0.09002   0.10029
 Alpha virt. eigenvalues --    0.11089   0.11578   0.12018   0.12561   0.13227

 Mulliken charges:
               1
     1  C    0.185104
     2  C    0.492025
     3  C   -0.009563
     4  C    0.264093
     5  C    0.607449
     6  C   -0.468859
     7  C   -0.662929
     8  N    3.117834
     9  O   -1.546913
    10  O   -1.506159
    11  H   -0.234047
    12  H   -0.305520
    13  H   -0.195614
    14  H   -0.257912
    15  H    0.035652
    16  H    0.242679
    17  H    0.242679
 Sum of Mulliken charges =  -0.00000

 Dipole moment (field-independent basis, Debye):
    X=             -2.2250    Y=             -4.7647    Z=             -0.0000  Tot=              5.2586

 Test job not archived.
 1\1\GINC-SE155\SP\RHF\Aug-CC-pVDZ\C7H7N1O2\OHZDE\05-Apr-2025\0\\#t hf
 aug-cc-pvdz iop(5/13=1,5/36=2,99/5=2) pseudo=read geom=check guess=(re
 ad,tcheck) scf=(maxcycle=1)\\title\\0,1\C,0,-2.05762,-0.570893,0.\C,0,
 -1.349473,-1.765667,0.\C,0,-1.385262,0.643953,0.\C,0,0.722393,-0.56646
 3,0.\C,0,0.048829,-1.783697,0.\C,0,0.,0.619586,0.\C,0,0.801538,-3.0876
 82,0.\N,0,0.736402,1.89971,0.\O,0,0.08154,2.932,0.\O,0,1.958229,1.8538
 94,0.\H,0,-3.138638,-0.583862,0.\H,0,-1.890749,-2.703493,0.\H,0,-1.907
 623,1.587184,0.\H,0,1.800839,-0.524533,0.\H,0,1.877726,-2.925062,0.\H,

 Normal termination of Gaussian 16 at Sat Apr  5 22:26:47 2025.
