 Gaussian 16, Revision C.01,

 ----------------------------------------------------------------------
 #t hf aug-cc-pvdz symm=none int=(grid=ultrafine) guess=(read,tcheck) s
 table=(opt,rrhf)
 ----------------------------------------------------------------------
 -----
 title
 -----
 Symbolic Z-matrix:
 Charge =  0 Multiplicity = 1

 SCF Done:  E(RHF) =  -247.011640664     A.U. after   13 cycles
 Normal termination of Gaussian 16 at Sat Apr  5 22:26:49 2025.
 Gaussian 16:  ES64L-G16RevC.01  3-Jul-2019

 ----------------------------------------------------------------------
 #t hf aug-cc-pvdz iop(5/13=1,5/36=2,99/5=2) pseudo=read geom=check gue
 ss=(read,tcheck) scf=(maxcycle=1)
 ----------------------------------------------------------------------
 -----
 title
 -----
 Structure from the checkpoint file:  "1-methoxyethanimine.chk"
 Charge =  0 Multiplicity = 1

                         Standard orientation:
 ---------------------------------------------------------------------
 Center     Atomic      Atomic             Coordinates (Angstroms)
 Number     Number       Type             X           Y           Z
 ---------------------------------------------------------------------
      1          6           0        0.000000    0.513378    0.000000
      2          6           0        1.126362    1.500699    0.000000
      3          6           0       -0.434875   -1.838472    0.000000
      4          7           0       -1.214300    0.871560    0.000000
      5          8           0        0.493529   -0.759900    0.000000
      6          1           0        1.755164    1.352520    0.878602
      7          1           0        1.755164    1.352520   -0.878602
      8          1           0        0.727889    2.509956    0.000000
      9          1           0        0.161301   -2.746313    0.000000
     10          1           0       -1.064794   -1.818499   -0.892116
     11          1           0       -1.064794   -1.818499    0.892116
     12          1           0       -1.866987    0.092961    0.000000
 ---------------------------------------------------------------------

 SCF Done:  E(RHF) =  -247.270147654     A.U. after    2 cycles

 The electronic state is 1-A'.
 Alpha  occ. eigenvalues --  -20.58320 -15.47614 -11.34474 -11.30293 -11.23650
 Alpha  occ. eigenvalues --   -1.51035  -1.20264  -1.02478  -0.94814  -0.78209
 Alpha  occ. eigenvalues --   -0.74461  -0.67242  -0.66942  -0.59125  -0.58245
 Alpha  occ. eigenvalues --   -0.55502  -0.52970  -0.50762  -0.46682  -0.42813
 Alpha virt. eigenvalues --    0.03396   0.04524   0.04722   0.05193   0.06448
 Alpha virt. eigenvalues --    0.06720   0.07788   0.09201   0.12907   0.13999
 Alpha virt. eigenvalues --    0.14627   0.15333   0.15974   0.16051   0.16634

 Mulliken charges:
               1
     1  C   -0.041363
     2  C   -0.389534
     3  C    0.234029
     4  N    0.574131
     5  O   -1.370682
     6  H    0.220161
     7  H    0.220161
     8  H    0.182061
     9  H   -0.061817
    10  H    0.163712
    11  H    0.163712
    12  H    0.105429
 Sum of Mulliken charges =   0.00000

 Dipole moment (field-independent basis, Debye):
    X=              0.8723    Y=             -2.3490    Z=              0.0000  Tot=              2.5058

 Test job not archived.
 1\1\GINC-SE175\SP\RHF\Aug-CC-pVDZ\C3H7N1O1\OHZDE\05-Apr-2025\0\\#t hf
 aug-cc-pvdz iop(5/13=1,5/36=2,99/5=2) pseudo=read geom=check guess=(re
 ad,tcheck) scf=(maxcycle=1)\\title\\0,1\C,0,0.,0.513378,0.\C,0,1.12636
 2,1.500699,0.\C,0,-0.434875,-1.838472,0.\N,0,-1.2143,0.87156,0.\O,0,0.
 493529,-0.7599,0.\H,0,1.755164,1.35252,0.878602\H,0,1.755164,1.35252,-
 0.878602\H,0,0.727889,2.509956,0.\H,0,0.161301,-2.746313,0.\H,0,-1.064
 794,-1.818499,-0.892116\H,0,-1.064794,-1.818499,0.892116\H,0,-1.866987
 ,0.092961,0.\\Version=ES64L-G16RevC.01\State=1-A'\HF=-247.2701477\RMSD

 Normal termination of Gaussian 16 at Sat Apr  5 22:26:53 2025.
