 Gaussian 16, Revision C.01,

 ----------------------------------------------------------------------
 #t hf aug-cc-pvdz symm=none int=(grid=ultrafine) guess=(read,tcheck) s
 table=(opt,rrhf)
 ----------------------------------------------------------------------
 -----
 title
 -----
 Symbolic Z-matrix:
 Charge =  0 Multiplicity = 1

 SCF Done:  E(RHF) =  -305.241423964     A.U. after   12 cycles

 1\1\GINC-SE108\Stability\RHF\Aug-CC-pVDZ\C5H12N2\OHZDE\05-Apr-2025\0\\
 #t hf aug-cc-pvdz symm=none int=(grid=ultrafine) guess=(read,tcheck) s
 table=(opt,rrhf)\\title\\0,1\C,0,-0.10432,-1.183383,1.206556\C,0,-0.10
 432,-1.183383,-1.206556\C,0,-0.10432,0.339172,1.204675\C,0,-0.10432,0.
 339172,-1.204675\C,0,0.628275,2.299249,0.\N,0,-0.76993,-1.666118,0.\N,
 0,0.541509,0.851074,0.\H,0,0.937429,-1.532481,1.281318\H,0,-0.646488,-
 1.547447,2.080373\H,0,-0.646488,-1.547447,-2.080373\H,0,0.937429,-1.53
 2481,-1.281318\H,0,-1.145389,0.697953,1.285374\H,0,0.442711,0.708091,2

 Normal termination of Gaussian 16 at Sat Apr  5 22:28:04 2025.
 Gaussian 16:  ES64L-G16RevC.01  3-Jul-2019

 ----------------------------------------------------------------------
 #t hf aug-cc-pvdz iop(5/13=1,5/36=2,99/5=2) pseudo=read geom=check gue
 ss=(read,tcheck) scf=(maxcycle=1)
 ----------------------------------------------------------------------
 -----
 title
 -----
 Structure from the checkpoint file:  "1-methylpiperazine.chk"
 Charge =  0 Multiplicity = 1

                         Standard orientation:
 ---------------------------------------------------------------------
 Center     Atomic      Atomic             Coordinates (Angstroms)
 Number     Number       Type             X           Y           Z
 ---------------------------------------------------------------------
      1          6           0       -0.104320   -1.183383    1.206556
      2          6           0       -0.104320   -1.183383   -1.206556
      3          6           0       -0.104320    0.339172    1.204675
      4          6           0       -0.104320    0.339172   -1.204675
      5          6           0        0.628275    2.299249   -0.000000
      6          7           0       -0.769930   -1.666118    0.000000
      7          7           0        0.541509    0.851074   -0.000000
      8          1           0        0.937429   -1.532481    1.281318
      9          1           0       -0.646488   -1.547447    2.080373
     10          1           0       -0.646488   -1.547447   -2.080373
     11          1           0        0.937429   -1.532481   -1.281318
     12          1           0       -1.145389    0.697953    1.285374
     13          1           0        0.442711    0.708091    2.074318
     14          1           0        0.442711    0.708091   -2.074318
     15          1           0       -1.145389    0.697953   -1.285374
     16          1           0        1.171992    2.637024    0.883042
     17          1           0       -0.360624    2.789441   -0.000000
     18          1           0        1.171992    2.637024   -0.883042
     19          1           0       -0.826919   -2.675387    0.000000
 ---------------------------------------------------------------------

 SCF Done:  E(RHF) =  -305.572755506     A.U. after    2 cycles

 The electronic state is 1-A'.
 Alpha  occ. eigenvalues --  -15.48004 -15.47919 -11.24948 -11.24925 -11.24752
 Alpha  occ. eigenvalues --  -11.24721 -11.24694  -1.24208  -1.18102  -1.02701
 Alpha  occ. eigenvalues --   -0.97212  -0.87441  -0.87156  -0.76630  -0.71443
 Alpha  occ. eigenvalues --   -0.64893  -0.64396  -0.63070  -0.62890  -0.60450
 Alpha  occ. eigenvalues --   -0.55777  -0.53827  -0.52612  -0.49843  -0.48903
 Alpha  occ. eigenvalues --   -0.48153  -0.40243  -0.38162
 Alpha virt. eigenvalues --    0.03885   0.04227   0.04615   0.04881   0.05122
 Alpha virt. eigenvalues --    0.05410   0.05657   0.05781   0.07607   0.08970
 Alpha virt. eigenvalues --    0.09090   0.10310   0.12130   0.13598   0.14659

 Mulliken charges:
               1
     1  C   -0.404288
     2  C   -0.404288
     3  C   -0.369634
     4  C   -0.369634
     5  C   -0.403096
     6  N    0.351910
     7  N    0.534498
     8  H    0.111245
     9  H    0.023251
    10  H    0.023251
    11  H    0.111245
    12  H    0.113940
    13  H   -0.008669
    14  H   -0.008669
    15  H    0.113940
    16  H    0.077631
    17  H    0.230479
    18  H    0.077631
    19  H    0.199256
 Sum of Mulliken charges =  -0.00000

 Dipole moment (field-independent basis, Debye):
    X=              0.2299    Y=             -0.2601    Z=             -0.0000  Tot=              0.3472

 Test job not archived.
 1\1\GINC-SE108\SP\RHF\Aug-CC-pVDZ\C5H12N2\OHZDE\05-Apr-2025\0\\#t hf a
 ug-cc-pvdz iop(5/13=1,5/36=2,99/5=2) pseudo=read geom=check guess=(rea
 d,tcheck) scf=(maxcycle=1)\\title\\0,1\C,0,-0.10432,-1.183383,1.206556
 \C,0,-0.10432,-1.183383,-1.206556\C,0,-0.10432,0.339172,1.204675\C,0,-
 0.10432,0.339172,-1.204675\C,0,0.628275,2.299249,0.\N,0,-0.76993,-1.66
 6118,0.\N,0,0.541509,0.851074,0.\H,0,0.937429,-1.532481,1.281318\H,0,-
 0.646488,-1.547447,2.080373\H,0,-0.646488,-1.547447,-2.080373\H,0,0.93
 7429,-1.532481,-1.281318\H,0,-1.145389,0.697953,1.285374\H,0,0.442711,

 Normal termination of Gaussian 16 at Sat Apr  5 22:28:09 2025.
