 Gaussian 16, Revision C.01,

 ----------------------------------------------------------------------
 #t hf aug-cc-pvdz symm=none int=(grid=ultrafine) guess=(read,tcheck) s
 table=(opt,rrhf)
 ----------------------------------------------------------------------
 -----
 title
 -----
 Symbolic Z-matrix:
 Charge =  0 Multiplicity = 1

 SCF Done:  E(RHF) =  -289.246088116     A.U. after   12 cycles

 1\1\GINC-SE210\Stability\RHF\Aug-CC-pVDZ\C6H13N1\OHZDE\05-Apr-2025\0\\
 #t hf aug-cc-pvdz symm=none int=(grid=ultrafine) guess=(read,tcheck) s
 table=(opt,rrhf)\\title\\0,1\C,0,0.96524,1.519566,0.\C,0,0.317239,0.93
 8668,1.261849\C,0,0.317239,0.938668,-1.261849\C,0,0.317239,-0.596952,1
 .207472\C,0,0.317239,-0.596952,-1.207472\C,0,-1.745453,-1.132476,0.\N,
 0,-0.291486,-1.154914,0.\H,0,0.900662,2.609587,0.\H,0,2.0323,1.27092,0
 .\H,0,0.848574,1.272756,2.156437\H,0,-0.708429,1.307685,1.352481\H,0,-
 0.708429,1.307685,-1.352481\H,0,0.848574,1.272756,-2.156437\H,0,1.3537

 Normal termination of Gaussian 16 at Sat Apr  5 22:27:36 2025.
 Gaussian 16:  ES64L-G16RevC.01  3-Jul-2019

 ----------------------------------------------------------------------
 #t hf aug-cc-pvdz iop(5/13=1,5/36=2,99/5=2) pseudo=read geom=check gue
 ss=(read,tcheck) scf=(maxcycle=1)
 ----------------------------------------------------------------------
 -----
 title
 -----
 Structure from the checkpoint file:  "1-methylpiperidine.chk"
 Charge =  0 Multiplicity = 1

                         Standard orientation:
 ---------------------------------------------------------------------
 Center     Atomic      Atomic             Coordinates (Angstroms)
 Number     Number       Type             X           Y           Z
 ---------------------------------------------------------------------
      1          6           0        0.965240    1.519566   -0.000000
      2          6           0        0.317239    0.938668    1.261849
      3          6           0        0.317239    0.938668   -1.261849
      4          6           0        0.317239   -0.596952    1.207472
      5          6           0        0.317239   -0.596952   -1.207472
      6          6           0       -1.745453   -1.132476    0.000000
      7          7           0       -0.291486   -1.154914    0.000000
      8          1           0        0.900662    2.609587   -0.000000
      9          1           0        2.032300    1.270920   -0.000000
     10          1           0        0.848574    1.272756    2.156437
     11          1           0       -0.708429    1.307685    1.352481
     12          1           0       -0.708429    1.307685   -1.352481
     13          1           0        0.848574    1.272756   -2.156437
     14          1           0        1.353737   -0.949519    1.247433
     15          1           0       -0.193487   -1.015270    2.076593
     16          1           0       -0.193487   -1.015270   -2.076593
     17          1           0        1.353737   -0.949519   -1.247433
     18          1           0       -2.112988   -1.660457   -0.881168
     19          1           0       -2.199834   -0.129627   -0.000000
     20          1           0       -2.112988   -1.660457    0.881168
 ---------------------------------------------------------------------

 SCF Done:  E(RHF) =  -289.563595655     A.U. after    2 cycles

 The electronic state is 1-A'.
 Alpha  occ. eigenvalues --  -15.47376 -11.24642 -11.24621 -11.24507 -11.22336
 Alpha  occ. eigenvalues --  -11.22074 -11.22053  -1.21990  -1.06486  -1.01254
 Alpha  occ. eigenvalues --   -0.94564  -0.85472  -0.84221  -0.75606  -0.67456
 Alpha  occ. eigenvalues --   -0.64704  -0.62257  -0.62105  -0.58149  -0.57579
 Alpha  occ. eigenvalues --   -0.54075  -0.52444  -0.51906  -0.49452  -0.49032
 Alpha  occ. eigenvalues --   -0.46151  -0.45686  -0.36496
 Alpha virt. eigenvalues --    0.03877   0.03914   0.04020   0.04088   0.05398
 Alpha virt. eigenvalues --    0.05546   0.05898   0.06076   0.07043   0.09233
 Alpha virt. eigenvalues --    0.09534   0.09813   0.10041   0.12817   0.14069

 Mulliken charges:
               1
     1  C   -0.179129
     2  C   -0.166982
     3  C   -0.166982
     4  C   -0.657743
     5  C   -0.657743
     6  C   -0.424310
     7  N    0.875326
     8  H    0.108704
     9  H    0.141638
    10  H    0.107237
    11  H    0.128147
    12  H    0.128147
    13  H    0.107237
    14  H    0.106061
    15  H    0.029551
    16  H    0.029551
    17  H    0.106061
    18  H    0.084897
    19  H    0.215433
    20  H    0.084897
 Sum of Mulliken charges =   0.00000

 Dipole moment (field-independent basis, Debye):
    X=             -0.1548    Y=              0.9918    Z=              0.0000  Tot=              1.0038

 Test job not archived.
 1\1\GINC-SE210\SP\RHF\Aug-CC-pVDZ\C6H13N1\OHZDE\05-Apr-2025\0\\#t hf a
 ug-cc-pvdz iop(5/13=1,5/36=2,99/5=2) pseudo=read geom=check guess=(rea
 d,tcheck) scf=(maxcycle=1)\\title\\0,1\C,0,0.96524,1.519566,0.\C,0,0.3
 17239,0.938668,1.261849\C,0,0.317239,0.938668,-1.261849\C,0,0.317239,-
 0.596952,1.207472\C,0,0.317239,-0.596952,-1.207472\C,0,-1.745453,-1.13
 2476,0.\N,0,-0.291486,-1.154914,0.\H,0,0.900662,2.609587,0.\H,0,2.0323
 ,1.27092,0.\H,0,0.848574,1.272756,2.156437\H,0,-0.708429,1.307685,1.35
 2481\H,0,-0.708429,1.307685,-1.352481\H,0,0.848574,1.272756,-2.156437\

 Normal termination of Gaussian 16 at Sat Apr  5 22:28:07 2025.
