 Gaussian 16, Revision C.01,

 ----------------------------------------------------------------------
 #t hf aug-cc-pvdz symm=none int=(grid=ultrafine) guess=(read,tcheck) s
 table=(opt,rrhf)
 ----------------------------------------------------------------------
 -----
 title
 -----
 Symbolic Z-matrix:
 Charge =  0 Multiplicity = 1

 SCF Done:  E(RHF) =  -295.831913771     A.U. after   16 cycles
 Normal termination of Gaussian 16 at Sat Apr  5 22:26:49 2025.
 Gaussian 16:  ES64L-G16RevC.01  3-Jul-2019

 ----------------------------------------------------------------------
 #t hf aug-cc-pvdz iop(5/13=1,5/36=2,99/5=2) pseudo=read geom=check gue
 ss=(read,tcheck) scf=(maxcycle=1)
 ----------------------------------------------------------------------
 -----
 title
 -----
 Structure from the checkpoint file:  "1-methyl-1H-tetrazole.chk"
 Charge =  0 Multiplicity = 1

                         Standard orientation:
 ---------------------------------------------------------------------
 Center     Atomic      Atomic             Coordinates (Angstroms)
 Number     Number       Type             X           Y           Z
 ---------------------------------------------------------------------
      1          6           0       -0.115632    2.015647    0.000000
      2          1           0       -0.652547    2.342305    0.887714
      3          1           0       -0.652547    2.342305   -0.887714
      4          1           0        0.882425    2.445220    0.000000
      5          7           0        0.000000    0.569086    0.000000
      6          7           0       -1.090343   -0.221557    0.000000
      7          7           0       -0.666004   -1.437578    0.000000
      8          1           0        2.096573    0.126082    0.000000
      9          6           0        1.080585   -0.227007    0.000000
     10          7           0        0.690116   -1.479630    0.000000
 ---------------------------------------------------------------------

 SCF Done:  E(RHF) =  -296.131603092     A.U. after    2 cycles

 The electronic state is 1-A'.
 Alpha  occ. eigenvalues --  -15.61558 -15.59107 -15.57849 -15.53530 -11.33225
 Alpha  occ. eigenvalues --  -11.31592  -1.47941  -1.27746  -1.21068  -1.04501
 Alpha  occ. eigenvalues --   -0.94350  -0.89765  -0.77572  -0.73537  -0.69899
 Alpha  occ. eigenvalues --   -0.63065  -0.62779  -0.60632  -0.52879  -0.51853
 Alpha  occ. eigenvalues --   -0.47711  -0.45509
 Alpha virt. eigenvalues --    0.02449   0.03826   0.04624   0.04685   0.07871
 Alpha virt. eigenvalues --    0.08339   0.09784   0.10826   0.12306   0.13657
 Alpha virt. eigenvalues --    0.14225   0.14957   0.15281   0.15665   0.16279

 Mulliken charges:
               1
     1  C   -0.205634
     2  H    0.162361
     3  H    0.162361
     4  H    0.086676
     5  N    0.434126
     6  N   -0.362413
     7  N   -0.376910
     8  H   -0.020104
     9  C   -0.117616
    10  N    0.237153
 Sum of Mulliken charges =  -0.00000

 Dipole moment (field-independent basis, Debye):
    X=              2.7420    Y=              5.9369    Z=             -0.0000  Tot=              6.5395

 Test job not archived.
 1\1\GINC-SE225\SP\RHF\Aug-CC-pVDZ\C2H4N4\OHZDE\05-Apr-2025\0\\#t hf au
 g-cc-pvdz iop(5/13=1,5/36=2,99/5=2) pseudo=read geom=check guess=(read
 ,tcheck) scf=(maxcycle=1)\\title\\0,1\C,0,-0.115632,2.015647,0.\H,0,-0
 .652547,2.342305,0.887714\H,0,-0.652547,2.342305,-0.887714\H,0,0.88242
 5,2.44522,0.\N,0,0.,0.569086,0.\N,0,-1.090343,-0.221557,0.\N,0,-0.6660
 04,-1.437578,0.\H,0,2.096573,0.126082,0.\C,0,1.080585,-0.227007,0.\N,0
 ,0.690116,-1.47963,0.\\Version=ES64L-G16RevC.01\State=1-A'\HF=-296.131
 6031\RMSD=4.617e-02\Dipole=1.0787741,2.3357452,0.\Quadrupole=0.5800035

 Normal termination of Gaussian 16 at Sat Apr  5 22:26:52 2025.
