 Gaussian 16, Revision C.01,

 ----------------------------------------------------------------------
 #t hf aug-cc-pvdz symm=none int=(grid=ultrafine) guess=(read,tcheck) s
 table=(opt,rrhf)
 ----------------------------------------------------------------------
 -----
 title
 -----
 Symbolic Z-matrix:
 Charge =  0 Multiplicity = 1

 SCF Done:  E(RHF) =  -856.004703470     A.U. after   15 cycles
 Normal termination of Gaussian 16 at Sat Apr  5 22:27:31 2025.
 Gaussian 16:  ES64L-G16RevC.01  3-Jul-2019

 ----------------------------------------------------------------------
 #t hf aug-cc-pvdz iop(5/13=1,5/36=2,99/5=2) pseudo=read geom=check gue
 ss=(read,tcheck) scf=(maxcycle=1)
 ----------------------------------------------------------------------
 -----
 title
 -----
 Structure from the checkpoint file:  "1-methyl-4-methylsulfonylbenzene.chk"
 Charge =  0 Multiplicity = 1

                         Standard orientation:
 ---------------------------------------------------------------------
 Center     Atomic      Atomic             Coordinates (Angstroms)
 Number     Number       Type             X           Y           Z
 ---------------------------------------------------------------------
      1          6           0       -1.656245   -2.355698   -0.000000
      2         16           0        0.088738   -1.905377   -0.000000
      3          8           0        0.654560   -2.357841    1.267005
      4          8           0        0.654560   -2.357841   -1.267005
      5          6           0        0.080334   -0.110707   -0.000000
      6          6           0        0.087584    0.574569   -1.208898
      7          6           0        0.087584    1.962499   -1.199749
      8          6           0        0.081470    2.677518    0.000000
      9          6           0        0.055105    4.182111    0.000000
     10          6           0        0.087584    1.962499    1.199749
     11          6           0        0.087584    0.574569    1.208898
     12          1           0       -2.123209   -1.961947   -0.898464
     13          1           0       -1.678863   -3.443534   -0.000000
     14          1           0       -2.123209   -1.961947    0.898464
     15          1           0        0.119138    0.024829   -2.138786
     16          1           0        0.104503    2.498591   -2.139961
     17          1           0        0.546532    4.588743    0.883175
     18          1           0       -0.973845    4.550449    0.000000
     19          1           0        0.546532    4.588743   -0.883175
     20          1           0        0.104503    2.498591    2.139961
     21          1           0        0.119138    0.024829    2.138786
 ---------------------------------------------------------------------

 SCF Done:  E(RHF) =  -856.538480387     A.U. after    2 cycles

 The electronic state is 1-A'.
 Alpha  occ. eigenvalues --  -94.18698 -20.52757 -20.52750 -11.28370 -11.27964
 Alpha  occ. eigenvalues --  -11.27612 -11.27229 -11.27219 -11.25878 -11.25877
 Alpha  occ. eigenvalues --  -11.25206  -8.43958  -6.42077  -6.41869  -6.41795
 Alpha  occ. eigenvalues --   -1.54011  -1.42317  -1.18981  -1.09400  -1.04908
 Alpha  occ. eigenvalues --   -1.04350  -0.97207  -0.88245  -0.86650  -0.81103
 Alpha  occ. eigenvalues --   -0.73577  -0.68909  -0.67488  -0.66335  -0.64839
 Alpha  occ. eigenvalues --   -0.64563  -0.62500  -0.60491  -0.60143  -0.60104
 Alpha  occ. eigenvalues --   -0.56950  -0.54352  -0.52621  -0.52341  -0.48291
 Alpha  occ. eigenvalues --   -0.48272  -0.45203  -0.43272  -0.36974  -0.36730
 Alpha virt. eigenvalues --    0.02741   0.03170   0.03179   0.04119   0.04460
 Alpha virt. eigenvalues --    0.05032   0.06385   0.07004   0.07282   0.07815
 Alpha virt. eigenvalues --    0.08109   0.09098   0.09237   0.11599   0.12174

 Mulliken charges:
               1
     1  C   -0.903206
     2  S    3.732275
     3  O   -1.639372
     4  O   -1.639372
     5  C    0.718742
     6  C   -0.619405
     7  C    0.822963
     8  C   -0.070089
     9  C   -0.591085
    10  C    0.822963
    11  C   -0.619405
    12  H    0.226504
    13  H    0.206120
    14  H    0.226504
    15  H   -0.292252
    16  H   -0.301363
    17  H    0.116842
    18  H    0.279408
    19  H    0.116842
    20  H   -0.301363
    21  H   -0.292252
 Sum of Mulliken charges =  -0.00000

 Dipole moment (field-independent basis, Debye):
    X=             -3.8706    Y=              4.6640    Z=              0.0000  Tot=              6.0609

 Test job not archived.
 1\1\GINC-SE222\SP\RHF\Aug-CC-pVDZ\C8H10O2S1\OHZDE\05-Apr-2025\0\\#t hf
  aug-cc-pvdz iop(5/13=1,5/36=2,99/5=2) pseudo=read geom=check guess=(r
 ead,tcheck) scf=(maxcycle=1)\\title\\0,1\C,0,-1.656245,-2.355698,0.\S,
 0,0.088738,-1.905377,0.\O,0,0.65456,-2.357841,1.267005\O,0,0.65456,-2.
 357841,-1.267005\C,0,0.080334,-0.110707,0.\C,0,0.087584,0.574569,-1.20
 8898\C,0,0.087584,1.962499,-1.199749\C,0,0.08147,2.677518,0.\C,0,0.055
 105,4.182111,0.\C,0,0.087584,1.962499,1.199749\C,0,0.087584,0.574569,1
 .208898\H,0,-2.123209,-1.961947,-0.898464\H,0,-1.678863,-3.443534,0.\H

 Normal termination of Gaussian 16 at Sat Apr  5 22:28:11 2025.
