 Gaussian 16, Revision C.01,

 ----------------------------------------------------------------------
 #t hf aug-cc-pvdz symm=none int=(grid=ultrafine) guess=(read,tcheck) s
 table=(opt,rrhf)
 ----------------------------------------------------------------------
 -----
 title
 -----
 Symbolic Z-matrix:
 Charge =  0 Multiplicity = 1

 SCF Done:  E(RHF) =  -704.516278511     A.U. after   13 cycles
 Normal termination of Gaussian 16 at Sat Apr  5 22:27:27 2025.
 Gaussian 16:  ES64L-G16RevC.01  3-Jul-2019

 ----------------------------------------------------------------------
 #t hf aug-cc-pvdz iop(5/13=1,5/36=2,99/5=2) pseudo=read geom=check gue
 ss=(read,tcheck) scf=(maxcycle=1)
 ----------------------------------------------------------------------
 -----
 title
 -----
 Structure from the checkpoint file:  "1-methylsulfonylpropane.chk"
 Charge =  0 Multiplicity = 1

                         Standard orientation:
 ---------------------------------------------------------------------
 Center     Atomic      Atomic             Coordinates (Angstroms)
 Number     Number       Type             X           Y           Z
 ---------------------------------------------------------------------
      1          8           0        1.052746   -0.884054    1.262930
      2         16           0        0.899001   -0.165953    0.000000
      3          8           0        1.052746   -0.884054   -1.262930
      4          6           0        2.067344    1.204889    0.000000
      5          6           0       -0.723417    0.647846    0.000000
      6          6           0       -1.851316   -0.380647    0.000000
      7          6           0       -3.225240    0.289975    0.000000
      8          1           0        3.053274    0.745574    0.000000
      9          1           0        1.925580    1.797049   -0.900169
     10          1           0        1.925580    1.797049    0.900169
     11          1           0       -0.749135    1.277504    0.890070
     12          1           0       -0.749135    1.277504   -0.890070
     13          1           0       -1.747958   -1.021292   -0.876349
     14          1           0       -1.747958   -1.021292    0.876349
     15          1           0       -3.362963    0.917670    0.882223
     16          1           0       -3.362963    0.917671   -0.882223
     17          1           0       -4.016488   -0.459710    0.000000
 ---------------------------------------------------------------------

 SCF Done:  E(RHF) =  -704.905036153     A.U. after    2 cycles

 The electronic state is 1-A.
 Alpha  occ. eigenvalues --  -94.18217 -20.52668 -20.52664 -11.28791 -11.28728
 Alpha  occ. eigenvalues --  -11.25256 -11.24168  -8.43580  -6.41679  -6.41474
 Alpha  occ. eigenvalues --   -6.41417  -1.53825  -1.42054  -1.11341  -1.05883
 Alpha  occ. eigenvalues --   -0.98027  -0.85975  -0.81314  -0.69661  -0.68524
 Alpha  occ. eigenvalues --   -0.66655  -0.64905  -0.61107  -0.60460  -0.60221
 Alpha  occ. eigenvalues --   -0.57935  -0.54190  -0.51761  -0.50574  -0.47937
 Alpha  occ. eigenvalues --   -0.47733  -0.44865  -0.42677
 Alpha virt. eigenvalues --    0.02737   0.03432   0.03765   0.04396   0.05882
 Alpha virt. eigenvalues --    0.06037   0.06737   0.07921   0.08651   0.09274
 Alpha virt. eigenvalues --    0.10759   0.11351   0.13290   0.14293   0.14446

 Mulliken charges:
               1
     1  O   -1.562535
     2  S    3.244928
     3  O   -1.562535
     4  C   -0.625170
     5  C   -0.759899
     6  C   -0.122670
     7  C   -0.385458
     8  H    0.250858
     9  H    0.230360
    10  H    0.230360
    11  H    0.155971
    12  H    0.155971
    13  H    0.150462
    14  H    0.150462
    15  H    0.161055
    16  H    0.161056
    17  H    0.126784
 Sum of Mulliken charges =  -0.00000

 Dipole moment (field-independent basis, Debye):
    X=             -1.5514    Y=              4.7591    Z=              0.0000  Tot=              5.0055

 Test job not archived.
 1\1\GINC-SE041\SP\RHF\Aug-CC-pVDZ\C4H10O2S1\OHZDE\05-Apr-2025\0\\#t hf
  aug-cc-pvdz iop(5/13=1,5/36=2,99/5=2) pseudo=read geom=check guess=(r
 ead,tcheck) scf=(maxcycle=1)\\title\\0,1\O,0,1.052746,-0.884054,1.2629
 3\S,0,0.899001,-0.165953,0.\O,0,1.052746,-0.884054,-1.26293\C,0,2.0673
 44,1.204889,0.\C,0,-0.723417,0.647846,0.\C,0,-1.851316,-0.380647,0.\C,
 0,-3.22524,0.289975,0.\H,0,3.053274,0.745574,0.\H,0,1.92558,1.797049,-
 0.900169\H,0,1.92558,1.797049,0.900169\H,0,-0.749135,1.277504,0.89007\
 H,0,-0.749135,1.277504,-0.89007\H,0,-1.747958,-1.021292,-0.876349\H,0,

 Normal termination of Gaussian 16 at Sat Apr  5 22:28:09 2025.
