 Gaussian 16, Revision C.01,

 ----------------------------------------------------------------------
 #t hf aug-cc-pvdz symm=none int=(grid=ultrafine) guess=(read,tcheck) s
 table=(opt,rrhf)
 ----------------------------------------------------------------------
 -----
 title
 -----
 Symbolic Z-matrix:
 Charge =  0 Multiplicity = 1

 SCF Done:  E(RHF) =  -263.880326876     A.U. after   14 cycles
 Normal termination of Gaussian 16 at Sat Apr  5 22:24:55 2025.
 Gaussian 16:  ES64L-G16RevC.01  3-Jul-2019

 ----------------------------------------------------------------------
 #t hf aug-cc-pvdz iop(5/13=1,5/36=2,99/5=2) pseudo=read geom=check gue
 ss=(read,tcheck) scf=(maxcycle=1)
 ----------------------------------------------------------------------
 -----
 title
 -----
 Structure from the checkpoint file:  "1-methyl-1H-imidazole.chk"
 Charge =  0 Multiplicity = 1

                         Standard orientation:
 ---------------------------------------------------------------------
 Center     Atomic      Atomic             Coordinates (Angstroms)
 Number     Number       Type             X           Y           Z
 ---------------------------------------------------------------------
      1          6           0        0.645337   -1.483107    0.000000
      2          6           0        1.115639   -0.197648    0.000000
      3          6           0       -1.077575   -0.225768    0.000000
      4          6           0       -0.022919    2.058005    0.000000
      5          7           0       -0.726800   -1.489807    0.000000
      6          7           0        0.000000    0.608310    0.000000
      7          1           0        1.214722   -2.396921    0.000000
      8          1           0        2.111503    0.208433    0.000000
      9          1           0       -2.087758    0.150798    0.000000
     10          1           0        0.471699    2.452768    0.887470
     11          1           0        0.471699    2.452768   -0.887470
     12          1           0       -1.057157    2.393731    0.000000
 ---------------------------------------------------------------------

 SCF Done:  E(RHF) =  -264.155187383     A.U. after    2 cycles

 The electronic state is 1-A'.
 Alpha  occ. eigenvalues --  -15.55772 -15.47861 -11.29469 -11.29411 -11.25931
 Alpha  occ. eigenvalues --  -11.24543  -1.34099  -1.18821  -1.02621  -0.98383
 Alpha  occ. eigenvalues --   -0.83547  -0.80597  -0.74471  -0.67218  -0.63678
 Alpha  occ. eigenvalues --   -0.62361  -0.59363  -0.57907  -0.57237  -0.47414
 Alpha  occ. eigenvalues --   -0.42174  -0.33175
 Alpha virt. eigenvalues --    0.02942   0.04151   0.04531   0.04785   0.05584
 Alpha virt. eigenvalues --    0.06683   0.09728   0.10176   0.12037   0.12208
 Alpha virt. eigenvalues --    0.12255   0.12613   0.14524   0.15093   0.15544

 Mulliken charges:
               1
     1  C   -0.343532
     2  C   -0.014920
     3  C   -0.654235
     4  C   -0.364482
     5  N    0.670231
     6  N    0.786764
     7  H   -0.097540
     8  H   -0.246355
     9  H   -0.090737
    10  H    0.164326
    11  H    0.164326
    12  H    0.026153
 Sum of Mulliken charges =  -0.00000

 Dipole moment (field-independent basis, Debye):
    X=              1.1153    Y=              4.1822    Z=              0.0000  Tot=              4.3284

 Test job not archived.
 1\1\GINC-SE206\SP\RHF\Aug-CC-pVDZ\C4H6N2\OHZDE\05-Apr-2025\0\\#t hf au
 g-cc-pvdz iop(5/13=1,5/36=2,99/5=2) pseudo=read geom=check guess=(read
 ,tcheck) scf=(maxcycle=1)\\title\\0,1\C,0,0.645337,-1.483107,0.\C,0,1.
 115639,-0.197648,0.\C,0,-1.077575,-0.225768,0.\C,0,-0.022919,2.058005,
 0.\N,0,-0.7268,-1.489807,0.\N,0,0.,0.60831,0.\H,0,1.214722,-2.396921,0
 .\H,0,2.111503,0.208433,0.\H,0,-2.087758,0.150798,0.\H,0,0.471699,2.45
 2768,0.88747\H,0,0.471699,2.452768,-0.88747\H,0,-1.057157,2.393731,0.\
 \Version=ES64L-G16RevC.01\State=1-A'\HF=-264.1551874\RMSD=3.138e-02\Di

 Normal termination of Gaussian 16 at Sat Apr  5 22:26:43 2025.
