 Gaussian 16, Revision C.01,

 ----------------------------------------------------------------------
 #t hf aug-cc-pvdz symm=none int=(grid=ultrafine) guess=(read,tcheck) s
 table=(opt,rrhf)
 ----------------------------------------------------------------------
 -----
 title
 -----
 Symbolic Z-matrix:
 Charge =  0 Multiplicity = 1

 SCF Done:  E(RHF) =  -473.269370864     A.U. after   17 cycles
 Normal termination of Gaussian 16 at Sat Apr  5 22:28:15 2025.
 Gaussian 16:  ES64L-G16RevC.01  3-Jul-2019

 ----------------------------------------------------------------------
 #t hf aug-cc-pvdz iop(5/13=1,5/36=2,99/5=2) pseudo=read geom=check gue
 ss=(read,tcheck) scf=(maxcycle=1)
 ----------------------------------------------------------------------
 -----
 title
 -----
 Structure from the checkpoint file:  "1-methyl-2-nitro-benzene.chk"
 Charge =  0 Multiplicity = 1

                         Standard orientation:
 ---------------------------------------------------------------------
 Center     Atomic      Atomic             Coordinates (Angstroms)
 Number     Number       Type             X           Y           Z
 ---------------------------------------------------------------------
      1          6           0        2.555199   -0.206184   -0.030002
      2          6           0        1.904094   -1.432601   -0.092797
      3          6           0        1.822358    0.969098    0.049255
      4          6           0        0.521008   -1.464364   -0.071553
      5          6           0        0.424347    0.981756    0.050347
      6          6           0       -0.196494   -0.273992   -0.013060
      7          6           0       -0.290301    2.302138    0.145550
      8          7           0       -1.666810   -0.404509   -0.018623
      9          8           0       -2.143297   -1.460414    0.374057
     10          8           0       -2.328126    0.540642   -0.426159
     11          1           0        3.635895   -0.163364   -0.037093
     12          1           0        2.465502   -2.353997   -0.153385
     13          1           0        2.342694    1.915301    0.114787
     14          1           0       -0.021103   -2.396371   -0.103663
     15          1           0       -0.772031    2.558749   -0.796957
     16          1           0       -1.076089    2.289354    0.898913
     17          1           0        0.422924    3.084965    0.398137
 ---------------------------------------------------------------------

 SCF Done:  E(RHF) =  -473.741484231     A.U. after    2 cycles

 The electronic state is 1-A.
 Alpha  occ. eigenvalues --  -20.58767 -20.58631 -15.78989 -11.31220 -11.29129
 Alpha  occ. eigenvalues --  -11.27759 -11.27519 -11.26488 -11.26370 -11.24715
 Alpha  occ. eigenvalues --   -1.66877  -1.50400  -1.20588  -1.10829  -1.07790
 Alpha  occ. eigenvalues --   -0.99550  -0.94697  -0.86145  -0.84642  -0.78694
 Alpha  occ. eigenvalues --   -0.74659  -0.74513  -0.70800  -0.68077  -0.64878
 Alpha  occ. eigenvalues --   -0.61374  -0.59894  -0.57609  -0.55220  -0.53579
 Alpha  occ. eigenvalues --   -0.53048  -0.49193  -0.48328  -0.44735  -0.38262
 Alpha  occ. eigenvalues --   -0.36622
 Alpha virt. eigenvalues --    0.02683   0.03040   0.03256   0.03885   0.05411
 Alpha virt. eigenvalues --    0.05538   0.05988   0.07816   0.08879   0.09469
 Alpha virt. eigenvalues --    0.10924   0.11498   0.12431   0.12642   0.12952

 Mulliken charges:
               1
     1  C   -0.145903
     2  C    0.181889
     3  C    0.658644
     4  C    0.232268
     5  C    0.351004
     6  C   -0.207915
     7  C   -0.530632
     8  N    2.769733
     9  O   -1.414480
    10  O   -1.461847
    11  H   -0.236130
    12  H   -0.213420
    13  H   -0.303677
    14  H   -0.250734
    15  H    0.329488
    16  H    0.254774
    17  H   -0.013061
 Sum of Mulliken charges =  -0.00000

 Dipole moment (field-independent basis, Debye):
    X=              4.5140    Y=              0.9001    Z=              0.0243  Tot=              4.6029

 Test job not archived.
 1\1\GINC-SE104\SP\RHF\Aug-CC-pVDZ\C7H7N1O2\OHZDE\05-Apr-2025\0\\#t hf
 aug-cc-pvdz iop(5/13=1,5/36=2,99/5=2) pseudo=read geom=check guess=(re
 ad,tcheck) scf=(maxcycle=1)\\title\\0,1\C,0,2.555199,-0.206184,-0.0300
 02\C,0,1.904094,-1.432601,-0.092797\C,0,1.822358,0.969098,0.049255\C,0
 ,0.521008,-1.464364,-0.071553\C,0,0.424347,0.981756,0.050347\C,0,-0.19
 6494,-0.273992,-0.01306\C,0,-0.290301,2.302138,0.14555\N,0,-1.66681,-0
 .404509,-0.018623\O,0,-2.143297,-1.460414,0.374057\O,0,-2.328126,0.540
 642,-0.426159\H,0,3.635895,-0.163364,-0.037093\H,0,2.465502,-2.353997,

 Normal termination of Gaussian 16 at Sat Apr  5 22:29:10 2025.
