 Gaussian 16, Revision C.01,

 ----------------------------------------------------------------------
 #t hf aug-cc-pvdz symm=none int=(grid=ultrafine) guess=(read,tcheck) s
 table=(opt,rrhf)
 ----------------------------------------------------------------------
 -----
 title
 -----
 Symbolic Z-matrix:
 Charge =  0 Multiplicity = 1

 SCF Done:  E(RHF) =  -267.917807702     A.U. after   13 cycles
 Normal termination of Gaussian 16 at Sat Apr  5 22:25:00 2025.
 Gaussian 16:  ES64L-G16RevC.01  3-Jul-2019

 ----------------------------------------------------------------------
 #t hf aug-cc-pvdz iop(5/13=1,5/36=2,99/5=2) pseudo=read geom=check gue
 ss=(read,tcheck) scf=(maxcycle=1)
 ----------------------------------------------------------------------
 -----
 title
 -----
 Structure from the checkpoint file:  "1-methylethyl_hydroperoxide.chk"
 Charge =  0 Multiplicity = 1

                         Standard orientation:
 ---------------------------------------------------------------------
 Center     Atomic      Atomic             Coordinates (Angstroms)
 Number     Number       Type             X           Y           Z
 ---------------------------------------------------------------------
      1          8           0       -1.918563   -0.173683   -0.195389
      2          1           0       -2.312775    0.187830    0.609427
      3          8           0       -0.661485   -0.686944    0.324121
      4          6           0        1.651684   -0.787137    0.026852
      5          1           0        1.820412   -0.777766    1.104424
      6          1           0        1.554045   -1.821145   -0.300398
      7          1           0        2.523590   -0.349504   -0.459304
      8          6           0        0.487776    1.469705    0.103519
      9          1           0        0.672394    1.540668    1.177022
     10          1           0        1.301951    1.974955   -0.418152
     11          1           0       -0.436230    1.995634   -0.131444
     12          6           0        0.408750    0.013954   -0.330908
     13          1           0        0.227738   -0.044785   -1.408201
 ---------------------------------------------------------------------

 SCF Done:  E(RHF) =  -268.197139849     A.U. after    2 cycles

 The electronic state is 1-A.
 Alpha  occ. eigenvalues --  -20.60742 -20.60469 -11.29277 -11.23041 -11.22848
 Alpha  occ. eigenvalues --   -1.57247  -1.28990  -1.04503  -0.94737  -0.80792
 Alpha  occ. eigenvalues --   -0.71633  -0.65749  -0.63659  -0.62789  -0.55713
 Alpha  occ. eigenvalues --   -0.55086  -0.53892  -0.52157  -0.49811  -0.47317
 Alpha  occ. eigenvalues --   -0.43353
 Alpha virt. eigenvalues --    0.03784   0.04005   0.04447   0.04754   0.06702
 Alpha virt. eigenvalues --    0.07126   0.07553   0.07942   0.12570   0.13588
 Alpha virt. eigenvalues --    0.14884   0.15326   0.15885   0.16585   0.16765

 Mulliken charges:
               1
     1  O   -0.537336
     2  H    0.412742
     3  O   -0.905172
     4  C   -0.326392
     5  H    0.189367
     6  H    0.147970
     7  H    0.197754
     8  C   -0.300901
     9  H    0.228679
    10  H    0.194126
    11  H    0.127301
    12  C    0.428213
    13  H    0.143649
 Sum of Mulliken charges =  -0.00000

 Dipole moment (field-independent basis, Debye):
    X=              0.8982    Y=              1.4380    Z=              0.5268  Tot=              1.7754

 Test job not archived.
 1\1\GINC-SE106\SP\RHF\Aug-CC-pVDZ\C3H8O2\OHZDE\05-Apr-2025\0\\#t hf au
 g-cc-pvdz iop(5/13=1,5/36=2,99/5=2) pseudo=read geom=check guess=(read
 ,tcheck) scf=(maxcycle=1)\\title\\0,1\O,0,-1.918563,-0.173683,-0.19538
 9\H,0,-2.312775,0.18783,0.609427\O,0,-0.661485,-0.686944,0.324121\C,0,
 1.651684,-0.787137,0.026852\H,0,1.820412,-0.777766,1.104424\H,0,1.5540
 45,-1.821145,-0.300398\H,0,2.52359,-0.349504,-0.459304\C,0,0.487776,1.
 469705,0.103519\H,0,0.672394,1.540668,1.177022\H,0,1.301951,1.974955,-
 0.418152\H,0,-0.43623,1.995634,-0.131444\C,0,0.40875,0.013954,-0.33090

 Normal termination of Gaussian 16 at Sat Apr  5 22:26:42 2025.
