 Gaussian 16, Revision C.01,

 ----------------------------------------------------------------------
 #t hf aug-cc-pvdz symm=none int=(grid=ultrafine) guess=(read,tcheck) s
 table=(opt,rrhf)
 ----------------------------------------------------------------------
 -----
 title
 -----
 Symbolic Z-matrix:
 Charge =  0 Multiplicity = 1

 SCF Done:  E(RHF) =  -271.208333699     A.U. after   12 cycles

 1\1\GINC-SE152\Stability\RHF\Aug-CC-pVDZ\C5H12O1\OHZDE\05-Apr-2025\0\\
 #t hf aug-cc-pvdz symm=none int=(grid=ultrafine) guess=(read,tcheck) s
 table=(opt,rrhf)\\title\\0,1\C,0,1.48511,2.778995,0.\C,0,1.429424,1.25
 2245,0.\C,0,-1.555601,-2.629031,0.\O,0,-1.408397,-1.225844,0.\C,0,-0.0
 54114,-0.808031,0.\C,0,0.,0.708683,0.\H,0,-2.622301,-2.844448,0.\H,0,2
 .514453,3.139718,0.\H,0,0.988352,3.190751,0.880627\H,0,0.988352,3.1907
 51,-0.880627\H,0,1.964404,0.869962,0.874461\H,0,1.964404,0.869962,-0.8
 74461\H,0,-1.100454,-3.081175,0.889958\H,0,-1.100454,-3.081175,-0.8899

 Normal termination of Gaussian 16 at Sat Apr  5 22:27:16 2025.
 Gaussian 16:  ES64L-G16RevC.01  3-Jul-2019

 ----------------------------------------------------------------------
 #t hf aug-cc-pvdz iop(5/13=1,5/36=2,99/5=2) pseudo=read geom=check gue
 ss=(read,tcheck) scf=(maxcycle=1)
 ----------------------------------------------------------------------
 -----
 title
 -----
 Structure from the checkpoint file:  "1-methoxybutane.chk"
 Charge =  0 Multiplicity = 1

                         Standard orientation:
 ---------------------------------------------------------------------
 Center     Atomic      Atomic             Coordinates (Angstroms)
 Number     Number       Type             X           Y           Z
 ---------------------------------------------------------------------
      1          6           0        1.485110    2.778995    0.000000
      2          6           0        1.429424    1.252245    0.000000
      3          6           0       -1.555601   -2.629031    0.000000
      4          8           0       -1.408397   -1.225844    0.000000
      5          6           0       -0.054114   -0.808031    0.000000
      6          6           0        0.000000    0.708683    0.000000
      7          1           0       -2.622301   -2.844448    0.000000
      8          1           0        2.514453    3.139718    0.000000
      9          1           0        0.988352    3.190751    0.880627
     10          1           0        0.988352    3.190751   -0.880627
     11          1           0        1.964404    0.869962    0.874461
     12          1           0        1.964404    0.869962   -0.874461
     13          1           0       -1.100454   -3.081175    0.889958
     14          1           0       -1.100454   -3.081175   -0.889958
     15          1           0       -0.538951    1.078011   -0.876368
     16          1           0       -0.538951    1.078011    0.876368
     17          1           0        0.459702   -1.210388   -0.884985
     18          1           0        0.459702   -1.210388    0.884985
 ---------------------------------------------------------------------

 SCF Done:  E(RHF) =  -271.505397004     A.U. after    2 cycles

 The electronic state is 1-A'.
 Alpha  occ. eigenvalues --  -20.53851 -11.27754 -11.27697 -11.22812 -11.22200
 Alpha  occ. eigenvalues --  -11.22179  -1.45505  -1.07648  -0.99001  -0.91591
 Alpha  occ. eigenvalues --   -0.84763  -0.80009  -0.67777  -0.64905  -0.63574
 Alpha  occ. eigenvalues --   -0.62804  -0.57565  -0.57158  -0.54595  -0.51321
 Alpha  occ. eigenvalues --   -0.48937  -0.48054  -0.47286  -0.46776  -0.41258
 Alpha virt. eigenvalues --    0.03704   0.03806   0.04066   0.04343   0.05628
 Alpha virt. eigenvalues --    0.06180   0.06244   0.07306   0.08379   0.08999
 Alpha virt. eigenvalues --    0.09050   0.11134   0.11389   0.13450   0.14132

 Mulliken charges:
               1
     1  C   -0.402623
     2  C   -0.163931
     3  C    0.053179
     4  O   -1.286879
     5  C    0.730904
     6  C   -0.407209
     7  H   -0.036430
     8  H    0.110915
     9  H    0.161047
    10  H    0.161047
    11  H    0.115657
    12  H    0.115657
    13  H    0.180409
    14  H    0.180409
    15  H    0.124327
    16  H    0.124327
    17  H    0.119597
    18  H    0.119597
 Sum of Mulliken charges =  -0.00000

 Dipole moment (field-independent basis, Debye):
    X=              1.0536    Y=             -0.6934    Z=              0.0000  Tot=              1.2613

 Test job not archived.
 1\1\GINC-SE152\SP\RHF\Aug-CC-pVDZ\C5H12O1\OHZDE\05-Apr-2025\0\\#t hf a
 ug-cc-pvdz iop(5/13=1,5/36=2,99/5=2) pseudo=read geom=check guess=(rea
 d,tcheck) scf=(maxcycle=1)\\title\\0,1\C,0,1.48511,2.778995,0.\C,0,1.4
 29424,1.252245,0.\C,0,-1.555601,-2.629031,0.\O,0,-1.408397,-1.225844,0
 .\C,0,-0.054114,-0.808031,0.\C,0,0.,0.708683,0.\H,0,-2.622301,-2.84444
 8,0.\H,0,2.514453,3.139718,0.\H,0,0.988352,3.190751,0.880627\H,0,0.988
 352,3.190751,-0.880627\H,0,1.964404,0.869962,0.874461\H,0,1.964404,0.8
 69962,-0.874461\H,0,-1.100454,-3.081175,0.889958\H,0,-1.100454,-3.0811

 Normal termination of Gaussian 16 at Sat Apr  5 22:28:06 2025.
