 Gaussian 16, Revision C.01,

 ----------------------------------------------------------------------
 #t hf aug-cc-pvdz symm=none int=(grid=ultrafine) guess=(read,tcheck) s
 table=(opt,rrhf)
 ----------------------------------------------------------------------
 -----
 title
 -----
 Symbolic Z-matrix:
 Charge =  0 Multiplicity = 1

 SCF Done:  E(RHF) =  -247.869753955     A.U. after   13 cycles
 Normal termination of Gaussian 16 at Sat Apr  5 22:25:02 2025.
 Gaussian 16:  ES64L-G16RevC.01  3-Jul-2019

 ----------------------------------------------------------------------
 #t hf aug-cc-pvdz iop(5/13=1,5/36=2,99/5=2) pseudo=read geom=check gue
 ss=(read,tcheck) scf=(maxcycle=1)
 ----------------------------------------------------------------------
 -----
 title
 -----
 Structure from the checkpoint file:  "1-methyl-1H-pyrrole.chk"
 Charge =  0 Multiplicity = 1

                         Standard orientation:
 ---------------------------------------------------------------------
 Center     Atomic      Atomic             Coordinates (Angstroms)
 Number     Number       Type             X           Y           Z
 ---------------------------------------------------------------------
      1          6           0       -0.016408   -1.487716    0.709392
      2          6           0       -0.016408   -1.487716   -0.709392
      3          6           0       -0.016408   -0.174043    1.115752
      4          6           0       -0.016408   -0.174043   -1.115752
      5          6           0        0.066679    2.069240    0.000000
      6          7           0       -0.023110    0.623459    0.000000
      7          1           0       -0.026850   -2.347321    1.357432
      8          1           0       -0.026850   -2.347321   -1.357432
      9          1           0       -0.017376    0.257756    2.101616
     10          1           0       -0.017376    0.257756   -2.101616
     11          1           0       -0.430683    2.466938    0.882657
     12          1           0        1.105307    2.406717    0.000000
     13          1           0       -0.430683    2.466938   -0.882657
 ---------------------------------------------------------------------

 SCF Done:  E(RHF) =  -248.132092242     A.U. after    2 cycles

 The electronic state is 1-A'.
 Alpha  occ. eigenvalues --  -15.54162 -11.28142 -11.25171 -11.25134 -11.21268
 Alpha  occ. eigenvalues --  -11.21211  -1.29727  -1.08035  -0.98496  -0.94749
 Alpha  occ. eigenvalues --   -0.79452  -0.76327  -0.72887  -0.65283  -0.61752
 Alpha  occ. eigenvalues --   -0.59927  -0.57809  -0.54488  -0.53975  -0.53748
 Alpha  occ. eigenvalues --   -0.35456  -0.30522
 Alpha virt. eigenvalues --    0.03355   0.04316   0.04591   0.05137   0.05178
 Alpha virt. eigenvalues --    0.05329   0.08430   0.09886   0.11828   0.12389
 Alpha virt. eigenvalues --    0.13076   0.13564   0.14681   0.15359   0.15458

 Mulliken charges:
               1
     1  C    0.394333
     2  C    0.394333
     3  C   -0.389541
     4  C   -0.389541
     5  C   -0.285296
     6  N    0.855539
     7  H   -0.148381
     8  H   -0.148381
     9  H   -0.306322
    10  H   -0.306322
    11  H    0.072277
    12  H    0.185026
    13  H    0.072277
 Sum of Mulliken charges =   0.00000

 Dipole moment (field-independent basis, Debye):
    X=              0.0565    Y=              1.9136    Z=             -0.0000  Tot=              1.9144

 Test job not archived.
 1\1\GINC-SE226\SP\RHF\Aug-CC-pVDZ\C5H7N1\OHZDE\05-Apr-2025\0\\#t hf au
 g-cc-pvdz iop(5/13=1,5/36=2,99/5=2) pseudo=read geom=check guess=(read
 ,tcheck) scf=(maxcycle=1)\\title\\0,1\C,0,-0.016408,-1.487716,0.709392
 \C,0,-0.016408,-1.487716,-0.709392\C,0,-0.016408,-0.174043,1.115752\C,
 0,-0.016408,-0.174043,-1.115752\C,0,0.066679,2.06924,0.\N,0,-0.02311,0
 .623459,0.\H,0,-0.02685,-2.347321,1.357432\H,0,-0.02685,-2.347321,-1.3
 57432\H,0,-0.017376,0.257756,2.101616\H,0,-0.017376,0.257756,-2.101616
 \H,0,-0.430683,2.466938,0.882657\H,0,1.105307,2.406717,0.\H,0,-0.43068

 Normal termination of Gaussian 16 at Sat Apr  5 22:26:42 2025.
