 Gaussian 16, Revision C.01,

 ----------------------------------------------------------------------
 #t hf aug-cc-pvdz symm=none int=(grid=ultrafine) guess=(read,tcheck) s
 table=(opt,rrhf)
 ----------------------------------------------------------------------
 -----
 title
 -----
 Symbolic Z-matrix:
 Charge =  0 Multiplicity = 1

 SCF Done:  E(RHF) =  -743.555390698     A.U. after   13 cycles
 Normal termination of Gaussian 16 at Sat Apr  5 22:26:00 2025.
 Gaussian 16:  ES64L-G16RevC.01  3-Jul-2019

 ----------------------------------------------------------------------
 #t hf aug-cc-pvdz iop(5/13=1,5/36=2,99/5=2) pseudo=read geom=check gue
 ss=(read,tcheck) scf=(maxcycle=1)
 ----------------------------------------------------------------------
 -----
 title
 -----
 Structure from the checkpoint file:  "1-methylsulfonylbutane.chk"
 Charge =  0 Multiplicity = 1

                         Standard orientation:
 ---------------------------------------------------------------------
 Center     Atomic      Atomic             Coordinates (Angstroms)
 Number     Number       Type             X           Y           Z
 ---------------------------------------------------------------------
      1          6           0        3.923243   -0.294842    0.000054
      2          6           0        2.698256    0.617692   -0.000087
      3          6           0        1.382566   -0.165828    0.000024
      4          6           0        0.168891    0.759188   -0.000133
      5         16           0       -1.375513   -0.194329    0.000033
      6          6           0       -2.659703    1.068823   -0.000208
      7          8           0       -1.466231   -0.923301   -1.262796
      8          8           0       -1.466246   -0.922837    1.263128
      9          1           0        3.934055   -0.938927    0.881033
     10          1           0        3.934060   -0.939189   -0.880734
     11          1           0        4.846873    0.284744   -0.000030
     12          1           0        2.730480    1.272993   -0.875356
     13          1           0        2.730472    1.273253    0.874988
     14          1           0        1.338291   -0.814008    0.877013
     15          1           0        1.338307   -0.814284   -0.876761
     16          1           0        0.138588    1.388271   -0.890317
     17          1           0        0.138590    1.388574    0.889838
     18          1           0       -3.601690    0.525093   -0.000121
     19          1           0       -2.569767    1.670989    0.899941
     20          1           0       -2.569747    1.670664   -0.900573
 ---------------------------------------------------------------------

 SCF Done:  E(RHF) =  -743.987648188     A.U. after    2 cycles

 The electronic state is 1-A.
 Alpha  occ. eigenvalues --  -94.18170 -20.52618 -20.52614 -11.28744 -11.28668
 Alpha  occ. eigenvalues --  -11.24905 -11.24410 -11.23165  -8.43529  -6.41629
 Alpha  occ. eigenvalues --   -6.41423  -6.41366  -1.53772  -1.42000  -1.11760
 Alpha  occ. eigenvalues --   -1.06753  -1.01622  -0.91589  -0.82712  -0.81223
 Alpha  occ. eigenvalues --   -0.69317  -0.68779  -0.66666  -0.65348  -0.61739
 Alpha  occ. eigenvalues --   -0.61417  -0.59876  -0.59749  -0.56577  -0.53387
 Alpha  occ. eigenvalues --   -0.51196  -0.50234  -0.49185  -0.47779  -0.47495
 Alpha  occ. eigenvalues --   -0.44814  -0.42545
 Alpha virt. eigenvalues --    0.02671   0.03281   0.03601   0.04275   0.05277
 Alpha virt. eigenvalues --    0.05562   0.06301   0.07355   0.08217   0.08752
 Alpha virt. eigenvalues --    0.08877   0.10282   0.10908   0.12153   0.13284

 Mulliken charges:
               1
     1  C   -0.358216
     2  C   -0.244809
     3  C   -0.050253
     4  C   -0.800438
     5  S    3.228510
     6  C   -0.597597
     7  O   -1.568189
     8  O   -1.568187
     9  H    0.163378
    10  H    0.163377
    11  H    0.115231
    12  H    0.112107
    13  H    0.112104
    14  H    0.137612
    15  H    0.137615
    16  H    0.159454
    17  H    0.159462
    18  H    0.244565
    19  H    0.227137
    20  H    0.227138
 Sum of Mulliken charges =  -0.00000

 Dipole moment (field-independent basis, Debye):
    X=              1.2288    Y=              4.8939    Z=             -0.0009  Tot=              5.0458

 Test job not archived.
 1\1\GINC-SE213\SP\RHF\Aug-CC-pVDZ\C5H12O2S1\OHZDE\05-Apr-2025\0\\#t hf
  aug-cc-pvdz iop(5/13=1,5/36=2,99/5=2) pseudo=read geom=check guess=(r
 ead,tcheck) scf=(maxcycle=1)\\title\\0,1\C,0,3.923243,-0.294842,0.0000
 54\C,0,2.698256,0.617692,-0.000087\C,0,1.382566,-0.165828,0.000024\C,0
 ,0.168891,0.759188,-0.000133\S,0,-1.375513,-0.194329,0.000033\C,0,-2.6
 59703,1.068823,-0.000208\O,0,-1.466231,-0.923301,-1.262796\O,0,-1.4662
 46,-0.922837,1.263128\H,0,3.934055,-0.938927,0.881033\H,0,3.93406,-0.9
 39189,-0.880734\H,0,4.846873,0.284744,-0.00003\H,0,2.73048,1.272993,-0

 Normal termination of Gaussian 16 at Sat Apr  5 22:26:49 2025.
