 Gaussian 16, Revision C.01,

 ----------------------------------------------------------------------
 #t hf aug-cc-pvdz symm=none int=(grid=ultrafine) guess=(read,tcheck) s
 table=(opt,rrhf)
 ----------------------------------------------------------------------
 -----
 title
 -----
 Symbolic Z-matrix:
 Charge =  0 Multiplicity = 1

 SCF Done:  E(RHF) =  -232.169613976     A.U. after   12 cycles

 1\1\GINC-SE176\Stability\RHF\Aug-CC-pVDZ\C4H10O1\OHZDE\05-Apr-2025\0\\
 #t hf aug-cc-pvdz symm=none int=(grid=ultrafine) guess=(read,tcheck) s
 table=(opt,rrhf)\\title\\0,1\C,0,2.489725,-0.124251,0.\C,0,-2.342568,0
 .613953,0.\C,0,1.086798,-0.728805,0.\C,0,0.,0.330652,0.\O,0,-1.268327,
 -0.300846,0.\H,0,2.655854,0.498469,0.881326\H,0,3.251026,-0.904383,0.\
 H,0,2.655854,0.498469,-0.881326\H,0,-2.324263,1.255246,0.889932\H,0,-3
 .26375,0.034649,0.\H,0,-2.324263,1.255246,-0.889932\H,0,0.951134,-1.36
 6811,0.875899\H,0,0.951134,-1.366811,-0.875899\H,0,0.095077,0.9767,0.8

 Normal termination of Gaussian 16 at Sat Apr  5 22:27:01 2025.
 Gaussian 16:  ES64L-G16RevC.01  3-Jul-2019

 ----------------------------------------------------------------------
 #t hf aug-cc-pvdz iop(5/13=1,5/36=2,99/5=2) pseudo=read geom=check gue
 ss=(read,tcheck) scf=(maxcycle=1)
 ----------------------------------------------------------------------
 -----
 title
 -----
 Structure from the checkpoint file:  "1-methoxypropane.chk"
 Charge =  0 Multiplicity = 1

                         Standard orientation:
 ---------------------------------------------------------------------
 Center     Atomic      Atomic             Coordinates (Angstroms)
 Number     Number       Type             X           Y           Z
 ---------------------------------------------------------------------
      1          6           0        2.489725   -0.124250    0.000000
      2          6           0       -2.342568    0.613952    0.000000
      3          6           0        1.086798   -0.728805    0.000000
      4          6           0        0.000000    0.330652    0.000000
      5          8           0       -1.268327   -0.300847    0.000000
      6          1           0        2.655854    0.498470    0.881326
      7          1           0        3.251027   -0.904382    0.000000
      8          1           0        2.655854    0.498470   -0.881326
      9          1           0       -2.324263    1.255245    0.889932
     10          1           0       -3.263750    0.034648    0.000000
     11          1           0       -2.324263    1.255245   -0.889932
     12          1           0        0.951135   -1.366811    0.875899
     13          1           0        0.951135   -1.366811   -0.875899
     14          1           0        0.095077    0.976700    0.885030
     15          1           0        0.095077    0.976700   -0.885030
 ---------------------------------------------------------------------

 SCF Done:  E(RHF) =  -232.423061423     A.U. after    2 cycles

 The electronic state is 1-A'.
 Alpha  occ. eigenvalues --  -20.53878 -11.27782 -11.27723 -11.22509 -11.22478
 Alpha  occ. eigenvalues --   -1.45547  -1.05977  -0.95302  -0.88255  -0.81151
 Alpha  occ. eigenvalues --   -0.67587  -0.65334  -0.63085  -0.61083  -0.57150
 Alpha  occ. eigenvalues --   -0.54703  -0.51326  -0.49360  -0.48326  -0.46879
 Alpha  occ. eigenvalues --   -0.41298
 Alpha virt. eigenvalues --    0.03824   0.03936   0.04254   0.04417   0.06232
 Alpha virt. eigenvalues --    0.06596   0.06845   0.07783   0.09276   0.10055
 Alpha virt. eigenvalues --    0.11633   0.12616   0.15027   0.15519   0.15692

 Mulliken charges:
               1
     1  C   -0.320110
     2  C    0.103440
     3  C   -0.503754
     4  C    0.697719
     5  O   -1.283950
     6  H    0.166200
     7  H    0.109837
     8  H    0.166200
     9  H    0.177672
    10  H   -0.027173
    11  H    0.177672
    12  H    0.145904
    13  H    0.145904
    14  H    0.122220
    15  H    0.122220
 Sum of Mulliken charges =  -0.00000

 Dipole moment (field-independent basis, Debye):
    X=              0.2542    Y=              1.1687    Z=              0.0000  Tot=              1.1961

 Test job not archived.
 1\1\GINC-SE176\SP\RHF\Aug-CC-pVDZ\C4H10O1\OHZDE\05-Apr-2025\0\\#t hf a
 ug-cc-pvdz iop(5/13=1,5/36=2,99/5=2) pseudo=read geom=check guess=(rea
 d,tcheck) scf=(maxcycle=1)\\title\\0,1\C,0,2.489725,-0.124251,0.\C,0,-
 2.342568,0.613953,0.\C,0,1.086798,-0.728805,0.\C,0,0.,0.330652,0.\O,0,
 -1.268327,-0.300846,0.\H,0,2.655854,0.498469,0.881326\H,0,3.251026,-0.
 904383,0.\H,0,2.655854,0.498469,-0.881326\H,0,-2.324263,1.255246,0.889
 932\H,0,-3.26375,0.034649,0.\H,0,-2.324263,1.255246,-0.889932\H,0,0.95
 1134,-1.366811,0.875899\H,0,0.951134,-1.366811,-0.875899\H,0,0.095077,

 Normal termination of Gaussian 16 at Sat Apr  5 22:27:05 2025.
