 Gaussian 16, Revision C.01,

 ----------------------------------------------------------------------
 #t hf aug-cc-pvdz symm=none int=(grid=ultrafine) guess=(read,tcheck) s
 table=(opt,rrhf)
 ----------------------------------------------------------------------
 -----
 title
 -----
 Symbolic Z-matrix:
 Charge =  0 Multiplicity = 1

 SCF Done:  E(RHF) =  -589.523408539     A.U. after   14 cycles
 Normal termination of Gaussian 16 at Sat Apr  5 22:26:48 2025.
 Gaussian 16:  ES64L-G16RevC.01  3-Jul-2019

 ----------------------------------------------------------------------
 #t hf aug-cc-pvdz iop(5/13=1,5/36=2,99/5=2) pseudo=read geom=check gue
 ss=(read,tcheck) scf=(maxcycle=1)
 ----------------------------------------------------------------------
 -----
 title
 -----
 Structure from the checkpoint file:  "1-methylsulfanylethanone.chk"
 Charge =  0 Multiplicity = 1

                         Standard orientation:
 ---------------------------------------------------------------------
 Center     Atomic      Atomic             Coordinates (Angstroms)
 Number     Number       Type             X           Y           Z
 ---------------------------------------------------------------------
      1          6           0        0.754145    0.274218   -0.000001
      2          6           0        2.080251   -0.448669   -0.000000
      3          6           0       -2.006474    0.397153    0.000001
      4          8           0        0.648332    1.474901   -0.000000
      5         16           0       -0.661464   -0.824798   -0.000000
      6          1           0        1.966836   -1.530536   -0.000035
      7          1           0        2.644386   -0.141223    0.880822
      8          1           0        2.644418   -0.141166   -0.880780
      9          1           0       -1.944496    1.019312    0.888116
     10          1           0       -2.937384   -0.164322    0.000020
     11          1           0       -1.944520    1.019289   -0.888133
 ---------------------------------------------------------------------

 SCF Done:  E(RHF) =  -589.782163883     A.U. after    2 cycles

 The electronic state is 1-A.
 Alpha  occ. eigenvalues --  -93.96473 -20.54579 -11.37320 -11.27066 -11.25634
 Alpha  occ. eigenvalues --   -8.24709  -6.22521  -6.22341  -6.22159  -1.48674
 Alpha  occ. eigenvalues --   -1.09546  -1.02554  -0.90749  -0.74576  -0.66239
 Alpha  occ. eigenvalues --   -0.64521  -0.62764  -0.59855  -0.59396  -0.54850
 Alpha  occ. eigenvalues --   -0.51803  -0.49088  -0.40679  -0.37753
 Alpha virt. eigenvalues --    0.03702   0.03872   0.05001   0.05196   0.06438
 Alpha virt. eigenvalues --    0.06981   0.08720   0.11344   0.11912   0.12812
 Alpha virt. eigenvalues --    0.13491   0.13548   0.14235   0.16190   0.16249

 Mulliken charges:
               1
     1  C    0.779447
     2  C   -0.427033
     3  C   -0.682517
     4  O   -1.271919
     5  S    0.393307
     6  H    0.172315
     7  H    0.232950
     8  H    0.232939
     9  H    0.217491
    10  H    0.135529
    11  H    0.217490
 Sum of Mulliken charges =  -0.00000

 Dipole moment (field-independent basis, Debye):
    X=             -0.1339    Y=             -1.2848    Z=              0.0000  Tot=              1.2918

 Test job not archived.
 1\1\GINC-SE213\SP\RHF\Aug-CC-pVDZ\C3H6O1S1\OHZDE\05-Apr-2025\0\\#t hf
 aug-cc-pvdz iop(5/13=1,5/36=2,99/5=2) pseudo=read geom=check guess=(re
 ad,tcheck) scf=(maxcycle=1)\\title\\0,1\C,0,0.754145,0.274218,-0.00000
 1\C,0,2.080251,-0.448669,0.\C,0,-2.006474,0.397153,0.000001\O,0,0.6483
 32,1.474901,0.\S,0,-0.661464,-0.824798,0.\H,0,1.966836,-1.530536,-0.00
 0035\H,0,2.644386,-0.141223,0.880822\H,0,2.644418,-0.141166,-0.88078\H
 ,0,-1.944496,1.019312,0.888116\H,0,-2.937384,-0.164322,0.00002\H,0,-1.
 94452,1.019289,-0.888133\\Version=ES64L-G16RevC.01\State=1-A\HF=-589.7

 Normal termination of Gaussian 16 at Sat Apr  5 22:26:52 2025.
