 Gaussian 16, Revision C.01,

 ----------------------------------------------------------------------
 #t hf aug-cc-pvdz symm=none int=(grid=ultrafine) guess=(read,tcheck) s
 table=(opt,rrhf)
 ----------------------------------------------------------------------
 -----
 title
 -----
 Symbolic Z-matrix:
 Charge =  0 Multiplicity = 1

 SCF Done:  E(RHF) =  -569.671105986     A.U. after   14 cycles
 Normal termination of Gaussian 16 at Sat Apr  5 22:24:54 2025.
 Gaussian 16:  ES64L-G16RevC.01  3-Jul-2019

 ----------------------------------------------------------------------
 #t hf aug-cc-pvdz iop(5/13=1,5/36=2,99/5=2) pseudo=read geom=check gue
 ss=(read,tcheck) scf=(maxcycle=1)
 ----------------------------------------------------------------------
 -----
 title
 -----
 Structure from the checkpoint file:  "1-methylsulfanylethanimine.chk"
 Charge =  0 Multiplicity = 1

                         Standard orientation:
 ---------------------------------------------------------------------
 Center     Atomic      Atomic             Coordinates (Angstroms)
 Number     Number       Type             X           Y           Z
 ---------------------------------------------------------------------
      1          6           0        0.000000    0.825176    0.000000
      2          6           0        1.158271    1.785300    0.000000
      3          6           0       -1.007571   -1.801949    0.000000
      4          7           0       -1.193183    1.247338    0.000000
      5         16           0        0.556958   -0.883144    0.000000
      6          1           0        1.784741    1.632779    0.879911
      7          1           0        1.784741    1.632779   -0.879911
      8          1           0        0.775934    2.802688    0.000000
      9          1           0       -0.737538   -2.855412    0.000000
     10          1           0       -1.589589   -1.586821   -0.894274
     11          1           0       -1.589589   -1.586821    0.894274
     12          1           0       -1.891951    0.508598    0.000000
 ---------------------------------------------------------------------

 SCF Done:  E(RHF) =  -569.915853659     A.U. after    2 cycles

 The electronic state is 1-A'.
 Alpha  occ. eigenvalues --  -93.96198 -15.49186 -11.32497 -11.27969 -11.24237
 Alpha  occ. eigenvalues --   -8.24385  -6.22209  -6.22023  -6.21823  -1.23064
 Alpha  occ. eigenvalues --   -1.07734  -1.01041  -0.90587  -0.77805  -0.67799
 Alpha  occ. eigenvalues --   -0.62022  -0.61994  -0.59682  -0.58673  -0.54431
 Alpha  occ. eigenvalues --   -0.49628  -0.48148  -0.43064  -0.36924
 Alpha virt. eigenvalues --    0.03314   0.04263   0.04864   0.05271   0.06169
 Alpha virt. eigenvalues --    0.06470   0.07724   0.09179   0.11035   0.12604
 Alpha virt. eigenvalues --    0.13132   0.13718   0.14601   0.15149   0.16078

 Mulliken charges:
               1
     1  C   -1.600435
     2  C   -0.307274
     3  C   -0.741181
     4  N    0.820716
     5  S    0.500904
     6  H    0.254938
     7  H    0.254938
     8  H    0.156907
     9  H    0.038746
    10  H    0.260976
    11  H    0.260976
    12  H    0.099788
 Sum of Mulliken charges =  -0.00000

 Dipole moment (field-independent basis, Debye):
    X=              0.2577    Y=             -2.0148    Z=              0.0000  Tot=              2.0312

 Test job not archived.
 1\1\GINC-SE211\SP\RHF\Aug-CC-pVDZ\C3H7N1S1\OHZDE\05-Apr-2025\0\\#t hf
 aug-cc-pvdz iop(5/13=1,5/36=2,99/5=2) pseudo=read geom=check guess=(re
 ad,tcheck) scf=(maxcycle=1)\\title\\0,1\C,0,0.,0.825176,0.\C,0,1.15827
 1,1.7853,0.\C,0,-1.007571,-1.801949,0.\N,0,-1.193183,1.247338,0.\S,0,0
 .556958,-0.883144,0.\H,0,1.784741,1.632779,0.879911\H,0,1.784741,1.632
 779,-0.879911\H,0,0.775934,2.802688,0.\H,0,-0.737538,-2.855412,0.\H,0,
 -1.589589,-1.586821,-0.894274\H,0,-1.589589,-1.586821,0.894274\H,0,-1.
 891951,0.508598,0.\\Version=ES64L-G16RevC.01\State=1-A'\HF=-569.915853

 Normal termination of Gaussian 16 at Sat Apr  5 22:26:43 2025.
