 Gaussian 16, Revision C.01,

 ----------------------------------------------------------------------
 #t hf aug-cc-pvdz symm=none int=(grid=ultrafine) guess=(read,tcheck) s
 table=(opt,rrhf)
 ----------------------------------------------------------------------
 -----
 title
 -----
 Symbolic Z-matrix:
 Charge =  0 Multiplicity = 1

 SCF Done:  E(RHF) =  -360.825418281     A.U. after   14 cycles
 Normal termination of Gaussian 16 at Sat Apr  5 22:28:40 2025.
 Gaussian 16:  ES64L-G16RevC.01  3-Jul-2019

 ----------------------------------------------------------------------
 #t hf aug-cc-pvdz iop(5/13=1,5/36=2,99/5=2) pseudo=read geom=check gue
 ss=(read,tcheck) scf=(maxcycle=1)
 ----------------------------------------------------------------------
 -----
 title
 -----
 Structure from the checkpoint file:  "1-nitrobutane.chk"
 Charge =  0 Multiplicity = 1

                         Standard orientation:
 ---------------------------------------------------------------------
 Center     Atomic      Atomic             Coordinates (Angstroms)
 Number     Number       Type             X           Y           Z
 ---------------------------------------------------------------------
      1          6           0        0.536731    3.223064   -0.000000
      2          6           0       -0.454928    2.061221   -0.000000
      3          6           0        0.239825    0.697977   -0.000000
      4          6           0       -0.768764   -0.447146    0.000000
      5          7           0       -0.044489   -1.768093    0.000000
      6          8           0        0.239825   -2.250342    1.084249
      7          8           0        0.239825   -2.250342   -1.084249
      8          1           0        0.018030    4.181913   -0.000000
      9          1           0        1.179997    3.192827    0.881142
     10          1           0        1.179997    3.192827   -0.881142
     11          1           0       -1.106167    2.136482    0.875255
     12          1           0       -1.106167    2.136482   -0.875255
     13          1           0        0.880107    0.607526   -0.879899
     14          1           0        0.880107    0.607526    0.879899
     15          1           0       -1.384437   -0.442080    0.895216
     16          1           0       -1.384437   -0.442080   -0.895216
 ---------------------------------------------------------------------

 SCF Done:  E(RHF) =  -361.194825395     A.U. after    2 cycles

 The electronic state is 1-A'.
 Alpha  occ. eigenvalues --  -20.58850 -20.58841 -15.78234 -11.31351 -11.26307
 Alpha  occ. eigenvalues --  -11.25440 -11.24057  -1.66793  -1.50546  -1.14891
 Alpha  occ. eigenvalues --   -1.06983  -0.96067  -0.86680  -0.83399  -0.76995
 Alpha  occ. eigenvalues --   -0.75395  -0.73531  -0.68525  -0.62129  -0.61730
 Alpha  occ. eigenvalues --   -0.57750  -0.54803  -0.52668  -0.51241  -0.50196
 Alpha  occ. eigenvalues --   -0.48233  -0.48046  -0.44699
 Alpha virt. eigenvalues --    0.03019   0.03375   0.03650   0.04409   0.05850
 Alpha virt. eigenvalues --    0.06052   0.07283   0.07673   0.07949   0.09511
 Alpha virt. eigenvalues --    0.09844   0.12535   0.13741   0.14410   0.14451

 Mulliken charges:
               1
     1  C   -0.363921
     2  C   -0.188693
     3  C   -0.346468
     4  C   -0.216200
     5  N    2.676617
     6  O   -1.379956
     7  O   -1.379956
     8  H    0.125767
     9  H    0.155399
    10  H    0.155399
    11  H    0.118081
    12  H    0.118081
    13  H    0.155807
    14  H    0.155807
    15  H    0.107119
    16  H    0.107119
 Sum of Mulliken charges =  -0.00000

 Dipole moment (field-independent basis, Debye):
    X=             -1.6140    Y=              4.1096    Z=             -0.0000  Tot=              4.4152

 Test job not archived.
 1\1\GINC-SE028\SP\RHF\Aug-CC-pVDZ\C4H9N1O2\OHZDE\05-Apr-2025\0\\#t hf
 aug-cc-pvdz iop(5/13=1,5/36=2,99/5=2) pseudo=read geom=check guess=(re
 ad,tcheck) scf=(maxcycle=1)\\title\\0,1\C,0,0.536731,3.223064,0.\C,0,-
 0.454928,2.061221,0.\C,0,0.239825,0.697977,0.\C,0,-0.768764,-0.447146,
 0.\N,0,-0.044489,-1.768093,0.\O,0,0.239825,-2.250342,1.084249\O,0,0.23
 9825,-2.250342,-1.084249\H,0,0.01803,4.181913,0.\H,0,1.179997,3.192827
 ,0.881142\H,0,1.179997,3.192827,-0.881142\H,0,-1.106167,2.136482,0.875
 255\H,0,-1.106167,2.136482,-0.875255\H,0,0.880107,0.607526,-0.879899\H

 Normal termination of Gaussian 16 at Sat Apr  5 22:29:25 2025.
