 Gaussian 16, Revision C.01,

 ----------------------------------------------------------------------
 #t hf aug-cc-pvdz symm=none int=(grid=ultrafine) guess=(read,tcheck) s
 table=(opt,rrhf)
 ----------------------------------------------------------------------
 -----
 title
 -----
 Symbolic Z-matrix:
 Charge =  0 Multiplicity = 1

 SCF Done:  E(RHF) =  -399.864324383     A.U. after   15 cycles
 Normal termination of Gaussian 16 at Sat Apr  5 22:29:12 2025.
 Gaussian 16:  ES64L-G16RevC.01  3-Jul-2019

 ----------------------------------------------------------------------
 #t hf aug-cc-pvdz iop(5/13=1,5/36=2,99/5=2) pseudo=read geom=check gue
 ss=(read,tcheck) scf=(maxcycle=1)
 ----------------------------------------------------------------------
 -----
 title
 -----
 Structure from the checkpoint file:  "1-nitropentane.chk"
 Charge =  0 Multiplicity = 1

                         Standard orientation:
 ---------------------------------------------------------------------
 Center     Atomic      Atomic             Coordinates (Angstroms)
 Number     Number       Type             X           Y           Z
 ---------------------------------------------------------------------
      1          6           0       -3.998201   -0.032014    0.092137
      2          6           0       -2.629647    0.130528   -0.566038
      3          6           0       -1.467215   -0.100900    0.400376
      4          6           0       -0.099316    0.063086   -0.264256
      5          6           0        1.038289   -0.173687    0.725014
      6          7           0        2.364390   -0.001301    0.031077
      7          8           0        2.905108   -1.004150   -0.406070
      8          8           0        2.792402    1.136336   -0.078101
      9          1           0       -4.802943    0.140790   -0.623098
     10          1           0       -4.125783   -1.037723    0.497305
     11          1           0       -4.128535    0.674598    0.914043
     12          1           0       -2.547318    1.133724   -0.993858
     13          1           0       -2.543271   -0.565696   -1.405148
     14          1           0       -1.548032   -1.105658    0.827165
     15          1           0       -1.550790    0.596612    1.239848
     16          1           0       -0.003675    1.068374   -0.678690
     17          1           0       -0.002303   -0.642032   -1.092626
     18          1           0        1.032650   -1.187298    1.115133
     19          1           0        1.025724    0.553854    1.532353
 ---------------------------------------------------------------------

 SCF Done:  E(RHF) =  -400.277297088     A.U. after    2 cycles

 The electronic state is 1-A.
 Alpha  occ. eigenvalues --  -20.58862 -20.58757 -15.78203 -11.31314 -11.26245
 Alpha  occ. eigenvalues --  -11.25102 -11.24319 -11.23441  -1.66749  -1.50496
 Alpha  occ. eigenvalues --   -1.14920  -1.08558  -1.00320  -0.90494  -0.85322
 Alpha  occ. eigenvalues --   -0.81995  -0.76852  -0.75358  -0.73400  -0.68781
 Alpha  occ. eigenvalues --   -0.63839  -0.61001  -0.59754  -0.57594  -0.54398
 Alpha  occ. eigenvalues --   -0.52135  -0.51269  -0.49714  -0.49069  -0.48189
 Alpha  occ. eigenvalues --   -0.47624  -0.44662
 Alpha virt. eigenvalues --    0.02954   0.03242   0.03350   0.04219   0.05579
 Alpha virt. eigenvalues --    0.05746   0.06723   0.06818   0.07385   0.08959
 Alpha virt. eigenvalues --    0.09067   0.09681   0.10313   0.12670   0.13173

 Mulliken charges:
               1
     1  C   -0.371198
     2  C   -0.246371
     3  C   -0.129163
     4  C   -0.334370
     5  C   -0.239697
     6  N    2.736920
     7  O   -1.392619
     8  O   -1.396012
     9  H    0.124101
    10  H    0.163395
    11  H    0.162625
    12  H    0.099171
    13  H    0.098280
    14  H    0.097603
    15  H    0.104662
    16  H    0.160529
    17  H    0.150170
    18  H    0.098176
    19  H    0.113800
 Sum of Mulliken charges =  -0.00000

 Dipole moment (field-independent basis, Debye):
    X=             -4.1954    Y=             -0.3621    Z=              1.4646  Tot=              4.4584

 Test job not archived.
 1\1\GINC-SE050\SP\RHF\Aug-CC-pVDZ\C5H11N1O2\OHZDE\05-Apr-2025\0\\#t hf
  aug-cc-pvdz iop(5/13=1,5/36=2,99/5=2) pseudo=read geom=check guess=(r
 ead,tcheck) scf=(maxcycle=1)\\title\\0,1\C,0,-3.998201,-0.032014,0.092
 137\C,0,-2.629647,0.130528,-0.566038\C,0,-1.467215,-0.1009,0.400376\C,
 0,-0.099316,0.063086,-0.264256\C,0,1.038289,-0.173687,0.725014\N,0,2.3
 6439,-0.001301,0.031077\O,0,2.905108,-1.00415,-0.40607\O,0,2.792402,1.
 136336,-0.078101\H,0,-4.802943,0.14079,-0.623098\H,0,-4.125783,-1.0377
 23,0.497305\H,0,-4.128535,0.674598,0.914043\H,0,-2.547318,1.133724,-0.

 Normal termination of Gaussian 16 at Sat Apr  5 22:29:30 2025.
