 Gaussian 16, Revision C.01,

 ----------------------------------------------------------------------
 #t hf aug-cc-pvdz symm=none int=(grid=ultrafine) guess=(read,tcheck) s
 table=(opt,rrhf)
 ----------------------------------------------------------------------
 -----
 title
 -----
 Symbolic Z-matrix:
 Charge =  0 Multiplicity = 1

 SCF Done:  E(RHF) =  -504.049464255     A.U. after   17 cycles
 Normal termination of Gaussian 16 at Sat Apr  5 22:28:57 2025.
 Gaussian 16:  ES64L-G16RevC.01  3-Jul-2019

 ----------------------------------------------------------------------
 #t hf aug-cc-pvdz iop(5/13=1,5/36=2,99/5=2) pseudo=read geom=check gue
 ss=(read,tcheck) scf=(maxcycle=1)
 ----------------------------------------------------------------------
 -----
 title
 -----
 Structure from the checkpoint file:  "1-nitropyrrole-3-carbonitrile.chk"
 Charge =  0 Multiplicity = 1

                         Standard orientation:
 ---------------------------------------------------------------------
 Center     Atomic      Atomic             Coordinates (Angstroms)
 Number     Number       Type             X           Y           Z
 ---------------------------------------------------------------------
      1          8           0       -2.903943    0.542304    0.000007
      2          8           0       -2.224534   -1.527721   -0.000004
      3          7           0       -0.718011    0.114913    0.000001
      4          7           0       -2.064664   -0.328750    0.000001
      5          7           0        3.923133   -0.694141   -0.000009
      6          6           0        1.475503    0.087120   -0.000000
      7          6           0        0.370315   -0.724286   -0.000004
      8          6           0       -0.330392    1.446894    0.000007
      9          6           0        1.027257    1.456025    0.000005
     10          6           0        2.822191   -0.353769   -0.000005
     11          1           0        0.260075   -1.791459   -0.000009
     12          1           0       -1.062361    2.231220    0.000012
     13          1           0        1.657653    2.327515    0.000009
 ---------------------------------------------------------------------

 SCF Done:  E(RHF) =  -504.537027813     A.U. after    2 cycles

 The electronic state is 1-A.
 Alpha  occ. eigenvalues --  -20.63916 -20.63881 -15.87936 -15.65870 -15.52991
 Alpha  occ. eigenvalues --  -11.34191 -11.32589 -11.31092 -11.29944 -11.28994
 Alpha  occ. eigenvalues --   -1.74020  -1.57684  -1.39581  -1.25073  -1.19228
 Alpha  occ. eigenvalues --   -1.07831  -1.02977  -0.91187  -0.88285  -0.83085
 Alpha  occ. eigenvalues --   -0.82954  -0.80253  -0.76816  -0.68281  -0.66786
 Alpha  occ. eigenvalues --   -0.66399  -0.63383  -0.61758  -0.56573  -0.55395
 Alpha  occ. eigenvalues --   -0.53889  -0.51600  -0.50383  -0.43600  -0.38246
 Alpha virt. eigenvalues --    0.00339   0.02746   0.04021   0.04639   0.06953
 Alpha virt. eigenvalues --    0.07642   0.07698   0.09376   0.10262   0.10409
 Alpha virt. eigenvalues --    0.11235   0.11607   0.12861   0.13424   0.13829

 Mulliken charges:
               1
     1  O   -1.219662
     2  O   -1.242679
     3  N    0.381915
     4  N    2.268848
     5  N    1.119092
     6  C    1.908156
     7  C   -0.132680
     8  C   -0.204315
     9  C    0.611796
    10  C   -2.678370
    11  H   -0.342698
    12  H   -0.247998
    13  H   -0.221405
 Sum of Mulliken charges =  -0.00000

 Dipole moment (field-independent basis, Debye):
    X=             -2.5762    Y=              2.2421    Z=              0.0000  Tot=              3.4152

 Test job not archived.
 1\1\GINC-SE231\SP\RHF\Aug-CC-pVDZ\C5H3N3O2\OHZDE\05-Apr-2025\0\\#t hf
 aug-cc-pvdz iop(5/13=1,5/36=2,99/5=2) pseudo=read geom=check guess=(re
 ad,tcheck) scf=(maxcycle=1)\\title\\0,1\O,0,-2.903943,0.542304,0.00000
 7\O,0,-2.224534,-1.527721,-0.000004\N,0,-0.718011,0.114913,0.000001\N,
 0,-2.064664,-0.32875,0.000001\N,0,3.923133,-0.694141,-0.000009\C,0,1.4
 75503,0.08712,0.\C,0,0.370315,-0.724286,-0.000004\C,0,-0.330392,1.4468
 94,0.000007\C,0,1.027257,1.456025,0.000005\C,0,2.822191,-0.353769,-0.0
 00005\H,0,0.260075,-1.791459,-0.000009\H,0,-1.062361,2.23122,0.000012\

 Normal termination of Gaussian 16 at Sat Apr  5 22:29:27 2025.
