 Gaussian 16, Revision C.01,

 ----------------------------------------------------------------------
 #t hf aug-cc-pvdz symm=none int=(grid=ultrafine) guess=(read,tcheck) s
 table=(opt,rrhf)
 ----------------------------------------------------------------------
 -----
 title
 -----
 Symbolic Z-matrix:
 Charge =  0 Multiplicity = 1

 SCF Done:  E(RHF) =  -429.531121879     A.U. after   17 cycles
 Normal termination of Gaussian 16 at Sat Apr  5 22:28:40 2025.
 Gaussian 16:  ES64L-G16RevC.01  3-Jul-2019

 ----------------------------------------------------------------------
 #t hf aug-cc-pvdz iop(5/13=1,5/36=2,99/5=2) pseudo=read geom=check gue
 ss=(read,tcheck) scf=(maxcycle=1)
 ----------------------------------------------------------------------
 -----
 title
 -----
 Structure from the checkpoint file:  "1-nitrosopyrazolidin-3-one.chk"
 Charge =  0 Multiplicity = 1

                         Standard orientation:
 ---------------------------------------------------------------------
 Center     Atomic      Atomic             Coordinates (Angstroms)
 Number     Number       Type             X           Y           Z
 ---------------------------------------------------------------------
      1          8           0        2.708104   -0.570601   -0.088239
      2          8           0       -2.779924    0.006037   -0.197353
      3          7           0       -0.704809   -0.238358    0.294109
      4          7           0        0.460380   -0.985720    0.109260
      5          7           0       -1.836329   -0.763921   -0.182698
      6          6           0       -0.379980    1.203560    0.320132
      7          6           0        1.049525    1.244702   -0.232188
      8          6           0        1.565924   -0.183314   -0.071158
      9          1           0       -0.441868    1.572185    1.343414
     10          1           0       -1.126052    1.719833   -0.277729
     11          1           0        1.701720    1.927919    0.304039
     12          1           0        1.078298    1.509182   -1.289948
     13          1           0        0.514950   -1.886298    0.559549
 ---------------------------------------------------------------------

 SCF Done:  E(RHF) =  -429.956580103     A.U. after    2 cycles

 The electronic state is 1-A.
 Alpha  occ. eigenvalues --  -20.59137 -20.54187 -15.68850 -15.61988 -15.58704
 Alpha  occ. eigenvalues --  -11.39101 -11.31649 -11.28285  -1.59863  -1.49235
 Alpha  occ. eigenvalues --   -1.39317  -1.21317  -1.12251  -0.99596  -0.89757
 Alpha  occ. eigenvalues --   -0.88062  -0.80341  -0.75943  -0.72344  -0.68764
 Alpha  occ. eigenvalues --   -0.66167  -0.64573  -0.63721  -0.61771  -0.59695
 Alpha  occ. eigenvalues --   -0.56822  -0.50078  -0.45356  -0.45029  -0.41469
 Alpha virt. eigenvalues --    0.02762   0.03914   0.04465   0.05382   0.05403
 Alpha virt. eigenvalues --    0.06722   0.08286   0.09125   0.10952   0.11266
 Alpha virt. eigenvalues --    0.13302   0.13498   0.13910   0.14589   0.14849

 Mulliken charges:
               1
     1  O   -1.239231
     2  O   -1.063765
     3  N   -0.812413
     4  N    0.641637
     5  N    1.342071
     6  C    0.099382
     7  C   -0.318488
     8  C    0.655344
     9  H    0.113188
    10  H    0.071959
    11  H    0.188925
    12  H    0.239747
    13  H    0.081644
 Sum of Mulliken charges =  -0.00000

 Dipole moment (field-independent basis, Debye):
    X=              0.0296    Y=              2.5316    Z=              0.9787  Tot=              2.7143

 Test job not archived.
 1\1\GINC-SE085\SP\RHF\Aug-CC-pVDZ\C3H5N3O2\OHZDE\05-Apr-2025\0\\#t hf
 aug-cc-pvdz iop(5/13=1,5/36=2,99/5=2) pseudo=read geom=check guess=(re
 ad,tcheck) scf=(maxcycle=1)\\title\\0,1\O,0,2.708104,-0.570601,-0.0882
 39\O,0,-2.779924,0.006037,-0.197353\N,0,-0.704809,-0.238358,0.294109\N
 ,0,0.46038,-0.98572,0.10926\N,0,-1.836329,-0.763921,-0.182698\C,0,-0.3
 7998,1.20356,0.320132\C,0,1.049525,1.244702,-0.232188\C,0,1.565924,-0.
 183314,-0.071158\H,0,-0.441868,1.572185,1.343414\H,0,-1.126052,1.71983
 3,-0.277729\H,0,1.70172,1.927919,0.304039\H,0,1.078298,1.509182,-1.289

 Normal termination of Gaussian 16 at Sat Apr  5 22:29:26 2025.
