 Gaussian 16, Revision C.01,

 ----------------------------------------------------------------------
 #t hf aug-cc-pvdz symm=none int=(grid=ultrafine) guess=(read,tcheck) s
 table=(opt,rrhf)
 ----------------------------------------------------------------------
 -----
 title
 -----
 Symbolic Z-matrix:
 Charge =  0 Multiplicity = 1

 SCF Done:  E(RHF) =  -525.292768631     A.U. after   18 cycles
 Normal termination of Gaussian 16 at Sat Apr  5 22:28:59 2025.
 Gaussian 16:  ES64L-G16RevC.01  3-Jul-2019

 ----------------------------------------------------------------------
 #t hf aug-cc-pvdz iop(5/13=1,5/36=2,99/5=2) pseudo=read geom=check gue
 ss=(read,tcheck) scf=(maxcycle=1)
 ----------------------------------------------------------------------
 -----
 title
 -----
 Structure from the checkpoint file:  "1-nitropropan-2-ylnitrite.chk"
 Charge =  0 Multiplicity = 1

                         Standard orientation:
 ---------------------------------------------------------------------
 Center     Atomic      Atomic             Coordinates (Angstroms)
 Number     Number       Type             X           Y           Z
 ---------------------------------------------------------------------
      1          8           0       -1.586677    0.242823   -0.452011
      2          8           0        2.127839   -0.895530    1.082740
      3          8           0        2.980961    0.036614   -0.679653
      4          8           0       -3.549446   -0.597000   -0.150032
      5          7           0        2.051118   -0.418864   -0.038076
      6          7           0       -2.519406   -0.492165    0.375228
      7          6           0       -0.310700    0.372479    0.201478
      8          6           0        0.684193   -0.397131   -0.672929
      9          6           0        0.022761    1.846227    0.352622
     10          1           0       -0.376425   -0.112909    1.175395
     11          1           0        0.382088   -1.438003   -0.762724
     12          1           0        0.800672    0.053603   -1.652876
     13          1           0        0.997303    1.974383    0.824190
     14          1           0       -0.723135    2.333423    0.978516
     15          1           0        0.038585    2.342002   -0.617938
 ---------------------------------------------------------------------

 SCF Done:  E(RHF) =  -525.803494952     A.U. after    2 cycles

 The electronic state is 1-A.
 Alpha  occ. eigenvalues --  -20.66782 -20.62784 -20.60596 -20.60170 -15.79852
 Alpha  occ. eigenvalues --  -15.74938 -11.34098 -11.32864 -11.25775  -1.70476
 Alpha  occ. eigenvalues --   -1.68428  -1.52203  -1.51062  -1.15936  -1.05823
 Alpha  occ. eigenvalues --   -0.98472  -0.92524  -0.86085  -0.80363  -0.78175
 Alpha  occ. eigenvalues --   -0.77716  -0.76646  -0.74460  -0.71889  -0.66716
 Alpha  occ. eigenvalues --   -0.64093  -0.61384  -0.59024  -0.56182  -0.54240
 Alpha  occ. eigenvalues --   -0.51143  -0.49956  -0.48507  -0.47042  -0.46212
 Alpha virt. eigenvalues --    0.03607   0.03752   0.04423   0.04657   0.05346
 Alpha virt. eigenvalues --    0.05780   0.06765   0.06984   0.09775   0.11381
 Alpha virt. eigenvalues --    0.12307   0.12759   0.14050   0.14373   0.14953

 Mulliken charges:
               1
     1  O   -1.490896
     2  O   -1.395462
     3  O   -1.354716
     4  O   -0.971260
     5  N    2.600284
     6  N    1.674225
     7  C   -0.030707
     8  C   -0.141174
     9  C   -0.108463
    10  H    0.267712
    11  H    0.196885
    12  H    0.142492
    13  H    0.227235
    14  H    0.171428
    15  H    0.212419
 Sum of Mulliken charges =  -0.00000

 Dipole moment (field-independent basis, Debye):
    X=             -1.8127    Y=              0.7833    Z=             -0.7041  Tot=              2.0964

 Test job not archived.
 1\1\GINC-SE129\SP\RHF\Aug-CC-pVDZ\C3H6N2O4\OHZDE\05-Apr-2025\0\\#t hf
 aug-cc-pvdz iop(5/13=1,5/36=2,99/5=2) pseudo=read geom=check guess=(re
 ad,tcheck) scf=(maxcycle=1)\\title\\0,1\O,0,-1.586677,0.242823,-0.4520
 11\O,0,2.127839,-0.89553,1.08274\O,0,2.980961,0.036614,-0.679653\O,0,-
 3.549446,-0.597,-0.150032\N,0,2.051118,-0.418864,-0.038076\N,0,-2.5194
 06,-0.492165,0.375228\C,0,-0.3107,0.372479,0.201478\C,0,0.684193,-0.39
 7131,-0.672929\C,0,0.022761,1.846227,0.352622\H,0,-0.376425,-0.112909,
 1.175395\H,0,0.382088,-1.438003,-0.762724\H,0,0.800672,0.053603,-1.652

 Normal termination of Gaussian 16 at Sat Apr  5 22:29:27 2025.
