 Gaussian 16, Revision C.01,

 ----------------------------------------------------------------------
 #t hf aug-cc-pvdz symm=none int=(grid=ultrafine) guess=(read,tcheck) s
 table=(opt,rrhf)
 ----------------------------------------------------------------------
 -----
 title
 -----
 Symbolic Z-matrix:
 Charge =  0 Multiplicity = 1

 SCF Done:  E(RHF) =  -752.220064446     A.U. after   15 cycles
 Normal termination of Gaussian 16 at Sat Apr  5 22:28:40 2025.
 Gaussian 16:  ES64L-G16RevC.01  3-Jul-2019

 ----------------------------------------------------------------------
 #t hf aug-cc-pvdz iop(5/13=1,5/36=2,99/5=2) pseudo=read geom=check gue
 ss=(read,tcheck) scf=(maxcycle=1)
 ----------------------------------------------------------------------
 -----
 title
 -----
 Structure from the checkpoint file:  "1-nitroso-2-imidazolidinethione.chk"
 Charge =  0 Multiplicity = 1

                         Standard orientation:
 ---------------------------------------------------------------------
 Center     Atomic      Atomic             Coordinates (Angstroms)
 Number     Number       Type             X           Y           Z
 ---------------------------------------------------------------------
      1         16           0       -2.085780   -0.900716    0.006105
      2          8           0        2.215947   -1.569660    0.000507
      3          7           0        0.569237   -0.210430    0.014654
      4          7           0       -0.824348    1.471103   -0.076104
      5          7           0        1.006426   -1.480170    0.031513
      6          6           0       -0.797846    0.120492   -0.016313
      7          6           0        1.454352    0.955921   -0.068349
      8          6           0        0.468197    2.125120    0.088754
      9          1           0       -1.707843    1.945974   -0.009085
     10          1           0        1.968507    0.956564   -1.029568
     11          1           0        2.206495    0.910569    0.715423
     12          1           0        0.550124    2.589299    1.074075
     13          1           0        0.620198    2.893610   -0.667587
 ---------------------------------------------------------------------

 SCF Done:  E(RHF) =  -752.630188557     A.U. after    2 cycles

 The electronic state is 1-A.
 Alpha  occ. eigenvalues --  -93.90611 -20.60657 -15.69453 -15.60383 -15.56794
 Alpha  occ. eigenvalues --  -11.40448 -11.32292 -11.31922  -8.18922  -6.16803
 Alpha  occ. eigenvalues --   -6.16453  -6.16347  -1.61172  -1.37915  -1.27423
 Alpha  occ. eigenvalues --   -1.11270  -1.06271  -0.98216  -0.92849  -0.84370
 Alpha  occ. eigenvalues --   -0.76470  -0.76162  -0.75382  -0.70411  -0.67355
 Alpha  occ. eigenvalues --   -0.64892  -0.60455  -0.59175  -0.56430  -0.55169
 Alpha  occ. eigenvalues --   -0.46161  -0.45272  -0.35976  -0.35113
 Alpha virt. eigenvalues --    0.02192   0.03301   0.03595   0.04372   0.04685
 Alpha virt. eigenvalues --    0.05980   0.07442   0.08783   0.10608   0.11215
 Alpha virt. eigenvalues --    0.12298   0.12841   0.13051   0.14171   0.14941

 Mulliken charges:
               1
     1  S    0.296108
     2  O   -1.104805
     3  N   -0.032561
     4  N    0.604371
     5  N    1.378211
     6  C   -1.366178
     7  C    0.065818
     8  C   -0.171698
     9  H    0.066359
    10  H    0.047635
    11  H    0.082348
    12  H    0.041707
    13  H    0.092687
 Sum of Mulliken charges =  -0.00000

 Dipole moment (field-independent basis, Debye):
    X=              2.3976    Y=              6.3625    Z=              0.1293  Tot=              6.8005

 Test job not archived.
 1\1\GINC-SE084\SP\RHF\Aug-CC-pVDZ\C3H5N3O1S1\OHZDE\05-Apr-2025\0\\#t h
 f aug-cc-pvdz iop(5/13=1,5/36=2,99/5=2) pseudo=read geom=check guess=(
 read,tcheck) scf=(maxcycle=1)\\title\\0,1\S,0,-2.08578,-0.900716,0.006
 105\O,0,2.215947,-1.569659,0.000507\N,0,0.569237,-0.21043,0.014654\N,0
 ,-0.824348,1.471103,-0.076104\N,0,1.006426,-1.48017,0.031513\C,0,-0.79
 7846,0.120492,-0.016313\C,0,1.454352,0.955921,-0.068349\C,0,0.468196,2
 .12512,0.088754\H,0,-1.707844,1.945974,-0.009085\H,0,1.968507,0.956565
 ,-1.029568\H,0,2.206495,0.91057,0.715423\H,0,0.550123,2.589299,1.07407

 Normal termination of Gaussian 16 at Sat Apr  5 22:29:26 2025.
