 Gaussian 16, Revision C.01,

 ----------------------------------------------------------------------
 #t hf aug-cc-pvdz symm=none int=(grid=ultrafine) guess=(read,tcheck) s
 table=(opt,rrhf)
 ----------------------------------------------------------------------
 -----
 title
 -----
 Symbolic Z-matrix:
 Charge =  0 Multiplicity = 1

 SCF Done:  E(RHF) =  -321.786404264     A.U. after   15 cycles
 Normal termination of Gaussian 16 at Sat Apr  5 22:28:23 2025.
 Gaussian 16:  ES64L-G16RevC.01  3-Jul-2019

 ----------------------------------------------------------------------
 #t hf aug-cc-pvdz iop(5/13=1,5/36=2,99/5=2) pseudo=read geom=check gue
 ss=(read,tcheck) scf=(maxcycle=1)
 ----------------------------------------------------------------------
 -----
 title
 -----
 Structure from the checkpoint file:  "1-nitropropane.chk"
 Charge =  0 Multiplicity = 1

                         Standard orientation:
 ---------------------------------------------------------------------
 Center     Atomic      Atomic             Coordinates (Angstroms)
 Number     Number       Type             X           Y           Z
 ---------------------------------------------------------------------
      1          6           0       -2.640949   -0.019049    0.026517
      2          6           0       -1.209042    0.058303   -0.500284
      3          6           0       -0.194938   -0.085420    0.631445
      4          7           0        1.205024   -0.003386    0.081039
      5          8           0        1.765014   -1.053167   -0.189400
      6          8           0        1.672267    1.111046   -0.088501
      7          1           0       -2.833745   -0.973366    0.519100
      8          1           0       -2.844646    0.776897    0.744558
      9          1           0       -3.353672    0.081711   -0.791461
     10          1           0       -1.043315    1.011913   -1.003038
     11          1           0       -1.035929   -0.731717   -1.232936
     12          1           0       -0.270535   -1.051673    1.121825
     13          1           0       -0.282005    0.723902    1.351821
 ---------------------------------------------------------------------

 SCF Done:  E(RHF) =  -322.112295142     A.U. after    2 cycles

 The electronic state is 1-A.
 Alpha  occ. eigenvalues --  -20.58971 -20.58872 -15.78282 -11.31443 -11.26690
 Alpha  occ. eigenvalues --  -11.25236  -1.66870  -1.50629  -1.14753  -1.04100
 Alpha  occ. eigenvalues --   -0.90196  -0.85026  -0.77404  -0.75465  -0.73475
 Alpha  occ. eigenvalues --   -0.67924  -0.61216  -0.59441  -0.56245  -0.52879
 Alpha  occ. eigenvalues --   -0.52033  -0.48448  -0.48307  -0.44775
 Alpha virt. eigenvalues --    0.03079   0.03551   0.04030   0.04789   0.06236
 Alpha virt. eigenvalues --    0.06450   0.07611   0.08169   0.10531   0.11467
 Alpha virt. eigenvalues --    0.14128   0.14341   0.14913   0.15006   0.15417

 Mulliken charges:
               1
     1  C   -0.295520
     2  C   -0.370145
     3  C   -0.250751
     4  N    2.609469
     5  O   -1.357401
     6  O   -1.364044
     7  H    0.169141
     8  H    0.170211
     9  H    0.122339
    10  H    0.181092
    11  H    0.171080
    12  H    0.099761
    13  H    0.114768
 Sum of Mulliken charges =   0.00000

 Dipole moment (field-independent basis, Debye):
    X=             -4.1456    Y=             -0.1680    Z=              1.0907  Tot=              4.2900

 Test job not archived.
 1\1\GINC-SE185\SP\RHF\Aug-CC-pVDZ\C3H7N1O2\OHZDE\05-Apr-2025\0\\#t hf
 aug-cc-pvdz iop(5/13=1,5/36=2,99/5=2) pseudo=read geom=check guess=(re
 ad,tcheck) scf=(maxcycle=1)\\title\\0,1\C,0,-2.640949,-0.019049,0.0265
 17\C,0,-1.209042,0.058303,-0.500284\C,0,-0.194938,-0.08542,0.631445\N,
 0,1.205024,-0.003386,0.081039\O,0,1.765014,-1.053167,-0.1894\O,0,1.672
 267,1.111046,-0.088501\H,0,-2.833745,-0.973366,0.5191\H,0,-2.844646,0.
 776897,0.744558\H,0,-3.353672,0.081711,-0.791461\H,0,-1.043315,1.01191
 3,-1.003038\H,0,-1.035929,-0.731717,-1.232936\H,0,-0.270535,-1.051673,

 Normal termination of Gaussian 16 at Sat Apr  5 22:29:02 2025.
