 Gaussian 16, Revision C.01,

 ----------------------------------------------------------------------
 #t hf aug-cc-pvdz symm=none int=(grid=ultrafine) guess=(read,tcheck) s
 table=(opt,rrhf)
 ----------------------------------------------------------------------
 -----
 title
 -----
 Symbolic Z-matrix:
 Charge =  0 Multiplicity = 1

 SCF Done:  E(RHF) =  -388.338331730     A.U. after   12 cycles

 1\1\GINC-SE115\Stability\RHF\Aug-CC-pVDZ\C8H18O1\OHZDE\05-Apr-2025\0\\
 #t hf aug-cc-pvdz symm=none int=(grid=ultrafine) guess=(read,tcheck) s
 table=(opt,rrhf)\\title\\0,1\C,0,5.089909,-0.352288,-0.006234\C,0,3.81
 2557,0.485486,0.017342\C,0,2.536468,-0.356683,-0.009704\C,0,1.252161,0
 .472558,0.012261\C,0,-0.022805,-0.371121,-0.013333\C,0,-1.306858,0.459
 456,0.007688\C,0,-2.580564,-0.387028,-0.02192\C,0,-3.851423,0.452738,0
 .005891\O,0,-5.044544,-0.325727,-0.078454\H,0,5.140854,-0.967918,-0.90
 6694\H,0,5.136911,-1.023546,0.853797\H,0,5.980865,0.276784,0.015618\H,

 Normal termination of Gaussian 16 at Sat Apr  5 22:31:15 2025.
 Gaussian 16:  ES64L-G16RevC.01  3-Jul-2019

 ----------------------------------------------------------------------
 #t hf aug-cc-pvdz iop(5/13=1,5/36=2,99/5=2) pseudo=read geom=check gue
 ss=(read,tcheck) scf=(maxcycle=1)
 ----------------------------------------------------------------------
 -----
 title
 -----
 Structure from the checkpoint file:  "1-octanol.chk"
 Charge =  0 Multiplicity = 1

                         Standard orientation:
 ---------------------------------------------------------------------
 Center     Atomic      Atomic             Coordinates (Angstroms)
 Number     Number       Type             X           Y           Z
 ---------------------------------------------------------------------
      1          6           0        5.089909   -0.352288   -0.006234
      2          6           0        3.812557    0.485486    0.017342
      3          6           0        2.536468   -0.356683   -0.009704
      4          6           0        1.252161    0.472558    0.012261
      5          6           0       -0.022805   -0.371121   -0.013333
      6          6           0       -1.306858    0.459456    0.007688
      7          6           0       -2.580564   -0.387028   -0.021920
      8          6           0       -3.851423    0.452738    0.005891
      9          8           0       -5.044544   -0.325727   -0.078454
     10          1           0        5.140854   -0.967918   -0.906694
     11          1           0        5.136911   -1.023546    0.853797
     12          1           0        5.980865    0.276784    0.015618
     13          1           0        3.809761    1.169734   -0.836459
     14          1           0        3.807307    1.117177    0.910784
     15          1           0        2.542544   -0.990137   -0.903143
     16          1           0        2.539557   -1.041269    0.845242
     17          1           0        1.249543    1.155909   -0.843424
     18          1           0        1.247470    1.106707    0.905111
     19          1           0       -0.018787   -1.005273   -0.905757
     20          1           0       -0.021131   -1.053901    0.842702
     21          1           0       -1.307512    1.142029   -0.848333
     22          1           0       -1.310614    1.093278    0.900561
     23          1           0       -2.584132   -1.069525    0.835632
     24          1           0       -2.594832   -1.012605   -0.918195
     25          1           0       -3.868468    1.083342    0.903101
     26          1           0       -3.882554    1.118124   -0.857873
     27          1           0       -5.087108   -0.911803    0.683019
 ---------------------------------------------------------------------

 SCF Done:  E(RHF) =  -388.766914642     A.U. after    2 cycles

 The electronic state is 1-A.
 Alpha  occ. eigenvalues --  -20.54300 -11.27946 -11.22915 -11.22781 -11.22595
 Alpha  occ. eigenvalues --  -11.22472 -11.22398 -11.22287 -11.22067  -1.43978
 Alpha  occ. eigenvalues --   -1.10026  -1.06594  -1.01326  -0.94853  -0.88011
 Alpha  occ. eigenvalues --   -0.82519  -0.79800  -0.79192  -0.69195  -0.66379
 Alpha  occ. eigenvalues --   -0.63843  -0.61321  -0.61040  -0.59567  -0.57604
 Alpha  occ. eigenvalues --   -0.56467  -0.54618  -0.52909  -0.51719  -0.49979
 Alpha  occ. eigenvalues --   -0.48476  -0.48239  -0.47213  -0.46893  -0.46619
 Alpha  occ. eigenvalues --   -0.45791  -0.42722
 Alpha virt. eigenvalues --    0.03037   0.03205   0.03457   0.04145   0.04510
 Alpha virt. eigenvalues --    0.04914   0.05282   0.06179   0.06682   0.07420
 Alpha virt. eigenvalues --    0.07692   0.08333   0.09297   0.10072   0.10317

 Mulliken charges:
               1
     1  C   -0.388805
     2  C   -0.183671
     3  C   -0.277397
     4  C   -0.191346
     5  C   -0.220487
     6  C   -0.309777
     7  C   -0.172606
     8  C    0.776738
     9  O   -1.224233
    10  H    0.158239
    11  H    0.158465
    12  H    0.110032
    13  H    0.111746
    14  H    0.111084
    15  H    0.104698
    16  H    0.101728
    17  H    0.106948
    18  H    0.105542
    19  H    0.103677
    20  H    0.111247
    21  H    0.112011
    22  H    0.115704
    23  H    0.085791
    24  H    0.133150
    25  H    0.107929
    26  H    0.049609
    27  H    0.303986
 Sum of Mulliken charges =   0.00000

 Dipole moment (field-independent basis, Debye):
    X=              1.4777    Y=             -0.0630    Z=              1.1595  Tot=              1.8794

 Test job not archived.
 1\1\GINC-SE115\SP\RHF\Aug-CC-pVDZ\C8H18O1\OHZDE\05-Apr-2025\0\\#t hf a
 ug-cc-pvdz iop(5/13=1,5/36=2,99/5=2) pseudo=read geom=check guess=(rea
 d,tcheck) scf=(maxcycle=1)\\title\\0,1\C,0,5.089909,-0.352288,-0.00623
 4\C,0,3.812557,0.485486,0.017342\C,0,2.536468,-0.356683,-0.009704\C,0,
 1.252161,0.472558,0.012261\C,0,-0.022805,-0.371121,-0.013333\C,0,-1.30
 6858,0.459456,0.007688\C,0,-2.580564,-0.387028,-0.02192\C,0,-3.851423,
 0.452738,0.005891\O,0,-5.044544,-0.325727,-0.078454\H,0,5.140854,-0.96
 7918,-0.906694\H,0,5.136911,-1.023546,0.853797\H,0,5.980865,0.276784,0

 Normal termination of Gaussian 16 at Sat Apr  5 22:32:29 2025.
