 Gaussian 16, Revision C.01,

 ----------------------------------------------------------------------
 #t hf aug-cc-pvdz symm=none int=(grid=ultrafine) guess=(read,tcheck) s
 table=(opt,rrhf)
 ----------------------------------------------------------------------
 -----
 title
 -----
 Symbolic Z-matrix:
 Charge =  0 Multiplicity = 1

 SCF Done:  E(RHF) =  -421.561894916     A.U. after   16 cycles

 1\1\GINC-SE165\Stability\RHF\Aug-CC-pVDZ\C9H10O1\OHZDE\05-Apr-2025\0\\
 #t hf aug-cc-pvdz symm=none int=(grid=ultrafine) guess=(read,tcheck) s
 table=(opt,rrhf)\\title\\0,1\C,0,0.024001,1.160298,-0.000002\C,0,-0.07
 3857,-1.238567,0.\C,0,-1.364579,1.212066,-0.000005\C,0,-1.45506,-1.181
 361,-0.000003\C,0,0.690181,-0.065845,0.\C,0,-2.127814,0.046194,-0.0000
 04\C,0,2.180603,-0.178189,0.000001\C,0,-3.631473,0.095804,0.000006\C,0
 ,3.009944,1.089796,0.000003\O,0,2.722996,-1.266717,0.\H,0,0.581498,2.0
 86205,-0.000003\H,0,0.44272,-2.187841,0.\H,0,-1.861326,2.173886,-0.000

 Normal termination of Gaussian 16 at Sat Apr  5 22:29:58 2025.
 Gaussian 16:  ES64L-G16RevC.01  3-Jul-2019

 ----------------------------------------------------------------------
 #t hf aug-cc-pvdz iop(5/13=1,5/36=2,99/5=2) pseudo=read geom=check gue
 ss=(read,tcheck) scf=(maxcycle=1)
 ----------------------------------------------------------------------
 -----
 title
 -----
 Structure from the checkpoint file:  "1-p-tolylethanone.chk"
 Charge =  0 Multiplicity = 1

                         Standard orientation:
 ---------------------------------------------------------------------
 Center     Atomic      Atomic             Coordinates (Angstroms)
 Number     Number       Type             X           Y           Z
 ---------------------------------------------------------------------
      1          6           0        0.024001    1.160298   -0.000002
      2          6           0       -0.073857   -1.238567   -0.000000
      3          6           0       -1.364579    1.212066   -0.000005
      4          6           0       -1.455060   -1.181361   -0.000003
      5          6           0        0.690181   -0.065845   -0.000000
      6          6           0       -2.127814    0.046194   -0.000004
      7          6           0        2.180603   -0.178189    0.000001
      8          6           0       -3.631473    0.095804    0.000006
      9          6           0        3.009944    1.089796    0.000003
     10          8           0        2.722996   -1.266717   -0.000000
     11          1           0        0.581498    2.086205   -0.000003
     12          1           0        0.442720   -2.187841   -0.000000
     13          1           0       -1.861326    2.173886   -0.000007
     14          1           0       -2.027249   -2.100948   -0.000006
     15          1           0       -4.040560   -0.408087    0.877954
     16          1           0       -3.997196    1.121343   -0.000134
     17          1           0       -4.040584   -0.408339   -0.877785
     18          1           0        2.792622    1.698643    0.879269
     19          1           0        2.792624    1.698642   -0.879264
     20          1           0        4.061815    0.819045    0.000004
 ---------------------------------------------------------------------

 SCF Done:  E(RHF) =  -421.996595890     A.U. after    2 cycles

 The electronic state is 1-A.
 Alpha  occ. eigenvalues --  -20.52810 -11.33917 -11.26390 -11.25923 -11.25069
 Alpha  occ. eigenvalues --  -11.24726 -11.24603 -11.24383 -11.24375 -11.24224
 Alpha  occ. eigenvalues --   -1.46265  -1.17217  -1.07400  -1.03021  -1.01113
 Alpha  occ. eigenvalues --   -0.95386  -0.85076  -0.84269  -0.77207  -0.70301
 Alpha  occ. eigenvalues --   -0.67522  -0.64905  -0.62697  -0.61026  -0.60930
 Alpha  occ. eigenvalues --   -0.60625  -0.59313  -0.55939  -0.55396  -0.52461
 Alpha  occ. eigenvalues --   -0.52375  -0.50525  -0.48573  -0.41226  -0.35627
 Alpha  occ. eigenvalues --   -0.34509
 Alpha virt. eigenvalues --    0.03057   0.03096   0.03885   0.04433   0.04602
 Alpha virt. eigenvalues --    0.05601   0.05653   0.07194   0.07369   0.07915
 Alpha virt. eigenvalues --    0.08716   0.09787   0.10463   0.11324   0.11954

 Mulliken charges:
               1
     1  C    0.300578
     2  C   -0.454349
     3  C    0.022982
     4  C    0.592237
     5  C    1.810994
     6  C    0.112461
     7  C    0.510653
     8  C   -0.614250
     9  C   -0.623037
    10  O   -1.511319
    11  H   -0.392588
    12  H   -0.343392
    13  H   -0.290054
    14  H   -0.309087
    15  H    0.250961
    16  H    0.040700
    17  H    0.250911
    18  H    0.307146
    19  H    0.307149
    20  H    0.031304
 Sum of Mulliken charges =   0.00000

 Dipole moment (field-independent basis, Debye):
    X=             -2.5841    Y=              2.5833    Z=              0.0000  Tot=              3.6539

 Test job not archived.
 1\1\GINC-SE165\SP\RHF\Aug-CC-pVDZ\C9H10O1\OHZDE\05-Apr-2025\0\\#t hf a
 ug-cc-pvdz iop(5/13=1,5/36=2,99/5=2) pseudo=read geom=check guess=(rea
 d,tcheck) scf=(maxcycle=1)\\title\\0,1\C,0,0.024001,1.160298,-0.000002
 \C,0,-0.073857,-1.238567,0.\C,0,-1.364579,1.212066,-0.000005\C,0,-1.45
 506,-1.181361,-0.000003\C,0,0.690181,-0.065845,0.\C,0,-2.127814,0.0461
 94,-0.000004\C,0,2.180603,-0.178189,0.000001\C,0,-3.631473,0.095804,0.
 000006\C,0,3.009944,1.089796,0.000003\O,0,2.722996,-1.266717,0.\H,0,0.
 581498,2.086205,-0.000003\H,0,0.44272,-2.187841,0.\H,0,-1.861326,2.173

 Normal termination of Gaussian 16 at Sat Apr  5 22:30:47 2025.
