 Gaussian 16, Revision C.01,

 ----------------------------------------------------------------------
 #t hf aug-cc-pvdz symm=none int=(grid=ultrafine) guess=(read,tcheck) s
 table=(opt,rrhf)
 ----------------------------------------------------------------------
 -----
 title
 -----
 Symbolic Z-matrix:
 Charge =  0 Multiplicity = 1

 SCF Done:  E(RHF) =  -271.221896880     A.U. after   12 cycles

 1\1\GINC-SE190\Stability\RHF\Aug-CC-pVDZ\C5H12O1\OHZDE\05-Apr-2025\0\\
 #t hf aug-cc-pvdz symm=none int=(grid=ultrafine) guess=(read,tcheck) s
 table=(opt,rrhf)\\title\\0,1\C,0,-3.174894,0.221356,0.015832\C,0,-1.85
 4161,-0.545307,-0.021865\C,0,-0.626182,0.365737,0.013037\C,0,0.699506,
 -0.395753,-0.027955\C,0,1.913737,0.52347,0.013334\O,0,3.154194,-0.1757
 19,-0.081422\H,0,-3.256954,0.821962,0.924087\H,0,-3.261939,0.8992,-0.8
 3578\H,0,-4.029566,-0.455825,-0.01154\H,0,-1.816621,-1.163702,-0.92341
 2\H,0,-1.810925,-1.238981,0.823068\H,0,-0.670781,1.059963,-0.832589\H,

 Normal termination of Gaussian 16 at Sat Apr  5 22:28:40 2025.
 Gaussian 16:  ES64L-G16RevC.01  3-Jul-2019

 ----------------------------------------------------------------------
 #t hf aug-cc-pvdz iop(5/13=1,5/36=2,99/5=2) pseudo=read geom=check gue
 ss=(read,tcheck) scf=(maxcycle=1)
 ----------------------------------------------------------------------
 -----
 title
 -----
 Structure from the checkpoint file:  "1-pentanol.chk"
 Charge =  0 Multiplicity = 1

                         Standard orientation:
 ---------------------------------------------------------------------
 Center     Atomic      Atomic             Coordinates (Angstroms)
 Number     Number       Type             X           Y           Z
 ---------------------------------------------------------------------
      1          6           0       -3.174894    0.221356    0.015832
      2          6           0       -1.854161   -0.545307   -0.021865
      3          6           0       -0.626182    0.365737    0.013037
      4          6           0        0.699506   -0.395753   -0.027955
      5          6           0        1.913737    0.523470    0.013334
      6          8           0        3.154194   -0.175719   -0.081422
      7          1           0       -3.256954    0.821962    0.924087
      8          1           0       -3.261939    0.899200   -0.835780
      9          1           0       -4.029566   -0.455825   -0.011540
     10          1           0       -1.816621   -1.163702   -0.923412
     11          1           0       -1.810925   -1.238981    0.823068
     12          1           0       -0.670781    1.059963   -0.832589
     13          1           0       -0.664660    0.985038    0.915426
     14          1           0        0.754149   -1.005560   -0.933536
     15          1           0        0.747184   -1.089540    0.819209
     16          1           0        1.890619    1.140743    0.919619
     17          1           0        1.902039    1.201994   -0.840618
     18          1           0        3.235868   -0.766559    0.673146
 ---------------------------------------------------------------------

 SCF Done:  E(RHF) =  -271.519718577     A.U. after    2 cycles

 The electronic state is 1-A.
 Alpha  occ. eigenvalues --  -20.54327 -11.27982 -11.22961 -11.22894 -11.22817
 Alpha  occ. eigenvalues --  -11.22351  -1.44007  -1.08817  -1.01497  -0.91707
 Alpha  occ. eigenvalues --   -0.83258  -0.79961  -0.69205  -0.65206  -0.61783
 Alpha  occ. eigenvalues --   -0.61126  -0.58370  -0.56500  -0.53429  -0.51658
 Alpha  occ. eigenvalues --   -0.49683  -0.48040  -0.47448  -0.46960  -0.43072
 Alpha virt. eigenvalues --    0.03378   0.03627   0.03734   0.04317   0.05746
 Alpha virt. eigenvalues --    0.06043   0.06504   0.06704   0.08985   0.09273
 Alpha virt. eigenvalues --    0.09887   0.10380   0.10633   0.13528   0.14245

 Mulliken charges:
               1
     1  C   -0.389860
     2  C   -0.203710
     3  C   -0.307259
     4  C   -0.265988
     5  C    0.777630
     6  O   -1.178049
     7  H    0.158512
     8  H    0.158746
     9  H    0.119080
    10  H    0.108936
    11  H    0.111707
    12  H    0.109455
    13  H    0.112961
    14  H    0.139359
    15  H    0.093201
    16  H    0.110195
    17  H    0.053555
    18  H    0.291529
 Sum of Mulliken charges =  -0.00000

 Dipole moment (field-independent basis, Debye):
    X=             -1.4251    Y=             -0.2512    Z=              1.1616  Tot=              1.8556

 Test job not archived.
 1\1\GINC-SE190\SP\RHF\Aug-CC-pVDZ\C5H12O1\OHZDE\05-Apr-2025\0\\#t hf a
 ug-cc-pvdz iop(5/13=1,5/36=2,99/5=2) pseudo=read geom=check guess=(rea
 d,tcheck) scf=(maxcycle=1)\\title\\0,1\C,0,-3.174894,0.221356,0.015832
 \C,0,-1.854161,-0.545307,-0.021865\C,0,-0.626182,0.365737,0.013037\C,0
 ,0.699506,-0.395753,-0.027955\C,0,1.913737,0.52347,0.013334\O,0,3.1541
 94,-0.175719,-0.081422\H,0,-3.256954,0.821962,0.924087\H,0,-3.261939,0
 .8992,-0.83578\H,0,-4.029566,-0.455825,-0.01154\H,0,-1.816621,-1.16370
 2,-0.923412\H,0,-1.810925,-1.238981,0.823068\H,0,-0.670781,1.059963,-0

 Normal termination of Gaussian 16 at Sat Apr  5 22:29:05 2025.
