 Gaussian 16, Revision C.01,

 ----------------------------------------------------------------------
 #t hf aug-cc-pvdz symm=none int=(grid=ultrafine) guess=(read,tcheck) s
 table=(opt,rrhf)
 ----------------------------------------------------------------------
 -----
 title
 -----
 Symbolic Z-matrix:
 Charge =  0 Multiplicity = 1

 SCF Done:  E(RHF) =  -593.886843658     A.U. after   12 cycles

 1\1\GINC-SE190\Stability\RHF\Aug-CC-pVDZ\C5H12S1\OHZDE\05-Apr-2025\0\\
 #t hf aug-cc-pvdz symm=none int=(grid=ultrafine) guess=(read,tcheck) s
 table=(opt,rrhf)\\title\\0,1\S,0,-2.422026,1.676358,0.\H,0,-3.662177,1
 .155548,0.\C,0,-1.499663,0.079993,0.\H,0,-1.784672,-0.487365,0.884633\
 H,0,-1.784672,-0.487365,-0.884633\C,0,0.,0.354619,0.\H,0,0.257208,0.95
 6252,-0.876062\H,0,0.257208,0.956252,0.876062\C,0,0.830343,-0.930799,0
 .\H,0,0.566953,-1.533496,0.875311\H,0,0.566953,-1.533496,-0.875311\C,0
 ,2.338563,-0.676984,0.\H,0,2.601518,-0.074233,0.874144\H,0,2.601518,-0

 Normal termination of Gaussian 16 at Sat Apr  5 22:28:40 2025.
 Gaussian 16:  ES64L-G16RevC.01  3-Jul-2019

 ----------------------------------------------------------------------
 #t hf aug-cc-pvdz iop(5/13=1,5/36=2,99/5=2) pseudo=read geom=check gue
 ss=(read,tcheck) scf=(maxcycle=1)
 ----------------------------------------------------------------------
 -----
 title
 -----
 Structure from the checkpoint file:  "1-pentanethiol.chk"
 Charge =  0 Multiplicity = 1

                         Standard orientation:
 ---------------------------------------------------------------------
 Center     Atomic      Atomic             Coordinates (Angstroms)
 Number     Number       Type             X           Y           Z
 ---------------------------------------------------------------------
      1         16           0       -2.422027    1.676357    0.000000
      2          1           0       -3.662178    1.155546    0.000000
      3          6           0       -1.499663    0.079992    0.000000
      4          1           0       -1.784671   -0.487366    0.884633
      5          1           0       -1.784671   -0.487366   -0.884633
      6          6           0        0.000000    0.354619    0.000000
      7          1           0        0.257208    0.956252   -0.876062
      8          1           0        0.257208    0.956252    0.876062
      9          6           0        0.830344   -0.930798    0.000000
     10          1           0        0.566954   -1.533495    0.875311
     11          1           0        0.566954   -1.533495   -0.875311
     12          6           0        2.338564   -0.676982    0.000000
     13          1           0        2.601518   -0.074231    0.874144
     14          1           0        2.601518   -0.074231   -0.874144
     15          6           0        3.164446   -1.962115    0.000000
     16          1           0        2.948287   -2.570043    0.880892
     17          1           0        2.948287   -2.570043   -0.880892
     18          1           0        4.233869   -1.747781    0.000000
 ---------------------------------------------------------------------

 SCF Done:  E(RHF) =  -594.168913636     A.U. after    2 cycles

 The electronic state is 1-A'.
 Alpha  occ. eigenvalues --  -93.94348 -11.26854 -11.23710 -11.23168 -11.22992
 Alpha  occ. eigenvalues --  -11.22446  -8.22412  -6.20267  -6.20123  -6.19895
 Alpha  occ. eigenvalues --   -1.10651  -1.05536  -0.98395  -0.89818  -0.81854
 Alpha  occ. eigenvalues --   -0.80101  -0.66898  -0.62025  -0.61644  -0.58910
 Alpha  occ. eigenvalues --   -0.55467  -0.55286  -0.52802  -0.49884  -0.48365
 Alpha  occ. eigenvalues --   -0.47487  -0.47123  -0.45012  -0.36028
 Alpha virt. eigenvalues --    0.03322   0.03646   0.03769   0.04220   0.05317
 Alpha virt. eigenvalues --    0.06284   0.06356   0.06830   0.08264   0.09311
 Alpha virt. eigenvalues --    0.09566   0.10512   0.10605   0.11523   0.13342

 Mulliken charges:
               1
     1  S    0.108524
     2  H    0.300138
     3  C   -0.563818
     4  H    0.101087
     5  H    0.101087
     6  C   -0.130992
     7  H    0.136929
     8  H    0.136929
     9  C   -0.413692
    10  H    0.091202
    11  H    0.091202
    12  C   -0.223718
    13  H    0.109451
    14  H    0.109451
    15  C   -0.389400
    16  H    0.160367
    17  H    0.160367
    18  H    0.114885
 Sum of Mulliken charges =  -0.00000

 Dipole moment (field-independent basis, Debye):
    X=              0.4305    Y=             -1.8345    Z=              0.0000  Tot=              1.8843

 Test job not archived.
 1\1\GINC-SE190\SP\RHF\Aug-CC-pVDZ\C5H12S1\OHZDE\05-Apr-2025\0\\#t hf a
 ug-cc-pvdz iop(5/13=1,5/36=2,99/5=2) pseudo=read geom=check guess=(rea
 d,tcheck) scf=(maxcycle=1)\\title\\0,1\S,0,-2.422026,1.676358,0.\H,0,-
 3.662177,1.155548,0.\C,0,-1.499663,0.079993,0.\H,0,-1.784672,-0.487365
 ,0.884633\H,0,-1.784672,-0.487365,-0.884633\C,0,0.,0.354619,0.\H,0,0.2
 57208,0.956252,-0.876062\H,0,0.257208,0.956252,0.876062\C,0,0.830343,-
 0.930799,0.\H,0,0.566953,-1.533496,0.875311\H,0,0.566953,-1.533496,-0.
 875311\C,0,2.338563,-0.676984,0.\H,0,2.601518,-0.074233,0.874144\H,0,2

 Normal termination of Gaussian 16 at Sat Apr  5 22:29:26 2025.
