 Gaussian 16, Revision C.01,

 ----------------------------------------------------------------------
 #t hf aug-cc-pvdz symm=none int=(grid=ultrafine) guess=(read,tcheck) s
 table=(opt,rrhf)
 ----------------------------------------------------------------------
 -----
 title
 -----
 Symbolic Z-matrix:
 Charge =  0 Multiplicity = 1

 SCF Done:  E(RHF) =  -195.164307954     A.U. after   12 cycles
 Normal termination of Gaussian 16 at Sat Apr  5 22:28:21 2025.
 Gaussian 16:  ES64L-G16RevC.01  3-Jul-2019

 ----------------------------------------------------------------------
 #t hf aug-cc-pvdz iop(5/13=1,5/36=2,99/5=2) pseudo=read geom=check gue
 ss=(read,tcheck) scf=(maxcycle=1)
 ----------------------------------------------------------------------
 -----
 title
 -----
 Structure from the checkpoint file:  "1-pentene.chk"
 Charge =  0 Multiplicity = 1

                         Standard orientation:
 ---------------------------------------------------------------------
 Center     Atomic      Atomic             Coordinates (Angstroms)
 Number     Number       Type             X           Y           Z
 ---------------------------------------------------------------------
      1          6           0        2.480915   -0.213181   -0.298890
      2          6           0        1.414749    0.338000    0.268186
      3          6           0       -2.425591   -0.196397   -0.076523
      4          6           0        0.075276   -0.316078    0.421811
      5          6           0       -1.056864    0.450771   -0.277621
      6          1           0        3.419178    0.318761   -0.382304
      7          1           0        2.453489   -1.220352   -0.698261
      8          1           0        1.492545    1.352012    0.652650
      9          1           0       -2.441485   -1.215257   -0.468708
     10          1           0       -3.209396    0.366453   -0.584990
     11          1           0       -2.686714   -0.246940    0.982557
     12          1           0        0.119287   -1.338660    0.037811
     13          1           0       -0.166785   -0.392388    1.488258
     14          1           0       -0.832514    0.519273   -1.344984
     15          1           0       -1.078509    1.478406    0.096191
 ---------------------------------------------------------------------

 SCF Done:  E(RHF) =  -195.382842489     A.U. after    2 cycles

 The electronic state is 1-A.
 Alpha  occ. eigenvalues --  -11.23794 -11.23085 -11.22891 -11.22638 -11.22291
 Alpha  occ. eigenvalues --   -1.09114  -1.02416  -0.92576  -0.81584  -0.76125
 Alpha  occ. eigenvalues --   -0.65843  -0.62456  -0.60264  -0.57477  -0.54628
 Alpha  occ. eigenvalues --   -0.51929  -0.49097  -0.48007  -0.47720  -0.36613
 Alpha virt. eigenvalues --    0.03795   0.03854   0.04085   0.04255   0.05858
 Alpha virt. eigenvalues --    0.06349   0.07010   0.07558   0.08408   0.09628
 Alpha virt. eigenvalues --    0.11169   0.12552   0.13942   0.14392   0.15322

 Mulliken charges:
               1
     1  C   -0.160487
     2  C    0.911530
     3  C   -0.374456
     4  C   -0.563979
     5  C   -0.404362
     6  H   -0.100926
     7  H   -0.073787
     8  H   -0.188968
     9  H    0.155953
    10  H    0.114790
    11  H    0.155105
    12  H    0.061939
    13  H    0.195335
    14  H    0.148682
    15  H    0.123631
 Sum of Mulliken charges =  -0.00000

 Dipole moment (field-independent basis, Debye):
    X=             -0.4194    Y=              0.0682    Z=              0.0681  Tot=              0.4303

 Test job not archived.
 1\1\GINC-SE053\SP\RHF\Aug-CC-pVDZ\C5H10\OHZDE\05-Apr-2025\0\\#t hf aug
 -cc-pvdz iop(5/13=1,5/36=2,99/5=2) pseudo=read geom=check guess=(read,
 tcheck) scf=(maxcycle=1)\\title\\0,1\C,0,2.480915,-0.213181,-0.29889\C
 ,0,1.414749,0.338,0.268186\C,0,-2.425591,-0.196397,-0.076523\C,0,0.075
 276,-0.316078,0.421811\C,0,-1.056864,0.450771,-0.277621\H,0,3.419178,0
 .318761,-0.382304\H,0,2.453489,-1.220352,-0.698261\H,0,1.492545,1.3520
 12,0.65265\H,0,-2.441485,-1.215257,-0.468708\H,0,-3.209396,0.366453,-0
 .58499\H,0,-2.686714,-0.24694,0.982557\H,0,0.119287,-1.33866,0.037811\

 Normal termination of Gaussian 16 at Sat Apr  5 22:29:03 2025.
