 Gaussian 16, Revision C.01,

 ----------------------------------------------------------------------
 #t hf aug-cc-pvdz symm=none int=(grid=ultrafine) guess=(read,tcheck) s
 table=(opt,rrhf)
 ----------------------------------------------------------------------
 -----
 title
 -----
 Symbolic Z-matrix:
 Charge =  0 Multiplicity = 1

 SCF Done:  E(RHF) =  -362.672684987     A.U. after   16 cycles
 Normal termination of Gaussian 16 at Sat Apr  5 22:29:29 2025.
 Gaussian 16:  ES64L-G16RevC.01  3-Jul-2019

 ----------------------------------------------------------------------
 #t hf aug-cc-pvdz iop(5/13=1,5/36=2,99/5=2) pseudo=read geom=check gue
 ss=(read,tcheck) scf=(maxcycle=1)
 ----------------------------------------------------------------------
 -----
 title
 -----
 Structure from the checkpoint file:  "1-phenylethanimine.chk"
 Charge =  0 Multiplicity = 1

                         Standard orientation:
 ---------------------------------------------------------------------
 Center     Atomic      Atomic             Coordinates (Angstroms)
 Number     Number       Type             X           Y           Z
 ---------------------------------------------------------------------
      1          6           0       -0.695065   -2.506553    0.000000
      2          6           0        0.640810   -2.129667    0.000000
      3          6           0       -1.686417   -1.527721    0.000000
      4          6           0        0.985096   -0.782121    0.000000
      5          6           0       -1.343694   -0.185795    0.000000
      6          6           0        0.000000    0.209408    0.000000
      7          6           0        0.343826    1.660851    0.000000
      8          6           0        1.805185    2.046442    0.000000
      9          7           0       -0.606615    2.511330    0.000000
     10          1           0       -0.964675   -3.554227    0.000000
     11          1           0        1.418044   -2.881961    0.000000
     12          1           0       -2.729354   -1.815347    0.000000
     13          1           0        2.031257   -0.512617    0.000000
     14          1           0       -2.104187    0.580888    0.000000
     15          1           0        2.317686    1.650451    0.878477
     16          1           0        1.909909    3.129766    0.000000
     17          1           0        2.317686    1.650451   -0.878477
     18          1           0       -0.248508    3.464218    0.000000
 ---------------------------------------------------------------------

 SCF Done:  E(RHF) =  -363.049684375     A.U. after    2 cycles

 The electronic state is 1-A'.
 Alpha  occ. eigenvalues --  -15.48471 -11.29718 -11.24882 -11.24736 -11.24704
 Alpha  occ. eigenvalues --  -11.24680 -11.24377 -11.24137 -11.23957  -1.22271
 Alpha  occ. eigenvalues --   -1.15495  -1.03772  -1.02067  -0.98928  -0.86957
 Alpha  occ. eigenvalues --   -0.83694  -0.78123  -0.71446  -0.68069  -0.64471
 Alpha  occ. eigenvalues --   -0.63022  -0.61996  -0.60394  -0.60252  -0.55897
 Alpha  occ. eigenvalues --   -0.52165  -0.51871  -0.50612  -0.46330  -0.45171
 Alpha  occ. eigenvalues --   -0.34934  -0.34191
 Alpha virt. eigenvalues --    0.03314   0.03332   0.03813   0.04908   0.04995
 Alpha virt. eigenvalues --    0.05262   0.06927   0.07165   0.07873   0.09077
 Alpha virt. eigenvalues --    0.10177   0.10699   0.11406   0.12401   0.13798

 Mulliken charges:
               1
     1  C    0.105788
     2  C    0.042530
     3  C   -0.141252
     4  C    0.467278
     5  C   -0.038164
     6  C    1.619526
     7  C   -1.901112
     8  C   -0.381902
     9  N    0.963247
    10  H   -0.227025
    11  H   -0.245611
    12  H   -0.253804
    13  H   -0.368856
    14  H   -0.307376
    15  H    0.318020
    16  H   -0.044021
    17  H    0.318020
    18  H    0.074712
 Sum of Mulliken charges =   0.00000

 Dipole moment (field-independent basis, Debye):
    X=              2.4651    Y=             -0.7993    Z=             -0.0000  Tot=              2.5915

 Test job not archived.
 1\1\GINC-SE052\SP\RHF\Aug-CC-pVDZ\C8H9N1\OHZDE\05-Apr-2025\0\\#t hf au
 g-cc-pvdz iop(5/13=1,5/36=2,99/5=2) pseudo=read geom=check guess=(read
 ,tcheck) scf=(maxcycle=1)\\title\\0,1\C,0,-0.695065,-2.506553,0.\C,0,0
 .64081,-2.129667,0.\C,0,-1.686417,-1.527721,0.\C,0,0.985096,-0.782121,
 0.\C,0,-1.343694,-0.185795,0.\C,0,0.,0.209408,0.\C,0,0.343826,1.660851
 ,0.\C,0,1.805185,2.046442,0.\N,0,-0.606615,2.51133,0.\H,0,-0.964675,-3
 .554227,0.\H,0,1.418044,-2.881961,0.\H,0,-2.729354,-1.815347,0.\H,0,2.
 031257,-0.512617,0.\H,0,-2.104187,0.580888,0.\H,0,2.317686,1.650451,0.

 Normal termination of Gaussian 16 at Sat Apr  5 22:29:38 2025.
