 Gaussian 16, Revision C.01,

 ----------------------------------------------------------------------
 #t hf aug-cc-pvdz symm=none int=(grid=ultrafine) guess=(read,tcheck) s
 table=(opt,rrhf)
 ----------------------------------------------------------------------
 -----
 title
 -----
 Symbolic Z-matrix:
 Charge =  0 Multiplicity = 1

 SCF Done:  E(RHF) =  -632.921505658     A.U. after   12 cycles

 1\1\GINC-SE188\Stability\RHF\Aug-CC-pVDZ\C6H14S1\OHZDE\05-Apr-2025\0\\
 #t hf aug-cc-pvdz symm=none int=(grid=ultrafine) guess=(read,tcheck) s
 table=(opt,rrhf)\\title\\0,1\C,0,0.,3.930707,-0.592405\C,0,0.,-3.93070
 7,-0.592405\C,0,0.,2.732696,0.357453\C,0,0.,-2.732696,0.357453\C,0,0.,
 1.402662,-0.390073\C,0,0.,-1.402662,-0.390073\S,0,0.,0.,0.786742\H,0,-
 0.881478,3.925924,-1.236374\H,0,0.,4.869546,-0.037529\H,0,0.881478,3.9
 25924,-1.236374\H,0,0.881478,-3.925924,-1.236374\H,0,0.,-4.869546,-0.0
 37529\H,0,-0.881478,-3.925924,-1.236374\H,0,-0.875086,2.77886,1.0096\H

 Normal termination of Gaussian 16 at Sat Apr  5 22:29:07 2025.
 Gaussian 16:  ES64L-G16RevC.01  3-Jul-2019

 ----------------------------------------------------------------------
 #t hf aug-cc-pvdz iop(5/13=1,5/36=2,99/5=2) pseudo=read geom=check gue
 ss=(read,tcheck) scf=(maxcycle=1)
 ----------------------------------------------------------------------
 -----
 title
 -----
 Structure from the checkpoint file:  "1-propylsulfanylpropane.chk"
 Charge =  0 Multiplicity = 1

                         Standard orientation:
 ---------------------------------------------------------------------
 Center     Atomic      Atomic             Coordinates (Angstroms)
 Number     Number       Type             X           Y           Z
 ---------------------------------------------------------------------
      1          6           0        0.000000    3.930707   -0.592405
      2          6           0       -0.000000   -3.930707   -0.592405
      3          6           0        0.000000    2.732696    0.357453
      4          6           0       -0.000000   -2.732696    0.357453
      5          6           0        0.000000    1.402662   -0.390073
      6          6           0       -0.000000   -1.402662   -0.390073
      7         16           0       -0.000000   -0.000000    0.786742
      8          1           0       -0.881478    3.925924   -1.236374
      9          1           0        0.000000    4.869546   -0.037529
     10          1           0        0.881478    3.925924   -1.236374
     11          1           0        0.881478   -3.925924   -1.236374
     12          1           0       -0.000000   -4.869546   -0.037529
     13          1           0       -0.881478   -3.925924   -1.236374
     14          1           0       -0.875086    2.778860    1.009600
     15          1           0        0.875086    2.778860    1.009600
     16          1           0        0.875086   -2.778860    1.009600
     17          1           0       -0.875086   -2.778860    1.009600
     18          1           0       -0.883620    1.324451   -1.026352
     19          1           0        0.883620    1.324451   -1.026352
     20          1           0        0.883620   -1.324451   -1.026352
     21          1           0       -0.883620   -1.324451   -1.026352
 ---------------------------------------------------------------------

 SCF Done:  E(RHF) =  -633.248172415     A.U. after    2 cycles

 The electronic state is 1-A1.
 Alpha  occ. eigenvalues --  -93.92874 -11.25932 -11.25914 -11.23445 -11.23437
 Alpha  occ. eigenvalues --  -11.22731 -11.22728  -8.20972  -6.18794  -6.18648
 Alpha  occ. eigenvalues --   -6.18425  -1.10637  -1.06952  -1.00529  -0.93260
 Alpha  occ. eigenvalues --   -0.85690  -0.80524  -0.79651  -0.65703  -0.64313
 Alpha  occ. eigenvalues --   -0.59989  -0.59834  -0.57640  -0.56995  -0.55024
 Alpha  occ. eigenvalues --   -0.53724  -0.50644  -0.49460  -0.48948  -0.48283
 Alpha  occ. eigenvalues --   -0.45444  -0.42824  -0.33735
 Alpha virt. eigenvalues --    0.03456   0.03459   0.03835   0.04152   0.05193
 Alpha virt. eigenvalues --    0.05221   0.05492   0.06948   0.07304   0.08277
 Alpha virt. eigenvalues --    0.08616   0.08716   0.11024   0.11065   0.11958

 Mulliken charges:
               1
     1  C   -0.429331
     2  C   -0.429331
     3  C   -0.217731
     4  C   -0.217731
     5  C   -0.632234
     6  C   -0.632234
     7  S    0.586682
     8  H    0.153470
     9  H    0.107891
    10  H    0.153470
    11  H    0.153470
    12  H    0.107891
    13  H    0.153470
    14  H    0.150809
    15  H    0.150809
    16  H    0.150809
    17  H    0.150809
    18  H    0.134753
    19  H    0.134753
    20  H    0.134753
    21  H    0.134753
 Sum of Mulliken charges =  -0.00000

 Dipole moment (field-independent basis, Debye):
    X=              0.0000    Y=             -0.0000    Z=             -1.7094  Tot=              1.7094

 Test job not archived.
 1\1\GINC-SE188\SP\RHF\Aug-CC-pVDZ\C6H14S1\OHZDE\05-Apr-2025\0\\#t hf a
 ug-cc-pvdz iop(5/13=1,5/36=2,99/5=2) pseudo=read geom=check guess=(rea
 d,tcheck) scf=(maxcycle=1)\\title\\0,1\C,0,0.,3.930707,-0.592405\C,0,0
 .,-3.930707,-0.592405\C,0,0.,2.732696,0.357453\C,0,0.,-2.732696,0.3574
 53\C,0,0.,1.402662,-0.390073\C,0,0.,-1.402662,-0.390073\S,0,0.,0.,0.78
 6742\H,0,-0.881478,3.925924,-1.236374\H,0,0.,4.869546,-0.037529\H,0,0.
 881478,3.925924,-1.236374\H,0,0.881478,-3.925924,-1.236374\H,0,0.,-4.8
 69546,-0.037529\H,0,-0.881478,-3.925924,-1.236374\H,0,-0.875086,2.7788

 Normal termination of Gaussian 16 at Sat Apr  5 22:29:28 2025.
