 Gaussian 16, Revision C.01,

 ----------------------------------------------------------------------
 #t hf aug-cc-pvdz symm=none int=(grid=ultrafine) guess=(read,tcheck) s
 table=(opt,rrhf)
 ----------------------------------------------------------------------
 -----
 title
 -----
 Symbolic Z-matrix:
 Charge =  0 Multiplicity = 1

 SCF Done:  E(RHF) =  -605.131971682     A.U. after   15 cycles
 Normal termination of Gaussian 16 at Sat Apr  5 22:28:11 2025.
 Gaussian 16:  ES64L-G16RevC.01  3-Jul-2019

 ----------------------------------------------------------------------
 #t hf aug-cc-pvdz iop(5/13=1,5/36=2,99/5=2) pseudo=read geom=check gue
 ss=(read,tcheck) scf=(maxcycle=1)
 ----------------------------------------------------------------------
 -----
 title
 -----
 Structure from the checkpoint file:  "1-propyn-1-yl_thiocyanate.chk"
 Charge =  0 Multiplicity = 1

                         Standard orientation:
 ---------------------------------------------------------------------
 Center     Atomic      Atomic             Coordinates (Angstroms)
 Number     Number       Type             X           Y           Z
 ---------------------------------------------------------------------
      1         16           0       -0.919300   -0.968615   -0.000000
      2          7           0       -2.596878    1.348222   -0.000000
      3          6           0        3.166496    0.507266    0.000001
      4          6           0        1.788843    0.050261    0.000001
      5          6           0        0.640017   -0.308782   -0.000000
      6          6           0       -1.880155    0.442903   -0.000000
      7          1           0        3.698733    0.156257    0.885244
      8          1           0        3.198185    1.598130   -0.000150
      9          1           0        3.698808    0.156014   -0.885101
 ---------------------------------------------------------------------

 SCF Done:  E(RHF) =  -605.396100922     A.U. after    2 cycles

 The electronic state is 1-A.
 Alpha  occ. eigenvalues --  -94.04949 -15.53449 -11.31302 -11.28316 -11.28146
 Alpha  occ. eigenvalues --  -11.27911  -8.32744  -6.30602  -6.30397  -6.30142
 Alpha  occ. eigenvalues --   -1.25395  -1.15305  -1.07711  -0.98339  -0.77542
 Alpha  occ. eigenvalues --   -0.67414  -0.63351  -0.62324  -0.62177  -0.60030
 Alpha  occ. eigenvalues --   -0.57181  -0.51260  -0.48630  -0.42748  -0.37544
 Alpha virt. eigenvalues --    0.02712   0.04797   0.04874   0.05552   0.07471
 Alpha virt. eigenvalues --    0.08067   0.09977   0.10702   0.10954   0.12111
 Alpha virt. eigenvalues --    0.12335   0.13529   0.13999   0.14284   0.14636

 Mulliken charges:
               1
     1  S    0.726580
     2  N    0.736051
     3  C   -0.559380
     4  C   -0.145756
     5  C   -0.035137
     6  C   -1.482561
     7  H    0.252327
     8  H    0.255551
     9  H    0.252326
 Sum of Mulliken charges =  -0.00000

 Dipole moment (field-independent basis, Debye):
    X=              4.6926    Y=             -2.1523    Z=             -0.0000  Tot=              5.1627

 Test job not archived.
 1\1\GINC-SE225\SP\RHF\Aug-CC-pVDZ\C4H3N1S1\OHZDE\05-Apr-2025\0\\#t hf
 aug-cc-pvdz iop(5/13=1,5/36=2,99/5=2) pseudo=read geom=check guess=(re
 ad,tcheck) scf=(maxcycle=1)\\title\\0,1\S,0,-0.9193,-0.968615,0.\N,0,-
 2.596878,1.348222,0.\C,0,3.166496,0.507266,0.000001\C,0,1.788843,0.050
 261,0.000001\C,0,0.640017,-0.308782,0.\C,0,-1.880155,0.442903,0.\H,0,3
 .698733,0.156257,0.885244\H,0,3.198185,1.59813,-0.00015\H,0,3.698808,0
 .156014,-0.885101\\Version=ES64L-G16RevC.01\State=1-A\HF=-605.3961009\
 RMSD=2.095e-02\Dipole=1.8462212,-0.8467887,-0.0000034\Quadrupole=1.557

 Normal termination of Gaussian 16 at Sat Apr  5 22:29:02 2025.
