 Gaussian 16, Revision C.01,

 ----------------------------------------------------------------------
 #t hf aug-cc-pvdz symm=none int=(grid=ultrafine) guess=(read,tcheck) s
 table=(opt,rrhf)
 ----------------------------------------------------------------------
 -----
 title
 -----
 Symbolic Z-matrix:
 Charge =  0 Multiplicity = 1

 SCF Done:  E(RHF) =  -193.144335410     A.U. after   12 cycles
 Normal termination of Gaussian 16 at Sat Apr  5 22:28:13 2025.
 Gaussian 16:  ES64L-G16RevC.01  3-Jul-2019

 ----------------------------------------------------------------------
 #t hf aug-cc-pvdz iop(5/13=1,5/36=2,99/5=2) pseudo=read geom=check gue
 ss=(read,tcheck) scf=(maxcycle=1)
 ----------------------------------------------------------------------
 -----
 title
 -----
 Structure from the checkpoint file:  "1-propanol.chk"
 Charge =  0 Multiplicity = 1

                         Standard orientation:
 ---------------------------------------------------------------------
 Center     Atomic      Atomic             Coordinates (Angstroms)
 Number     Number       Type             X           Y           Z
 ---------------------------------------------------------------------
      1          6           0        1.897976   -0.126622    0.018618
      2          6           0        0.516931    0.524551   -0.044771
      3          6           0       -0.613059   -0.494853    0.024012
      4          8           0       -1.909274    0.090322   -0.086974
      5          1           0        2.048829   -0.814819   -0.815272
      6          1           0        2.688867    0.622294   -0.024744
      7          1           0        2.029572   -0.693014    0.942713
      8          1           0        0.411143    1.099907   -0.967085
      9          1           0        0.407044    1.234976    0.781380
     10          1           0       -0.541025   -1.193082   -0.811207
     11          1           0       -0.535151   -1.082893    0.946811
     12          1           0       -2.046169    0.685602    0.656039
 ---------------------------------------------------------------------

 SCF Done:  E(RHF) =  -193.354867255     A.U. after    2 cycles

 The electronic state is 1-A.
 Alpha  occ. eigenvalues --  -20.54394 -11.28042 -11.23133 -11.22935  -1.44093
 Alpha  occ. eigenvalues --   -1.05826  -0.92059  -0.82052  -0.69257  -0.63836
 Alpha  occ. eigenvalues --   -0.60091  -0.59131  -0.55016  -0.50879  -0.50363
 Alpha  occ. eigenvalues --   -0.47568  -0.43422
 Alpha virt. eigenvalues --    0.03645   0.03890   0.04189   0.04773   0.07028
 Alpha virt. eigenvalues --    0.07186   0.07474   0.08339   0.11594   0.13971
 Alpha virt. eigenvalues --    0.15083   0.15648   0.15663   0.16729   0.17067

 Mulliken charges:
               1
     1  C   -0.320623
     2  C   -0.530630
     3  C    0.803579
     4  O   -1.156576
     5  H    0.166801
     6  H    0.114078
     7  H    0.163922
     8  H    0.178913
     9  H    0.122615
    10  H    0.056256
    11  H    0.114319
    12  H    0.287346
 Sum of Mulliken charges =  -0.00000

 Dipole moment (field-independent basis, Debye):
    X=              1.3317    Y=              0.3798    Z=              1.1729  Tot=              1.8147

 Test job not archived.
 1\1\GINC-SE179\SP\RHF\Aug-CC-pVDZ\C3H8O1\OHZDE\05-Apr-2025\0\\#t hf au
 g-cc-pvdz iop(5/13=1,5/36=2,99/5=2) pseudo=read geom=check guess=(read
 ,tcheck) scf=(maxcycle=1)\\title\\0,1\C,0,1.897976,-0.126622,0.018618\
 C,0,0.516931,0.524551,-0.044771\C,0,-0.613059,-0.494853,0.024012\O,0,-
 1.909274,0.090322,-0.086974\H,0,2.048829,-0.814819,-0.815272\H,0,2.688
 867,0.622294,-0.024744\H,0,2.029572,-0.693014,0.942713\H,0,0.411143,1.
 099907,-0.967085\H,0,0.407044,1.234976,0.78138\H,0,-0.541025,-1.193082
 ,-0.811207\H,0,-0.535151,-1.082893,0.946811\H,0,-2.046169,0.685602,0.6

 Normal termination of Gaussian 16 at Sat Apr  5 22:29:04 2025.
