 Gaussian 16, Revision C.01,

 ----------------------------------------------------------------------
 #t hf aug-cc-pvdz symm=none int=(grid=ultrafine) guess=(read,tcheck) s
 table=(opt,rrhf)
 ----------------------------------------------------------------------
 -----
 title
 -----
 Symbolic Z-matrix:
 Charge =  0 Multiplicity = 1

 SCF Done:  E(RHF) =  -310.252358662     A.U. after   11 cycles

 1\1\GINC-SE180\Stability\RHF\Aug-CC-pVDZ\C6H14O1\OHZDE\05-Apr-2025\0\\
 #t hf aug-cc-pvdz symm=none int=(grid=ultrafine) guess=(read,tcheck) s
 table=(opt,rrhf)\\title\\0,1\C,0,0.,3.710922,-0.232233\C,0,0.,-3.71092
 2,-0.232233\C,0,0.,2.389208,0.533807\C,0,0.,-2.389208,0.533807\C,0,0.,
 1.184713,-0.390496\C,0,0.,-1.184713,-0.390496\O,0,0.,0.,0.38534\H,0,-0
 .881297,3.80217,-0.870295\H,0,0.,4.559288,0.452278\H,0,0.881297,3.8021
 7,-0.870295\H,0,0.881297,-3.80217,-0.870295\H,0,0.,-4.559288,0.452278\
 H,0,-0.881297,-3.80217,-0.870295\H,0,-0.875832,2.330147,1.18354\H,0,0.

 Normal termination of Gaussian 16 at Sat Apr  5 22:28:55 2025.
 Gaussian 16:  ES64L-G16RevC.01  3-Jul-2019

 ----------------------------------------------------------------------
 #t hf aug-cc-pvdz iop(5/13=1,5/36=2,99/5=2) pseudo=read geom=check gue
 ss=(read,tcheck) scf=(maxcycle=1)
 ----------------------------------------------------------------------
 -----
 title
 -----
 Structure from the checkpoint file:  "1-propoxypropane.chk"
 Charge =  0 Multiplicity = 1

                         Standard orientation:
 ---------------------------------------------------------------------
 Center     Atomic      Atomic             Coordinates (Angstroms)
 Number     Number       Type             X           Y           Z
 ---------------------------------------------------------------------
      1          6           0        0.000000    3.710922   -0.232233
      2          6           0       -0.000000   -3.710922   -0.232233
      3          6           0        0.000000    2.389208    0.533807
      4          6           0       -0.000000   -2.389208    0.533807
      5          6           0        0.000000    1.184713   -0.390496
      6          6           0       -0.000000   -1.184713   -0.390496
      7          8           0       -0.000000   -0.000000    0.385340
      8          1           0       -0.881297    3.802170   -0.870295
      9          1           0        0.000000    4.559288    0.452278
     10          1           0        0.881297    3.802170   -0.870295
     11          1           0        0.881297   -3.802170   -0.870295
     12          1           0       -0.000000   -4.559288    0.452278
     13          1           0       -0.881297   -3.802170   -0.870295
     14          1           0       -0.875832    2.330147    1.183540
     15          1           0        0.875832    2.330147    1.183540
     16          1           0        0.875832   -2.330147    1.183540
     17          1           0       -0.875832   -2.330147    1.183540
     18          1           0       -0.884755    1.205018   -1.043297
     19          1           0        0.884755    1.205018   -1.043297
     20          1           0        0.884755   -1.205018   -1.043297
     21          1           0       -0.884755   -1.205018   -1.043297
 ---------------------------------------------------------------------

 SCF Done:  E(RHF) =  -310.593350184     A.U. after    2 cycles

 The electronic state is 1-A1.
 Alpha  occ. eigenvalues --  -20.53522 -11.27622 -11.27555 -11.22424 -11.22418
 Alpha  occ. eigenvalues --  -11.22387 -11.22373  -1.45332  -1.07125  -1.04151
 Alpha  occ. eigenvalues --   -0.94042  -0.88516  -0.81761  -0.80023  -0.68325
 Alpha  occ. eigenvalues --   -0.65951  -0.63582  -0.62013  -0.58694  -0.57661
 Alpha  occ. eigenvalues --   -0.54165  -0.53889  -0.51649  -0.50381  -0.48952
 Alpha  occ. eigenvalues --   -0.47482  -0.47301  -0.46393  -0.40963
 Alpha virt. eigenvalues --    0.03662   0.03678   0.03869   0.04176   0.05123
 Alpha virt. eigenvalues --    0.05369   0.05666   0.07129   0.07898   0.08205
 Alpha virt. eigenvalues --    0.08820   0.08854   0.10902   0.11231   0.11984

 Mulliken charges:
               1
     1  C   -0.325826
     2  C   -0.325826
     3  C   -0.435860
     4  C   -0.435860
     5  C    0.453555
     6  C    0.453555
     7  O   -1.366718
     8  H    0.162753
     9  H    0.109940
    10  H    0.162753
    11  H    0.162753
    12  H    0.109940
    13  H    0.162753
    14  H    0.122978
    15  H    0.122978
    16  H    0.122978
    17  H    0.122978
    18  H    0.155044
    19  H    0.155044
    20  H    0.155044
    21  H    0.155044
 Sum of Mulliken charges =  -0.00000

 Dipole moment (field-independent basis, Debye):
    X=             -0.0000    Y=             -0.0000    Z=             -1.0170  Tot=              1.0170

 Test job not archived.
 1\1\GINC-SE180\SP\RHF\Aug-CC-pVDZ\C6H14O1\OHZDE\05-Apr-2025\0\\#t hf a
 ug-cc-pvdz iop(5/13=1,5/36=2,99/5=2) pseudo=read geom=check guess=(rea
 d,tcheck) scf=(maxcycle=1)\\title\\0,1\C,0,0.,3.710922,-0.232233\C,0,0
 .,-3.710922,-0.232233\C,0,0.,2.389208,0.533807\C,0,0.,-2.389208,0.5338
 07\C,0,0.,1.184713,-0.390496\C,0,0.,-1.184713,-0.390496\O,0,0.,0.,0.38
 534\H,0,-0.881297,3.80217,-0.870295\H,0,0.,4.559288,0.452278\H,0,0.881
 297,3.80217,-0.870295\H,0,0.881297,-3.80217,-0.870295\H,0,0.,-4.559288
 ,0.452278\H,0,-0.881297,-3.80217,-0.870295\H,0,-0.875832,2.330147,1.18

 Normal termination of Gaussian 16 at Sat Apr  5 22:29:28 2025.
