 Gaussian 16, Revision C.01,

 ----------------------------------------------------------------------
 #t hf aug-cc-pvdz symm=none int=(grid=ultrafine) guess=(read,tcheck) s
 table=(opt,rrhf)
 ----------------------------------------------------------------------
 -----
 title
 -----
 Symbolic Z-matrix:
 Charge =  0 Multiplicity = 1

 SCF Done:  E(RHF) =  -782.587532792     A.U. after   13 cycles
 Normal termination of Gaussian 16 at Sat Apr  5 22:30:21 2025.
 Gaussian 16:  ES64L-G16RevC.01  3-Jul-2019

 ----------------------------------------------------------------------
 #t hf aug-cc-pvdz iop(5/13=1,5/36=2,99/5=2) pseudo=read geom=check gue
 ss=(read,tcheck) scf=(maxcycle=1)
 ----------------------------------------------------------------------
 -----
 title
 -----
 Structure from the checkpoint file:  "1-propylsulfonylpropane.chk"
 Charge =  0 Multiplicity = 1

                         Standard orientation:
 ---------------------------------------------------------------------
 Center     Atomic      Atomic             Coordinates (Angstroms)
 Number     Number       Type             X           Y           Z
 ---------------------------------------------------------------------
      1          6           0       -0.801844    2.711310   -0.338818
      2          6           0       -1.556490    1.634435    0.440931
      3          6           0       -1.752233    0.321404   -0.321811
      4         16           0       -0.564304   -1.020795    0.008601
      5          8           0       -0.486101   -1.205289    1.457548
      6          6           0        1.079145   -0.500005   -0.592572
      7          6           0        1.950093    0.217261    0.432281
      8          6           0        3.350553    0.492327   -0.118099
      9          8           0       -0.983323   -2.133534   -0.842642
     10          1           0        0.202285    2.392866   -0.619062
     11          1           0       -0.702543    3.619858    0.255426
     12          1           0       -1.332410    2.972547   -1.256124
     13          1           0       -2.546727    2.017284    0.694565
     14          1           0       -1.068499    1.426270    1.394331
     15          1           0       -1.766872    0.450649   -1.403970
     16          1           0       -2.678996   -0.177479   -0.036482
     17          1           0        0.908147    0.085211   -1.496916
     18          1           0        1.520929   -1.450450   -0.895032
     19          1           0        2.010961   -0.398610    1.328781
     20          1           0        1.485259    1.155553    0.736171
     21          1           0        3.854470   -0.434566   -0.397124
     22          1           0        3.316961    1.131141   -1.002632
     23          1           0        3.965955    0.992641    0.629730
 ---------------------------------------------------------------------

 SCF Done:  E(RHF) =  -783.062170562     A.U. after    2 cycles

 The electronic state is 1-A.
 Alpha  occ. eigenvalues --  -94.17527 -20.52361 -20.52178 -11.28478 -11.28434
 Alpha  occ. eigenvalues --  -11.25922 -11.25399 -11.24737 -11.24300  -8.42906
 Alpha  occ. eigenvalues --   -6.41003  -6.40788  -6.40735  -1.53291  -1.41602
 Alpha  occ. eigenvalues --   -1.11761  -1.09433  -1.01477  -0.97400  -0.87781
 Alpha  occ. eigenvalues --   -0.84519  -0.80010  -0.70110  -0.68850  -0.65680
 Alpha  occ. eigenvalues --   -0.64404  -0.63483  -0.62238  -0.60313  -0.59048
 Alpha  occ. eigenvalues --   -0.57490  -0.55481  -0.53503  -0.52195  -0.51952
 Alpha  occ. eigenvalues --   -0.51215  -0.50610  -0.47190  -0.46988  -0.44482
 Alpha  occ. eigenvalues --   -0.41640
 Alpha virt. eigenvalues --    0.02669   0.03000   0.03075   0.04061   0.05202
 Alpha virt. eigenvalues --    0.05562   0.05810   0.06845   0.07062   0.08159
 Alpha virt. eigenvalues --    0.08623   0.08919   0.09302   0.09947   0.12698

 Mulliken charges:
               1
     1  C   -0.348579
     2  C   -0.176840
     3  C   -0.761380
     4  S    3.860632
     5  O   -1.706563
     6  C   -0.922979
     7  C   -0.102373
     8  C   -0.364240
     9  O   -1.664423
    10  H    0.096266
    11  H    0.140585
    12  H    0.151618
    13  H    0.111880
    14  H    0.172100
    15  H    0.193027
    16  H    0.223345
    17  H    0.162807
    18  H    0.182925
    19  H    0.171332
    20  H    0.153422
    21  H    0.154878
    22  H    0.159203
    23  H    0.113357
 Sum of Mulliken charges =  -0.00000

 Dipole moment (field-independent basis, Debye):
    X=              1.4317    Y=              5.0243    Z=             -1.5661  Tot=              5.4540

 Test job not archived.
 1\1\GINC-SE210\SP\RHF\Aug-CC-pVDZ\C6H14O2S1\OHZDE\05-Apr-2025\0\\#t hf
  aug-cc-pvdz iop(5/13=1,5/36=2,99/5=2) pseudo=read geom=check guess=(r
 ead,tcheck) scf=(maxcycle=1)\\title\\0,1\C,0,-0.801844,2.71131,-0.3388
 18\C,0,-1.55649,1.634435,0.440931\C,0,-1.752233,0.321404,-0.321811\S,0
 ,-0.564304,-1.020795,0.008601\O,0,-0.486101,-1.205289,1.457548\C,0,1.0
 79145,-0.500005,-0.592572\C,0,1.950093,0.217261,0.432281\C,0,3.350553,
 0.492327,-0.118099\O,0,-0.983323,-2.133534,-0.842642\H,0,0.202285,2.39
 2866,-0.619062\H,0,-0.702543,3.619858,0.255426\H,0,-1.33241,2.972547,-

 Normal termination of Gaussian 16 at Sat Apr  5 22:30:45 2025.
