 Gaussian 16, Revision C.01,

 ----------------------------------------------------------------------
 #t hf aug-cc-pvdz symm=none int=(grid=ultrafine) guess=(read,tcheck) s
 table=(opt,rrhf)
 ----------------------------------------------------------------------
 -----
 title
 -----
 Symbolic Z-matrix:
 Charge =  0 Multiplicity = 1

 SCF Done:  E(RHF) =  -515.809746224     A.U. after   12 cycles
 Normal termination of Gaussian 16 at Sat Apr  5 22:28:13 2025.
 Gaussian 16:  ES64L-G16RevC.01  3-Jul-2019

 ----------------------------------------------------------------------
 #t hf aug-cc-pvdz iop(5/13=1,5/36=2,99/5=2) pseudo=read geom=check gue
 ss=(read,tcheck) scf=(maxcycle=1)
 ----------------------------------------------------------------------
 -----
 title
 -----
 Structure from the checkpoint file:  "1-propanethiol.chk"
 Charge =  0 Multiplicity = 1

                         Standard orientation:
 ---------------------------------------------------------------------
 Center     Atomic      Atomic             Coordinates (Angstroms)
 Number     Number       Type             X           Y           Z
 ---------------------------------------------------------------------
      1          6           0       -2.422945    0.072738    0.011279
      2          6           0       -1.009653   -0.506476   -0.070522
      3          6           0        0.062858    0.567077    0.075523
      4         16           0        1.788351   -0.046408   -0.074553
      5          1           0       -2.599612    0.799976   -0.783540
      6          1           0       -3.173192   -0.712674   -0.085709
      7          1           0       -2.591811    0.576633    0.964916
      8          1           0       -0.869677   -1.024388   -1.021039
      9          1           0       -0.874102   -1.257605    0.711730
     10          1           0       -0.023659    1.307679   -0.720627
     11          1           0       -0.038300    1.098518    1.021239
     12          1           0        1.775172   -0.845654    1.008202
 ---------------------------------------------------------------------

 SCF Done:  E(RHF) =  -516.004693275     A.U. after    2 cycles

 The electronic state is 1-A.
 Alpha  occ. eigenvalues --  -93.94492 -11.26994 -11.23913 -11.23144  -8.22558
 Alpha  occ. eigenvalues --   -6.20412  -6.20264  -6.20042  -1.09640  -1.00932
 Alpha  occ. eigenvalues --   -0.89376  -0.81381  -0.65942  -0.60559  -0.57709
 Alpha  occ. eigenvalues --   -0.56566  -0.52407  -0.50229  -0.48977  -0.45080
 Alpha  occ. eigenvalues --   -0.36165
 Alpha virt. eigenvalues --    0.03637   0.03927   0.04144   0.04739   0.06657
 Alpha virt. eigenvalues --    0.07109   0.07504   0.08063   0.10994   0.11438
 Alpha virt. eigenvalues --    0.13500   0.14814   0.15620   0.15695   0.16307

 Mulliken charges:
               1
     1  C   -0.366266
     2  C   -0.278217
     3  C   -0.838960
     4  S    0.064012
     5  H    0.156348
     6  H    0.116046
     7  H    0.152360
     8  H    0.174953
     9  H    0.144684
    10  H    0.211388
    11  H    0.152280
    12  H    0.311372
 Sum of Mulliken charges =  -0.00000

 Dipole moment (field-independent basis, Debye):
    X=             -1.7807    Y=             -0.0450    Z=              0.7476  Tot=              1.9317

 Test job not archived.
 1\1\GINC-SE168\SP\RHF\Aug-CC-pVDZ\C3H8S1\OHZDE\05-Apr-2025\0\\#t hf au
 g-cc-pvdz iop(5/13=1,5/36=2,99/5=2) pseudo=read geom=check guess=(read
 ,tcheck) scf=(maxcycle=1)\\title\\0,1\C,0,-2.422945,0.072738,0.011279\
 C,0,-1.009653,-0.506476,-0.070522\C,0,0.062858,0.567077,0.075523\S,0,1
 .788351,-0.046408,-0.074553\H,0,-2.599612,0.799976,-0.78354\H,0,-3.173
 192,-0.712674,-0.085709\H,0,-2.591811,0.576633,0.964916\H,0,-0.869677,
 -1.024388,-1.021039\H,0,-0.874102,-1.257605,0.71173\H,0,-0.023659,1.30
 7679,-0.720627\H,0,-0.0383,1.098518,1.021239\H,0,1.775172,-0.845654,1.

 Normal termination of Gaussian 16 at Sat Apr  5 22:29:02 2025.
