 Gaussian 16, Revision C.01,

 ----------------------------------------------------------------------
 #t hf aug-cc-pvdz symm=none int=(grid=ultrafine) guess=(read,tcheck) s
 table=(opt,rrhf)
 ----------------------------------------------------------------------
 -----
 title
 -----
 Symbolic Z-matrix:
 Charge =  0 Multiplicity = 1

 SCF Done:  E(RHF) =  -173.311276279     A.U. after   12 cycles
 Normal termination of Gaussian 16 at Sat Apr  5 22:28:13 2025.
 Gaussian 16:  ES64L-G16RevC.01  3-Jul-2019

 ----------------------------------------------------------------------
 #t hf aug-cc-pvdz iop(5/13=1,5/36=2,99/5=2) pseudo=read geom=check gue
 ss=(read,tcheck) scf=(maxcycle=1)
 ----------------------------------------------------------------------
 -----
 title
 -----
 Structure from the checkpoint file:  "1-propanamine.chk"
 Charge =  0 Multiplicity = 1

                         Standard orientation:
 ---------------------------------------------------------------------
 Center     Atomic      Atomic             Coordinates (Angstroms)
 Number     Number       Type             X           Y           Z
 ---------------------------------------------------------------------
      1          6           0        1.426873    1.298590    0.000000
      2          6           0        0.000000    0.751500    0.000000
      3          6           0       -0.052657   -0.779459    0.000000
      4          7           0       -1.385423   -1.383272    0.000000
      5          1           0        1.978422    0.962964    0.880677
      6          1           0        1.978422    0.962964   -0.880677
      7          1           0        1.436602    2.389035    0.000000
      8          1           0       -0.539820    1.125120   -0.875744
      9          1           0       -0.539820    1.125120    0.875744
     10          1           0        0.483988   -1.159679    0.873422
     11          1           0        0.483988   -1.159679   -0.873422
     12          1           0       -1.914561   -1.093363   -0.813803
     13          1           0       -1.914561   -1.093363    0.813803
 ---------------------------------------------------------------------

 SCF Done:  E(RHF) =  -173.506973554     A.U. after    2 cycles

 The electronic state is 1-A'.
 Alpha  occ. eigenvalues --  -15.47937 -11.25106 -11.22621 -11.22423  -1.17542
 Alpha  occ. eigenvalues --   -1.03962  -0.90499  -0.81270  -0.69957  -0.63188
 Alpha  occ. eigenvalues --   -0.61821  -0.57832  -0.53904  -0.52894  -0.49837
 Alpha  occ. eigenvalues --   -0.47738  -0.41675
 Alpha virt. eigenvalues --    0.03665   0.04023   0.04402   0.04454   0.06739
 Alpha virt. eigenvalues --    0.07039   0.07169   0.07822   0.10340   0.11037
 Alpha virt. eigenvalues --    0.13826   0.14273   0.15461   0.16234   0.16904

 Mulliken charges:
               1
     1  C   -0.311630
     2  C   -0.263694
     3  C   -0.885611
     4  N    0.250409
     5  H    0.153550
     6  H    0.153550
     7  H    0.103962
     8  H    0.144346
     9  H    0.144346
    10  H    0.105033
    11  H    0.105033
    12  H    0.150353
    13  H    0.150353
 Sum of Mulliken charges =  -0.00000

 Dipole moment (field-independent basis, Debye):
    X=             -0.0617    Y=              1.5114    Z=              0.0000  Tot=              1.5126

 Test job not archived.
 1\1\GINC-SE052\SP\RHF\Aug-CC-pVDZ\C3H9N1\OHZDE\05-Apr-2025\0\\#t hf au
 g-cc-pvdz iop(5/13=1,5/36=2,99/5=2) pseudo=read geom=check guess=(read
 ,tcheck) scf=(maxcycle=1)\\title\\0,1\C,0,1.426873,1.29859,0.\C,0,0.,0
 .7515,0.\C,0,-0.052657,-0.779459,0.\N,0,-1.385423,-1.383272,0.\H,0,1.9
 78422,0.962964,0.880677\H,0,1.978422,0.962964,-0.880677\H,0,1.436602,2
 .389035,0.\H,0,-0.53982,1.12512,-0.875744\H,0,-0.53982,1.12512,0.87574
 4\H,0,0.483988,-1.159679,0.873422\H,0,0.483988,-1.159679,-0.873422\H,0
 ,-1.914561,-1.093363,-0.813803\H,0,-1.914561,-1.093363,0.813803\\Versi

 Normal termination of Gaussian 16 at Sat Apr  5 22:29:01 2025.
