 Gaussian 16, Revision C.01,

 ----------------------------------------------------------------------
 #t hf aug-cc-pvdz symm=none int=(grid=ultrafine) guess=(read,tcheck) s
 table=(opt,rrhf)
 ----------------------------------------------------------------------
 -----
 title
 -----
 Symbolic Z-matrix:
 Charge =  0 Multiplicity = 1

 SCF Done:  E(RHF) =  -414.509192874     A.U. after   15 cycles
 Normal termination of Gaussian 16 at Sat Apr  5 22:29:09 2025.
 Gaussian 16:  ES64L-G16RevC.01  3-Jul-2019

 ----------------------------------------------------------------------
 #t hf aug-cc-pvdz iop(5/13=1,5/36=2,99/5=2) pseudo=read geom=check gue
 ss=(read,tcheck) scf=(maxcycle=1)
 ----------------------------------------------------------------------
 -----
 title
 -----
 Structure from the checkpoint file:  "1-pyrazin-2-ylethanone.chk"
 Charge =  0 Multiplicity = 1

                         Standard orientation:
 ---------------------------------------------------------------------
 Center     Atomic      Atomic             Coordinates (Angstroms)
 Number     Number       Type             X           Y           Z
 ---------------------------------------------------------------------
      1          6           0        0.787546   -2.366357    0.000000
      2          6           0       -0.561033   -2.023230    0.000000
      3          6           0        1.353155   -0.175015    0.000000
      4          6           0        0.000000    0.175622    0.000000
      5          6           0       -0.407656    1.626191    0.000000
      6          6           0       -1.879880    1.940275    0.000000
      7          7           0        1.749484   -1.444574    0.000000
      8          7           0       -0.957273   -0.754759    0.000000
      9          8           0        0.445137    2.489136    0.000000
     10          1           0        1.096738   -3.404743    0.000000
     11          1           0       -1.330829   -2.785557    0.000000
     12          1           0        2.112882    0.594562    0.000000
     13          1           0       -2.362568    1.497437    0.871986
     14          1           0       -2.362568    1.497437   -0.871986
     15          1           0       -2.013020    3.018193    0.000000
 ---------------------------------------------------------------------

 SCF Done:  E(RHF) =  -414.924355807     A.U. after    2 cycles

 The electronic state is 1-A'.
 Alpha  occ. eigenvalues --  -20.54771 -15.54984 -15.54157 -11.35398 -11.30591
 Alpha  occ. eigenvalues --  -11.30214 -11.30154 -11.30105 -11.24505  -1.48216
 Alpha  occ. eigenvalues --   -1.32500  -1.24080  -1.08798  -1.02607  -0.94323
 Alpha  occ. eigenvalues --   -0.93127  -0.81156  -0.76603  -0.74601  -0.68954
 Alpha  occ. eigenvalues --   -0.65681  -0.63221  -0.62756  -0.59969  -0.59713
 Alpha  occ. eigenvalues --   -0.57194  -0.55290  -0.51315  -0.48636  -0.47235
 Alpha  occ. eigenvalues --   -0.42296  -0.38015
 Alpha virt. eigenvalues --    0.02742   0.02927   0.03958   0.04330   0.05204
 Alpha virt. eigenvalues --    0.05312   0.06221   0.06583   0.08690   0.10230
 Alpha virt. eigenvalues --    0.10248   0.10904   0.11405   0.12718   0.13448

 Mulliken charges:
               1
     1  C   -0.577889
     2  C   -0.028637
     3  C   -0.900705
     4  C   -0.552500
     5  C    1.340070
     6  C   -0.561096
     7  N    1.155633
     8  N    1.294350
     9  O   -1.460803
    10  H   -0.102434
    11  H   -0.141243
    12  H   -0.135889
    13  H    0.294601
    14  H    0.294601
    15  H    0.081943
 Sum of Mulliken charges =   0.00000

 Dipole moment (field-independent basis, Debye):
    X=             -2.0753    Y=             -2.4234    Z=              0.0000  Tot=              3.1906

 Test job not archived.
 1\1\GINC-SE226\SP\RHF\Aug-CC-pVDZ\C6H6N2O1\OHZDE\05-Apr-2025\0\\#t hf
 aug-cc-pvdz iop(5/13=1,5/36=2,99/5=2) pseudo=read geom=check guess=(re
 ad,tcheck) scf=(maxcycle=1)\\title\\0,1\C,0,0.787546,-2.366357,0.\C,0,
 -0.561033,-2.02323,0.\C,0,1.353155,-0.175015,0.\C,0,0.,0.175622,0.\C,0
 ,-0.407656,1.626191,0.\C,0,-1.87988,1.940275,0.\N,0,1.749484,-1.444574
 ,0.\N,0,-0.957273,-0.754759,0.\O,0,0.445137,2.489136,0.\H,0,1.096738,-
 3.404743,0.\H,0,-1.330829,-2.785557,0.\H,0,2.112882,0.594562,0.\H,0,-2
 .362568,1.497437,0.871986\H,0,-2.362568,1.497437,-0.871986\H,0,-2.0130

 Normal termination of Gaussian 16 at Sat Apr  5 22:29:27 2025.
