 Gaussian 16, Revision C.01,

 ----------------------------------------------------------------------
 #t hf aug-cc-pvdz symm=none int=(grid=ultrafine) guess=(read,tcheck) s
 table=(opt,rrhf)
 ----------------------------------------------------------------------
 -----
 title
 -----
 Symbolic Z-matrix:
 Charge =  0 Multiplicity = 1

 SCF Done:  E(RHF) =  -362.987321378     A.U. after   14 cycles
 Normal termination of Gaussian 16 at Sat Apr  5 22:29:10 2025.
 Gaussian 16:  ES64L-G16RevC.01  3-Jul-2019

 ----------------------------------------------------------------------
 #t hf aug-cc-pvdz iop(5/13=1,5/36=2,99/5=2) pseudo=read geom=check gue
 ss=(read,tcheck) scf=(maxcycle=1)
 ----------------------------------------------------------------------
 -----
 title
 -----
 Structure from the checkpoint file:  "1-pyrrolidin-1-ylethanone.chk"
 Charge =  0 Multiplicity = 1

                         Standard orientation:
 ---------------------------------------------------------------------
 Center     Atomic      Atomic             Coordinates (Angstroms)
 Number     Number       Type             X           Y           Z
 ---------------------------------------------------------------------
      1          6           0        1.450960   -0.211024   -0.011521
      2          6           0       -2.167694   -0.617691    0.265295
      3          6           0       -2.071854    0.820259   -0.260051
      4          6           0       -0.795643   -1.209168   -0.064247
      5          6           0       -0.629862    1.220730    0.068588
      6          6           0        2.289731    1.049920    0.075090
      7          7           0        0.101430   -0.048120   -0.007516
      8          8           0        1.961184   -1.322156   -0.085316
      9          1           0       -2.323362   -0.611690    1.345899
     10          1           0       -2.982362   -1.182603   -0.184363
     11          1           0       -2.222111    0.835109   -1.341119
     12          1           0       -2.800072    1.494779    0.187414
     13          1           0       -0.466604   -1.973381    0.637241
     14          1           0       -0.772611   -1.654471   -1.062577
     15          1           0       -0.232266    1.952833   -0.633874
     16          1           0       -0.563031    1.651531    1.073408
     17          1           0        2.013722    1.662081    0.934901
     18          1           0        2.163330    1.663339   -0.818914
     19          1           0        3.332065    0.758403    0.158197
 ---------------------------------------------------------------------

 SCF Done:  E(RHF) =  -363.368980577     A.U. after    2 cycles

 The electronic state is 1-A.
 Alpha  occ. eigenvalues --  -20.49279 -15.51436 -11.34441 -11.27881 -11.26291
 Alpha  occ. eigenvalues --  -11.24488 -11.24010 -11.24007  -1.43992  -1.25714
 Alpha  occ. eigenvalues --   -1.08305  -1.01591  -0.99131  -0.88328  -0.82264
 Alpha  occ. eigenvalues --   -0.76563  -0.70192  -0.68597  -0.64080  -0.61518
 Alpha  occ. eigenvalues --   -0.60768  -0.59714  -0.57128  -0.55727  -0.55445
 Alpha  occ. eigenvalues --   -0.51067  -0.50478  -0.50089  -0.48495  -0.40807
 Alpha  occ. eigenvalues --   -0.38748
 Alpha virt. eigenvalues --    0.03135   0.03643   0.03756   0.04201   0.05185
 Alpha virt. eigenvalues --    0.05330   0.05972   0.06615   0.06816   0.09210
 Alpha virt. eigenvalues --    0.09360   0.10511   0.12896   0.13139   0.13830

 Mulliken charges:
               1
     1  C    0.632617
     2  C   -0.251002
     3  C   -0.370885
     4  C   -0.048326
     5  C   -0.118570
     6  C   -0.554392
     7  N    0.799212
     8  O   -1.289558
     9  H    0.065353
    10  H    0.145950
    11  H    0.075274
    12  H    0.163621
    13  H    0.051116
    14  H    0.019860
    15  H    0.040231
    16  H   -0.024543
    17  H    0.320344
    18  H    0.295128
    19  H    0.048570
 Sum of Mulliken charges =  -0.00000

 Dipole moment (field-independent basis, Debye):
    X=             -2.9242    Y=              3.2323    Z=              0.2125  Tot=              4.3639

 Test job not archived.
 1\1\GINC-SE226\SP\RHF\Aug-CC-pVDZ\C6H11N1O1\OHZDE\05-Apr-2025\0\\#t hf
  aug-cc-pvdz iop(5/13=1,5/36=2,99/5=2) pseudo=read geom=check guess=(r
 ead,tcheck) scf=(maxcycle=1)\\title\\0,1\C,0,1.45096,-0.211024,-0.0115
 21\C,0,-2.167694,-0.617691,0.265295\C,0,-2.071854,0.820259,-0.260051\C
 ,0,-0.795643,-1.209168,-0.064247\C,0,-0.629862,1.22073,0.068588\C,0,2.
 289731,1.04992,0.07509\N,0,0.10143,-0.04812,-0.007516\O,0,1.961184,-1.
 322156,-0.085316\H,0,-2.323362,-0.61169,1.345899\H,0,-2.982362,-1.1826
 03,-0.184363\H,0,-2.222111,0.835109,-1.341119\H,0,-2.800072,1.494779,0

 Normal termination of Gaussian 16 at Sat Apr  5 22:29:31 2025.
