 Gaussian 16, Revision C.01,

 ----------------------------------------------------------------------
 #t hf aug-cc-pvdz symm=none int=(grid=ultrafine) guess=(read,tcheck) s
 table=(opt,rrhf)
 ----------------------------------------------------------------------
 -----
 title
 -----
 Symbolic Z-matrix:
 Charge =  0 Multiplicity = 1

 SCF Done:  E(RHF) =  -1074.91702694     A.U. after   15 cycles
 Normal termination of Gaussian 16 at Sat Apr  5 22:28:47 2025.
 Gaussian 16:  ES64L-G16RevC.01  3-Jul-2019

 ----------------------------------------------------------------------
 #t hf aug-cc-pvdz iop(5/13=1,5/36=2,99/5=2) pseudo=read geom=check gue
 ss=(read,tcheck) scf=(maxcycle=1)
 ----------------------------------------------------------------------
 -----
 title
 -----
 Structure from the checkpoint file:  "1-sulfanyl-5-6-dihydro-1-3-5-triazine-21H-thione.chk"
 Charge =  0 Multiplicity = 1

                         Standard orientation:
 ---------------------------------------------------------------------
 Center     Atomic      Atomic             Coordinates (Angstroms)
 Number     Number       Type             X           Y           Z
 ---------------------------------------------------------------------
      1         16           0       -1.343024    1.653778   -0.188507
      2         16           0       -1.672982   -1.441915    0.055760
      3          7           0        0.022233    0.641827   -0.044011
      4          7           0        0.993395   -1.482659    0.024447
      5          7           0        2.446897    0.418854   -0.082676
      6          6           0       -0.052767   -0.722709    0.020912
      7          6           0        1.336826    1.254097    0.292287
      8          6           0        2.209200   -0.831052   -0.160281
      9          1           0       -1.575475    1.878237    1.129449
     10          1           0       -1.161933   -2.687349    0.059929
     11          1           0        1.376602    1.458299    1.372225
     12          1           0        1.387735    2.206582   -0.231409
     13          1           0        3.031951   -1.493749   -0.408073
 ---------------------------------------------------------------------

 SCF Done:  E(RHF) =  -1075.31613600     A.U. after    2 cycles

 The electronic state is 1-A.
 Alpha  occ. eigenvalues --  -94.01844 -93.98819 -15.57320 -15.49326 -15.49278
 Alpha  occ. eigenvalues --  -11.38766 -11.31743 -11.31579  -8.29508  -8.26975
 Alpha  occ. eigenvalues --   -6.27355  -6.27151  -6.26932  -6.24802  -6.24653
 Alpha  occ. eigenvalues --   -6.24426  -1.34844  -1.24182  -1.20647  -1.06925
 Alpha  occ. eigenvalues --   -1.03836  -0.97138  -0.88832  -0.77670  -0.72990
 Alpha  occ. eigenvalues --   -0.72888  -0.67536  -0.62748  -0.61017  -0.58829
 Alpha  occ. eigenvalues --   -0.56055  -0.54126  -0.51100  -0.49238  -0.46229
 Alpha  occ. eigenvalues --   -0.42195  -0.40596  -0.37998
 Alpha virt. eigenvalues --    0.03206   0.04358   0.04945   0.05434   0.05548
 Alpha virt. eigenvalues --    0.07100   0.07304   0.07723   0.08590   0.10778
 Alpha virt. eigenvalues --    0.11138   0.11673   0.12203   0.13046   0.14068

 Mulliken charges:
               1
     1  S   -0.066076
     2  S    0.193077
     3  N    0.475683
     4  N    0.847201
     5  N    0.845637
     6  C   -1.691813
     7  C   -0.546089
     8  C   -0.897802
     9  H    0.362644
    10  H    0.392650
    11  H    0.095175
    12  H    0.028176
    13  H   -0.038465
 Sum of Mulliken charges =  -0.00000

 Dipole moment (field-independent basis, Debye):
    X=             -2.5657    Y=              0.6547    Z=              1.2118  Tot=              2.9120

 Test job not archived.
 1\1\GINC-SE009\SP\RHF\Aug-CC-pVDZ\C3H5N3S2\OHZDE\05-Apr-2025\0\\#t hf
 aug-cc-pvdz iop(5/13=1,5/36=2,99/5=2) pseudo=read geom=check guess=(re
 ad,tcheck) scf=(maxcycle=1)\\title\\0,1\S,0,-1.343024,1.653778,-0.1885
 07\S,0,-1.672982,-1.441915,0.05576\N,0,0.022233,0.641827,-0.044011\N,0
 ,0.993395,-1.482659,0.024447\N,0,2.446897,0.418854,-0.082676\C,0,-0.05
 2767,-0.722709,0.020912\C,0,1.336826,1.254097,0.292287\C,0,2.2092,-0.8
 31052,-0.160281\H,0,-1.575475,1.878237,1.129449\H,0,-1.161932,-2.68734
 9,0.059929\H,0,1.376602,1.458299,1.372225\H,0,1.387735,2.206582,-0.231

 Normal termination of Gaussian 16 at Sat Apr  5 22:29:27 2025.
