 Gaussian 16, Revision C.01,

 ----------------------------------------------------------------------
 #t hf aug-cc-pvdz symm=none int=(grid=ultrafine) guess=(read,tcheck) s
 table=(opt,rrhf)
 ----------------------------------------------------------------------
 -----
 title
 -----
 Symbolic Z-matrix:
 Charge =  0 Multiplicity = 1

 SCF Done:  E(RHF) =  -644.489077755     A.U. after   14 cycles
 Normal termination of Gaussian 16 at Sat Apr  5 22:28:27 2025.
 Gaussian 16:  ES64L-G16RevC.01  3-Jul-2019

 ----------------------------------------------------------------------
 #t hf aug-cc-pvdz iop(5/13=1,5/36=2,99/5=2) pseudo=read geom=check gue
 ss=(read,tcheck) scf=(maxcycle=1)
 ----------------------------------------------------------------------
 -----
 title
 -----
 Structure from the checkpoint file:  "1-thiazolidine-1-oxide.chk"
 Charge =  0 Multiplicity = 1

                         Standard orientation:
 ---------------------------------------------------------------------
 Center     Atomic      Atomic             Coordinates (Angstroms)
 Number     Number       Type             X           Y           Z
 ---------------------------------------------------------------------
      1          6           0       -1.663197    0.594397    0.145760
      2          6           0       -1.313787   -0.870942    0.411302
      3          6           0       -0.347275    1.331041   -0.152189
      4          7           0       -0.238792   -1.138186   -0.555395
      5          8           0        1.706481   -0.033621    0.889358
      6         16           0        0.987654    0.059920   -0.421492
      7          1           0       -2.320976    0.654478   -0.720214
      8          1           0       -2.180873    1.039573    0.994418
      9          1           0       -0.990263   -1.021403    1.445604
     10          1           0       -2.153939   -1.534638    0.209646
     11          1           0       -0.400188    1.966309   -1.033577
     12          1           0        0.034327    1.907959    0.686849
     13          1           0        0.174694   -2.061706   -0.495193
 ---------------------------------------------------------------------

 SCF Done:  E(RHF) =  -644.809383076     A.U. after    2 cycles

 The electronic state is 1-A.
 Alpha  occ. eigenvalues --  -94.08876 -20.49695 -15.52774 -11.28095 -11.27562
 Alpha  occ. eigenvalues --  -11.25741  -8.35314  -6.33134  -6.32991  -6.32785
 Alpha  occ. eigenvalues --   -1.43688  -1.24164  -1.06909  -1.01050  -0.85232
 Alpha  occ. eigenvalues --   -0.83452  -0.72857  -0.69248  -0.63586  -0.60750
 Alpha  occ. eigenvalues --   -0.58036  -0.56501  -0.55777  -0.52725  -0.50550
 Alpha  occ. eigenvalues --   -0.46644  -0.41601  -0.37413
 Alpha virt. eigenvalues --    0.03240   0.03973   0.04196   0.04806   0.05973
 Alpha virt. eigenvalues --    0.06499   0.07291   0.08570   0.10735   0.12376
 Alpha virt. eigenvalues --    0.13362   0.13545   0.14012   0.14975   0.15484

 Mulliken charges:
               1
     1  C   -0.286726
     2  C   -0.364557
     3  C   -0.664695
     4  N   -0.108872
     5  O   -1.522153
     6  S    1.958068
     7  H    0.126435
     8  H    0.163398
     9  H    0.041854
    10  H    0.073312
    11  H    0.235498
    12  H    0.205546
    13  H    0.142893
 Sum of Mulliken charges =  -0.00000

 Dipole moment (field-independent basis, Debye):
    X=             -3.5337    Y=              0.3804    Z=             -1.0469  Tot=              3.7051

 Test job not archived.
 1\1\GINC-SE010\SP\RHF\Aug-CC-pVDZ\C3H7N1O1S1\OHZDE\05-Apr-2025\0\\#t h
 f aug-cc-pvdz iop(5/13=1,5/36=2,99/5=2) pseudo=read geom=check guess=(
 read,tcheck) scf=(maxcycle=1)\\title\\0,1\C,0,-1.663197,0.594398,0.145
 76\C,0,-1.313787,-0.870942,0.411302\C,0,-0.347274,1.331041,-0.152189\N
 ,0,-0.238792,-1.138186,-0.555395\O,0,1.706481,-0.033622,0.889358\S,0,0
 .987654,0.05992,-0.421492\H,0,-2.320976,0.654479,-0.720214\H,0,-2.1808
 73,1.039574,0.994418\H,0,-0.990263,-1.021403,1.445604\H,0,-2.15394,-1.
 534637,0.209646\H,0,-0.400187,1.966309,-1.033577\H,0,0.034328,1.907959

 Normal termination of Gaussian 16 at Sat Apr  5 22:29:03 2025.
