 Gaussian 16, Revision C.01,

 ----------------------------------------------------------------------
 #t hf aug-cc-pvdz symm=none int=(grid=ultrafine) guess=(read,tcheck) s
 table=(opt,rrhf)
 ----------------------------------------------------------------------
 -----
 title
 -----
 Symbolic Z-matrix:
 Charge =  0 Multiplicity = 1

 SCF Done:  E(RHF) =  -702.121163854     A.U. after   14 cycles
 Normal termination of Gaussian 16 at Sat Apr  5 22:28:32 2025.
 Gaussian 16:  ES64L-G16RevC.01  3-Jul-2019

 ----------------------------------------------------------------------
 #t hf aug-cc-pvdz iop(5/13=1,5/36=2,99/5=2) pseudo=read geom=check gue
 ss=(read,tcheck) scf=(maxcycle=1)
 ----------------------------------------------------------------------
 -----
 title
 -----
 Structure from the checkpoint file:  "1-vinylsulfonylethylene.chk"
 Charge =  0 Multiplicity = 1

                         Standard orientation:
 ---------------------------------------------------------------------
 Center     Atomic      Atomic             Coordinates (Angstroms)
 Number     Number       Type             X           Y           Z
 ---------------------------------------------------------------------
      1          6           0        2.237512   -1.080208   -0.077675
      2          6           0        1.403583   -0.280902   -0.719892
      3         16           0       -0.000000    0.441332    0.117731
      4          8           0       -0.000000   -0.012068    1.503955
      5          6           0       -1.403588   -0.280896   -0.719890
      6          6           0       -2.237510   -1.080210   -0.077674
      7          8           0        0.000003    1.864598   -0.204444
      8          1           0        2.063322   -1.347346    0.955947
      9          1           0        3.118409   -1.474130   -0.566836
     10          1           0        1.522477    0.047345   -1.743611
     11          1           0       -1.522490    0.047360   -1.743604
     12          1           0       -2.063312   -1.347358    0.955944
     13          1           0       -3.118410   -1.474129   -0.566832
 ---------------------------------------------------------------------

 SCF Done:  E(RHF) =  -702.493592818     A.U. after    2 cycles

 The electronic state is 1-A.
 Alpha  occ. eigenvalues --  -94.19395 -20.53578 -20.53103 -11.29025 -11.29008
 Alpha  occ. eigenvalues --  -11.28579 -11.28575  -8.44640  -6.42764  -6.42554
 Alpha  occ. eigenvalues --   -6.42488  -1.54598  -1.42904  -1.12056  -1.09289
 Alpha  occ. eigenvalues --   -0.95964  -0.84372  -0.78357  -0.72771  -0.69300
 Alpha  occ. eigenvalues --   -0.68384  -0.65909  -0.62706  -0.58683  -0.58221
 Alpha  occ. eigenvalues --   -0.49253  -0.49094  -0.46882  -0.44238  -0.44142
 Alpha  occ. eigenvalues --   -0.41425
 Alpha virt. eigenvalues --    0.02923   0.03344   0.03881   0.05509   0.05797
 Alpha virt. eigenvalues --    0.05982   0.07535   0.10129   0.10441   0.11196
 Alpha virt. eigenvalues --    0.12776   0.13424   0.13970   0.14551   0.14863

 Mulliken charges:
               1
     1  C    0.000856
     2  C   -0.124135
     3  S    3.961178
     4  O   -1.706277
     5  C   -0.124132
     6  C    0.000855
     7  O   -1.576814
     8  H   -0.019169
     9  H   -0.028737
    10  H   -0.167858
    11  H   -0.167860
    12  H   -0.019170
    13  H   -0.028737
 Sum of Mulliken charges =  -0.00000

 Dipole moment (field-independent basis, Debye):
    X=             -0.0000    Y=             -4.2185    Z=             -2.9356  Tot=              5.1394

 Test job not archived.
 1\1\GINC-SE046\SP\RHF\Aug-CC-pVDZ\C4H6O2S1\OHZDE\05-Apr-2025\0\\#t hf
 aug-cc-pvdz iop(5/13=1,5/36=2,99/5=2) pseudo=read geom=check guess=(re
 ad,tcheck) scf=(maxcycle=1)\\title\\0,1\C,0,2.237512,-1.080208,-0.0776
 75\C,0,1.403583,-0.280902,-0.719892\S,0,0.,0.441332,0.117731\O,0,0.,-0
 .012068,1.503955\C,0,-1.403588,-0.280896,-0.71989\C,0,-2.23751,-1.0802
 1,-0.077674\O,0,0.000003,1.864598,-0.204444\H,0,2.063322,-1.347346,0.9
 55947\H,0,3.118409,-1.47413,-0.566836\H,0,1.522477,0.047345,-1.743611\
 H,0,-1.52249,0.04736,-1.743604\H,0,-2.063312,-1.347358,0.955944\H,0,-3

 Normal termination of Gaussian 16 at Sat Apr  5 22:29:04 2025.
