 Gaussian 16, Revision C.01,

 ----------------------------------------------------------------------
 #t hf aug-cc-pvdz symm=none int=(grid=ultrafine) guess=(read,tcheck) s
 table=(opt,rrhf)
 ----------------------------------------------------------------------
 -----
 title
 -----
 Symbolic Z-matrix:
 Charge =  0 Multiplicity = 1

 SCF Done:  E(RHF) =  -240.841011019     A.U. after   14 cycles
 Normal termination of Gaussian 16 at Sat Apr  5 22:28:08 2025.
 Gaussian 16:  ES64L-G16RevC.01  3-Jul-2019

 ----------------------------------------------------------------------
 #t hf aug-cc-pvdz iop(5/13=1,5/36=2,99/5=2) pseudo=read geom=check gue
 ss=(read,tcheck) scf=(maxcycle=1)
 ----------------------------------------------------------------------
 -----
 title
 -----
 Structure from the checkpoint file:  "1H-1-2-4-triazole.chk"
 Charge =  0 Multiplicity = 1

                         Standard orientation:
 ---------------------------------------------------------------------
 Center     Atomic      Atomic             Coordinates (Angstroms)
 Number     Number       Type             X           Y           Z
 ---------------------------------------------------------------------
      1          7           0        0.687175   -0.997210    0.000000
      2          6           0       -0.670085   -0.896250    0.000000
      3          1           0       -1.325913   -1.750118    0.000000
      4          7           0       -1.137377    0.337628    0.000000
      5          7           0        0.000000    1.069665    0.000000
      6          1           0       -0.046582    2.073946    0.000000
      7          6           0        1.075604    0.260484    0.000000
      8          1           0        2.090800    0.620191    0.000000
 ---------------------------------------------------------------------

 SCF Done:  E(RHF) =  -241.085519650     A.U. after    2 cycles

 The electronic state is 1-A'.
 Alpha  occ. eigenvalues --  -15.59725 -15.53945 -15.50125 -11.32848 -11.29552
 Alpha  occ. eigenvalues --   -1.41435  -1.21130  -1.13860  -0.90514  -0.87643
 Alpha  occ. eigenvalues --   -0.81113  -0.68355  -0.67828  -0.62346  -0.55807
 Alpha  occ. eigenvalues --   -0.50302  -0.46584  -0.41394
 Alpha virt. eigenvalues --    0.02676   0.04636   0.05556   0.08477   0.08622
 Alpha virt. eigenvalues --    0.09925   0.10536   0.10693   0.14021   0.14598
 Alpha virt. eigenvalues --    0.15517   0.17608   0.17652   0.18182   0.18689

 Mulliken charges:
               1
     1  N    0.426159
     2  C   -0.356851
     3  H   -0.011025
     4  N    0.039276
     5  N    0.276365
     6  H    0.058424
     7  C   -0.421927
     8  H   -0.010422
 Sum of Mulliken charges =  -0.00000

 Dipole moment (field-independent basis, Debye):
    X=              1.4987    Y=              2.3916    Z=              0.0000  Tot=              2.8223

 Test job not archived.
 1\1\GINC-SE047\SP\RHF\Aug-CC-pVDZ\C2H3N3\OHZDE\05-Apr-2025\0\\#t hf au
 g-cc-pvdz iop(5/13=1,5/36=2,99/5=2) pseudo=read geom=check guess=(read
 ,tcheck) scf=(maxcycle=1)\\title\\0,1\N,0,0.687175,-0.99721,0.\C,0,-0.
 670085,-0.89625,0.\H,0,-1.325913,-1.750118,0.\N,0,-1.137377,0.337628,0
 .\N,0,0.,1.069665,0.\H,0,-0.046582,2.073946,0.\C,0,1.075604,0.260484,0
 .\H,0,2.0908,0.620191,0.\\Version=ES64L-G16RevC.01\State=1-A'\HF=-241.
 0855196\RMSD=3.171e-02\Dipole=0.5896283,0.9409125,0.\Quadrupole=-0.766
 8956,2.8856676,-2.1187719,4.9518607,0.,0.\PG=CS [SG(C2H3N3)]\\@

 Normal termination of Gaussian 16 at Sat Apr  5 22:28:10 2025.
