 Gaussian 16, Revision C.01,

 ----------------------------------------------------------------------
 #t hf aug-cc-pvdz symm=none int=(grid=ultrafine) guess=(read,tcheck) s
 table=(opt,rrhf)
 ----------------------------------------------------------------------
 -----
 title
 -----
 Symbolic Z-matrix:
 Charge =  0 Multiplicity = 1

 SCF Done:  E(RHF) =  -559.330609821     A.U. after   16 cycles
 Normal termination of Gaussian 16 at Sat Apr  5 22:29:26 2025.
 Gaussian 16:  ES64L-G16RevC.01  3-Jul-2019

 ----------------------------------------------------------------------
 #t hf aug-cc-pvdz iop(5/13=1,5/36=2,99/5=2) pseudo=read geom=check gue
 ss=(read,tcheck) scf=(maxcycle=1)
 ----------------------------------------------------------------------
 -----
 title
 -----
 Structure from the checkpoint file:  "1H-3H-7H-xanthine.chk"
 Charge =  0 Multiplicity = 1

                         Standard orientation:
 ---------------------------------------------------------------------
 Center     Atomic      Atomic             Coordinates (Angstroms)
 Number     Number       Type             X           Y           Z
 ---------------------------------------------------------------------
      1          6           0       -1.932966    1.927138    0.000000
      2          6           0        0.000000    0.897330    0.000000
      3          6           0       -1.047973    0.007447    0.000000
      4          6           0        1.374607    0.492230    0.000000
      5          6           0        0.451293   -1.869624    0.000000
      6          7           0       -2.246899    0.640758    0.000000
      7          7           0       -0.597110    2.140003    0.000000
      8          7           0       -0.830130   -1.346171    0.000000
      9          7           0        1.466665   -0.911751    0.000000
     10          8           0        2.362098    1.204052    0.000000
     11          8           0        0.680205   -3.060162    0.000000
     12          1           0       -2.646470    2.733790    0.000000
     13          1           0       -0.115294    3.023307    0.000000
     14          1           0       -1.595394   -2.001005    0.000000
     15          1           0        2.401286   -1.294218    0.000000
 ---------------------------------------------------------------------

 SCF Done:  E(RHF) =  -559.880779091     A.U. after    2 cycles

 The electronic state is 1-A'.
 Alpha  occ. eigenvalues --  -20.53633 -20.53035 -15.59999 -15.57482 -15.56688
 Alpha  occ. eigenvalues --  -15.52828 -11.42278 -11.39710 -11.35742 -11.34679
 Alpha  occ. eigenvalues --  -11.28610  -1.49643  -1.48132  -1.39203  -1.31740
 Alpha  occ. eigenvalues --   -1.25685  -1.21514  -1.08367  -0.95735  -0.94504
 Alpha  occ. eigenvalues --   -0.90227  -0.87713  -0.82010  -0.77180  -0.72984
 Alpha  occ. eigenvalues --   -0.70964  -0.70518  -0.67305  -0.65668  -0.65552
 Alpha  occ. eigenvalues --   -0.63619  -0.59902  -0.53637  -0.52800  -0.48414
 Alpha  occ. eigenvalues --   -0.47239  -0.45128  -0.44977  -0.35421
 Alpha virt. eigenvalues --    0.02120   0.04149   0.04465   0.05521   0.06079
 Alpha virt. eigenvalues --    0.08060   0.08513   0.08890   0.09388   0.10449
 Alpha virt. eigenvalues --    0.10895   0.11415   0.12035   0.12783   0.13674

 Mulliken charges:
               1
     1  C   -0.472493
     2  C   -0.727167
     3  C   -1.678365
     4  C    1.541886
     5  C    0.428808
     6  N    1.011153
     7  N    0.968174
     8  N    0.772061
     9  N    0.536311
    10  O   -1.541838
    11  O   -1.278689
    12  H   -0.050605
    13  H    0.030386
    14  H    0.175001
    15  H    0.285377
 Sum of Mulliken charges =  -0.00000

 Dipole moment (field-independent basis, Debye):
    X=             -2.5852    Y=              3.9591    Z=              0.0000  Tot=              4.7283

 Test job not archived.
 1\1\GINC-SE047\SP\RHF\Aug-CC-pVDZ\C5H4N4O2\OHZDE\05-Apr-2025\0\\#t hf
 aug-cc-pvdz iop(5/13=1,5/36=2,99/5=2) pseudo=read geom=check guess=(re
 ad,tcheck) scf=(maxcycle=1)\\title\\0,1\C,0,-1.932966,1.927138,0.\C,0,
 0.,0.89733,0.\C,0,-1.047973,0.007447,0.\C,0,1.374607,0.49223,0.\C,0,0.
 451293,-1.869624,0.\N,0,-2.246899,0.640758,0.\N,0,-0.59711,2.140003,0.
 \N,0,-0.83013,-1.346171,0.\N,0,1.466665,-0.911751,0.\O,0,2.362098,1.20
 4052,0.\O,0,0.680205,-3.060162,0.\H,0,-2.64647,2.73379,0.\H,0,-0.11529
 4,3.023307,0.\H,0,-1.595394,-2.001005,0.\H,0,2.401286,-1.294218,0.\\Ve

 Normal termination of Gaussian 16 at Sat Apr  5 22:29:35 2025.
