 Gaussian 16, Revision C.01,

 ----------------------------------------------------------------------
 #t hf aug-cc-pvdz symm=none int=(grid=ultrafine) guess=(read,tcheck) s
 table=(opt,rrhf)
 ----------------------------------------------------------------------
 -----
 title
 -----
 Symbolic Z-matrix:
 Charge =  0 Multiplicity = 1

 SCF Done:  E(RHF) =  -559.316348699     A.U. after   16 cycles
 Normal termination of Gaussian 16 at Sat Apr  5 22:29:29 2025.
 Gaussian 16:  ES64L-G16RevC.01  3-Jul-2019

 ----------------------------------------------------------------------
 #t hf aug-cc-pvdz iop(5/13=1,5/36=2,99/5=2) pseudo=read geom=check gue
 ss=(read,tcheck) scf=(maxcycle=1)
 ----------------------------------------------------------------------
 -----
 title
 -----
 Structure from the checkpoint file:  "1H-3H-9H-xanthine.chk"
 Charge =  0 Multiplicity = 1

                         Standard orientation:
 ---------------------------------------------------------------------
 Center     Atomic      Atomic             Coordinates (Angstroms)
 Number     Number       Type             X           Y           Z
 ---------------------------------------------------------------------
      1          6           0       -0.494582   -1.855654    0.000000
      2          7           0        0.801387   -1.341554    0.000000
      3          6           0        1.003289    0.010465    0.000000
      4          6           0        0.000000    0.951847    0.000000
      5          7           0        0.543549    2.219652    0.000000
      6          6           0        1.828513    2.045590    0.000000
      7          7           0        2.176164    0.698429    0.000000
      8          7           0       -1.483837   -0.891134    0.000000
      9          6           0       -1.384973    0.528592    0.000000
     10          8           0       -0.710820   -3.048700    0.000000
     11          1           0        2.579315    2.817576    0.000000
     12          8           0       -2.386498    1.205693    0.000000
     13          1           0       -2.426033   -1.254649    0.000000
     14          1           0        1.543280   -2.021140    0.000000
     15          1           0        3.107654    0.319474    0.000000
 ---------------------------------------------------------------------

 SCF Done:  E(RHF) =  -559.866394338     A.U. after    2 cycles

 The electronic state is 1-A'.
 Alpha  occ. eigenvalues --  -20.53647 -20.52817 -15.60543 -15.59115 -15.56395
 Alpha  occ. eigenvalues --  -15.52495 -11.42829 -11.38679 -11.36784 -11.33593
 Alpha  occ. eigenvalues --  -11.27393  -1.50119  -1.47692  -1.39292  -1.32028
 Alpha  occ. eigenvalues --   -1.25615  -1.21687  -1.07860  -0.95779  -0.94282
 Alpha  occ. eigenvalues --   -0.90734  -0.87570  -0.81765  -0.77789  -0.72870
 Alpha  occ. eigenvalues --   -0.71576  -0.70780  -0.66751  -0.65601  -0.65587
 Alpha  occ. eigenvalues --   -0.63127  -0.59491  -0.52340  -0.51922  -0.48675
 Alpha  occ. eigenvalues --   -0.48266  -0.44998  -0.44382  -0.34925
 Alpha virt. eigenvalues --    0.00845   0.03051   0.04453   0.05489   0.07728
 Alpha virt. eigenvalues --    0.07815   0.08339   0.09408   0.10245   0.10440
 Alpha virt. eigenvalues --    0.10790   0.11649   0.11725   0.12118   0.12127

 Mulliken charges:
               1
     1  C    0.513037
     2  N    0.764024
     3  C   -1.102520
     4  C   -1.170317
     5  N    1.085755
     6  C   -0.522694
     7  N    0.846877
     8  N    0.481498
     9  C    1.546672
    10  O   -1.297841
    11  H   -0.073089
    12  O   -1.513608
    13  H    0.301701
    14  H    0.165033
    15  H   -0.024526
 Sum of Mulliken charges =  -0.00000

 Dipole moment (field-independent basis, Debye):
    X=              7.5619    Y=             -1.1915    Z=              0.0000  Tot=              7.6552

 Test job not archived.
 1\1\GINC-SE106\SP\RHF\Aug-CC-pVDZ\C5H4N4O2\OHZDE\05-Apr-2025\0\\#t hf
 aug-cc-pvdz iop(5/13=1,5/36=2,99/5=2) pseudo=read geom=check guess=(re
 ad,tcheck) scf=(maxcycle=1)\\title\\0,1\C,0,-0.494582,-1.855654,0.\N,0
 ,0.801387,-1.341554,0.\C,0,1.003289,0.010465,0.\C,0,0.,0.951847,0.\N,0
 ,0.543549,2.219652,0.\C,0,1.828513,2.04559,0.\N,0,2.176164,0.698429,0.
 \N,0,-1.483837,-0.891134,0.\C,0,-1.384973,0.528592,0.\O,0,-0.71082,-3.
 0487,0.\H,0,2.579315,2.817576,0.\O,0,-2.386498,1.205693,0.\H,0,-2.4260
 33,-1.254649,0.\H,0,1.54328,-2.02114,0.\H,0,3.107654,0.319474,0.\\Vers

 Normal termination of Gaussian 16 at Sat Apr  5 22:29:37 2025.
