 Gaussian 16, Revision C.01,

 ----------------------------------------------------------------------
 #t hf aug-cc-pvdz symm=none int=(grid=ultrafine) guess=(read,tcheck) s
 table=(opt,rrhf)
 ----------------------------------------------------------------------
 -----
 title
 -----
 Symbolic Z-matrix:
 Charge =  0 Multiplicity = 1

 SCF Done:  E(RHF) =  -559.301960198     A.U. after   16 cycles
 Normal termination of Gaussian 16 at Sat Apr  5 22:29:25 2025.
 Gaussian 16:  ES64L-G16RevC.01  3-Jul-2019

 ----------------------------------------------------------------------
 #t hf aug-cc-pvdz iop(5/13=1,5/36=2,99/5=2) pseudo=read geom=check gue
 ss=(read,tcheck) scf=(maxcycle=1)
 ----------------------------------------------------------------------
 -----
 title
 -----
 Structure from the checkpoint file:  "1H-3H-9H-alloxanthine.chk"
 Charge =  0 Multiplicity = 1

                         Standard orientation:
 ---------------------------------------------------------------------
 Center     Atomic      Atomic             Coordinates (Angstroms)
 Number     Number       Type             X           Y           Z
 ---------------------------------------------------------------------
      1          6           0       -0.531875   -1.845904    0.000000
      2          7           0        0.771404   -1.348773    0.000000
      3          6           0        1.003562   -0.002016    0.000000
      4          6           0        0.000000    0.950259    0.000000
      5          6           0        0.690256    2.188187    0.000000
      6          7           0        1.994421    2.015793    0.000000
      7          7           0        2.175035    0.654328    0.000000
      8          7           0       -1.513744   -0.871250    0.000000
      9          6           0       -1.384929    0.539209    0.000000
     10          8           0       -0.763178   -3.034653    0.000000
     11          8           0       -2.371414    1.243358    0.000000
     12          1           0       -2.459834   -1.224597    0.000000
     13          1           0        1.502564   -2.040445    0.000000
     14          1           0        3.109527    0.285765    0.000000
     15          1           0        0.272581    3.180547    0.000000
 ---------------------------------------------------------------------

 SCF Done:  E(RHF) =  -559.852343299     A.U. after    2 cycles

 The electronic state is 1-A'.
 Alpha  occ. eigenvalues --  -20.54452 -20.53681 -15.61421 -15.59684 -15.57156
 Alpha  occ. eigenvalues --  -15.55643 -11.43584 -11.39695 -11.37820 -11.30155
 Alpha  occ. eigenvalues --  -11.25676  -1.50946  -1.48517  -1.41072  -1.33117
 Alpha  occ. eigenvalues --   -1.26262  -1.15823  -1.11386  -0.96365  -0.95061
 Alpha  occ. eigenvalues --   -0.89925  -0.87432  -0.82563  -0.78438  -0.72158
 Alpha  occ. eigenvalues --   -0.71470  -0.70407  -0.66547  -0.66536  -0.65856
 Alpha  occ. eigenvalues --   -0.62085  -0.60135  -0.53851  -0.53473  -0.49471
 Alpha  occ. eigenvalues --   -0.46132  -0.45258  -0.43825  -0.38039
 Alpha virt. eigenvalues --    0.01579   0.04549   0.04708   0.04987   0.07691
 Alpha virt. eigenvalues --    0.07952   0.08715   0.09191   0.09886   0.10305
 Alpha virt. eigenvalues --    0.11281   0.11543   0.11794   0.12003   0.12900

 Mulliken charges:
               1
     1  C    0.472404
     2  N    0.954720
     3  C   -2.204277
     4  C    1.237323
     5  C   -0.223588
     6  N   -0.169244
     7  N    0.986184
     8  N    0.407495
     9  C    1.135134
    10  O   -1.285380
    11  O   -1.538318
    12  H    0.294269
    13  H    0.099291
    14  H    0.019111
    15  H   -0.185124
 Sum of Mulliken charges =   0.00000

 Dipole moment (field-independent basis, Debye):
    X=              3.3666    Y=             -1.2776    Z=              0.0000  Tot=              3.6008

 Test job not archived.
 1\1\GINC-SE209\SP\RHF\Aug-CC-pVDZ\C5H4N4O2\OHZDE\05-Apr-2025\0\\#t hf
 aug-cc-pvdz iop(5/13=1,5/36=2,99/5=2) pseudo=read geom=check guess=(re
 ad,tcheck) scf=(maxcycle=1)\\title\\0,1\C,0,-0.531875,-1.845904,0.\N,0
 ,0.771404,-1.348773,0.\C,0,1.003562,-0.002016,0.\C,0,0.,0.950259,0.\C,
 0,0.690256,2.188187,0.\N,0,1.994421,2.015793,0.\N,0,2.175035,0.654328,
 0.\N,0,-1.513744,-0.87125,0.\C,0,-1.384929,0.539209,0.\O,0,-0.763178,-
 3.034653,0.\O,0,-2.371414,1.243358,0.\H,0,-2.459834,-1.224597,0.\H,0,1
 .502564,-2.040445,0.\H,0,3.109527,0.285765,0.\H,0,0.272581,3.180547,0.

 Normal termination of Gaussian 16 at Sat Apr  5 22:29:34 2025.
