 Gaussian 16, Revision C.01,

 ----------------------------------------------------------------------
 #t hf aug-cc-pvdz symm=none int=(grid=ultrafine) guess=(read,tcheck) s
 table=(opt,rrhf)
 ----------------------------------------------------------------------
 -----
 title
 -----
 Symbolic Z-matrix:
 Charge =  0 Multiplicity = 1

 SCF Done:  E(RHF) =  -559.307667714     A.U. after   16 cycles
 Normal termination of Gaussian 16 at Sat Apr  5 22:29:44 2025.
 Gaussian 16:  ES64L-G16RevC.01  3-Jul-2019

 ----------------------------------------------------------------------
 #t hf aug-cc-pvdz iop(5/13=1,5/36=2,99/5=2) pseudo=read geom=check gue
 ss=(read,tcheck) scf=(maxcycle=1)
 ----------------------------------------------------------------------
 -----
 title
 -----
 Structure from the checkpoint file:  "1H-3H-8H-alloxanthine.chk"
 Charge =  0 Multiplicity = 1

                         Standard orientation:
 ---------------------------------------------------------------------
 Center     Atomic      Atomic             Coordinates (Angstroms)
 Number     Number       Type             X           Y           Z
 ---------------------------------------------------------------------
      1          6           0       -0.513595   -1.847902    0.000000
      2          7           0        0.778933   -1.359597    0.000000
      3          6           0        1.042726   -0.011300    0.000000
      4          6           0        0.000000    0.939529    0.000000
      5          6           0        0.650742    2.159172    0.000000
      6          7           0        1.962308    1.874826    0.000000
      7          7           0        2.241607    0.540130    0.000000
      8          7           0       -1.509334   -0.870626    0.000000
      9          6           0       -1.390022    0.528250    0.000000
     10          8           0       -0.770109   -3.032395    0.000000
     11          1           0        2.729469    2.523638    0.000000
     12          8           0       -2.370508    1.243288    0.000000
     13          1           0        0.271382    3.165642    0.000000
     14          1           0       -2.450739   -1.235751    0.000000
     15          1           0        1.521119   -2.040297    0.000000
 ---------------------------------------------------------------------

 SCF Done:  E(RHF) =  -559.858401884     A.U. after    2 cycles

 The electronic state is 1-A'.
 Alpha  occ. eigenvalues --  -20.53723 -20.53227 -15.61872 -15.57206 -15.56524
 Alpha  occ. eigenvalues --  -15.55205 -11.42333 -11.39635 -11.34398 -11.33704
 Alpha  occ. eigenvalues --  -11.26204  -1.49821  -1.48318  -1.41184  -1.31815
 Alpha  occ. eigenvalues --   -1.25340  -1.15373  -1.11748  -0.96923  -0.94310
 Alpha  occ. eigenvalues --   -0.90614  -0.83221  -0.82254  -0.75962  -0.75541
 Alpha  occ. eigenvalues --   -0.70970  -0.70397  -0.66425  -0.65807  -0.65501
 Alpha  occ. eigenvalues --   -0.62363  -0.59748  -0.54970  -0.52977  -0.48502
 Alpha  occ. eigenvalues --   -0.45476  -0.44903  -0.41503  -0.39368
 Alpha virt. eigenvalues --    0.02067   0.04196   0.04471   0.05501   0.06151
 Alpha virt. eigenvalues --    0.08112   0.08744   0.09071   0.10204   0.10343
 Alpha virt. eigenvalues --    0.11173   0.12162   0.12457   0.13081   0.13152

 Mulliken charges:
               1
     1  C    0.444179
     2  N    0.921340
     3  C   -2.143140
     4  C    1.328376
     5  C   -0.168369
     6  N    0.154347
     7  N    0.628359
     8  N    0.501092
     9  C    0.923514
    10  O   -1.286677
    11  H    0.077127
    12  O   -1.515432
    13  H   -0.257718
    14  H    0.268889
    15  H    0.124113
 Sum of Mulliken charges =  -0.00000

 Dipole moment (field-independent basis, Debye):
    X=              2.7176    Y=              3.6159    Z=              0.0000  Tot=              4.5233

 Test job not archived.
 1\1\GINC-SE108\SP\RHF\Aug-CC-pVDZ\C5H4N4O2\OHZDE\05-Apr-2025\0\\#t hf
 aug-cc-pvdz iop(5/13=1,5/36=2,99/5=2) pseudo=read geom=check guess=(re
 ad,tcheck) scf=(maxcycle=1)\\title\\0,1\C,0,-0.513595,-1.847902,0.\N,0
 ,0.778933,-1.359597,0.\C,0,1.042726,-0.0113,0.\C,0,0.,0.939529,0.\C,0,
 0.650742,2.159172,0.\N,0,1.962308,1.874826,0.\N,0,2.241607,0.54013,0.\
 N,0,-1.509334,-0.870626,0.\C,0,-1.390022,0.52825,0.\O,0,-0.770109,-3.0
 32395,0.\H,0,2.729469,2.523638,0.\O,0,-2.370508,1.243288,0.\H,0,0.2713
 82,3.165642,0.\H,0,-2.450739,-1.235751,0.\H,0,1.521119,-2.040297,0.\\V

 Normal termination of Gaussian 16 at Sat Apr  5 22:30:33 2025.
