 Gaussian 16, Revision C.01,

 ----------------------------------------------------------------------
 #t hf aug-cc-pvdz symm=none int=(grid=ultrafine) guess=(read,tcheck) s
 table=(opt,rrhf)
 ----------------------------------------------------------------------
 -----
 title
 -----
 Symbolic Z-matrix:
 Charge =  0 Multiplicity = 1

 SCF Done:  E(RHF) =  -484.418805680     A.U. after   16 cycles
 Normal termination of Gaussian 16 at Sat Apr  5 22:29:04 2025.
 Gaussian 16:  ES64L-G16RevC.01  3-Jul-2019

 ----------------------------------------------------------------------
 #t hf aug-cc-pvdz iop(5/13=1,5/36=2,99/5=2) pseudo=read geom=check gue
 ss=(read,tcheck) scf=(maxcycle=1)
 ----------------------------------------------------------------------
 -----
 title
 -----
 Structure from the checkpoint file:  "1H-7H-hypoxanthine.chk"
 Charge =  0 Multiplicity = 1

                         Standard orientation:
 ---------------------------------------------------------------------
 Center     Atomic      Atomic             Coordinates (Angstroms)
 Number     Number       Type             X           Y           Z
 ---------------------------------------------------------------------
      1          6           0       -2.032028    1.358919    0.000000
      2          6           0       -0.000000    0.554262   -0.000000
      3          6           0       -0.943969   -0.466855    0.000000
      4          6           0        0.643022   -2.033412    0.000000
      5          6           0        1.406961    0.316403   -0.000000
      6          7           0       -2.208454    0.057575    0.000000
      7          7           0       -0.625765   -1.795763    0.000000
      8          7           0       -0.718202    1.721541    0.000000
      9          7           0        1.625317   -1.077018   -0.000000
     10          8           0        2.326607    1.119304   -0.000000
     11          1           0       -2.822899    2.090917    0.000000
     12          1           0        0.998376   -3.056608    0.000000
     13          1           0       -0.336554    2.652448   -0.000000
     14          1           0        2.594034   -1.361433   -0.000000
 ---------------------------------------------------------------------

 SCF Done:  E(RHF) =  -484.899703809     A.U. after    2 cycles

 The electronic state is 1-A'.
 Alpha  occ. eigenvalues --  -20.52443 -15.58360 -15.57937 -15.51543 -15.50685
 Alpha  occ. eigenvalues --  -11.38610 -11.35737 -11.33940 -11.31664 -11.27960
 Alpha  occ. eigenvalues --   -1.47307  -1.37382  -1.32577  -1.23539  -1.19577
 Alpha  occ. eigenvalues --   -1.07496  -0.94874  -0.93980  -0.88004  -0.84203
 Alpha  occ. eigenvalues --   -0.79157  -0.75275  -0.72487  -0.68473  -0.66459
 Alpha  occ. eigenvalues --   -0.64452  -0.63911  -0.62870  -0.55383  -0.53512
 Alpha  occ. eigenvalues --   -0.48532  -0.48014  -0.44926  -0.44002  -0.34273
 Alpha virt. eigenvalues --    0.02497   0.03341   0.04773   0.05427   0.07149
 Alpha virt. eigenvalues --    0.07347   0.07856   0.09533   0.09560   0.10525
 Alpha virt. eigenvalues --    0.10903   0.11732   0.12095   0.12184   0.13021

 Mulliken charges:
               1
     1  C   -0.554058
     2  C   -0.850617
     3  C   -1.689107
     4  C   -0.453268
     5  C    1.577584
     6  N    0.938854
     7  N    1.042376
     8  N    0.966150
     9  N    0.485897
    10  O   -1.555802
    11  H   -0.052772
    12  H   -0.073707
    13  H    0.018334
    14  H    0.200136
 Sum of Mulliken charges =   0.00000

 Dipole moment (field-independent basis, Debye):
    X=              1.3649    Y=              1.0195    Z=              0.0000  Tot=              1.7036

 Test job not archived.
 1\1\GINC-SE145\SP\RHF\Aug-CC-pVDZ\C5H4N4O1\OHZDE\05-Apr-2025\0\\#t hf
 aug-cc-pvdz iop(5/13=1,5/36=2,99/5=2) pseudo=read geom=check guess=(re
 ad,tcheck) scf=(maxcycle=1)\\title\\0,1\C,0,-2.032028,1.358919,0.\C,0,
 0.,0.554262,0.\C,0,-0.943969,-0.466855,0.\C,0,0.643023,-2.033412,0.\C,
 0,1.406961,0.316403,0.\N,0,-2.208454,0.057574,0.\N,0,-0.625765,-1.7957
 63,0.\N,0,-0.718202,1.721541,0.\N,0,1.625317,-1.077018,0.\O,0,2.326607
 ,1.119304,0.\H,0,-2.822899,2.090916,0.\H,0,0.998377,-3.056608,0.\H,0,-
 0.336554,2.652448,0.\H,0,2.594034,-1.361433,0.\\Version=ES64L-G16RevC.

 Normal termination of Gaussian 16 at Sat Apr  5 22:29:28 2025.
