 Gaussian 16, Revision C.01,

 ----------------------------------------------------------------------
 #t hf aug-cc-pvdz symm=none int=(grid=ultrafine) guess=(read,tcheck) s
 table=(opt,rrhf)
 ----------------------------------------------------------------------
 -----
 title
 -----
 Symbolic Z-matrix:
 Charge =  0 Multiplicity = 1

 SCF Done:  E(RHF) =  -484.391492797     A.U. after   16 cycles
 Normal termination of Gaussian 16 at Sat Apr  5 22:29:03 2025.
 Gaussian 16:  ES64L-G16RevC.01  3-Jul-2019

 ----------------------------------------------------------------------
 #t hf aug-cc-pvdz iop(5/13=1,5/36=2,99/5=2) pseudo=read geom=check gue
 ss=(read,tcheck) scf=(maxcycle=1)
 ----------------------------------------------------------------------
 -----
 title
 -----
 Structure from the checkpoint file:  "1H-8H-allopurinol.chk"
 Charge =  0 Multiplicity = 1

                         Standard orientation:
 ---------------------------------------------------------------------
 Center     Atomic      Atomic             Coordinates (Angstroms)
 Number     Number       Type             X           Y           Z
 ---------------------------------------------------------------------
      1          6           0        0.728933   -1.997108    0.000000
      2          7           0       -0.543008   -1.810437   -0.000000
      3          6           0       -0.914571   -0.487179   -0.000000
      4          6           0        0.000000    0.605212   -0.000000
      5          6           0       -0.793070    1.736321   -0.000000
      6          7           0       -2.058612    1.279355   -0.000000
      7          7           0       -2.176192   -0.065847   -0.000000
      8          7           0        1.685510   -1.008834    0.000000
      9          6           0        1.424753    0.375734    0.000000
     10          1           0        1.120457   -3.007750    0.000000
     11          8           0        2.329973    1.187587    0.000000
     12          1           0       -0.552002    2.784573   -0.000000
     13          1           0        2.661361   -1.265449    0.000000
     14          1           0       -2.899755    1.830394   -0.000000
 ---------------------------------------------------------------------

 SCF Done:  E(RHF) =  -484.872887711     A.U. after    2 cycles

 The electronic state is 1-A'.
 Alpha  occ. eigenvalues --  -20.52793 -15.60939 -15.57123 -15.53686 -15.51148
 Alpha  occ. eigenvalues --  -11.38619 -11.35768 -11.31932 -11.30998 -11.24900
 Alpha  occ. eigenvalues --   -1.47669  -1.39839  -1.32445  -1.22777  -1.13449
 Alpha  occ. eigenvalues --   -1.10517  -0.97416  -0.93259  -0.85838  -0.81089
 Alpha  occ. eigenvalues --   -0.80249  -0.75788  -0.71398  -0.68391  -0.65196
 Alpha  occ. eigenvalues --   -0.64661  -0.63882  -0.63781  -0.54896  -0.54579
 Alpha  occ. eigenvalues --   -0.48507  -0.47610  -0.44896  -0.39499  -0.37425
 Alpha virt. eigenvalues --    0.02517   0.03322   0.04832   0.05353   0.06218
 Alpha virt. eigenvalues --    0.07836   0.08273   0.09185   0.09774   0.10624
 Alpha virt. eigenvalues --    0.11339   0.12140   0.12171   0.13317   0.13478

 Mulliken charges:
               1
     1  C   -0.515945
     2  N    1.151228
     3  C   -2.037919
     4  C    1.252707
     5  C   -0.224101
     6  N    0.121627
     7  N    0.530639
     8  N    0.487945
     9  C    0.830856
    10  H   -0.095008
    11  O   -1.496535
    12  H   -0.265568
    13  H    0.181617
    14  H    0.078457
 Sum of Mulliken charges =  -0.00000

 Dipole moment (field-independent basis, Debye):
    X=              1.1599    Y=              0.9242    Z=             -0.0000  Tot=              1.4831

 Test job not archived.
 1\1\GINC-SE146\SP\RHF\Aug-CC-pVDZ\C5H4N4O1\OHZDE\05-Apr-2025\0\\#t hf
 aug-cc-pvdz iop(5/13=1,5/36=2,99/5=2) pseudo=read geom=check guess=(re
 ad,tcheck) scf=(maxcycle=1)\\title\\0,1\C,0,0.728933,-1.997108,0.\N,0,
 -0.543008,-1.810437,0.\C,0,-0.914571,-0.487179,0.\C,0,0.,0.605212,0.\C
 ,0,-0.79307,1.736321,0.\N,0,-2.058612,1.279355,0.\N,0,-2.176192,-0.065
 847,0.\N,0,1.68551,-1.008834,0.\C,0,1.424753,0.375734,0.\H,0,1.120457,
 -3.00775,0.\O,0,2.329973,1.187587,0.\H,0,-0.552002,2.784573,0.\H,0,2.6
 61361,-1.265449,0.\H,0,-2.899755,1.830394,0.\\Version=ES64L-G16RevC.01

 Normal termination of Gaussian 16 at Sat Apr  5 22:29:28 2025.
