 Gaussian 16, Revision C.01,

 ----------------------------------------------------------------------
 #t hf aug-cc-pvdz symm=none int=(grid=ultrafine) guess=(read,tcheck) s
 table=(opt,rrhf)
 ----------------------------------------------------------------------
 -----
 title
 -----
 Symbolic Z-matrix:
 Charge =  0 Multiplicity = 1

 SCF Done:  E(RHF) =  -484.417694317     A.U. after   16 cycles
 Normal termination of Gaussian 16 at Sat Apr  5 22:29:03 2025.
 Gaussian 16:  ES64L-G16RevC.01  3-Jul-2019

 ----------------------------------------------------------------------
 #t hf aug-cc-pvdz iop(5/13=1,5/36=2,99/5=2) pseudo=read geom=check gue
 ss=(read,tcheck) scf=(maxcycle=1)
 ----------------------------------------------------------------------
 -----
 title
 -----
 Structure from the checkpoint file:  "1H-9H-hypoxanthine.chk"
 Charge =  0 Multiplicity = 1

                         Standard orientation:
 ---------------------------------------------------------------------
 Center     Atomic      Atomic             Coordinates (Angstroms)
 Number     Number       Type             X           Y           Z
 ---------------------------------------------------------------------
      1          6           0        0.682278   -2.011975    0.000000
      2          7           0       -0.594186   -1.780881    0.000000
      3          6           0       -0.879403   -0.454202    0.000000
      4          6           0        0.000000    0.622440    0.000000
      5          7           0       -0.689283    1.811813    0.000000
      6          6           0       -1.948126    1.467994    0.000000
      7          7           0       -2.127037    0.103915    0.000000
      8          7           0        1.638326   -1.045896    0.000000
      9          6           0        1.418524    0.367369    0.000000
     10          1           0        1.040118   -3.033903    0.000000
     11          1           0       -2.782873    2.149310    0.000000
     12          1           0       -2.996743   -0.401694    0.000000
     13          8           0        2.361664    1.128525    0.000000
     14          1           0        2.611808   -1.314335    0.000000
 ---------------------------------------------------------------------

 SCF Done:  E(RHF) =  -484.898533106     A.U. after    2 cycles

 The electronic state is 1-A'.
 Alpha  occ. eigenvalues --  -20.51668 -15.58013 -15.57695 -15.52566 -15.50870
 Alpha  occ. eigenvalues --  -11.37690 -11.36654 -11.33153 -11.32491 -11.26492
 Alpha  occ. eigenvalues --   -1.46791  -1.37460  -1.32617  -1.23471  -1.19735
 Alpha  occ. eigenvalues --   -1.06904  -0.94314  -0.94017  -0.88475  -0.83413
 Alpha  occ. eigenvalues --   -0.79009  -0.75363  -0.72037  -0.68414  -0.65439
 Alpha  occ. eigenvalues --   -0.64802  -0.63091  -0.62743  -0.55046  -0.54737
 Alpha  occ. eigenvalues --   -0.48469  -0.46615  -0.45867  -0.44047  -0.33378
 Alpha virt. eigenvalues --    0.02243   0.03197   0.04643   0.05070   0.06513
 Alpha virt. eigenvalues --    0.07661   0.08842   0.09589   0.09762   0.10772
 Alpha virt. eigenvalues --    0.11073   0.11886   0.12367   0.12699   0.12844

 Mulliken charges:
               1
     1  C   -0.311494
     2  N    1.094216
     3  C   -1.285449
     4  C   -1.221490
     5  N    1.078956
     6  C   -0.643239
     7  N    0.807514
     8  N    0.448013
     9  C    1.509925
    10  H   -0.083695
    11  H   -0.075975
    12  H   -0.013511
    13  O   -1.513260
    14  H    0.209490
 Sum of Mulliken charges =  -0.00000

 Dipole moment (field-independent basis, Debye):
    X=             -3.0349    Y=             -4.6073    Z=              0.0000  Tot=              5.5171

 Test job not archived.
 1\1\GINC-SE198\SP\RHF\Aug-CC-pVDZ\C5H4N4O1\OHZDE\05-Apr-2025\0\\#t hf
 aug-cc-pvdz iop(5/13=1,5/36=2,99/5=2) pseudo=read geom=check guess=(re
 ad,tcheck) scf=(maxcycle=1)\\title\\0,1\C,0,0.682278,-2.011975,0.\N,0,
 -0.594186,-1.780881,0.\C,0,-0.879403,-0.454202,0.\C,0,0.,0.62244,0.\N,
 0,-0.689283,1.811813,0.\C,0,-1.948126,1.467994,0.\N,0,-2.127037,0.1039
 15,0.\N,0,1.638326,-1.045896,0.\C,0,1.418524,0.367369,0.\H,0,1.040118,
 -3.033903,0.\H,0,-2.782873,2.14931,0.\H,0,-2.996743,-0.401694,0.\O,0,2
 .361664,1.128525,0.\H,0,2.611808,-1.314335,0.\\Version=ES64L-G16RevC.0

 Normal termination of Gaussian 16 at Sat Apr  5 22:29:28 2025.
