 Gaussian 16, Revision C.01,

 ----------------------------------------------------------------------
 #t hf aug-cc-pvdz symm=none int=(grid=ultrafine) guess=(read,tcheck) s
 table=(opt,rrhf)
 ----------------------------------------------------------------------
 -----
 title
 -----
 Symbolic Z-matrix:
 Charge =  0 Multiplicity = 1

 SCF Done:  E(RHF) =  -484.398987684     A.U. after   16 cycles
 Normal termination of Gaussian 16 at Sat Apr  5 22:29:04 2025.
 Gaussian 16:  ES64L-G16RevC.01  3-Jul-2019

 ----------------------------------------------------------------------
 #t hf aug-cc-pvdz iop(5/13=1,5/36=2,99/5=2) pseudo=read geom=check gue
 ss=(read,tcheck) scf=(maxcycle=1)
 ----------------------------------------------------------------------
 -----
 title
 -----
 Structure from the checkpoint file:  "1H-9H-allopurinol.chk"
 Charge =  0 Multiplicity = 1

                         Standard orientation:
 ---------------------------------------------------------------------
 Center     Atomic      Atomic             Coordinates (Angstroms)
 Number     Number       Type             X           Y           Z
 ---------------------------------------------------------------------
      1          6           0        0.743618   -1.988841    0.000000
      2          7           0       -0.536382   -1.791562   -0.000000
      3          6           0       -0.865081   -0.470779   -0.000000
      4          6           0       -0.000000    0.626262   -0.000000
      5          6           0       -0.849694    1.757502   -0.000000
      6          7           0       -2.119175    1.395232   -0.000000
      7          7           0       -2.113501    0.036902   -0.000000
      8          7           0        1.682928   -1.003258    0.000000
      9          6           0        1.418760    0.396955    0.000000
     10          1           0        1.125544   -3.002395    0.000000
     11          8           0        2.336731    1.192002    0.000000
     12          1           0       -0.582351    2.800421   -0.000000
     13          1           0        2.661588   -1.251117    0.000000
     14          1           0       -2.981334   -0.470717   -0.000000
 ---------------------------------------------------------------------

 SCF Done:  E(RHF) =  -484.880126408     A.U. after    2 cycles

 The electronic state is 1-A'.
 Alpha  occ. eigenvalues --  -20.52716 -15.59128 -15.58322 -15.54634 -15.52997
 Alpha  occ. eigenvalues --  -11.38791 -11.37626 -11.34038 -11.28546 -11.24619
 Alpha  occ. eigenvalues --   -1.47767  -1.39467  -1.33757  -1.24008  -1.13759
 Alpha  occ. eigenvalues --   -1.10190  -0.96058  -0.94441  -0.86731  -0.83783
 Alpha  occ. eigenvalues --   -0.80034  -0.74974  -0.70634  -0.69005  -0.66050
 Alpha  occ. eigenvalues --   -0.64630  -0.63922  -0.63556  -0.55510  -0.53532
 Alpha  occ. eigenvalues --   -0.50501  -0.47793  -0.45104  -0.41726  -0.36367
 Alpha virt. eigenvalues --    0.02269   0.04081   0.04630   0.05521   0.05891
 Alpha virt. eigenvalues --    0.08119   0.08815   0.08971   0.09475   0.10459
 Alpha virt. eigenvalues --    0.11504   0.11549   0.11964   0.12845   0.13691

 Mulliken charges:
               1
     1  C   -0.439440
     2  N    1.242741
     3  C   -2.289938
     4  C    1.161331
     5  C   -0.230695
     6  N   -0.218123
     7  N    0.901030
     8  N    0.407006
     9  C    1.041283
    10  H   -0.093478
    11  O   -1.526304
    12  H   -0.184355
    13  H    0.202814
    14  H    0.026128
 Sum of Mulliken charges =  -0.00000

 Dipole moment (field-independent basis, Debye):
    X=              1.2257    Y=             -4.0226    Z=             -0.0000  Tot=              4.2052

 Test job not archived.
 1\1\GINC-SE176\SP\RHF\Aug-CC-pVDZ\C5H4N4O1\OHZDE\05-Apr-2025\0\\#t hf
 aug-cc-pvdz iop(5/13=1,5/36=2,99/5=2) pseudo=read geom=check guess=(re
 ad,tcheck) scf=(maxcycle=1)\\title\\0,1\C,0,0.743618,-1.988841,0.\N,0,
 -0.536382,-1.791562,0.\C,0,-0.865081,-0.470779,0.\C,0,0.,0.626262,0.\C
 ,0,-0.849694,1.757502,0.\N,0,-2.119175,1.395232,0.\N,0,-2.113501,0.036
 902,0.\N,0,1.682928,-1.003258,0.\C,0,1.41876,0.396955,0.\H,0,1.125544,
 -3.002395,0.\O,0,2.336731,1.192002,0.\H,0,-0.582351,2.800421,0.\H,0,2.
 661588,-1.251117,0.\H,0,-2.981334,-0.470717,0.\\Version=ES64L-G16RevC.

 Normal termination of Gaussian 16 at Sat Apr  5 22:29:28 2025.
