 Gaussian 16, Revision C.01,

 ----------------------------------------------------------------------
 #t hf aug-cc-pvdz symm=none int=(grid=ultrafine) guess=(read,tcheck) s
 table=(opt,rrhf)
 ----------------------------------------------------------------------
 -----
 title
 -----
 Symbolic Z-matrix:
 Charge =  0 Multiplicity = 1

 SCF Done:  E(RHF) =  -377.522182451     A.U. after   15 cycles
 Normal termination of Gaussian 16 at Sat Apr  5 22:28:57 2025.
 Gaussian 16:  ES64L-G16RevC.01  3-Jul-2019

 ----------------------------------------------------------------------
 #t hf aug-cc-pvdz iop(5/13=1,5/36=2,99/5=2) pseudo=read geom=check gue
 ss=(read,tcheck) scf=(maxcycle=1)
 ----------------------------------------------------------------------
 -----
 title
 -----
 Structure from the checkpoint file:  "1H-benzimidazole.chk"
 Charge =  0 Multiplicity = 1

                         Standard orientation:
 ---------------------------------------------------------------------
 Center     Atomic      Atomic             Coordinates (Angstroms)
 Number     Number       Type             X           Y           Z
 ---------------------------------------------------------------------
      1          6           0        2.223779   -0.070950    0.000000
      2          6           0        1.362423    1.015554    0.000000
      3          6           0       -0.000000    0.733827    0.000000
      4          6           0       -0.501452   -0.584713    0.000000
      5          7           0       -1.888696   -0.569217    0.000000
      6          6           0       -2.211130    0.692186    0.000000
      7          7           0       -1.126415    1.533371    0.000000
      8          6           0        0.383372   -1.663536    0.000000
      9          6           0        1.741213   -1.390393    0.000000
     10          1           0        3.291494    0.100590    0.000000
     11          1           0        1.739293    2.029395    0.000000
     12          1           0       -3.218802    1.076717    0.000000
     13          1           0       -1.153964    2.537179    0.000000
     14          1           0        0.008732   -2.677482    0.000000
     15          1           0        2.449793   -2.207335    0.000000
 ---------------------------------------------------------------------

 SCF Done:  E(RHF) =  -377.907464938     A.U. after    2 cycles

 The electronic state is 1-A'.
 Alpha  occ. eigenvalues --  -15.56130 -15.49132 -11.32052 -11.27702 -11.25729
 Alpha  occ. eigenvalues --  -11.24739 -11.24176 -11.23947 -11.23513  -1.34529
 Alpha  occ. eigenvalues --   -1.18731  -1.14228  -1.01806  -1.01174  -0.87642
 Alpha  occ. eigenvalues --   -0.86747  -0.83901  -0.76297  -0.71394  -0.68392
 Alpha  occ. eigenvalues --   -0.64184  -0.63702  -0.62032  -0.60874  -0.53777
 Alpha  occ. eigenvalues --   -0.53241  -0.49202  -0.47555  -0.46571  -0.33185
 Alpha  occ. eigenvalues --   -0.31918
 Alpha virt. eigenvalues --    0.02492   0.03652   0.04007   0.04647   0.05755
 Alpha virt. eigenvalues --    0.07379   0.08146   0.09561   0.10903   0.11108
 Alpha virt. eigenvalues --    0.11888   0.12653   0.12821   0.13265   0.14070

 Mulliken charges:
               1
     1  C    0.319441
     2  C    0.940211
     3  C   -0.927037
     4  C   -1.788557
     5  N    0.937957
     6  C   -0.917196
     7  N    0.894566
     8  C    1.464405
     9  C    0.178635
    10  H   -0.245908
    11  H   -0.275194
    12  H   -0.099502
    13  H   -0.039922
    14  H   -0.202899
    15  H   -0.239000
 Sum of Mulliken charges =  -0.00000

 Dipole moment (field-independent basis, Debye):
    X=              0.5022    Y=              3.5922    Z=              0.0000  Tot=              3.6271

 Test job not archived.
 1\1\GINC-SE199\SP\RHF\Aug-CC-pVDZ\C7H6N2\OHZDE\05-Apr-2025\0\\#t hf au
 g-cc-pvdz iop(5/13=1,5/36=2,99/5=2) pseudo=read geom=check guess=(read
 ,tcheck) scf=(maxcycle=1)\\title\\0,1\C,0,2.223779,-0.07095,0.\C,0,1.3
 62423,1.015554,0.\C,0,0.,0.733827,0.\C,0,-0.501452,-0.584713,0.\N,0,-1
 .888696,-0.569217,0.\C,0,-2.21113,0.692186,0.\N,0,-1.126415,1.533371,0
 .\C,0,0.383372,-1.663536,0.\C,0,1.741213,-1.390393,0.\H,0,3.291494,0.1
 0059,0.\H,0,1.739293,2.029395,0.\H,0,-3.218802,1.076717,0.\H,0,-1.1539
 64,2.537179,0.\H,0,0.008732,-2.677482,0.\H,0,2.449793,-2.207335,0.\\Ve

 Normal termination of Gaussian 16 at Sat Apr  5 22:29:28 2025.
