 Gaussian 16, Revision C.01,

 ----------------------------------------------------------------------
 #t hf aug-cc-pvdz symm=none int=(grid=ultrafine) guess=(read,tcheck) s
 table=(opt,rrhf)
 ----------------------------------------------------------------------
 -----
 title
 -----
 Symbolic Z-matrix:
 Charge =  0 Multiplicity = 1

 SCF Done:  E(RHF) =  -345.499926368     A.U. after   16 cycles
 Normal termination of Gaussian 16 at Sat Apr  5 22:30:09 2025.
 Gaussian 16:  ES64L-G16RevC.01  3-Jul-2019

 ----------------------------------------------------------------------
 #t hf aug-cc-pvdz iop(5/13=1,5/36=2,99/5=2) pseudo=read geom=check gue
 ss=(read,tcheck) scf=(maxcycle=1)
 ----------------------------------------------------------------------
 -----
 title
 -----
 Structure from the checkpoint file:  "1H-indene.chk"
 Charge =  0 Multiplicity = 1

                         Standard orientation:
 ---------------------------------------------------------------------
 Center     Atomic      Atomic             Coordinates (Angstroms)
 Number     Number       Type             X           Y           Z
 ---------------------------------------------------------------------
      1          6           0       -1.855229   -1.337950    0.000000
      2          6           0       -0.499088   -1.653073    0.000000
      3          6           0        0.428036   -0.615933    0.000000
      4          6           0        0.000000    0.724298    0.000000
      5          6           0        1.213119    1.619187    0.000000
      6          6           0        1.890304   -0.626401    0.000000
      7          6           0        2.352575    0.633211    0.000000
      8          6           0       -1.348795    1.031328    0.000000
      9          6           0       -2.277760   -0.010338    0.000000
     10          1           0       -2.590250   -2.131799    0.000000
     11          1           0       -0.176462   -2.686234    0.000000
     12          1           0        1.242418    2.275992    0.875487
     13          1           0        1.242418    2.275992   -0.875487
     14          1           0        2.494096   -1.522542    0.000000
     15          1           0        3.391246    0.927949    0.000000
     16          1           0       -1.686610    2.060169    0.000000
     17          1           0       -3.335828    0.214508    0.000000
 ---------------------------------------------------------------------

 SCF Done:  E(RHF) =  -345.859386852     A.U. after    2 cycles

 The electronic state is 1-A'.
 Alpha  occ. eigenvalues --  -11.24410 -11.24268 -11.23957 -11.23903 -11.23873
 Alpha  occ. eigenvalues --  -11.23784 -11.23742 -11.23672 -11.23603  -1.18225
 Alpha  occ. eigenvalues --   -1.10449  -1.02760  -0.97694  -0.94561  -0.83766
 Alpha  occ. eigenvalues --   -0.80114  -0.76751  -0.70489  -0.66014  -0.63783
 Alpha  occ. eigenvalues --   -0.60890  -0.59997  -0.59666  -0.55319  -0.52313
 Alpha  occ. eigenvalues --   -0.50946  -0.50256  -0.48563  -0.41196  -0.33866
 Alpha  occ. eigenvalues --   -0.30336
 Alpha virt. eigenvalues --    0.03357   0.03558   0.03719   0.04739   0.04876
 Alpha virt. eigenvalues --    0.05035   0.07326   0.07662   0.09164   0.09537
 Alpha virt. eigenvalues --    0.10453   0.11544   0.12989   0.12999   0.13528

 Mulliken charges:
               1
     1  C   -0.014181
     2  C    0.610273
     3  C    0.613044
     4  C    0.358977
     5  C   -1.612917
     6  C    0.136553
     7  C    0.245375
     8  C    0.659294
     9  C   -0.163137
    10  H   -0.246681
    11  H   -0.236796
    12  H    0.275834
    13  H    0.275834
    14  H   -0.252192
    15  H   -0.155302
    16  H   -0.240767
    17  H   -0.253211
 Sum of Mulliken charges =  -0.00000

 Dipole moment (field-independent basis, Debye):
    X=              0.4824    Y=              0.5383    Z=              0.0000  Tot=              0.7228

 Test job not archived.
 1\1\GINC-SE013\SP\RHF\Aug-CC-pVDZ\C9H8\OHZDE\05-Apr-2025\0\\#t hf aug-
 cc-pvdz iop(5/13=1,5/36=2,99/5=2) pseudo=read geom=check guess=(read,t
 check) scf=(maxcycle=1)\\title\\0,1\C,0,-1.855229,-1.33795,0.\C,0,-0.4
 99088,-1.653073,0.\C,0,0.428036,-0.615933,0.\C,0,0.,0.724298,0.\C,0,1.
 213119,1.619187,0.\C,0,1.890304,-0.626401,0.\C,0,2.352575,0.633211,0.\
 C,0,-1.348795,1.031328,0.\C,0,-2.27776,-0.010338,0.\H,0,-2.59025,-2.13
 1799,0.\H,0,-0.176462,-2.686234,0.\H,0,1.242418,2.275992,0.875487\H,0,
 1.242418,2.275992,-0.875487\H,0,2.494096,-1.522542,0.\H,0,3.391246,0.9

 Normal termination of Gaussian 16 at Sat Apr  5 22:30:33 2025.
