 Gaussian 16, Revision C.01,

 ----------------------------------------------------------------------
 #t hf aug-cc-pvdz symm=none int=(grid=ultrafine) guess=(read,tcheck) s
 table=(opt,rrhf)
 ----------------------------------------------------------------------
 -----
 title
 -----
 Symbolic Z-matrix:
 Charge =  0 Multiplicity = 1

 SCF Done:  E(RHF) =  -361.511245963     A.U. after   17 cycles
 Normal termination of Gaussian 16 at Sat Apr  5 22:30:07 2025.
 Gaussian 16:  ES64L-G16RevC.01  3-Jul-2019

 ----------------------------------------------------------------------
 #t hf aug-cc-pvdz iop(5/13=1,5/36=2,99/5=2) pseudo=read geom=check gue
 ss=(read,tcheck) scf=(maxcycle=1)
 ----------------------------------------------------------------------
 -----
 title
 -----
 Structure from the checkpoint file:  "1H-indole.chk"
 Charge =  0 Multiplicity = 1

                         Standard orientation:
 ---------------------------------------------------------------------
 Center     Atomic      Atomic             Coordinates (Angstroms)
 Number     Number       Type             X           Y           Z
 ---------------------------------------------------------------------
      1          6           0        1.780721   -1.390068    0.000000
      2          6           0        2.244479   -0.063173    0.000000
      3          6           0        0.427376   -1.674703    0.000000
      4          6           0        1.363098    1.004249    0.000000
      5          6           0       -1.922320   -0.531592    0.000000
      6          6           0       -2.246341    0.794059    0.000000
      7          6           0       -0.491170   -0.616487    0.000000
      8          6           0        0.000000    0.713959    0.000000
      9          7           0       -1.093515    1.551035    0.000000
     10          1           0        2.498544   -2.199111    0.000000
     11          1           0        3.309164    0.126773    0.000000
     12          1           0        0.081991   -2.700230    0.000000
     13          1           0        1.723021    2.024849    0.000000
     14          1           0       -2.621351   -1.350213    0.000000
     15          1           0       -3.211971    1.269781    0.000000
     16          1           0       -1.059845    2.553449    0.000000
 ---------------------------------------------------------------------

 SCF Done:  E(RHF) =  -361.883921636     A.U. after    2 cycles

 The electronic state is 1-A'.
 Alpha  occ. eigenvalues --  -15.54338 -11.27702 -11.26885 -11.23781 -11.23612
 Alpha  occ. eigenvalues --  -11.23513 -11.23013 -11.22721 -11.22370  -1.29623
 Alpha  occ. eigenvalues --   -1.13435  -1.06249  -1.00432  -0.98328  -0.86133
 Alpha  occ. eigenvalues --   -0.82427  -0.80977  -0.75045  -0.68228  -0.66342
 Alpha  occ. eigenvalues --   -0.62683  -0.61104  -0.61001  -0.59255  -0.56665
 Alpha  occ. eigenvalues --   -0.52230  -0.49550  -0.48128  -0.39983  -0.31637
 Alpha  occ. eigenvalues --   -0.29542
 Alpha virt. eigenvalues --    0.02836   0.03746   0.04076   0.04512   0.04712
 Alpha virt. eigenvalues --    0.07573   0.07672   0.08825   0.10418   0.11034
 Alpha virt. eigenvalues --    0.12024   0.12817   0.12827   0.13205   0.13554

 Mulliken charges:
               1
     1  C    0.202454
     2  C   -0.032777
     3  C    0.948352
     4  C    0.748150
     5  C    0.334540
     6  C   -0.612055
     7  C    0.818129
     8  C   -1.906679
     9  N    1.015130
    10  H   -0.258633
    11  H   -0.243685
    12  H   -0.236006
    13  H   -0.288142
    14  H   -0.207101
    15  H   -0.247703
    16  H   -0.033975
 Sum of Mulliken charges =  -0.00000

 Dipole moment (field-independent basis, Debye):
    X=             -0.8042    Y=              1.5955    Z=              0.0000  Tot=              1.7867

 Test job not archived.
 1\1\GINC-SE196\SP\RHF\Aug-CC-pVDZ\C8H7N1\OHZDE\05-Apr-2025\0\\#t hf au
 g-cc-pvdz iop(5/13=1,5/36=2,99/5=2) pseudo=read geom=check guess=(read
 ,tcheck) scf=(maxcycle=1)\\title\\0,1\C,0,1.780721,-1.390068,0.\C,0,2.
 244479,-0.063173,0.\C,0,0.427376,-1.674703,0.\C,0,1.363098,1.004249,0.
 \C,0,-1.92232,-0.531592,0.\C,0,-2.246341,0.794059,0.\C,0,-0.49117,-0.6
 16487,0.\C,0,0.,0.713959,0.\N,0,-1.093515,1.551035,0.\H,0,2.498544,-2.
 199111,0.\H,0,3.309164,0.126774,0.\H,0,0.081991,-2.70023,0.\H,0,1.7230
 21,2.024849,0.\H,0,-2.621351,-1.350213,0.\H,0,-3.211971,1.269781,0.\H,

 Normal termination of Gaussian 16 at Sat Apr  5 22:30:33 2025.
