 Gaussian 16, Revision C.01,

 ----------------------------------------------------------------------
 #t hf aug-cc-pvdz symm=none int=(grid=ultrafine) guess=(read,tcheck) s
 table=(opt,rrhf)
 ----------------------------------------------------------------------
 -----
 title
 -----
 Symbolic Z-matrix:
 Charge =  0 Multiplicity = 1

 SCF Done:  E(RHF) =  -224.848157193     A.U. after   14 cycles
 Normal termination of Gaussian 16 at Sat Apr  5 22:28:09 2025.
 Gaussian 16:  ES64L-G16RevC.01  3-Jul-2019

 ----------------------------------------------------------------------
 #t hf aug-cc-pvdz iop(5/13=1,5/36=2,99/5=2) pseudo=read geom=check gue
 ss=(read,tcheck) scf=(maxcycle=1)
 ----------------------------------------------------------------------
 -----
 title
 -----
 Structure from the checkpoint file:  "1H-imidazole.chk"
 Charge =  0 Multiplicity = 1

                         Standard orientation:
 ---------------------------------------------------------------------
 Center     Atomic      Atomic             Coordinates (Angstroms)
 Number     Number       Type             X           Y           Z
 ---------------------------------------------------------------------
      1          6           0        0.635171   -0.982628    0.000000
      2          6           0        1.116435    0.296921    0.000000
      3          6           0       -1.089077    0.282717    0.000000
      4          7           0       -0.739829   -0.979874    0.000000
      5          7           0        0.000000    1.101780    0.000000
      6          1           0        1.196253   -1.901176    0.000000
      7          1           0        2.113523    0.697918    0.000000
      8          1           0       -2.097453    0.661493    0.000000
      9          1           0       -0.008690    2.106362    0.000000
 ---------------------------------------------------------------------

 SCF Done:  E(RHF) =  -225.079424209     A.U. after    2 cycles

 The electronic state is 1-A'.
 Alpha  occ. eigenvalues --  -15.56217 -15.48427 -11.30133 -11.26742 -11.24912
 Alpha  occ. eigenvalues --   -1.34077  -1.17517  -1.02063  -0.86121  -0.83091
 Alpha  occ. eigenvalues --   -0.78431  -0.64245  -0.63042  -0.62637  -0.59551
 Alpha  occ. eigenvalues --   -0.48040  -0.44198  -0.33746
 Alpha virt. eigenvalues --    0.02672   0.04377   0.04703   0.05586   0.09368
 Alpha virt. eigenvalues --    0.09495   0.11108   0.11750   0.12689   0.13215
 Alpha virt. eigenvalues --    0.13453   0.15474   0.16065   0.16247   0.17231

 Mulliken charges:
               1
     1  C   -0.276660
     2  C   -0.042283
     3  C   -0.529964
     4  N    0.578911
     5  N    0.562531
     6  H   -0.089554
     7  H   -0.165691
     8  H   -0.027108
     9  H   -0.010181
 Sum of Mulliken charges =  -0.00000

 Dipole moment (field-independent basis, Debye):
    X=              1.1574    Y=              3.7196    Z=              0.0000  Tot=              3.8955

 Test job not archived.
 1\1\GINC-SE213\SP\RHF\Aug-CC-pVDZ\C3H4N2\OHZDE\05-Apr-2025\0\\#t hf au
 g-cc-pvdz iop(5/13=1,5/36=2,99/5=2) pseudo=read geom=check guess=(read
 ,tcheck) scf=(maxcycle=1)\\title\\0,1\C,0,0.635171,-0.982628,0.\C,0,1.
 116435,0.296921,0.\C,0,-1.089077,0.282717,0.\N,0,-0.739829,-0.979874,0
 .\N,0,0.,1.10178,0.\H,0,1.196253,-1.901176,0.\H,0,2.113523,0.697918,0.
 \H,0,-2.097453,0.661493,0.\H,0,-0.00869,2.106362,0.\\Version=ES64L-G16
 RevC.01\State=1-A'\HF=-225.0794242\RMSD=3.498e-02\Dipole=0.4553615,1.4
 633944,0.\Quadrupole=1.6221433,1.8762323,-3.4983756,-2.8223203,0.,0.\P

 Normal termination of Gaussian 16 at Sat Apr  5 22:28:12 2025.
