 Gaussian 16, Revision C.01,

 ----------------------------------------------------------------------
 #t hf aug-cc-pvdz symm=none int=(grid=ultrafine) guess=(read,tcheck) s
 table=(opt,rrhf)
 ----------------------------------------------------------------------
 -----
 title
 -----
 Symbolic Z-matrix:
 Charge =  0 Multiplicity = 1

 SCF Done:  E(RHF) =  -337.597268951     A.U. after   15 cycles
 Normal termination of Gaussian 16 at Sat Apr  5 22:28:25 2025.
 Gaussian 16:  ES64L-G16RevC.01  3-Jul-2019

 ----------------------------------------------------------------------
 #t hf aug-cc-pvdz iop(5/13=1,5/36=2,99/5=2) pseudo=read geom=check gue
 ss=(read,tcheck) scf=(maxcycle=1)
 ----------------------------------------------------------------------
 -----
 title
 -----
 Structure from the checkpoint file:  "1H-pyrazin-2-one.chk"
 Charge =  0 Multiplicity = 1

                         Standard orientation:
 ---------------------------------------------------------------------
 Center     Atomic      Atomic             Coordinates (Angstroms)
 Number     Number       Type             X           Y           Z
 ---------------------------------------------------------------------
      1          6           0        0.100732   -1.751447    0.000000
      2          6           0       -1.100249   -1.123375    0.000000
      3          6           0        1.230486    0.248996    0.000000
      4          6           0        0.000000    1.043061    0.000000
      5          7           0        1.273925   -1.045277    0.000000
      6          7           0       -1.140617    0.238051    0.000000
      7          8           0       -0.072478    2.260456    0.000000
      8          1           0        0.169795   -2.828181    0.000000
      9          1           0       -2.046117   -1.644386    0.000000
     10          1           0        2.160066    0.806767    0.000000
     11          1           0       -2.022892    0.729333    0.000000
 ---------------------------------------------------------------------

 SCF Done:  E(RHF) =  -337.933379755     A.U. after    2 cycles

 The electronic state is 1-A'.
 Alpha  occ. eigenvalues --  -20.52277 -15.58196 -15.54573 -11.37832 -11.32229
 Alpha  occ. eigenvalues --  -11.30059 -11.27981  -1.47151  -1.32254  -1.25193
 Alpha  occ. eigenvalues --   -1.06775  -0.95469  -0.92790  -0.80689  -0.77544
 Alpha  occ. eigenvalues --   -0.69428  -0.68049  -0.65498  -0.64096  -0.60195
 Alpha  occ. eigenvalues --   -0.52921  -0.51055  -0.50742  -0.43443  -0.34269
 Alpha virt. eigenvalues --    0.02346   0.03934   0.03984   0.04961   0.05529
 Alpha virt. eigenvalues --    0.09025   0.09303   0.09955   0.10380   0.11796
 Alpha virt. eigenvalues --    0.11923   0.12683   0.12742   0.13621   0.15456

 Mulliken charges:
               1
     1  C   -0.402836
     2  C   -0.017425
     3  C   -0.831554
     4  C    1.052050
     5  N    1.087615
     6  N    0.658483
     7  O   -1.346245
     8  H   -0.119852
     9  H   -0.179706
    10  H   -0.046529
    11  H    0.145999
 Sum of Mulliken charges =  -0.00000

 Dipole moment (field-independent basis, Debye):
    X=             -2.8826    Y=             -2.4759    Z=              0.0000  Tot=              3.7999

 Test job not archived.
 1\1\GINC-SE225\SP\RHF\Aug-CC-pVDZ\C4H4N2O1\OHZDE\05-Apr-2025\0\\#t hf
 aug-cc-pvdz iop(5/13=1,5/36=2,99/5=2) pseudo=read geom=check guess=(re
 ad,tcheck) scf=(maxcycle=1)\\title\\0,1\C,0,0.100732,-1.751447,0.\C,0,
 -1.100249,-1.123375,0.\C,0,1.230486,0.248996,0.\C,0,0.,1.043061,0.\N,0
 ,1.273925,-1.045277,0.\N,0,-1.140617,0.238051,0.\O,0,-0.072478,2.26045
 6,0.\H,0,0.169795,-2.828181,0.\H,0,-2.046117,-1.644386,0.\H,0,2.160066
 ,0.806767,0.\H,0,-2.022892,0.729333,0.\\Version=ES64L-G16RevC.01\State
 =1-A'\HF=-337.9333798\RMSD=6.369e-02\Dipole=-1.1340899,-0.9740982,0.\Q

 Normal termination of Gaussian 16 at Sat Apr  5 22:29:04 2025.
