 Gaussian 16, Revision C.01,

 ----------------------------------------------------------------------
 #t hf aug-cc-pvdz symm=none int=(grid=ultrafine) guess=(read,tcheck) s
 table=(opt,rrhf)
 ----------------------------------------------------------------------
 -----
 title
 -----
 Symbolic Z-matrix:
 Charge =  0 Multiplicity = 1

 SCF Done:  E(RHF) =  -224.826829129     A.U. after   15 cycles
 Normal termination of Gaussian 16 at Sat Apr  5 22:29:05 2025.
 Gaussian 16:  ES64L-G16RevC.01  3-Jul-2019

 ----------------------------------------------------------------------
 #t hf aug-cc-pvdz iop(5/13=1,5/36=2,99/5=2) pseudo=read geom=check gue
 ss=(read,tcheck) scf=(maxcycle=1)
 ----------------------------------------------------------------------
 -----
 title
 -----
 Structure from the checkpoint file:  "1H-pyrazole.chk"
 Charge =  0 Multiplicity = 1

                         Standard orientation:
 ---------------------------------------------------------------------
 Center     Atomic      Atomic             Coordinates (Angstroms)
 Number     Number       Type             X           Y           Z
 ---------------------------------------------------------------------
      1          6           0        0.662598   -0.995432    0.000000
      2          6           0       -0.743268   -0.890370    0.000000
      3          6           0        1.107645    0.307032    0.000000
      4          7           0       -1.142688    0.375589    0.000000
      5          7           0        0.000000    1.085189    0.000000
      6          1           0        1.262650   -1.887482    0.000000
      7          1           0       -1.475618   -1.680369    0.000000
      8          1           0        2.098322    0.726839    0.000000
      9          1           0       -0.048386    2.088195    0.000000
 ---------------------------------------------------------------------

 SCF Done:  E(RHF) =  -225.058765988     A.U. after    2 cycles

 The electronic state is 1-A'.
 Alpha  occ. eigenvalues --  -15.57978 -15.52648 -11.28450 -11.25853 -11.22932
 Alpha  occ. eigenvalues --   -1.37258  -1.11635  -1.06463  -0.85104  -0.83783
 Alpha  occ. eigenvalues --   -0.77027  -0.64497  -0.64469  -0.61505  -0.58142
 Alpha  occ. eigenvalues --   -0.50402  -0.39637  -0.37009
 Alpha virt. eigenvalues --    0.03100   0.04317   0.04562   0.05852   0.09785
 Alpha virt. eigenvalues --    0.09965   0.11549   0.11575   0.12497   0.13600
 Alpha virt. eigenvalues --    0.14262   0.15341   0.15651   0.16324   0.17294

 Mulliken charges:
               1
     1  C    0.630437
     2  C   -0.293803
     3  C   -0.268634
     4  N    0.002601
     5  N    0.321729
     6  H   -0.112013
     7  H   -0.131003
     8  H   -0.191244
     9  H    0.041930
 Sum of Mulliken charges =  -0.00000

 Dipole moment (field-independent basis, Debye):
    X=              2.6541    Y=              0.1751    Z=              0.0000  Tot=              2.6599

 Test job not archived.
 1\1\GINC-SE214\SP\RHF\Aug-CC-pVDZ\C3H4N2\OHZDE\05-Apr-2025\0\\#t hf au
 g-cc-pvdz iop(5/13=1,5/36=2,99/5=2) pseudo=read geom=check guess=(read
 ,tcheck) scf=(maxcycle=1)\\title\\0,1\C,0,0.662598,-0.995432,0.\C,0,-0
 .743268,-0.89037,0.\C,0,1.107645,0.307032,0.\N,0,-1.142688,0.375589,0.
 \N,0,0.,1.085189,0.\H,0,1.26265,-1.887482,0.\H,0,-1.475618,-1.680369,0
 .\H,0,2.098322,0.726839,0.\H,0,-0.048386,2.088195,0.\\Version=ES64L-G1
 6RevC.01\State=1-A'\HF=-225.058766\RMSD=3.428e-02\Dipole=1.0442141,0.0
 688836,0.\Quadrupole=-1.0249945,4.6884666,-3.6634721,2.3872515,0.,0.\P

 Normal termination of Gaussian 16 at Sat Apr  5 22:29:25 2025.
