 Gaussian 16, Revision C.01,

 ----------------------------------------------------------------------
 #t hf aug-cc-pvdz symm=none int=(grid=ultrafine) guess=(read,tcheck) s
 table=(opt,rrhf)
 ----------------------------------------------------------------------
 -----
 title
 -----
 Symbolic Z-matrix:
 Charge =  0 Multiplicity = 1

 SCF Done:  E(RHF) =  -376.658630706     A.U. after   15 cycles
 Normal termination of Gaussian 16 at Sat Apr  5 22:28:50 2025.
 Gaussian 16:  ES64L-G16RevC.01  3-Jul-2019

 ----------------------------------------------------------------------
 #t hf aug-cc-pvdz iop(5/13=1,5/36=2,99/5=2) pseudo=read geom=check gue
 ss=(read,tcheck) scf=(maxcycle=1)
 ----------------------------------------------------------------------
 -----
 title
 -----
 Structure from the checkpoint file:  "1H-pyrrole-3-carboxamide.chk"
 Charge =  0 Multiplicity = 1

                         Standard orientation:
 ---------------------------------------------------------------------
 Center     Atomic      Atomic             Coordinates (Angstroms)
 Number     Number       Type             X           Y           Z
 ---------------------------------------------------------------------
      1          6           0       -0.828503    1.164117   -0.040476
      2          6           0       -2.134122    0.751924   -0.019718
      3          6           0       -0.858343   -1.090763    0.034212
      4          6           0       -0.008337   -0.005922   -0.006066
      5          6           0        1.460971   -0.144754   -0.008282
      6          7           0       -2.135628   -0.622343    0.026759
      7          7           0        2.177223    1.021662    0.019301
      8          8           0        2.017893   -1.232462   -0.050329
      9          1           0       -0.508559    2.191256   -0.090948
     10          1           0       -3.051869    1.312081   -0.038511
     11          1           0       -0.625407   -2.139469    0.067307
     12          1           0       -2.958272   -1.197272    0.051277
     13          1           0        1.744712    1.904010    0.219798
     14          1           0        3.175101    0.946245    0.113271
 ---------------------------------------------------------------------

 SCF Done:  E(RHF) =  -377.040610644     A.U. after    2 cycles

 The electronic state is 1-A.
 Alpha  occ. eigenvalues --  -20.49336 -15.56586 -15.51715 -11.35332 -11.28083
 Alpha  occ. eigenvalues --  -11.27530 -11.23949 -11.23184  -1.44210  -1.31299
 Alpha  occ. eigenvalues --   -1.21199  -1.07657  -1.01265  -0.89652  -0.82829
 Alpha  occ. eigenvalues --   -0.79733  -0.77372  -0.74266  -0.65831  -0.62414
 Alpha  occ. eigenvalues --   -0.62121  -0.61777  -0.59161  -0.57708  -0.56010
 Alpha  occ. eigenvalues --   -0.43045  -0.41729  -0.38647  -0.32582
 Alpha virt. eigenvalues --    0.02599   0.03288   0.04055   0.05455   0.06277
 Alpha virt. eigenvalues --    0.08095   0.09151   0.09628   0.11092   0.11211
 Alpha virt. eigenvalues --    0.12029   0.12483   0.13263   0.13401   0.14004

 Mulliken charges:
               1
     1  C    0.728207
     2  C   -0.721669
     3  C   -0.627586
     4  C    1.309365
     5  C    0.178926
     6  N    0.627529
     7  N    0.655218
     8  O   -1.422899
     9  H   -0.303516
    10  H   -0.217561
    11  H   -0.330954
    12  H   -0.006792
    13  H    0.014026
    14  H    0.117705
 Sum of Mulliken charges =  -0.00000

 Dipole moment (field-independent basis, Debye):
    X=             -3.4612    Y=              2.3239    Z=              0.5742  Tot=              4.2083

 Test job not archived.
 1\1\GINC-SE220\SP\RHF\Aug-CC-pVDZ\C5H6N2O1\OHZDE\05-Apr-2025\0\\#t hf
 aug-cc-pvdz iop(5/13=1,5/36=2,99/5=2) pseudo=read geom=check guess=(re
 ad,tcheck) scf=(maxcycle=1)\\title\\0,1\C,0,-0.828503,1.164117,-0.0404
 76\C,0,-2.134122,0.751924,-0.019718\C,0,-0.858343,-1.090763,0.034212\C
 ,0,-0.008337,-0.005922,-0.006066\C,0,1.460971,-0.144754,-0.008282\N,0,
 -2.135628,-0.622343,0.026759\N,0,2.177223,1.021662,0.019301\O,0,2.0178
 93,-1.232462,-0.050329\H,0,-0.508559,2.191256,-0.090948\H,0,-3.051869,
 1.312081,-0.038511\H,0,-0.625407,-2.139469,0.067307\H,0,-2.958272,-1.1

 Normal termination of Gaussian 16 at Sat Apr  5 22:29:26 2025.
