 Gaussian 16, Revision C.01,

 ----------------------------------------------------------------------
 #t hf aug-cc-pvdz symm=none int=(grid=ultrafine) guess=(read,tcheck) s
 table=(opt,rrhf)
 ----------------------------------------------------------------------
 -----
 title
 -----
 Symbolic Z-matrix:
 Charge =  0 Multiplicity = 1

 SCF Done:  E(RHF) =  -318.873176107     A.U. after   15 cycles
 Normal termination of Gaussian 16 at Sat Apr  5 22:28:59 2025.
 Gaussian 16:  ES64L-G16RevC.01  3-Jul-2019

 ----------------------------------------------------------------------
 #t hf aug-cc-pvdz iop(5/13=1,5/36=2,99/5=2) pseudo=read geom=check gue
 ss=(read,tcheck) scf=(maxcycle=1)
 ----------------------------------------------------------------------
 -----
 title
 -----
 Structure from the checkpoint file:  "1H-pyrrol-3-ylhydrazine.chk"
 Charge =  0 Multiplicity = 1

                         Standard orientation:
 ---------------------------------------------------------------------
 Center     Atomic      Atomic             Coordinates (Angstroms)
 Number     Number       Type             X           Y           Z
 ---------------------------------------------------------------------
      1          6           0       -0.375827    1.083218   -0.143727
      2          6           0       -1.730720    0.914545    0.013207
      3          6           0       -0.800510   -1.127958    0.050865
      4          6           0        0.213730   -0.211135   -0.126043
      5          7           0       -1.984695   -0.422966    0.119352
      6          7           0        2.473612    0.408232    0.261342
      7          7           0        1.571203   -0.508797   -0.347613
      8          1           0        0.147064    2.015954   -0.252645
      9          1           0       -2.523634    1.639838    0.060015
     10          1           0       -0.779966   -2.201879    0.108656
     11          1           0       -2.889932   -0.832811    0.250080
     12          1           0        3.335494    0.406023   -0.266084
     13          1           0        2.672619    0.160352    1.227596
     14          1           0        1.777472   -1.474780   -0.124995
 ---------------------------------------------------------------------

 SCF Done:  E(RHF) =  -319.206802813     A.U. after    2 cycles

 The electronic state is 1-A.
 Alpha  occ. eigenvalues --  -15.53542 -15.51971 -15.51383 -11.25500 -11.24643
 Alpha  occ. eigenvalues --  -11.24151 -11.20436  -1.28906  -1.26464  -1.08574
 Alpha  occ. eigenvalues --   -1.01591  -0.96642  -0.82046  -0.77900  -0.75508
 Alpha  occ. eigenvalues --   -0.71821  -0.70725  -0.64506  -0.60104  -0.59176
 Alpha  occ. eigenvalues --   -0.57581  -0.54020  -0.49017  -0.46265  -0.33973
 Alpha  occ. eigenvalues --   -0.29427
 Alpha virt. eigenvalues --    0.03238   0.03771   0.04591   0.05399   0.06032
 Alpha virt. eigenvalues --    0.06429   0.08097   0.09973   0.10581   0.12110
 Alpha virt. eigenvalues --    0.13071   0.13489   0.14027   0.14808   0.15697

 Mulliken charges:
               1
     1  C    1.118103
     2  C   -0.786561
     3  C    0.194101
     4  C   -1.246784
     5  N    0.591968
     6  N   -0.034433
     7  N    0.477642
     8  H   -0.216670
     9  H   -0.216403
    10  H   -0.260390
    11  H   -0.022469
    12  H    0.140891
    13  H    0.156080
    14  H    0.104924
 Sum of Mulliken charges =  -0.00000

 Dipole moment (field-independent basis, Debye):
    X=             -0.2710    Y=             -1.7632    Z=              1.2883  Tot=              2.2005

 Test job not archived.
 1\1\GINC-SE222\SP\RHF\Aug-CC-pVDZ\C4H7N3\OHZDE\05-Apr-2025\0\\#t hf au
 g-cc-pvdz iop(5/13=1,5/36=2,99/5=2) pseudo=read geom=check guess=(read
 ,tcheck) scf=(maxcycle=1)\\title\\0,1\C,0,-0.375827,1.083218,-0.143727
 \C,0,-1.73072,0.914545,0.013207\C,0,-0.80051,-1.127958,0.050865\C,0,0.
 21373,-0.211135,-0.126043\N,0,-1.984695,-0.422966,0.119352\N,0,2.47361
 2,0.408232,0.261342\N,0,1.571203,-0.508797,-0.347613\H,0,0.147064,2.01
 5954,-0.252645\H,0,-2.523634,1.639838,0.060015\H,0,-0.779966,-2.201879
 ,0.108656\H,0,-2.889932,-0.832811,0.25008\H,0,3.335494,0.406023,-0.266

 Normal termination of Gaussian 16 at Sat Apr  5 22:29:26 2025.
