 Gaussian 16, Revision C.01,

 ----------------------------------------------------------------------
 #t hf aug-cc-pvdz symm=none int=(grid=ultrafine) guess=(read,tcheck) s
 table=(opt,rrhf)
 ----------------------------------------------------------------------
 -----
 title
 -----
 Symbolic Z-matrix:
 Charge =  0 Multiplicity = 1

 SCF Done:  E(RHF) =  -337.602888055     A.U. after   15 cycles
 Normal termination of Gaussian 16 at Sat Apr  5 22:29:13 2025.
 Gaussian 16:  ES64L-G16RevC.01  3-Jul-2019

 ----------------------------------------------------------------------
 #t hf aug-cc-pvdz iop(5/13=1,5/36=2,99/5=2) pseudo=read geom=check gue
 ss=(read,tcheck) scf=(maxcycle=1)
 ----------------------------------------------------------------------
 -----
 title
 -----
 Structure from the checkpoint file:  "1H-pyrimidin-4-one.chk"
 Charge =  0 Multiplicity = 1

                         Standard orientation:
 ---------------------------------------------------------------------
 Center     Atomic      Atomic             Coordinates (Angstroms)
 Number     Number       Type             X           Y           Z
 ---------------------------------------------------------------------
      1          6           0        1.223728    0.268149    0.000000
      2          6           0        1.156706   -1.073788   -0.000000
      3          6           0       -1.203480   -0.921610   -0.000000
      4          6           0       -0.000000    1.076085    0.000000
      5          7           0       -1.223091    0.359317    0.000000
      6          7           0       -0.072567   -1.688836   -0.000000
      7          8           0        0.011892    2.291393    0.000000
      8          1           0        2.174691    0.778052    0.000000
      9          1           0        2.019381   -1.723884   -0.000000
     10          1           0       -2.135162   -1.480194   -0.000000
     11          1           0       -0.146168   -2.691497   -0.000000
 ---------------------------------------------------------------------

 SCF Done:  E(RHF) =  -337.940197545     A.U. after    2 cycles

 The electronic state is 1-A'.
 Alpha  occ. eigenvalues --  -20.50132 -15.58884 -15.50404 -11.36006 -11.35065
 Alpha  occ. eigenvalues --  -11.32858 -11.25488  -1.44579  -1.34400  -1.21989
 Alpha  occ. eigenvalues --   -1.09252  -0.94046  -0.90878  -0.83553  -0.76633
 Alpha  occ. eigenvalues --   -0.70439  -0.66436  -0.65648  -0.63092  -0.59840
 Alpha  occ. eigenvalues --   -0.54555  -0.49095  -0.46099  -0.41317  -0.36801
 Alpha virt. eigenvalues --    0.01224   0.03250   0.04043   0.05993   0.07564
 Alpha virt. eigenvalues --    0.07953   0.08596   0.10275   0.10992   0.11290
 Alpha virt. eigenvalues --    0.11457   0.12519   0.13600   0.13705   0.14645

 Mulliken charges:
               1
     1  C    0.713077
     2  C   -0.237854
     3  C   -0.682241
     4  C    0.525283
     5  N    0.811505
     6  N    0.492453
     7  O   -1.310044
     8  H   -0.176111
     9  H   -0.220395
    10  H   -0.047063
    11  H    0.131389
 Sum of Mulliken charges =  -0.00000

 Dipole moment (field-independent basis, Debye):
    X=              1.8338    Y=             -8.0254    Z=             -0.0000  Tot=              8.2323

 Test job not archived.
 1\1\GINC-SE214\SP\RHF\Aug-CC-pVDZ\C4H4N2O1\OHZDE\05-Apr-2025\0\\#t hf
 aug-cc-pvdz iop(5/13=1,5/36=2,99/5=2) pseudo=read geom=check guess=(re
 ad,tcheck) scf=(maxcycle=1)\\title\\0,1\C,0,1.223728,0.268149,0.\C,0,1
 .156706,-1.073788,0.\C,0,-1.20348,-0.92161,0.\C,0,0.,1.076085,0.\N,0,-
 1.223091,0.359317,0.\N,0,-0.072567,-1.688836,0.\O,0,0.011892,2.291393,
 0.\H,0,2.174691,0.778052,0.\H,0,2.019381,-1.723884,0.\H,0,-2.135162,-1
 .480194,0.\H,0,-0.146168,-2.691497,0.\\Version=ES64L-G16RevC.01\State=
 1-A'\HF=-337.9401975\RMSD=2.552e-02\Dipole=0.7214563,-3.1574527,0.\Qua

 Normal termination of Gaussian 16 at Sat Apr  5 22:29:26 2025.
