 Gaussian 16, Revision C.01,

 ----------------------------------------------------------------------
 #t hf aug-cc-pvdz symm=none int=(grid=ultrafine) guess=(read,tcheck) s
 table=(opt,rrhf)
 ----------------------------------------------------------------------
 -----
 title
 -----
 Symbolic Z-matrix:
 Charge =  0 Multiplicity = 1

 SCF Done:  E(RHF) =  -697.130969427     A.U. after   15 cycles
 Normal termination of Gaussian 16 at Sat Apr  5 22:28:26 2025.
 Gaussian 16:  ES64L-G16RevC.01  3-Jul-2019

 ----------------------------------------------------------------------
 #t hf aug-cc-pvdz iop(5/13=1,5/36=2,99/5=2) pseudo=read geom=check gue
 ss=(read,tcheck) scf=(maxcycle=1)
 ----------------------------------------------------------------------
 -----
 title
 -----
 Structure from the checkpoint file:  "1H-pyrazole-1-OS-thioperoxol.chk"
 Charge =  0 Multiplicity = 1

                         Standard orientation:
 ---------------------------------------------------------------------
 Center     Atomic      Atomic             Coordinates (Angstroms)
 Number     Number       Type             X           Y           Z
 ---------------------------------------------------------------------
      1         16           0        2.234917   -0.046861   -0.380987
      2          8           0        1.029141    0.354103    0.770290
      3          7           0       -0.255522    0.153491    0.329665
      4          7           0       -0.759156   -1.072879    0.283649
      5          6           0       -1.110151    1.132332   -0.046094
      6          6           0       -2.009920   -0.883942   -0.135575
      7          6           0       -2.285470    0.479908   -0.353541
      8          1           0        2.229010   -1.378082   -0.153039
      9          1           0       -0.817337    2.166144   -0.049950
     10          1           0       -2.661697   -1.731812   -0.260982
     11          1           0       -3.205769    0.926620   -0.684484
 ---------------------------------------------------------------------

 SCF Done:  E(RHF) =  -697.489234048     A.U. after    2 cycles

 The electronic state is 1-A.
 Alpha  occ. eigenvalues --  -94.02594 -20.64926 -15.64248 -15.53914 -11.29466
 Alpha  occ. eigenvalues --  -11.26959 -11.23964  -8.30059  -6.27915  -6.27675
 Alpha  occ. eigenvalues --   -6.27419  -1.56324  -1.36616  -1.12198  -1.07656
 Alpha  occ. eigenvalues --   -0.99193  -0.86989  -0.81484  -0.77431  -0.72107
 Alpha  occ. eigenvalues --   -0.66626  -0.64545  -0.60924  -0.59335  -0.56893
 Alpha  occ. eigenvalues --   -0.52217  -0.49663  -0.40872  -0.39379  -0.37788
 Alpha virt. eigenvalues --    0.03524   0.04189   0.04649   0.04807   0.06937
 Alpha virt. eigenvalues --    0.08593   0.09355   0.10392   0.10932   0.12019
 Alpha virt. eigenvalues --    0.12750   0.13512   0.14458   0.14646   0.15498

 Mulliken charges:
               1
     1  S    0.193524
     2  O   -1.748608
     3  N    1.276759
     4  N    0.174395
     5  C   -0.181210
     6  C   -0.408853
     7  C    0.751801
     8  H    0.368659
     9  H   -0.160334
    10  H   -0.138306
    11  H   -0.127828
 Sum of Mulliken charges =  -0.00000

 Dipole moment (field-independent basis, Debye):
    X=             -0.7613    Y=              1.1265    Z=             -1.3404  Tot=              1.9092

 Test job not archived.
 1\1\GINC-SE232\SP\RHF\Aug-CC-pVDZ\C3H4N2O1S1\OHZDE\05-Apr-2025\0\\#t h
 f aug-cc-pvdz iop(5/13=1,5/36=2,99/5=2) pseudo=read geom=check guess=(
 read,tcheck) scf=(maxcycle=1)\\title\\0,1\S,0,2.234917,-0.046861,-0.38
 0987\O,0,1.029141,0.354103,0.77029\N,0,-0.255522,0.153491,0.329665\N,0
 ,-0.759156,-1.072879,0.283649\C,0,-1.110151,1.132332,-0.046094\C,0,-2.
 00992,-0.883942,-0.135575\C,0,-2.28547,0.479908,-0.353541\H,0,2.22901,
 -1.378082,-0.153039\H,0,-0.817337,2.166144,-0.04995\H,0,-2.661697,-1.7
 31812,-0.260982\H,0,-3.205769,0.92662,-0.684484\\Version=ES64L-G16RevC

 Normal termination of Gaussian 16 at Sat Apr  5 22:29:03 2025.
