 Gaussian 16, Revision C.01,

 ----------------------------------------------------------------------
 #t hf aug-cc-pvdz symm=none int=(grid=ultrafine) guess=(read,tcheck) s
 table=(opt,rrhf)
 ----------------------------------------------------------------------
 -----
 title
 -----
 Symbolic Z-matrix:
 Charge =  0 Multiplicity = 1

 SCF Done:  E(RHF) =  -256.795226427     A.U. after   15 cycles
 Normal termination of Gaussian 16 at Sat Apr  5 22:29:28 2025.
 Gaussian 16:  ES64L-G16RevC.01  3-Jul-2019

 ----------------------------------------------------------------------
 #t hf aug-cc-pvdz iop(5/13=1,5/36=2,99/5=2) pseudo=read geom=check gue
 ss=(read,tcheck) scf=(maxcycle=1)
 ----------------------------------------------------------------------
 -----
 title
 -----
 Structure from the checkpoint file:  "1H-tetrazole.chk"
 Charge =  0 Multiplicity = 1

                         Standard orientation:
 ---------------------------------------------------------------------
 Center     Atomic      Atomic             Coordinates (Angstroms)
 Number     Number       Type             X           Y           Z
 ---------------------------------------------------------------------
      1          6           0        1.064770    0.234648    0.000000
      2          7           0        0.637569   -1.003032    0.000000
      3          7           0       -0.722757   -0.922964    0.000000
      4          7           0       -1.117376    0.298568    0.000000
      5          7           0        0.000000    1.052457    0.000000
      6          1           0        2.089591    0.560077    0.000000
      7          1           0       -0.060257    2.056832    0.000000
 ---------------------------------------------------------------------

 SCF Done:  E(RHF) =  -257.051048114     A.U. after    2 cycles

 The electronic state is 1-A'.
 Alpha  occ. eigenvalues --  -15.62193 -15.60350 -15.58698 -15.54409 -11.34397
 Alpha  occ. eigenvalues --   -1.48741  -1.26994  -1.22113  -0.95553  -0.94377
 Alpha  occ. eigenvalues --   -0.84717  -0.72312  -0.72107  -0.62196  -0.53777
 Alpha  occ. eigenvalues --   -0.53072  -0.50921  -0.46542
 Alpha virt. eigenvalues --    0.02119   0.03972   0.07511   0.07682   0.09444
 Alpha virt. eigenvalues --    0.09474   0.12961   0.13992   0.14490   0.15126
 Alpha virt. eigenvalues --    0.16273   0.16545   0.19210   0.19417   0.21004

 Mulliken charges:
               1
     1  C   -0.017971
     2  N    0.214923
     3  N   -0.364874
     4  N   -0.145149
     5  N    0.210077
     6  H    0.028795
     7  H    0.074199
 Sum of Mulliken charges =   0.00000

 Dipole moment (field-independent basis, Debye):
    X=              3.0081    Y=              5.0645    Z=              0.0000  Tot=              5.8905

 Test job not archived.
 1\1\GINC-SE108\SP\RHF\Aug-CC-pVDZ\C1H2N4\OHZDE\05-Apr-2025\0\\#t hf au
 g-cc-pvdz iop(5/13=1,5/36=2,99/5=2) pseudo=read geom=check guess=(read
 ,tcheck) scf=(maxcycle=1)\\title\\0,1\C,0,1.06477,0.234648,0.\N,0,0.63
 7569,-1.003032,0.\N,0,-0.722757,-0.922964,0.\N,0,-1.117376,0.298568,0.
 \N,0,0.,1.052457,0.\H,0,2.089591,0.560077,0.\H,0,-0.060257,2.056832,0.
 \\Version=ES64L-G16RevC.01\State=1-A'\HF=-257.0510481\RMSD=4.768e-02\D
 ipole=1.1834894,1.9925127,0.\Quadrupole=-0.1193917,1.2614498,-1.142058
 1,1.6471441,0.,0.\PG=CS [SG(C1H2N4)]\\@

 Normal termination of Gaussian 16 at Sat Apr  5 22:29:31 2025.
