 Gaussian 16, Revision C.01,

 ----------------------------------------------------------------------
 #t hf aug-cc-pvdz symm=none int=(grid=ultrafine) guess=(read,tcheck) s
 table=(opt,rrhf)
 ----------------------------------------------------------------------
 -----
 title
 -----
 Symbolic Z-matrix:
 Charge =  0 Multiplicity = 1

 SCF Done:  E(RHF) =  -311.846263778     A.U. after   16 cycles
 Normal termination of Gaussian 16 at Sat Apr  5 22:29:30 2025.
 Gaussian 16:  ES64L-G16RevC.01  3-Jul-2019

 ----------------------------------------------------------------------
 #t hf aug-cc-pvdz iop(5/13=1,5/36=2,99/5=2) pseudo=read geom=check gue
 ss=(read,tcheck) scf=(maxcycle=1)
 ----------------------------------------------------------------------
 -----
 title
 -----
 Structure from the checkpoint file:  "1H-tetrazol-5-amine.chk"
 Charge =  0 Multiplicity = 1

                         Standard orientation:
 ---------------------------------------------------------------------
 Center     Atomic      Atomic             Coordinates (Angstroms)
 Number     Number       Type             X           Y           Z
 ---------------------------------------------------------------------
      1          6           0       -0.621011   -0.043215   -0.003296
      2          1           0        0.001740    2.009175   -0.056030
      3          7           0        0.197961    1.024633   -0.005588
      4          7           0        1.486430    0.574685    0.004451
      5          7           0        1.411372   -0.699900    0.008559
      6          7           0        0.119936   -1.131006    0.009304
      7          1           0       -2.446118    0.747717    0.423321
      8          1           0       -2.419586   -0.896323    0.073092
      9          7           0       -1.988552    0.002833   -0.076813
 ---------------------------------------------------------------------

 SCF Done:  E(RHF) =  -312.159599882     A.U. after    2 cycles

 The electronic state is 1-A.
 Alpha  occ. eigenvalues --  -15.60303 -15.58841 -15.58024 -15.55627 -15.52110
 Alpha  occ. eigenvalues --  -11.37316  -1.47438  -1.28533  -1.25367  -1.17740
 Alpha  occ. eigenvalues --   -0.94816  -0.92743  -0.84205  -0.75915  -0.74460
 Alpha  occ. eigenvalues --   -0.71755  -0.62514  -0.57431  -0.52225  -0.51742
 Alpha  occ. eigenvalues --   -0.50273  -0.42249
 Alpha virt. eigenvalues --    0.01699   0.03724   0.04919   0.09546   0.09787
 Alpha virt. eigenvalues --    0.10526   0.11594   0.12901   0.13313   0.14648
 Alpha virt. eigenvalues --    0.15368   0.15675   0.16601   0.17519   0.17890

 Mulliken charges:
               1
     1  C   -1.022710
     2  H    0.079493
     3  N    0.374308
     4  N   -0.172938
     5  N   -0.316767
     6  N    0.237442
     7  H    0.157513
     8  H    0.195842
     9  N    0.467817
 Sum of Mulliken charges =  -0.00000

 Dipole moment (field-independent basis, Debye):
    X=             -5.3560    Y=              3.7611    Z=              0.9111  Tot=              6.6077

 Test job not archived.
 1\1\GINC-SE041\SP\RHF\Aug-CC-pVDZ\C1H3N5\OHZDE\05-Apr-2025\0\\#t hf au
 g-cc-pvdz iop(5/13=1,5/36=2,99/5=2) pseudo=read geom=check guess=(read
 ,tcheck) scf=(maxcycle=1)\\title\\0,1\C,0,-0.621011,-0.043215,-0.00329
 6\H,0,0.00174,2.009175,-0.05603\N,0,0.197961,1.024633,-0.005588\N,0,1.
 48643,0.574685,0.004451\N,0,1.411372,-0.6999,0.008559\N,0,0.119936,-1.
 131006,0.009304\H,0,-2.446118,0.747717,0.423321\H,0,-2.419586,-0.89632
 3,0.073092\N,0,-1.988552,0.002833,-0.076813\\Version=ES64L-G16RevC.01\
 State=1-A\HF=-312.1595999\RMSD=4.070e-02\Dipole=-2.1072029,1.4797167,0

 Normal termination of Gaussian 16 at Sat Apr  5 22:29:34 2025.
