 Gaussian 16, Revision C.01,

 ----------------------------------------------------------------------
 #t hf aug-cc-pvdz symm=none int=(grid=ultrafine) guess=(read,tcheck) s
 table=(opt,rrhf)
 ----------------------------------------------------------------------
 -----
 title
 -----
 Symbolic Z-matrix:
 Charge =  0 Multiplicity = 1

 SCF Done:  E(RHF) =  -680.275737762     A.U. after   14 cycles
 Normal termination of Gaussian 16 at Sat Apr  5 22:32:27 2025.
 Gaussian 16:  ES64L-G16RevC.01  3-Jul-2019

 ----------------------------------------------------------------------
 #t hf aug-cc-pvdz iop(5/13=1,5/36=2,99/5=2) pseudo=read geom=check gue
 ss=(read,tcheck) scf=(maxcycle=1)
 ----------------------------------------------------------------------
 -----
 title
 -----
 Structure from the checkpoint file:  "1R-1-2-2-trifluoroethoxybenzene.chk"
 Charge =  0 Multiplicity = 1

                         Standard orientation:
 ---------------------------------------------------------------------
 Center     Atomic      Atomic             Coordinates (Angstroms)
 Number     Number       Type             X           Y           Z
 ---------------------------------------------------------------------
      1          6           0        3.765859    0.209204   -0.140016
      2          6           0        2.871247    1.268614   -0.080295
      3          6           0        3.285014   -1.096397   -0.096293
      4          6           0        1.501209    1.040638    0.021750
      5          6           0        1.922891   -1.340443   -0.004248
      6          6           0        1.037573   -0.269346    0.047854
      7          6           0       -1.259747    0.330131   -0.172330
      8          6           0       -2.570202   -0.417612   -0.421522
      9          8           0       -0.303784   -0.607745    0.144654
     10          9           0       -1.447135    1.227529    0.863041
     11          9           0       -3.502465    0.470307   -0.869796
     12          9           0       -3.033392   -0.973051    0.723910
     13          1           0        4.827889    0.396517   -0.213025
     14          1           0        3.234180    2.287210   -0.099256
     15          1           0        3.972559   -1.930152   -0.137897
     16          1           0        0.820685    1.874043    0.108414
     17          1           0        1.531930   -2.347555    0.026613
     18          1           0       -0.988788    0.912792   -1.057218
     19          1           0       -2.444324   -1.202689   -1.168659
 ---------------------------------------------------------------------

 SCF Done:  E(RHF) =  -680.933881716     A.U. after    2 cycles

 The electronic state is 1-A.
 Alpha  occ. eigenvalues --  -26.49048 -26.48789 -26.47708 -20.60804 -11.43620
 Alpha  occ. eigenvalues --  -11.41304 -11.32589 -11.26012 -11.25948 -11.25558
 Alpha  occ. eigenvalues --  -11.25293 -11.24952  -1.65904  -1.61363  -1.58857
 Alpha  occ. eigenvalues --   -1.52976  -1.17247  -1.06922  -1.03807  -1.01026
 Alpha  occ. eigenvalues --   -0.91144  -0.86143  -0.84928  -0.79831  -0.78534
 Alpha  occ. eigenvalues --   -0.77138  -0.74330  -0.72759  -0.70751  -0.68071
 Alpha  occ. eigenvalues --   -0.65842  -0.64921  -0.64194  -0.62418  -0.61658
 Alpha  occ. eigenvalues --   -0.61238  -0.60363  -0.57689  -0.56360  -0.54559
 Alpha  occ. eigenvalues --   -0.52028  -0.51039  -0.50388  -0.36466  -0.34548
 Alpha virt. eigenvalues --    0.03101   0.03270   0.03586   0.04752   0.05061
 Alpha virt. eigenvalues --    0.06669   0.07025   0.08877   0.09381   0.10037
 Alpha virt. eigenvalues --    0.10588   0.11202   0.11779   0.12467   0.13142

 Mulliken charges:
               1
     1  C    0.055880
     2  C    0.741064
     3  C    0.580649
     4  C   -0.499804
     5  C   -0.047227
     6  C    1.881511
     7  C    0.719552
     8  C    1.919294
     9  O   -1.936832
    10  F   -0.760872
    11  F   -0.748269
    12  F   -0.761798
    13  H   -0.221981
    14  H   -0.227482
    15  H   -0.215320
    16  H   -0.358870
    17  H   -0.282780
    18  H    0.103058
    19  H    0.060229
 Sum of Mulliken charges =  -0.00000

 Dipole moment (field-independent basis, Debye):
    X=              2.6846    Y=             -0.4350    Z=             -2.2725  Tot=              3.5441

 Test job not archived.
 1\1\GINC-SE009\SP\RHF\Aug-CC-pVDZ\C8H7F3O1\OHZDE\05-Apr-2025\0\\#t hf
 aug-cc-pvdz iop(5/13=1,5/36=2,99/5=2) pseudo=read geom=check guess=(re
 ad,tcheck) scf=(maxcycle=1)\\title\\0,1\C,0,3.765859,0.209204,-0.14001
 6\C,0,2.871247,1.268614,-0.080295\C,0,3.285014,-1.096397,-0.096293\C,0
 ,1.501209,1.040638,0.02175\C,0,1.922891,-1.340443,-0.004248\C,0,1.0375
 73,-0.269346,0.047854\C,0,-1.259747,0.330131,-0.17233\C,0,-2.570202,-0
 .417612,-0.421522\O,0,-0.303784,-0.607745,0.144654\F,0,-1.447135,1.227
 529,0.863041\F,0,-3.502465,0.470307,-0.869796\F,0,-3.033392,-0.973051,

 Normal termination of Gaussian 16 at Sat Apr  5 22:32:41 2025.
