 Gaussian 16, Revision C.01,

 ----------------------------------------------------------------------
 #t hf aug-cc-pvdz symm=none int=(grid=ultrafine) guess=(read,tcheck) s
 table=(opt,rrhf)
 ----------------------------------------------------------------------
 -----
 title
 -----
 Symbolic Z-matrix:
 Charge =  0 Multiplicity = 1

 SCF Done:  E(RHF) =  -312.305797211     A.U. after   12 cycles
 Normal termination of Gaussian 16 at Sat Apr  5 22:32:16 2025.
 Gaussian 16:  ES64L-G16RevC.01  3-Jul-2019

 ----------------------------------------------------------------------
 #t hf aug-cc-pvdz iop(5/13=1,5/36=2,99/5=2) pseudo=read geom=check gue
 ss=(read,tcheck) scf=(maxcycle=1)
 ----------------------------------------------------------------------
 -----
 title
 -----
 Structure from the checkpoint file:  "1R-2S-1-2-dimethylcyclohexane.chk"
 Charge =  0 Multiplicity = 1

                         Standard orientation:
 ---------------------------------------------------------------------
 Center     Atomic      Atomic             Coordinates (Angstroms)
 Number     Number       Type             X           Y           Z
 ---------------------------------------------------------------------
      1          6           0       -1.970214    0.143052    0.172978
      2          6           0       -1.480744   -1.307690    0.157221
      3          6           0       -1.121757    1.024428   -0.749887
      4          6           0        0.015884   -1.401750    0.468056
      5          6           0        0.383838    0.959334   -0.431292
      6          6           0        0.859319   -0.515324   -0.460979
      7          6           0        0.725765    1.702133    0.867397
      8          6           0        2.355971   -0.676582   -0.191592
      9          1           0       -3.018288    0.190874   -0.131201
     10          1           0       -1.932318    0.529274    1.195719
     11          1           0       -2.052364   -1.909311    0.867681
     12          1           0       -1.667570   -1.737320   -0.832885
     13          1           0       -1.274482    0.696175   -1.783249
     14          1           0       -1.464303    2.061271   -0.701898
     15          1           0        0.192158   -1.114610    1.509552
     16          1           0        0.350636   -2.438687    0.380000
     17          1           0        0.910384    1.478545   -1.239286
     18          1           0        0.676087   -0.866606   -1.483879
     19          1           0        0.286020    1.232479    1.747768
     20          1           0        1.802459    1.755395    1.027304
     21          1           0        0.352228    2.726827    0.824022
     22          1           0        2.609678   -0.437246    0.842406
     23          1           0        2.671869   -1.705362   -0.374491
     24          1           0        2.949430   -0.027309   -0.838979
 ---------------------------------------------------------------------

 SCF Done:  E(RHF) =  -312.654283725     A.U. after    2 cycles

 The electronic state is 1-A.
 Alpha  occ. eigenvalues --  -11.22396 -11.22333 -11.21884 -11.21831 -11.21752
 Alpha  occ. eigenvalues --  -11.21693 -11.21575 -11.21480  -1.12584  -1.03113
 Alpha  occ. eigenvalues --   -1.01940  -0.94030  -0.89905  -0.82016  -0.80082
 Alpha  occ. eigenvalues --   -0.72581  -0.65648  -0.62732  -0.61050  -0.59994
 Alpha  occ. eigenvalues --   -0.57424  -0.56189  -0.54492  -0.53395  -0.51936
 Alpha  occ. eigenvalues --   -0.50254  -0.48838  -0.48100  -0.46814  -0.44357
 Alpha  occ. eigenvalues --   -0.42753  -0.42266
 Alpha virt. eigenvalues --    0.03256   0.03358   0.03486   0.04113   0.05431
 Alpha virt. eigenvalues --    0.05656   0.05803   0.06055   0.06070   0.08807
 Alpha virt. eigenvalues --    0.08963   0.09152   0.09436   0.09456   0.10094

 Mulliken charges:
               1
     1  C   -0.212211
     2  C   -0.203179
     3  C   -0.014756
     4  C   -0.060077
     5  C   -0.783037
     6  C   -0.666376
     7  C   -0.138909
     8  C   -0.207618
     9  H    0.103582
    10  H    0.157702
    11  H    0.087691
    12  H    0.153401
    13  H    0.149829
    14  H    0.081077
    15  H    0.188837
    16  H    0.092535
    17  H    0.100085
    18  H    0.141952
    19  H    0.205560
    20  H    0.143764
    21  H    0.151055
    22  H    0.232825
    23  H    0.124116
    24  H    0.172154
 Sum of Mulliken charges =   0.00000

 Dipole moment (field-independent basis, Debye):
    X=             -0.0531    Y=             -0.0124    Z=             -0.1192  Tot=              0.1311

 Test job not archived.
 1\1\GINC-SE036\SP\RHF\Aug-CC-pVDZ\C8H16\OHZDE\05-Apr-2025\0\\#t hf aug
 -cc-pvdz iop(5/13=1,5/36=2,99/5=2) pseudo=read geom=check guess=(read,
 tcheck) scf=(maxcycle=1)\\title\\0,1\C,0,-1.970214,0.143052,0.172978\C
 ,0,-1.480744,-1.30769,0.157221\C,0,-1.121757,1.024428,-0.749887\C,0,0.
 015884,-1.40175,0.468056\C,0,0.383838,0.959334,-0.431292\C,0,0.859319,
 -0.515324,-0.460979\C,0,0.725765,1.702133,0.867397\C,0,2.355971,-0.676
 582,-0.191592\H,0,-3.018288,0.190873,-0.131201\H,0,-1.932318,0.529274,
 1.195719\H,0,-2.052364,-1.909311,0.867681\H,0,-1.66757,-1.73732,-0.832

 Normal termination of Gaussian 16 at Sat Apr  5 22:32:31 2025.
