 Gaussian 16, Revision C.01,

 ----------------------------------------------------------------------
 #t hf aug-cc-pvdz symm=none int=(grid=ultrafine) guess=(read,tcheck) s
 table=(opt,rrhf)
 ----------------------------------------------------------------------
 -----
 title
 -----
 Symbolic Z-matrix:
 Charge =  0 Multiplicity = 1

 SCF Done:  E(RHF) =  -814.516237277     A.U. after   14 cycles
 Normal termination of Gaussian 16 at Sat Apr  5 22:31:16 2025.
 Gaussian 16:  ES64L-G16RevC.01  3-Jul-2019

 ----------------------------------------------------------------------
 #t hf aug-cc-pvdz iop(5/13=1,5/36=2,99/5=2) pseudo=read geom=check gue
 ss=(read,tcheck) scf=(maxcycle=1)
 ----------------------------------------------------------------------
 -----
 title
 -----
 Structure from the checkpoint file:  "1Z-2-chloroethanimidoylmalononitrile.chk"
 Charge =  0 Multiplicity = 1

                         Standard orientation:
 ---------------------------------------------------------------------
 Center     Atomic      Atomic             Coordinates (Angstroms)
 Number     Number       Type             X           Y           Z
 ---------------------------------------------------------------------
      1         17           0       -2.745853    0.000000   -0.458741
      2          7           0       -0.811909   -0.000003    1.816306
      3          7           0        2.136126    2.181527   -0.641085
      4          7           0        2.136127   -2.181525   -0.641088
      5          6           0       -0.235309    0.000000    0.701571
      6          6           0        1.323138   -0.000000    0.550801
      7          6           0       -0.970811    0.000001   -0.614246
      8          6           0        1.796864    1.210768   -0.129504
      9          6           0        1.796865   -1.210767   -0.129506
     10          1           0       -0.172445   -0.000004    2.608644
     11          1           0        1.744862   -0.000001    1.558684
     12          1           0       -0.689901    0.880301   -1.191176
     13          1           0       -0.689901   -0.880298   -1.191179
 ---------------------------------------------------------------------

 SCF Done:  E(RHF) =  -814.940473988     A.U. after    2 cycles

 The electronic state is 1-A.
 Alpha  occ. eigenvalues -- -105.57762 -15.56536 -15.56527 -15.55172 -11.39075
 Alpha  occ. eigenvalues --  -11.36699 -11.34129 -11.33167 -11.33166 -10.62546
 Alpha  occ. eigenvalues --   -7.79506  -7.79091  -7.79087  -1.30318  -1.28117
 Alpha  occ. eigenvalues --   -1.28059  -1.14699  -1.12726  -0.97998  -0.84100
 Alpha  occ. eigenvalues --   -0.83261  -0.78683  -0.74774  -0.67872  -0.66896
 Alpha  occ. eigenvalues --   -0.65409  -0.64916  -0.58246  -0.57525  -0.56142
 Alpha  occ. eigenvalues --   -0.54758  -0.54484  -0.52455  -0.50120  -0.46608
 Alpha  occ. eigenvalues --   -0.46311
 Alpha virt. eigenvalues --    0.01721   0.04215   0.04738   0.05039   0.07178
 Alpha virt. eigenvalues --    0.07253   0.07273   0.07755   0.08707   0.09624
 Alpha virt. eigenvalues --    0.10272   0.11140   0.11357   0.12220   0.12811

 Mulliken charges:
               1
     1  Cl   0.047520
     2  N    0.980351
     3  N    1.064976
     4  N    1.064978
     5  C   -1.113362
     6  C    0.341856
     7  C   -0.554320
     8  C   -1.533973
     9  C   -1.533975
    10  H    0.177788
    11  H    0.238246
    12  H    0.409957
    13  H    0.409958
 Sum of Mulliken charges =  -0.00000

 Dipole moment (field-independent basis, Debye):
    X=              0.8335    Y=             -0.0000    Z=              2.6185  Tot=              2.7480

 Test job not archived.
 1\1\GINC-SE115\SP\RHF\Aug-CC-pVDZ\C5H4Cl1N3\OHZDE\05-Apr-2025\0\\#t hf
  aug-cc-pvdz iop(5/13=1,5/36=2,99/5=2) pseudo=read geom=check guess=(r
 ead,tcheck) scf=(maxcycle=1)\\title\\0,1\Cl,0,-2.745853,0.,-0.458741\N
 ,0,-0.811909,-0.000003,1.816306\N,0,2.136126,2.181527,-0.641085\N,0,2.
 136127,-2.181525,-0.641088\C,0,-0.235309,0.,0.701571\C,0,1.323138,0.,0
 .550801\C,0,-0.970811,0.000001,-0.614246\C,0,1.796864,1.210768,-0.1295
 04\C,0,1.796865,-1.210767,-0.129506\H,0,-0.172445,-0.000004,2.608644\H
 ,0,1.744862,-0.000001,1.558684\H,0,-0.689901,0.880301,-1.191176\H,0,-0

 Normal termination of Gaussian 16 at Sat Apr  5 22:32:19 2025.
