 Gaussian 16, Revision C.01,

 ----------------------------------------------------------------------
 #t hf aug-cc-pvdz symm=none int=(grid=ultrafine) guess=(read,tcheck) s
 table=(opt,rrhf)
 ----------------------------------------------------------------------
 -----
 title
 -----
 Symbolic Z-matrix:
 Charge =  0 Multiplicity = 1

 SCF Done:  E(RHF) =  -416.528013953     A.U. after   15 cycles
 Normal termination of Gaussian 16 at Sat Apr  5 22:32:14 2025.
 Gaussian 16:  ES64L-G16RevC.01  3-Jul-2019

 ----------------------------------------------------------------------
 #t hf aug-cc-pvdz iop(5/13=1,5/36=2,99/5=2) pseudo=read geom=check gue
 ss=(read,tcheck) scf=(maxcycle=1)
 ----------------------------------------------------------------------
 -----
 title
 -----
 Structure from the checkpoint file:  "2-1H-pyrrol-2-yl-1H-pyrrole.chk"
 Charge =  0 Multiplicity = 1

                         Standard orientation:
 ---------------------------------------------------------------------
 Center     Atomic      Atomic             Coordinates (Angstroms)
 Number     Number       Type             X           Y           Z
 ---------------------------------------------------------------------
      1          6           0       -0.367218    2.951058    0.128332
      2          6           0        0.367218   -2.951058    0.128332
      3          6           0       -0.964817    1.668994    0.237015
      4          6           0        0.964817   -1.668994    0.237015
      5          6           0        0.964817    2.761561   -0.145704
      6          6           0       -0.964817   -2.761561   -0.145704
      7          6           0        0.021536    0.722146    0.022813
      8          6           0       -0.021536   -0.722146    0.022813
      9          7           0        1.189772    1.410224   -0.205634
     10          7           0       -1.189772   -1.410224   -0.205634
     11          1           0       -0.856131    3.902314    0.249268
     12          1           0        0.856131   -3.902314    0.249268
     13          1           0       -1.992085    1.462515    0.486567
     14          1           0        1.992085   -1.462515    0.486567
     15          1           0        1.761222    3.466788   -0.303118
     16          1           0       -1.761222   -3.466788   -0.303118
     17          1           0        2.062056    0.976796   -0.448014
     18          1           0       -2.062056   -0.976796   -0.448014
 ---------------------------------------------------------------------

 SCF Done:  E(RHF) =  -416.957897060     A.U. after    2 cycles

 The electronic state is 1-A.
 Alpha  occ. eigenvalues --  -15.54743 -15.54709 -11.27162 -11.27105 -11.26198
 Alpha  occ. eigenvalues --  -11.26198 -11.22194 -11.22175 -11.22070 -11.22068
 Alpha  occ. eigenvalues --   -1.30483  -1.28811  -1.06008  -1.05211  -1.03941
 Alpha  occ. eigenvalues --   -0.96095  -0.83037  -0.81938  -0.80976  -0.80075
 Alpha  occ. eigenvalues --   -0.77410  -0.68516  -0.62822  -0.62115  -0.61452
 Alpha  occ. eigenvalues --   -0.60497  -0.58997  -0.58293  -0.56257  -0.55713
 Alpha  occ. eigenvalues --   -0.53534  -0.37657  -0.37590  -0.35937  -0.26760
 Alpha virt. eigenvalues --    0.03205   0.03507   0.04126   0.04229   0.04576
 Alpha virt. eigenvalues --    0.06287   0.06706   0.07371   0.09276   0.10212
 Alpha virt. eigenvalues --    0.10323   0.11522   0.11803   0.12640   0.13442

 Mulliken charges:
               1
     1  C    0.214266
     2  C    0.214266
     3  C    0.395200
     4  C    0.395200
     5  C   -0.423303
     6  C   -0.423303
     7  C   -0.703487
     8  C   -0.703487
     9  N    1.250411
    10  N    1.250411
    11  H   -0.164863
    12  H   -0.164863
    13  H   -0.271618
    14  H   -0.271618
    15  H   -0.252600
    16  H   -0.252600
    17  H   -0.044005
    18  H   -0.044005
 Sum of Mulliken charges =   0.00000

 Dipole moment (field-independent basis, Debye):
    X=              0.0000    Y=              0.0000    Z=             -0.5784  Tot=              0.5784

 Test job not archived.
 1\1\GINC-SE012\SP\RHF\Aug-CC-pVDZ\C8H8N2\OHZDE\05-Apr-2025\0\\#t hf au
 g-cc-pvdz iop(5/13=1,5/36=2,99/5=2) pseudo=read geom=check guess=(read
 ,tcheck) scf=(maxcycle=1)\\title\\0,1\C,0,-0.367218,2.951058,0.128332\
 C,0,0.367218,-2.951058,0.128332\C,0,-0.964817,1.668994,0.237015\C,0,0.
 964817,-1.668994,0.237015\C,0,0.964817,2.761561,-0.145704\C,0,-0.96481
 7,-2.761561,-0.145704\C,0,0.021536,0.722146,0.022813\C,0,-0.021536,-0.
 722146,0.022813\N,0,1.189772,1.410224,-0.205634\N,0,-1.189772,-1.41022
 4,-0.205634\H,0,-0.856131,3.902314,0.249268\H,0,0.856131,-3.902314,0.2

 Normal termination of Gaussian 16 at Sat Apr  5 22:32:21 2025.
