 Gaussian 16, Revision C.01,

 ----------------------------------------------------------------------
 #t hf aug-cc-pvdz symm=none int=(grid=ultrafine) guess=(read,tcheck) s
 table=(opt,rrhf)
 ----------------------------------------------------------------------
 -----
 title
 -----
 Symbolic Z-matrix:
 Charge =  0 Multiplicity = 1

 SCF Done:  E(RHF) =  -321.610875403     A.U. after   15 cycles
 Normal termination of Gaussian 16 at Sat Apr  5 22:29:55 2025.
 Gaussian 16:  ES64L-G16RevC.01  3-Jul-2019

 ----------------------------------------------------------------------
 #t hf aug-cc-pvdz iop(5/13=1,5/36=2,99/5=2) pseudo=read geom=check gue
 ss=(read,tcheck) scf=(maxcycle=1)
 ----------------------------------------------------------------------
 -----
 title
 -----
 Structure from the checkpoint file:  "2-1H-pyridinone.chk"
 Charge =  0 Multiplicity = 1

                         Standard orientation:
 ---------------------------------------------------------------------
 Center     Atomic      Atomic             Coordinates (Angstroms)
 Number     Number       Type             X           Y           Z
 ---------------------------------------------------------------------
      1          6           0        1.261707   -1.038161   -0.000000
      2          6           0        1.243130    0.321689   -0.000000
      3          6           0        0.059615   -1.797793   -0.000000
      4          6           0       -1.119466   -1.125244    0.000000
      5          6           0       -0.000000    1.062865    0.000000
      6          7           0       -1.136850    0.234049    0.000000
      7          8           0       -0.131026    2.279065    0.000000
      8          1           0        2.211330   -1.558148   -0.000000
      9          1           0        2.150199    0.907306   -0.000000
     10          1           0        0.072270   -2.875784   -0.000000
     11          1           0       -2.082206   -1.615153    0.000000
     12          1           0       -2.015349    0.730776    0.000000
 ---------------------------------------------------------------------

 SCF Done:  E(RHF) =  -321.936391905     A.U. after    2 cycles

 The electronic state is 1-A'.
 Alpha  occ. eigenvalues --  -20.50048 -15.56539 -11.36079 -11.31916 -11.28045
 Alpha  occ. eigenvalues --  -11.24918 -11.24725  -1.44969  -1.28954  -1.11500
 Alpha  occ. eigenvalues --   -1.04369  -0.90503  -0.88908  -0.78651  -0.71955
 Alpha  occ. eigenvalues --   -0.69422  -0.65640  -0.63140  -0.62590  -0.57337
 Alpha  occ. eigenvalues --   -0.55233  -0.49540  -0.44535  -0.42526  -0.32460
 Alpha virt. eigenvalues --    0.02602   0.03294   0.04033   0.05522   0.06501
 Alpha virt. eigenvalues --    0.06673   0.09618   0.10643   0.11733   0.11977
 Alpha virt. eigenvalues --    0.12603   0.12648   0.12942   0.13525   0.13894

 Mulliken charges:
               1
     1  C    0.286945
     2  C    0.596851
     3  C    0.556400
     4  C   -0.458989
     5  C    0.499116
     6  N    0.632601
     7  O   -1.416793
     8  H   -0.191334
     9  H   -0.240488
    10  H   -0.197363
    11  H   -0.263734
    12  H    0.196789
 Sum of Mulliken charges =   0.00000

 Dipole moment (field-independent basis, Debye):
    X=             -0.8919    Y=             -4.5307    Z=             -0.0000  Tot=              4.6176

 Test job not archived.
 1\1\GINC-SE196\SP\RHF\Aug-CC-pVDZ\C5H5N1O1\OHZDE\05-Apr-2025\0\\#t hf
 aug-cc-pvdz iop(5/13=1,5/36=2,99/5=2) pseudo=read geom=check guess=(re
 ad,tcheck) scf=(maxcycle=1)\\title\\0,1\C,0,1.261707,-1.038161,0.\C,0,
 1.24313,0.321689,0.\C,0,0.059615,-1.797793,0.\C,0,-1.119466,-1.125244,
 0.\C,0,0.,1.062865,0.\N,0,-1.13685,0.234049,0.\O,0,-0.131026,2.279065,
 0.\H,0,2.21133,-1.558148,0.\H,0,2.150199,0.907306,0.\H,0,0.07227,-2.87
 5784,0.\H,0,-2.082206,-1.615153,0.\H,0,-2.015349,0.730776,0.\\Version=
 ES64L-G16RevC.01\State=1-A'\HF=-321.9363919\RMSD=2.887e-02\Dipole=-0.3

 Normal termination of Gaussian 16 at Sat Apr  5 22:30:47 2025.
