 Gaussian 16, Revision C.01,

 ----------------------------------------------------------------------
 #t hf aug-cc-pvdz symm=none int=(grid=ultrafine) guess=(read,tcheck) s
 table=(opt,rrhf)
 ----------------------------------------------------------------------
 -----
 title
 -----
 Symbolic Z-matrix:
 Charge =  0 Multiplicity = 1

 SCF Done:  E(RHF) =  -391.437761802     A.U. after   15 cycles
 Normal termination of Gaussian 16 at Sat Apr  5 22:30:43 2025.
 Gaussian 16:  ES64L-G16RevC.01  3-Jul-2019

 ----------------------------------------------------------------------
 #t hf aug-cc-pvdz iop(5/13=1,5/36=2,99/5=2) pseudo=read geom=check gue
 ss=(read,tcheck) scf=(maxcycle=1)
 ----------------------------------------------------------------------
 -----
 title
 -----
 Structure from the checkpoint file:  "2-1H-1-2-4-triazol-3-yl-ethenone.chk"
 Charge =  0 Multiplicity = 1

                         Standard orientation:
 ---------------------------------------------------------------------
 Center     Atomic      Atomic             Coordinates (Angstroms)
 Number     Number       Type             X           Y           Z
 ---------------------------------------------------------------------
      1          8           0        3.181131   -0.527751   -0.000030
      2          7           0       -0.504861   -0.979797    0.000012
      3          7           0       -1.316186    1.134512    0.000007
      4          7           0       -1.860177   -0.974625    0.000024
      5          6           0       -0.220224    0.316198    0.000000
      6          6           0       -2.321692    0.286099    0.000022
      7          6           0        1.127446    0.850818   -0.000016
      8          6           0        2.212545    0.104559   -0.000024
      9          1           0       -2.366760   -1.842693    0.000036
     10          1           0       -3.369334    0.536264    0.000030
     11          1           0        1.267161    1.921766   -0.000023
 ---------------------------------------------------------------------

 SCF Done:  E(RHF) =  -391.823408335     A.U. after    2 cycles

 The electronic state is 1-A.
 Alpha  occ. eigenvalues --  -20.62931 -15.59884 -15.53446 -15.50406 -11.40434
 Alpha  occ. eigenvalues --  -11.33361 -11.31875 -11.25851  -1.56926  -1.41536
 Alpha  occ. eigenvalues --   -1.21616  -1.15628  -1.07299  -0.91483  -0.87919
 Alpha  occ. eigenvalues --   -0.81488  -0.76734  -0.71773  -0.68511  -0.66391
 Alpha  occ. eigenvalues --   -0.65063  -0.64899  -0.57688  -0.56321  -0.50456
 Alpha  occ. eigenvalues --   -0.48477  -0.44540  -0.34698
 Alpha virt. eigenvalues --    0.02584   0.04167   0.04689   0.07449   0.08041
 Alpha virt. eigenvalues --    0.08254   0.10128   0.10316   0.11120   0.11435
 Alpha virt. eigenvalues --    0.12250   0.12745   0.13809   0.13827   0.14609

 Mulliken charges:
               1
     1  O   -0.847693
     2  N    0.335783
     3  N    0.949238
     4  N    0.268062
     5  C   -2.431222
     6  C   -0.313337
     7  C    1.970098
     8  C    0.208682
     9  H    0.062768
    10  H   -0.075217
    11  H   -0.127161
 Sum of Mulliken charges =  -0.00000

 Dipole moment (field-independent basis, Debye):
    X=             -3.0740    Y=             -0.2468    Z=              0.0000  Tot=              3.0839

 Test job not archived.
 1\1\GINC-SE158\SP\RHF\Aug-CC-pVDZ\C4H3N3O1\OHZDE\05-Apr-2025\0\\#t hf
 aug-cc-pvdz iop(5/13=1,5/36=2,99/5=2) pseudo=read geom=check guess=(re
 ad,tcheck) scf=(maxcycle=1)\\title\\0,1\O,0,3.181131,-0.527751,-0.0000
 3\N,0,-0.504861,-0.979797,0.000012\N,0,-1.316186,1.134512,0.000007\N,0
 ,-1.860177,-0.974625,0.000024\C,0,-0.220224,0.316198,0.\C,0,-2.321692,
 0.286099,0.000022\C,0,1.127446,0.850818,-0.000016\C,0,2.212545,0.10455
 9,-0.000024\H,0,-2.36676,-1.842693,0.000036\H,0,-3.369334,0.536264,0.0
 0003\H,0,1.267161,1.921766,-0.000023\\Version=ES64L-G16RevC.01\State=1

 Normal termination of Gaussian 16 at Sat Apr  5 22:32:18 2025.
