 Gaussian 16, Revision C.01,

 ----------------------------------------------------------------------
 #t hf aug-cc-pvdz symm=none int=(grid=ultrafine) guess=(read,tcheck) s
 table=(opt,rrhf)
 ----------------------------------------------------------------------
 -----
 title
 -----
 Symbolic Z-matrix:
 Charge =  0 Multiplicity = 1

 SCF Done:  E(RHF) =  -1056.57187594     A.U. after   16 cycles
 Normal termination of Gaussian 16 at Sat Apr  5 22:30:43 2025.
 Gaussian 16:  ES64L-G16RevC.01  3-Jul-2019

 ----------------------------------------------------------------------
 #t hf aug-cc-pvdz iop(5/13=1,5/36=2,99/5=2) pseudo=read geom=check gue
 ss=(read,tcheck) scf=(maxcycle=1)
 ----------------------------------------------------------------------
 -----
 title
 -----
 Structure from the checkpoint file:  "2-2-dicyanoethanedithioicacid.chk"
 Charge =  0 Multiplicity = 1

                         Standard orientation:
 ---------------------------------------------------------------------
 Center     Atomic      Atomic             Coordinates (Angstroms)
 Number     Number       Type             X           Y           Z
 ---------------------------------------------------------------------
      1         16           0        2.003409    0.770859    0.144997
      2         16           0        0.824434   -1.874911   -0.296043
      3          7           0       -2.788831   -1.286739    0.056249
      4          7           0       -1.196262    2.646561   -0.557680
      5          6           0       -0.747144    0.287249    0.481702
      6          6           0        0.630661   -0.307408    0.072187
      7          6           0       -1.869388   -0.620646    0.224187
      8          6           0       -1.016190    1.603166   -0.112117
      9          1           0       -0.695773    0.434643    1.567730
     10          1           0        1.358300    1.937262    0.363284
 ---------------------------------------------------------------------

 SCF Done:  E(RHF) =  -1056.93646675     A.U. after    2 cycles

 The electronic state is 1-A.
 Alpha  occ. eigenvalues --  -94.02529 -93.97563 -15.56751 -15.55297 -11.41298
 Alpha  occ. eigenvalues --  -11.39786 -11.33427 -11.32018  -8.30650  -8.25797
 Alpha  occ. eigenvalues --   -6.28474  -6.28309  -6.28099  -6.23605  -6.23394
 Alpha  occ. eigenvalues --   -6.23170  -1.29341  -1.27241  -1.21330  -1.11082
 Alpha  occ. eigenvalues --   -1.05309  -0.83342  -0.82348  -0.75289  -0.70921
 Alpha  occ. eigenvalues --   -0.65549  -0.64150  -0.58591  -0.56524  -0.55839
 Alpha  occ. eigenvalues --   -0.55446  -0.53669  -0.52187  -0.51435  -0.39781
 Alpha  occ. eigenvalues --   -0.39335
 Alpha virt. eigenvalues --    0.00017   0.02483   0.04048   0.06410   0.06489
 Alpha virt. eigenvalues --    0.06863   0.08279   0.08857   0.09484   0.10792
 Alpha virt. eigenvalues --    0.11162   0.11595   0.11960   0.12884   0.13013

 Mulliken charges:
               1
     1  S    0.282733
     2  S    0.257217
     3  N    1.019307
     4  N    0.965794
     5  C   -0.172119
     6  C   -0.439373
     7  C   -1.447467
     8  C   -1.325277
     9  H    0.458738
    10  H    0.400447
 Sum of Mulliken charges =   0.00000

 Dipole moment (field-independent basis, Debye):
    X=              3.3327    Y=              1.2781    Z=              2.7780  Tot=              4.5230

 Test job not archived.
 1\1\GINC-SE146\SP\RHF\Aug-CC-pVDZ\C4H2N2S2\OHZDE\05-Apr-2025\0\\#t hf
 aug-cc-pvdz iop(5/13=1,5/36=2,99/5=2) pseudo=read geom=check guess=(re
 ad,tcheck) scf=(maxcycle=1)\\title\\0,1\S,0,2.003409,0.770859,0.144997
 \S,0,0.824434,-1.874911,-0.296043\N,0,-2.788831,-1.286739,0.056249\N,0
 ,-1.196262,2.646561,-0.55768\C,0,-0.747144,0.287249,0.481702\C,0,0.630
 661,-0.307408,0.072187\C,0,-1.869388,-0.620646,0.224187\C,0,-1.01619,1
 .603166,-0.112117\H,0,-0.695773,0.434643,1.56773\H,0,1.3583,1.937262,0
 .363284\\Version=ES64L-G16RevC.01\State=1-A\HF=-1056.9364668\RMSD=2.58

 Normal termination of Gaussian 16 at Sat Apr  5 22:32:19 2025.
