 Gaussian 16, Revision C.01,

 ----------------------------------------------------------------------
 #t hf aug-cc-pvdz symm=none int=(grid=ultrafine) guess=(read,tcheck) s
 table=(opt,rrhf)
 ----------------------------------------------------------------------
 -----
 title
 -----
 Symbolic Z-matrix:
 Charge =  0 Multiplicity = 1

 SCF Done:  E(RHF) =  -1057.77223330     A.U. after   14 cycles
 Normal termination of Gaussian 16 at Sat Apr  5 22:30:25 2025.
 Gaussian 16:  ES64L-G16RevC.01  3-Jul-2019

 ----------------------------------------------------------------------
 #t hf aug-cc-pvdz iop(5/13=1,5/36=2,99/5=2) pseudo=read geom=check gue
 ss=(read,tcheck) scf=(maxcycle=1)
 ----------------------------------------------------------------------
 -----
 title
 -----
 Structure from the checkpoint file:  "2-2--disulfanediyldiacetonitrile.chk"
 Charge =  0 Multiplicity = 1

                         Standard orientation:
 ---------------------------------------------------------------------
 Center     Atomic      Atomic             Coordinates (Angstroms)
 Number     Number       Type             X           Y           Z
 ---------------------------------------------------------------------
      1         16           0        0.406791    0.942610    0.784578
      2         16           0       -0.406791   -0.942610    0.784578
      3          7           0        0.183607    4.290300   -0.635604
      4          7           0       -0.183607   -4.290300   -0.635604
      5          6           0       -0.625549    1.822703   -0.494613
      6          6           0        0.625549   -1.822703   -0.494613
      7          6           0       -0.183607    3.202009   -0.580957
      8          6           0        0.183607   -3.202009   -0.580957
      9          1           0       -0.505885    1.334775   -1.459501
     10          1           0       -1.669096    1.778086   -0.191095
     11          1           0        0.505885   -1.334775   -1.459501
     12          1           0        1.669096   -1.778086   -0.191095
 ---------------------------------------------------------------------

 SCF Done:  E(RHF) =  -1058.15079877     A.U. after    2 cycles

 The electronic state is 1-A.
 Alpha  occ. eigenvalues --  -94.02353 -94.02345 -15.54035 -15.54030 -11.34988
 Alpha  occ. eigenvalues --  -11.34987 -11.30828 -11.30827  -8.30229  -8.30202
 Alpha  occ. eigenvalues --   -6.28020  -6.27976  -6.27803  -6.27793  -6.27551
 Alpha  occ. eigenvalues --   -6.27550  -1.26229  -1.26195  -1.17126  -1.10699
 Alpha  occ. eigenvalues --   -1.02248  -0.88904  -0.74660  -0.74422  -0.69040
 Alpha  occ. eigenvalues --   -0.68655  -0.64284  -0.62729  -0.62071  -0.58377
 Alpha  occ. eigenvalues --   -0.52615  -0.52531  -0.51646  -0.51176  -0.50417
 Alpha  occ. eigenvalues --   -0.41318  -0.41216
 Alpha virt. eigenvalues --    0.02109   0.02991   0.03972   0.04527   0.06294
 Alpha virt. eigenvalues --    0.06840   0.07471   0.07774   0.09324   0.10071
 Alpha virt. eigenvalues --    0.10698   0.10995   0.11615   0.11687   0.13029

 Mulliken charges:
               1
     1  S    0.165908
     2  S    0.165908
     3  N    0.892529
     4  N    0.892529
     5  C    0.022044
     6  C    0.022044
     7  C   -1.633131
     8  C   -1.633131
     9  H    0.254179
    10  H    0.298471
    11  H    0.254179
    12  H    0.298471
 Sum of Mulliken charges =   0.00000

 Dipole moment (field-independent basis, Debye):
    X=             -0.0000    Y=             -0.0000    Z=             -1.0533  Tot=              1.0533

 Test job not archived.
 1\1\GINC-SE185\SP\RHF\Aug-CC-pVDZ\C4H4N2S2\OHZDE\05-Apr-2025\0\\#t hf
 aug-cc-pvdz iop(5/13=1,5/36=2,99/5=2) pseudo=read geom=check guess=(re
 ad,tcheck) scf=(maxcycle=1)\\title\\0,1\S,0,0.406791,0.94261,0.784578\
 S,0,-0.406791,-0.94261,0.784578\N,0,0.183607,4.2903,-0.635604\N,0,-0.1
 83607,-4.2903,-0.635604\C,0,-0.625549,1.822703,-0.494613\C,0,0.625549,
 -1.822703,-0.494613\C,0,-0.183607,3.202009,-0.580957\C,0,0.183607,-3.2
 02009,-0.580957\H,0,-0.505885,1.334775,-1.459501\H,0,-1.669096,1.77808
 6,-0.191095\H,0,0.505885,-1.334775,-1.459501\H,0,1.669096,-1.778086,-0

 Normal termination of Gaussian 16 at Sat Apr  5 22:30:35 2025.
