 Gaussian 16, Revision C.01,

 ----------------------------------------------------------------------
 #t hf aug-cc-pvdz symm=none int=(grid=ultrafine) guess=(read,tcheck) s
 table=(opt,rrhf)
 ----------------------------------------------------------------------
 -----
 title
 -----
 Symbolic Z-matrix:
 Charge =  0 Multiplicity = 1

 SCF Done:  E(RHF) =  -377.151814764     A.U. after   15 cycles
 Normal termination of Gaussian 16 at Sat Apr  5 22:30:36 2025.
 Gaussian 16:  ES64L-G16RevC.01  3-Jul-2019

 ----------------------------------------------------------------------
 #t hf aug-cc-pvdz iop(5/13=1,5/36=2,99/5=2) pseudo=read geom=check gue
 ss=(read,tcheck) scf=(maxcycle=1)
 ----------------------------------------------------------------------
 -----
 title
 -----
 Structure from the checkpoint file:  "2-2--oxodiethenone.chk"
 Charge =  0 Multiplicity = 1

                         Standard orientation:
 ---------------------------------------------------------------------
 Center     Atomic      Atomic             Coordinates (Angstroms)
 Number     Number       Type             X           Y           Z
 ---------------------------------------------------------------------
      1          8           0        0.000000    0.000000    0.648088
      2          8           0        0.000000    3.317523   -0.078152
      3          8           0       -0.000000   -3.317523   -0.078152
      4          6           0       -0.698728    0.939522   -0.114391
      5          6           0        0.698728   -0.939522   -0.114391
      6          6           0       -0.313392    2.199290   -0.102139
      7          6           0        0.313392   -2.199290   -0.102139
      8          1           0       -1.576390    0.640518   -0.667959
      9          1           0        1.576390   -0.640518   -0.667959
 ---------------------------------------------------------------------

 SCF Done:  E(RHF) =  -377.512489681     A.U. after    2 cycles

 The electronic state is 1-A.
 Alpha  occ. eigenvalues --  -20.63416 -20.63414 -20.61422 -11.40386 -11.40384
 Alpha  occ. eigenvalues --  -11.31879 -11.31828  -1.57060  -1.57018  -1.51975
 Alpha  occ. eigenvalues --   -1.09329  -1.02885  -0.80565  -0.77508  -0.74268
 Alpha  occ. eigenvalues --   -0.73315  -0.72321  -0.66774  -0.65648  -0.63042
 Alpha  occ. eigenvalues --   -0.59499  -0.58610  -0.52159  -0.37772  -0.36368
 Alpha virt. eigenvalues --    0.03056   0.04024   0.05824   0.06525   0.08483
 Alpha virt. eigenvalues --    0.09673   0.10021   0.10553   0.11187   0.11785
 Alpha virt. eigenvalues --    0.12395   0.12802   0.14004   0.14507   0.14852

 Mulliken charges:
               1
     1  O   -1.339472
     2  O   -0.769042
     3  O   -0.769042
     4  C    1.264541
     5  C    1.264541
     6  C    0.143799
     7  C    0.143799
     8  H    0.030439
     9  H    0.030439
 Sum of Mulliken charges =  -0.00000

 Dipole moment (field-independent basis, Debye):
    X=             -0.0000    Y=             -0.0000    Z=             -1.3425  Tot=              1.3425

 Test job not archived.
 1\1\GINC-SE040\SP\RHF\Aug-CC-pVDZ\C4H2O3\OHZDE\05-Apr-2025\0\\#t hf au
 g-cc-pvdz iop(5/13=1,5/36=2,99/5=2) pseudo=read geom=check guess=(read
 ,tcheck) scf=(maxcycle=1)\\title\\0,1\O,0,0.,0.,0.648088\O,0,0.,3.3175
 23,-0.078152\O,0,0.,-3.317523,-0.078152\C,0,-0.698728,0.939522,-0.1143
 91\C,0,0.698728,-0.939522,-0.114391\C,0,-0.313392,2.19929,-0.102139\C,
 0,0.313392,-2.19929,-0.102139\H,0,-1.57639,0.640518,-0.667959\H,0,1.57
 639,-0.640518,-0.667959\\Version=ES64L-G16RevC.01\State=1-A\HF=-377.51
 24897\RMSD=1.243e-02\Dipole=0.,0.,-0.52818\Quadrupole=4.7588145,-6.133

 Normal termination of Gaussian 16 at Sat Apr  5 22:32:16 2025.
