 Gaussian 16, Revision C.01,

 ----------------------------------------------------------------------
 #t hf aug-cc-pvdz symm=none int=(grid=ultrafine) guess=(read,tcheck) s
 table=(opt,rrhf)
 ----------------------------------------------------------------------
 -----
 title
 -----
 Symbolic Z-matrix:
 Charge =  0 Multiplicity = 1

 SCF Done:  E(RHF) =  -352.502447530     A.U. after   12 cycles
 Normal termination of Gaussian 16 at Sat Apr  5 22:36:04 2025.
 Gaussian 16:  ES64L-G16RevC.01  3-Jul-2019

 ----------------------------------------------------------------------
 #t hf aug-cc-pvdz iop(5/13=1,5/36=2,99/5=2) pseudo=read geom=check gue
 ss=(read,tcheck) scf=(maxcycle=1)
 ----------------------------------------------------------------------
 -----
 title
 -----
 Structure from the checkpoint file:  "2-2-5-trimethylhexane.chk"
 Charge =  0 Multiplicity = 1

                         Standard orientation:
 ---------------------------------------------------------------------
 Center     Atomic      Atomic             Coordinates (Angstroms)
 Number     Number       Type             X           Y           Z
 ---------------------------------------------------------------------
      1          6           0        0.261359    2.728775    1.263761
      2          6           0        0.261359    2.728775   -1.263761
      3          6           0        0.261359   -2.190212   -1.255251
      4          6           0        0.261359   -2.190212    1.255251
      5          6           0       -1.897219   -2.110279    0.000000
      6          6           0        0.930924    0.602207   -0.000000
      7          6           0       -0.435871   -0.089408    0.000000
      8          6           0        0.902632    2.145688   -0.000000
      9          6           0       -0.433736   -1.639048    0.000000
     10          1           0        0.722844    2.323751    2.166617
     11          1           0       -0.807615    2.513614    1.310589
     12          1           0        0.375647    3.813898    1.290358
     13          1           0       -0.807615    2.513614   -1.310589
     14          1           0        0.375647    3.813898   -1.290358
     15          1           0        0.722844    2.323751   -2.166617
     16          1           0       -0.197356   -1.795095   -2.164364
     17          1           0        1.321852   -1.937870   -1.278005
     18          1           0        0.183154   -3.278767   -1.290423
     19          1           0        1.321852   -1.937870    1.278005
     20          1           0       -0.197356   -1.795095    2.164364
     21          1           0        0.183154   -3.278767    1.290423
     22          1           0       -2.428479   -1.746411   -0.882025
     23          1           0       -2.428479   -1.746411    0.882025
     24          1           0       -1.958193   -3.200485    0.000000
     25          1           0        1.502655    0.279924   -0.874023
     26          1           0        1.502655    0.279924    0.874023
     27          1           0       -1.005955    0.238235   -0.873903
     28          1           0       -1.005955    0.238235    0.873903
     29          1           0        1.951716    2.460219   -0.000000
 ---------------------------------------------------------------------

 SCF Done:  E(RHF) =  -352.900205227     A.U. after    2 cycles

 The electronic state is 1-A'.
 Alpha  occ. eigenvalues --  -11.23444 -11.22838 -11.21780 -11.21675 -11.21629
 Alpha  occ. eigenvalues --  -11.21614 -11.21515 -11.21504 -11.21472  -1.11564
 Alpha  occ. eigenvalues --   -1.07586  -0.97401  -0.92982  -0.92895  -0.92675
 Alpha  occ. eigenvalues --   -0.86842  -0.76088  -0.72732  -0.64396  -0.63584
 Alpha  occ. eigenvalues --   -0.61062  -0.60153  -0.59950  -0.58655  -0.55813
 Alpha  occ. eigenvalues --   -0.54916  -0.53805  -0.52165  -0.51648  -0.51479
 Alpha  occ. eigenvalues --   -0.49428  -0.48231  -0.47384  -0.46815  -0.45213
 Alpha  occ. eigenvalues --   -0.44075  -0.43510
 Alpha virt. eigenvalues --    0.03001   0.03261   0.03395   0.03970   0.04940
 Alpha virt. eigenvalues --    0.05338   0.05443   0.05882   0.05963   0.07661
 Alpha virt. eigenvalues --    0.07936   0.08119   0.08838   0.09160   0.09765

 Mulliken charges:
               1
     1  C   -0.051311
     2  C   -0.051311
     3  C    0.227297
     4  C    0.227297
     5  C    0.331179
     6  C   -0.127697
     7  C    0.291562
     8  C   -1.189997
     9  C   -2.975258
    10  H    0.162209
    11  H    0.239011
    12  H    0.095708
    13  H    0.239011
    14  H    0.095708
    15  H    0.162209
    16  H    0.209107
    17  H    0.204375
    18  H    0.164235
    19  H    0.204375
    20  H    0.209107
    21  H    0.164235
    22  H    0.218738
    23  H    0.218738
    24  H    0.173299
    25  H    0.095422
    26  H    0.095422
    27  H    0.090224
    28  H    0.090224
    29  H    0.186882
 Sum of Mulliken charges =  -0.00000

 Dipole moment (field-independent basis, Debye):
    X=              0.1446    Y=              0.0505    Z=              0.0000  Tot=              0.1532

 Test job not archived.
 1\1\GINC-SE188\SP\RHF\Aug-CC-pVDZ\C9H20\OHZDE\05-Apr-2025\0\\#t hf aug
 -cc-pvdz iop(5/13=1,5/36=2,99/5=2) pseudo=read geom=check guess=(read,
 tcheck) scf=(maxcycle=1)\\title\\0,1\C,0,0.261359,2.728775,1.263761\C,
 0,0.261359,2.728775,-1.263761\C,0,0.261359,-2.190212,-1.255251\C,0,0.2
 61359,-2.190212,1.255251\C,0,-1.897219,-2.110279,0.\C,0,0.930924,0.602
 207,0.\C,0,-0.435871,-0.089408,0.\C,0,0.902632,2.145688,0.\C,0,-0.4337
 36,-1.639048,0.\H,0,0.722844,2.323751,2.166617\H,0,-0.807615,2.513614,
 1.310589\H,0,0.375647,3.813898,1.290358\H,0,-0.807615,2.513614,-1.3105

 Normal termination of Gaussian 16 at Sat Apr  5 22:37:43 2025.
