 Gaussian 16, Revision C.01,

 ----------------------------------------------------------------------
 #t hf aug-cc-pvdz symm=none int=(grid=ultrafine) guess=(read,tcheck) s
 table=(opt,rrhf)
 ----------------------------------------------------------------------
 -----
 title
 -----
 Symbolic Z-matrix:
 Charge =  0 Multiplicity = 1

 SCF Done:  E(RHF) =  -1036.12720677     A.U. after   12 cycles

 1\1\GINC-SE231\Stability\RHF\Aug-CC-pVDZ\C3H6Cl2\OHZDE\05-Apr-2025\0\\
 #t hf aug-cc-pvdz symm=none int=(grid=ultrafine) guess=(read,tcheck) s
 table=(opt,rrhf)\\title\\0,1\C,0,0.,0.,0.352403\Cl,0,1.474178,0.,-0.72
 2182\Cl,0,-1.474178,0.,-0.722182\C,0,0.,1.271429,1.177208\C,0,0.,-1.27
 1429,1.177208\H,0,0.,2.149972,0.537521\H,0,0.,-2.149972,0.537521\H,0,-
 0.887342,1.294212,1.80956\H,0,0.887342,1.294212,1.80956\H,0,0.887342,-
 1.294212,1.80956\H,0,-0.887342,-1.294212,1.80956\\Version=ES64L-G16Rev
 C.01\HF=-1036.1272068\RMSD=5.265e-09\Dipole=0.,0.,1.0428145\Quadrupole

 Normal termination of Gaussian 16 at Sat Apr  5 22:30:35 2025.
 Gaussian 16:  ES64L-G16RevC.01  3-Jul-2019

 ----------------------------------------------------------------------
 #t hf aug-cc-pvdz iop(5/13=1,5/36=2,99/5=2) pseudo=read geom=check gue
 ss=(read,tcheck) scf=(maxcycle=1)
 ----------------------------------------------------------------------
 -----
 title
 -----
 Structure from the checkpoint file:  "2-2-dichloropropane.chk"
 Charge =  0 Multiplicity = 1

                         Standard orientation:
 ---------------------------------------------------------------------
 Center     Atomic      Atomic             Coordinates (Angstroms)
 Number     Number       Type             X           Y           Z
 ---------------------------------------------------------------------
      1          6           0        0.000000    0.000000    0.352403
      2         17           0        1.474178   -0.000000   -0.722182
      3         17           0       -1.474178    0.000000   -0.722182
      4          6           0       -0.000000    1.271429    1.177208
      5          6           0       -0.000000   -1.271429    1.177208
      6          1           0       -0.000000    2.149972    0.537521
      7          1           0       -0.000000   -2.149972    0.537521
      8          1           0       -0.887342    1.294212    1.809560
      9          1           0        0.887342    1.294212    1.809560
     10          1           0        0.887342   -1.294212    1.809560
     11          1           0       -0.887342   -1.294212    1.809560
 ---------------------------------------------------------------------

 SCF Done:  E(RHF) =  -1036.40866275     A.U. after    2 cycles

 The electronic state is 1-A1.
 Alpha  occ. eigenvalues -- -105.56736-105.56736 -11.38605 -11.25794 -11.25771
 Alpha  occ. eigenvalues --  -10.61558 -10.61554  -7.78493  -7.78486  -7.78110
 Alpha  occ. eigenvalues --   -7.78108  -7.78107  -7.78106  -1.17980  -1.03756
 Alpha  occ. eigenvalues --   -1.00636  -0.98047  -0.78018  -0.65559  -0.64898
 Alpha  occ. eigenvalues --   -0.63594  -0.58562  -0.55080  -0.54538  -0.52229
 Alpha  occ. eigenvalues --   -0.47321  -0.46479  -0.45204  -0.44207
 Alpha virt. eigenvalues --    0.03518   0.04430   0.04927   0.05575   0.07107
 Alpha virt. eigenvalues --    0.07260   0.08652   0.09855   0.11313   0.13841
 Alpha virt. eigenvalues --    0.14331   0.15418   0.15918   0.16808   0.17113

 Mulliken charges:
               1
     1  C   -1.521813
     2  Cl  -0.040792
     3  Cl  -0.040792
     4  C    0.179511
     5  C    0.179511
     6  H    0.167212
     7  H    0.167212
     8  H    0.227487
     9  H    0.227487
    10  H    0.227487
    11  H    0.227487
 Sum of Mulliken charges =  -0.00000

 Dipole moment (field-independent basis, Debye):
    X=             -0.0000    Y=              0.0000    Z=              2.6279  Tot=              2.6279

 Test job not archived.
 1\1\GINC-SE231\SP\RHF\Aug-CC-pVDZ\C3H6Cl2\OHZDE\05-Apr-2025\0\\#t hf a
 ug-cc-pvdz iop(5/13=1,5/36=2,99/5=2) pseudo=read geom=check guess=(rea
 d,tcheck) scf=(maxcycle=1)\\title\\0,1\C,0,0.,0.,0.352403\Cl,0,1.47417
 8,0.,-0.722182\Cl,0,-1.474178,0.,-0.722182\C,0,0.,1.271429,1.177208\C,
 0,0.,-1.271429,1.177208\H,0,0.,2.149972,0.537521\H,0,0.,-2.149972,0.53
 7521\H,0,-0.887342,1.294212,1.80956\H,0,0.887342,1.294212,1.80956\H,0,
 0.887342,-1.294212,1.80956\H,0,-0.887342,-1.294212,1.80956\\Version=ES
 64L-G16RevC.01\State=1-A1\HF=-1036.4086627\RMSD=7.778e-03\Dipole=0.,0.

 Normal termination of Gaussian 16 at Sat Apr  5 22:32:16 2025.
