 Gaussian 16, Revision C.01,

 ----------------------------------------------------------------------
 #t hf aug-cc-pvdz symm=none int=(grid=ultrafine) guess=(read,tcheck) s
 table=(opt,rrhf)
 ----------------------------------------------------------------------
 -----
 title
 -----
 Symbolic Z-matrix:
 Charge =  0 Multiplicity = 1

 SCF Done:  E(RHF) =  -357.243937004     A.U. after   14 cycles
 Normal termination of Gaussian 16 at Sat Apr  5 22:30:38 2025.
 Gaussian 16:  ES64L-G16RevC.01  3-Jul-2019

 ----------------------------------------------------------------------
 #t hf aug-cc-pvdz iop(5/13=1,5/36=2,99/5=2) pseudo=read geom=check gue
 ss=(read,tcheck) scf=(maxcycle=1)
 ----------------------------------------------------------------------
 -----
 title
 -----
 Structure from the checkpoint file:  "2-2--iminodiacetylenol.chk"
 Charge =  0 Multiplicity = 1

                         Standard orientation:
 ---------------------------------------------------------------------
 Center     Atomic      Atomic             Coordinates (Angstroms)
 Number     Number       Type             X           Y           Z
 ---------------------------------------------------------------------
      1          8           0       -3.400108   -0.733442   -0.118928
      2          8           0        3.400112   -0.733432   -0.118929
      3          7           0       -0.000000    1.083109    0.012803
      4          6           0       -1.191775    0.449091   -0.005616
      5          6           0        1.191770    0.449084   -0.005610
      6          6           0       -2.247386   -0.118373    0.033472
      7          6           0        2.247401   -0.118342    0.033478
      8          1           0       -3.781620   -0.952804    0.740381
      9          1           0        3.781529   -0.952982    0.740374
     10          1           0        0.000002    2.090260   -0.001864
 ---------------------------------------------------------------------

 SCF Done:  E(RHF) =  -357.600556037     A.U. after    2 cycles

 The electronic state is 1-A.
 Alpha  occ. eigenvalues --  -20.61744 -20.61739 -15.56508 -11.29185 -11.29177
 Alpha  occ. eigenvalues --  -11.26689 -11.26658  -1.52632  -1.52609  -1.27237
 Alpha  occ. eigenvalues --   -1.03846  -1.00645  -0.85293  -0.81336  -0.78578
 Alpha  occ. eigenvalues --   -0.78419  -0.66176  -0.65816  -0.60531  -0.60508
 Alpha  occ. eigenvalues --   -0.60205  -0.41265  -0.39367  -0.37871  -0.33576
 Alpha virt. eigenvalues --    0.02842   0.03381   0.04270   0.09549   0.09778
 Alpha virt. eigenvalues --    0.10223   0.11202   0.11576   0.12371   0.12421
 Alpha virt. eigenvalues --    0.13717   0.13751   0.15793   0.16462   0.17884

 Mulliken charges:
               1
     1  O   -1.288636
     2  O   -1.288637
     3  N    1.367866
     4  C   -1.428026
     5  C   -1.428016
     6  C    1.559710
     7  C    1.559722
     8  H    0.372992
     9  H    0.372990
    10  H    0.200033
 Sum of Mulliken charges =  -0.00000

 Dipole moment (field-independent basis, Debye):
    X=             -0.0002    Y=              0.2715    Z=              2.8348  Tot=              2.8478

 Test job not archived.
 1\1\GINC-SE190\SP\RHF\Aug-CC-pVDZ\C4H3N1O2\OHZDE\05-Apr-2025\0\\#t hf
 aug-cc-pvdz iop(5/13=1,5/36=2,99/5=2) pseudo=read geom=check guess=(re
 ad,tcheck) scf=(maxcycle=1)\\title\\0,1\O,0,-3.400108,-0.733442,-0.118
 928\O,0,3.400112,-0.733432,-0.118929\N,0,0.,1.083109,0.012803\C,0,-1.1
 91775,0.449091,-0.005616\C,0,1.19177,0.449084,-0.00561\C,0,-2.247386,-
 0.118373,0.033472\C,0,2.247401,-0.118342,0.033478\H,0,-3.78162,-0.9528
 04,0.740381\H,0,3.781529,-0.952982,0.740374\H,0,0.000002,2.09026,-0.00
 1864\\Version=ES64L-G16RevC.01\State=1-A\HF=-357.600556\RMSD=6.232e-02

 Normal termination of Gaussian 16 at Sat Apr  5 22:32:17 2025.
