 Gaussian 16, Revision C.01,

 ----------------------------------------------------------------------
 #t hf aug-cc-pvdz symm=none int=(grid=ultrafine) guess=(read,tcheck) s
 table=(opt,rrhf)
 ----------------------------------------------------------------------
 -----
 title
 -----
 Symbolic Z-matrix:
 Charge =  0 Multiplicity = 1

 SCF Done:  E(RHF) =  -568.270706922     A.U. after   15 cycles
 Normal termination of Gaussian 16 at Sat Apr  5 22:38:00 2025.
 Gaussian 16:  ES64L-G16RevC.01  3-Jul-2019

 ----------------------------------------------------------------------
 #t hf aug-cc-pvdz iop(5/13=1,5/36=2,99/5=2) pseudo=read geom=check gue
 ss=(read,tcheck) scf=(maxcycle=1)
 ----------------------------------------------------------------------
 -----
 title
 -----
 Structure from the checkpoint file:  "2-2-furylcyclopropyl-3H-imidazole.chk"
 Charge =  0 Multiplicity = 1

                         Standard orientation:
 ---------------------------------------------------------------------
 Center     Atomic      Atomic             Coordinates (Angstroms)
 Number     Number       Type             X           Y           Z
 ---------------------------------------------------------------------
      1          6           0        4.003632    0.781182   -0.318561
      2          6           0        2.827443    1.218501    0.371503
      3          6           0       -2.371864    1.192790   -0.026218
      4          6           0        3.730184   -0.458141   -0.785971
      5          6           0       -4.074244   -0.047206   -0.382089
      6          6           0       -1.871478   -0.079363   -0.130780
      7          6           0        1.920234    0.210847    0.273998
      8          6           0        0.008227   -1.281057    1.209323
      9          6           0       -0.510143   -0.639727   -0.057973
     10          6           0        0.549025    0.058342    0.769007
     11          7           0       -3.738614    1.201606   -0.180938
     12          7           0       -2.984446   -0.866017   -0.361682
     13          8           0        2.461749   -0.825836   -0.433788
     14          1           0        4.925307    1.321844   -0.446217
     15          1           0        2.677596    2.159109    0.872631
     16          1           0       -1.821739    2.102483    0.144386
     17          1           0        4.287911   -1.179392   -1.354371
     18          1           0       -5.072787   -0.417046   -0.546593
     19          1           0       -0.640952   -1.290605    2.073149
     20          1           0        0.657884   -2.137778    1.105053
     21          1           0       -0.139037   -1.085527   -0.973867
     22          1           0        0.211409    0.911932    1.338833
     23          1           0       -2.984259   -1.864464   -0.477790
 ---------------------------------------------------------------------

 SCF Done:  E(RHF) =  -568.850438828     A.U. after    2 cycles

 The electronic state is 1-A.
 Alpha  occ. eigenvalues --  -20.60826 -15.55728 -15.48172 -11.30280 -11.29844
 Alpha  occ. eigenvalues --  -11.29325 -11.26943 -11.26269 -11.26166 -11.25011
 Alpha  occ. eigenvalues --  -11.24391 -11.23834 -11.23245  -1.54343  -1.33805
 Alpha  occ. eigenvalues --   -1.18240  -1.16687  -1.09408  -1.03242  -1.00662
 Alpha  occ. eigenvalues --   -0.88403  -0.86481  -0.85160  -0.81874  -0.81791
 Alpha  occ. eigenvalues --   -0.76902  -0.75390  -0.73600  -0.66465  -0.65733
 Alpha  occ. eigenvalues --   -0.64038  -0.63694  -0.62417  -0.59298  -0.59140
 Alpha  occ. eigenvalues --   -0.57166  -0.55885  -0.55328  -0.54469  -0.48694
 Alpha  occ. eigenvalues --   -0.47475  -0.45278  -0.43664  -0.40106  -0.32653
 Alpha  occ. eigenvalues --   -0.31366
 Alpha virt. eigenvalues --    0.02742   0.03248   0.03427   0.04110   0.04779
 Alpha virt. eigenvalues --    0.04858   0.05777   0.06376   0.06522   0.07890
 Alpha virt. eigenvalues --    0.09317   0.10018   0.10882   0.11308   0.11681

 Mulliken charges:
               1
     1  C    0.330655
     2  C    0.432746
     3  C   -0.496006
     4  C    0.772905
     5  C   -0.844437
     6  C   -1.102347
     7  C    0.658441
     8  C    0.093899
     9  C    1.064817
    10  C    0.849854
    11  N    0.656531
    12  N    1.133515
    13  O   -1.688282
    14  H   -0.150705
    15  H   -0.231298
    16  H   -0.244261
    17  H   -0.213545
    18  H   -0.123771
    19  H   -0.154102
    20  H   -0.153403
    21  H   -0.248871
    22  H   -0.281847
    23  H   -0.060489
 Sum of Mulliken charges =  -0.00000

 Dipole moment (field-independent basis, Debye):
    X=              1.4547    Y=             -3.2978    Z=              0.0461  Tot=              3.6047

 Test job not archived.
 1\1\GINC-SE042\SP\RHF\Aug-CC-pVDZ\C10H10N2O1\OHZDE\05-Apr-2025\0\\#t h
 f aug-cc-pvdz iop(5/13=1,5/36=2,99/5=2) pseudo=read geom=check guess=(
 read,tcheck) scf=(maxcycle=1)\\title\\0,1\C,0,4.003632,0.781182,-0.318
 561\C,0,2.827443,1.218501,0.371503\C,0,-2.371864,1.19279,-0.026218\C,0
 ,3.730184,-0.458141,-0.785971\C,0,-4.074244,-0.047206,-0.382089\C,0,-1
 .871478,-0.079363,-0.13078\C,0,1.920234,0.210847,0.273998\C,0,0.008227
 ,-1.281057,1.209323\C,0,-0.510143,-0.639727,-0.057973\C,0,0.549025,0.0
 58342,0.769007\N,0,-3.738614,1.201606,-0.180938\N,0,-2.984446,-0.86601

 Normal termination of Gaussian 16 at Sat Apr  5 22:38:21 2025.
