 Gaussian 16, Revision C.01,

 ----------------------------------------------------------------------
 #t hf aug-cc-pvdz symm=none int=(grid=ultrafine) guess=(read,tcheck) s
 table=(opt,rrhf)
 ----------------------------------------------------------------------
 -----
 title
 -----
 Symbolic Z-matrix:
 Charge =  0 Multiplicity = 1

 SCF Done:  E(RHF) =  -391.471712331     A.U. after   16 cycles
 Normal termination of Gaussian 16 at Sat Apr  5 22:30:52 2025.
 Gaussian 16:  ES64L-G16RevC.01  3-Jul-2019

 ----------------------------------------------------------------------
 #t hf aug-cc-pvdz iop(5/13=1,5/36=2,99/5=2) pseudo=read geom=check gue
 ss=(read,tcheck) scf=(maxcycle=1)
 ----------------------------------------------------------------------
 -----
 title
 -----
 Structure from the checkpoint file:  "2-2-dicyanoacetamide.chk"
 Charge =  0 Multiplicity = 1

                         Standard orientation:
 ---------------------------------------------------------------------
 Center     Atomic      Atomic             Coordinates (Angstroms)
 Number     Number       Type             X           Y           Z
 ---------------------------------------------------------------------
      1          8           0       -2.033652    0.612085   -0.561323
      2          7           0       -1.365161   -1.096228    0.782146
      3          7           0        1.209015    2.325639    0.584750
      4          7           0        1.852386   -1.914576   -0.073469
      5          6           0        0.319024    0.144506   -0.545846
      6          6           0       -1.174935   -0.099454   -0.102612
      7          6           0        0.820960    1.367479    0.085232
      8          6           0        1.211307   -0.986419   -0.292477
      9          1           0        0.261923    0.314072   -1.623641
     10          1           0       -0.620034   -1.690701    1.101554
     11          1           0       -2.304489   -1.280566    1.092902
 ---------------------------------------------------------------------

 SCF Done:  E(RHF) =  -391.851912007     A.U. after    2 cycles

 The electronic state is 1-A.
 Alpha  occ. eigenvalues --  -20.56134 -15.57621 -15.56651 -15.55253 -11.42608
 Alpha  occ. eigenvalues --  -11.38136 -11.33274 -11.32098  -1.51648  -1.29518
 Alpha  occ. eigenvalues --   -1.27459  -1.27151  -1.14156  -0.90426  -0.83043
 Alpha  occ. eigenvalues --   -0.82427  -0.77681  -0.71273  -0.66758  -0.65322
 Alpha  occ. eigenvalues --   -0.64373  -0.62691  -0.56747  -0.55680  -0.53904
 Alpha  occ. eigenvalues --   -0.53516  -0.48223  -0.47174
 Alpha virt. eigenvalues --    0.02012   0.03544   0.05544   0.06922   0.07756
 Alpha virt. eigenvalues --    0.08314   0.09691   0.10089   0.10231   0.10878
 Alpha virt. eigenvalues --    0.11548   0.12336   0.12608   0.13058   0.13506

 Mulliken charges:
               1
     1  O   -1.231267
     2  N    0.816644
     3  N    0.996448
     4  N    0.947041
     5  C    0.142637
     6  C    0.382063
     7  C   -1.354266
     8  C   -1.289801
     9  H    0.393389
    10  H    0.090920
    11  H    0.106192
 Sum of Mulliken charges =  -0.00000

 Dipole moment (field-independent basis, Debye):
    X=             -2.1970    Y=             -2.9310    Z=             -0.6283  Tot=              3.7165

 Test job not archived.
 1\1\GINC-SE145\SP\RHF\Aug-CC-pVDZ\C4H3N3O1\OHZDE\05-Apr-2025\0\\#t hf
 aug-cc-pvdz iop(5/13=1,5/36=2,99/5=2) pseudo=read geom=check guess=(re
 ad,tcheck) scf=(maxcycle=1)\\title\\0,1\O,0,-2.033653,0.612083,-0.5613
 23\N,0,-1.36516,-1.096229,0.782146\N,0,1.209013,2.32564,0.58475\N,0,1.
 852388,-1.914574,-0.073469\C,0,0.319024,0.144506,-0.545846\C,0,-1.1749
 35,-0.099455,-0.102612\C,0,0.820959,1.36748,0.085232\C,0,1.211308,-0.9
 86418,-0.292477\H,0,0.261923,0.314072,-1.623641\H,0,-0.620032,-1.69070
 2,1.101554\H,0,-2.304488,-1.280568,1.092902\\Version=ES64L-G16RevC.01\

 Normal termination of Gaussian 16 at Sat Apr  5 22:32:18 2025.
