 Gaussian 16, Revision C.01,

 ----------------------------------------------------------------------
 #t hf aug-cc-pvdz symm=none int=(grid=ultrafine) guess=(read,tcheck) s
 table=(opt,rrhf)
 ----------------------------------------------------------------------
 -----
 title
 -----
 Symbolic Z-matrix:
 Charge =  0 Multiplicity = 1

 SCF Done:  E(RHF) =  -593.884073407     A.U. after   13 cycles

 1\1\GINC-SE146\Stability\RHF\Aug-CC-pVDZ\C5H12S1\OHZDE\05-Apr-2025\0\\
 #t hf aug-cc-pvdz symm=none int=(grid=ultrafine) guess=(read,tcheck) s
 table=(opt,rrhf)\\title\\0,1\C,0,0.674889,0.42491,0.\C,0,1.189289,1.87
 5357,0.\H,0,2.280421,1.893123,0.\S,0,-1.677881,-1.162383,0.\H,0,-2.940
 602,-0.701861,0.\C,0,-0.86456,0.499457,0.\C,0,1.189289,-0.290385,1.258
 329\C,0,1.189289,-0.290385,-1.258329\H,0,-1.202991,1.037483,0.88438\H,
 0,-1.202991,1.037483,-0.88438\H,0,2.280323,-0.281639,1.280304\H,0,2.28
 0323,-0.281639,-1.280304\H,0,0.862904,-1.329613,1.294987\H,0,0.862904,

 Normal termination of Gaussian 16 at Sat Apr  5 22:33:19 2025.
 Gaussian 16:  ES64L-G16RevC.01  3-Jul-2019

 ----------------------------------------------------------------------
 #t hf aug-cc-pvdz iop(5/13=1,5/36=2,99/5=2) pseudo=read geom=check gue
 ss=(read,tcheck) scf=(maxcycle=1)
 ----------------------------------------------------------------------
 -----
 title
 -----
 Structure from the checkpoint file:  "2-2-dimethyl-1-propanethiol.chk"
 Charge =  0 Multiplicity = 1

                         Standard orientation:
 ---------------------------------------------------------------------
 Center     Atomic      Atomic             Coordinates (Angstroms)
 Number     Number       Type             X           Y           Z
 ---------------------------------------------------------------------
      1          6           0        0.674889    0.424910    0.000000
      2          6           0        1.189289    1.875357    0.000000
      3          1           0        2.280421    1.893123    0.000000
      4         16           0       -1.677881   -1.162383    0.000000
      5          1           0       -2.940602   -0.701861    0.000000
      6          6           0       -0.864560    0.499457    0.000000
      7          6           0        1.189289   -0.290385    1.258329
      8          6           0        1.189289   -0.290385   -1.258329
      9          1           0       -1.202991    1.037483    0.884380
     10          1           0       -1.202991    1.037483   -0.884380
     11          1           0        2.280323   -0.281639    1.280304
     12          1           0        2.280323   -0.281639   -1.280304
     13          1           0        0.862904   -1.329613    1.294987
     14          1           0        0.862904   -1.329613   -1.294987
     15          1           0        0.831671    0.202325    2.164531
     16          1           0        0.831671    0.202325   -2.164531
     17          1           0        0.846646    2.418019   -0.883096
     18          1           0        0.846646    2.418019    0.883096
 ---------------------------------------------------------------------

 SCF Done:  E(RHF) =  -594.164458666     A.U. after    2 cycles

 The electronic state is 1-A'.
 Alpha  occ. eigenvalues --  -93.94221 -11.26609 -11.25060 -11.22694 -11.22165
 Alpha  occ. eigenvalues --  -11.22142  -8.22286  -6.20139  -6.20001  -6.19772
 Alpha  occ. eigenvalues --   -1.12619  -1.02618  -0.93968  -0.93702  -0.88507
 Alpha  occ. eigenvalues --   -0.74119  -0.63979  -0.63926  -0.61448  -0.57894
 Alpha  occ. eigenvalues --   -0.56722  -0.53440  -0.53284  -0.52345  -0.49211
 Alpha  occ. eigenvalues --   -0.47445  -0.47041  -0.44245  -0.35849
 Alpha virt. eigenvalues --    0.03454   0.03593   0.03991   0.04383   0.06084
 Alpha virt. eigenvalues --    0.06256   0.06577   0.06797   0.07209   0.09217
 Alpha virt. eigenvalues --    0.09564   0.09907   0.11206   0.12953   0.13774

 Mulliken charges:
               1
     1  C   -2.426540
     2  C    0.160597
     3  H    0.175466
     4  S   -0.043957
     5  H    0.298823
     6  C   -0.175251
     7  C    0.153981
     8  C    0.153981
     9  H    0.063177
    10  H    0.063177
    11  H    0.201603
    12  H    0.201603
    13  H    0.192368
    14  H    0.192368
    15  H    0.195916
    16  H    0.195916
    17  H    0.198386
    18  H    0.198386
 Sum of Mulliken charges =  -0.00000

 Dipole moment (field-independent basis, Debye):
    X=              0.2379    Y=              1.7453    Z=              0.0000  Tot=              1.7614

 Test job not archived.
 1\1\GINC-SE146\SP\RHF\Aug-CC-pVDZ\C5H12S1\OHZDE\05-Apr-2025\0\\#t hf a
 ug-cc-pvdz iop(5/13=1,5/36=2,99/5=2) pseudo=read geom=check guess=(rea
 d,tcheck) scf=(maxcycle=1)\\title\\0,1\C,0,0.674889,0.42491,0.\C,0,1.1
 89289,1.875357,0.\H,0,2.280421,1.893123,0.\S,0,-1.677881,-1.162383,0.\
 H,0,-2.940602,-0.701861,0.\C,0,-0.86456,0.499457,0.\C,0,1.189289,-0.29
 0385,1.258329\C,0,1.189289,-0.290385,-1.258329\H,0,-1.202991,1.037483,
 0.88438\H,0,-1.202991,1.037483,-0.88438\H,0,2.280323,-0.281639,1.28030
 4\H,0,2.280323,-0.281639,-1.280304\H,0,0.862904,-1.329613,1.294987\H,0

 Normal termination of Gaussian 16 at Sat Apr  5 22:33:42 2025.
