 Gaussian 16, Revision C.01,

 ----------------------------------------------------------------------
 #t hf aug-cc-pvdz symm=none int=(grid=ultrafine) guess=(read,tcheck) s
 table=(opt,rrhf)
 ----------------------------------------------------------------------
 -----
 title
 -----
 Symbolic Z-matrix:
 Charge =  0 Multiplicity = 1

 SCF Done:  E(RHF) =  -1105.98495895     A.U. after   14 cycles
 Normal termination of Gaussian 16 at Sat Apr  5 22:30:37 2025.
 Gaussian 16:  ES64L-G16RevC.01  3-Jul-2019

 ----------------------------------------------------------------------
 #t hf aug-cc-pvdz iop(5/13=1,5/36=2,99/5=2) pseudo=read geom=check gue
 ss=(read,tcheck) scf=(maxcycle=1)
 ----------------------------------------------------------------------
 -----
 title
 -----
 Structure from the checkpoint file:  "2-2-dichloroethanimidamide.chk"
 Charge =  0 Multiplicity = 1

                         Standard orientation:
 ---------------------------------------------------------------------
 Center     Atomic      Atomic             Coordinates (Angstroms)
 Number     Number       Type             X           Y           Z
 ---------------------------------------------------------------------
      1         17           0       -0.526261    1.700246   -0.274259
      2         17           0       -1.582682   -1.029631    0.088524
      3          7           0        2.158124    0.361416    0.398415
      4          7           0        1.210053   -1.612357   -0.532489
      5          6           0       -0.238755    0.057016    0.456190
      6          6           0        1.125544   -0.473564    0.016892
      7          1           0       -0.244149    0.225219    1.527203
      8          1           0        1.958781    1.347470    0.456439
      9          1           0        3.066064    0.149392    0.018031
     10          1           0        2.173372   -1.866659   -0.744155
 ---------------------------------------------------------------------

 SCF Done:  E(RHF) =  -1106.32903330     A.U. after    2 cycles

 The electronic state is 1-A.
 Alpha  occ. eigenvalues -- -105.58686-105.57682 -15.53963 -15.49290 -11.38992
 Alpha  occ. eigenvalues --  -11.35308 -10.63494 -10.62503  -7.80427  -7.80046
 Alpha  occ. eigenvalues --   -7.80021  -7.79464  -7.79032  -7.79022  -1.29241
 Alpha  occ. eigenvalues --   -1.17943  -1.15998  -1.05220  -0.94284  -0.81529
 Alpha  occ. eigenvalues --   -0.76987  -0.75972  -0.66841  -0.63132  -0.60034
 Alpha  occ. eigenvalues --   -0.57003  -0.50513  -0.48811  -0.47545  -0.45809
 Alpha  occ. eigenvalues --   -0.45310  -0.43897
 Alpha virt. eigenvalues --    0.02552   0.04754   0.04997   0.06427   0.07926
 Alpha virt. eigenvalues --    0.09101   0.10761   0.11243   0.12587   0.13250
 Alpha virt. eigenvalues --    0.14076   0.14764   0.15658   0.16515   0.16803

 Mulliken charges:
               1
     1  Cl   0.076329
     2  Cl   0.097815
     3  N    0.603753
     4  N    0.818525
     5  C   -0.769683
     6  C   -1.517544
     7  H    0.409834
     8  H    0.121331
     9  H    0.060552
    10  H    0.099088
 Sum of Mulliken charges =   0.00000

 Dipole moment (field-independent basis, Debye):
    X=              3.2067    Y=              2.0129    Z=              1.1249  Tot=              3.9497

 Test job not archived.
 1\1\GINC-SE232\SP\RHF\Aug-CC-pVDZ\C2H4Cl2N2\OHZDE\05-Apr-2025\0\\#t hf
  aug-cc-pvdz iop(5/13=1,5/36=2,99/5=2) pseudo=read geom=check guess=(r
 ead,tcheck) scf=(maxcycle=1)\\title\\0,1\Cl,0,-0.526261,1.700246,-0.27
 4259\Cl,0,-1.582683,-1.02963,0.088524\N,0,2.158124,0.361415,0.398415\N
 ,0,1.210052,-1.612358,-0.532489\C,0,-0.238755,0.057016,0.45619\C,0,1.1
 25544,-0.473565,0.016892\H,0,-0.244149,0.225219,1.527203\H,0,1.958781,
 1.347469,0.456439\H,0,3.066064,0.149391,0.018031\H,0,2.173371,-1.86666
 ,-0.744155\\Version=ES64L-G16RevC.01\State=1-A\HF=-1106.3290333\RMSD=1

 Normal termination of Gaussian 16 at Sat Apr  5 22:32:17 2025.
