 Gaussian 16, Revision C.01,

 ----------------------------------------------------------------------
 #t hf aug-cc-pvdz symm=none int=(grid=ultrafine) guess=(read,tcheck) s
 table=(opt,rrhf)
 ----------------------------------------------------------------------
 -----
 title
 -----
 Symbolic Z-matrix:
 Charge =  0 Multiplicity = 1

 SCF Done:  E(RHF) =  -396.273651469     A.U. after   14 cycles
 Normal termination of Gaussian 16 at Sat Apr  5 22:30:11 2025.
 Gaussian 16:  ES64L-G16RevC.01  3-Jul-2019

 ----------------------------------------------------------------------
 #t hf aug-cc-pvdz iop(5/13=1,5/36=2,99/5=2) pseudo=read geom=check gue
 ss=(read,tcheck) scf=(maxcycle=1)
 ----------------------------------------------------------------------
 -----
 title
 -----
 Structure from the checkpoint file:  "2-2--methyliminodiacetylenol.chk"
 Charge =  0 Multiplicity = 1

                         Standard orientation:
 ---------------------------------------------------------------------
 Center     Atomic      Atomic             Coordinates (Angstroms)
 Number     Number       Type             X           Y           Z
 ---------------------------------------------------------------------
      1          8           0        3.378898   -1.121353    0.151039
      2          8           0       -3.378897   -1.121355    0.151039
      3          7           0       -0.000000    0.726298   -0.101503
      4          6           0        1.173373    0.061418   -0.031423
      5          6           0       -1.173373    0.061419   -0.031423
      6          6           0        2.234557   -0.498966   -0.039656
      7          6           0       -2.234557   -0.498966   -0.039656
      8          6           0       -0.000000    2.188036    0.049856
      9          1           0        3.788790   -1.339293   -0.695372
     10          1           0       -3.788797   -1.339280   -0.695372
     11          1           0       -0.000002    2.478463    1.103218
     12          1           0        0.888064    2.590021   -0.432378
     13          1           0       -0.888061    2.590022   -0.432382
 ---------------------------------------------------------------------

 SCF Done:  E(RHF) =  -396.672705878     A.U. after    2 cycles

 The electronic state is 1-A.
 Alpha  occ. eigenvalues --  -20.61485 -20.61480 -15.55816 -11.28812 -11.28806
 Alpha  occ. eigenvalues --  -11.27833 -11.26174 -11.26158  -1.52323  -1.52315
 Alpha  occ. eigenvalues --   -1.28146  -1.03550  -1.01742  -0.95910  -0.85385
 Alpha  occ. eigenvalues --   -0.79786  -0.78406  -0.69871  -0.66766  -0.65557
 Alpha  occ. eigenvalues --   -0.64680  -0.60261  -0.60166  -0.57958  -0.53195
 Alpha  occ. eigenvalues --   -0.40884  -0.39245  -0.36998  -0.32675
 Alpha virt. eigenvalues --    0.02992   0.03393   0.04284   0.05686   0.05805
 Alpha virt. eigenvalues --    0.08944   0.09532   0.09886   0.10352   0.11526
 Alpha virt. eigenvalues --    0.12538   0.12717   0.14552   0.14893   0.15190

 Mulliken charges:
               1
     1  O   -1.329579
     2  O   -1.329579
     3  N    2.055126
     4  C   -1.690164
     5  C   -1.690166
     6  C    1.573783
     7  C    1.573782
     8  C   -0.247318
     9  H    0.374111
    10  H    0.374111
    11  H    0.177420
    12  H    0.079237
    13  H    0.079236
 Sum of Mulliken charges =  -0.00000

 Dipole moment (field-independent basis, Debye):
    X=             -0.0000    Y=              0.7147    Z=             -2.6343  Tot=              2.7295

 Test job not archived.
 1\1\GINC-SE194\SP\RHF\Aug-CC-pVDZ\C5H5N1O2\OHZDE\05-Apr-2025\0\\#t hf
 aug-cc-pvdz iop(5/13=1,5/36=2,99/5=2) pseudo=read geom=check guess=(re
 ad,tcheck) scf=(maxcycle=1)\\title\\0,1\O,0,3.378898,-1.121353,0.15103
 9\O,0,-3.378897,-1.121355,0.151039\N,0,0.,0.726298,-0.101503\C,0,1.173
 373,0.061418,-0.031423\C,0,-1.173373,0.061419,-0.031423\C,0,2.234557,-
 0.498966,-0.039656\C,0,-2.234557,-0.498966,-0.039656\C,0,0.,2.188036,0
 .049856\H,0,3.78879,-1.339293,-0.695372\H,0,-3.788797,-1.33928,-0.6953
 72\H,0,-0.000002,2.478463,1.103218\H,0,0.888064,2.590021,-0.432378\H,0

 Normal termination of Gaussian 16 at Sat Apr  5 22:30:35 2025.
