 Gaussian 16, Revision C.01,

 ----------------------------------------------------------------------
 #t hf aug-cc-pvdz symm=none int=(grid=ultrafine) guess=(read,tcheck) s
 table=(opt,rrhf)
 ----------------------------------------------------------------------
 -----
 title
 -----
 Symbolic Z-matrix:
 Charge =  0 Multiplicity = 1

 SCF Done:  E(RHF) =  -456.162592395     A.U. after   15 cycles
 Normal termination of Gaussian 16 at Sat Apr  5 22:31:38 2025.
 Gaussian 16:  ES64L-G16RevC.01  3-Jul-2019

 ----------------------------------------------------------------------
 #t hf aug-cc-pvdz iop(5/13=1,5/36=2,99/5=2) pseudo=read geom=check gue
 ss=(read,tcheck) scf=(maxcycle=1)
 ----------------------------------------------------------------------
 -----
 title
 -----
 Structure from the checkpoint file:  "2-2--bifuran.chk"
 Charge =  0 Multiplicity = 1

                         Standard orientation:
 ---------------------------------------------------------------------
 Center     Atomic      Atomic             Coordinates (Angstroms)
 Number     Number       Type             X           Y           Z
 ---------------------------------------------------------------------
      1          6           0       -0.340935    2.925198    0.000000
      2          6           0        0.340935   -2.925198    0.000000
      3          6           0       -0.990750    1.654854    0.000000
      4          6           0        0.990750   -1.654854    0.000000
      5          6           0        0.990750    2.673861    0.000000
      6          6           0       -0.990750   -2.673861    0.000000
      7          6           0        0.001025    0.717171    0.000000
      8          6           0       -0.001025   -0.717171    0.000000
      9          8           0        1.221122    1.331017    0.000000
     10          8           0       -1.221122   -1.331017    0.000000
     11          1           0       -0.806983    3.895142    0.000000
     12          1           0        0.806983   -3.895142    0.000000
     13          1           0       -2.047458    1.455961    0.000000
     14          1           0        2.047458   -1.455961    0.000000
     15          1           0        1.864288    3.299524    0.000000
     16          1           0       -1.864288   -3.299524    0.000000
 ---------------------------------------------------------------------

 SCF Done:  E(RHF) =  -456.620787103     A.U. after    2 cycles

 The electronic state is 1-AG.
 Alpha  occ. eigenvalues --  -20.61305 -20.61302 -11.30754 -11.30690 -11.30022
 Alpha  occ. eigenvalues --  -11.30018 -11.24205 -11.24191 -11.24142 -11.24137
 Alpha  occ. eigenvalues --   -1.55229  -1.54576  -1.10262  -1.10019  -1.06442
 Alpha  occ. eigenvalues --   -0.97611  -0.84066  -0.83602  -0.79636  -0.77171
 Alpha  occ. eigenvalues --   -0.76381  -0.69399  -0.65652  -0.62578  -0.61526
 Alpha  occ. eigenvalues --   -0.60981  -0.58903  -0.58191  -0.56684  -0.56035
 Alpha  occ. eigenvalues --   -0.54666  -0.41197  -0.40715  -0.38184  -0.28505
 Alpha virt. eigenvalues --    0.03482   0.03575   0.03792   0.04540   0.05067
 Alpha virt. eigenvalues --    0.06718   0.08043   0.09784   0.10230   0.10656
 Alpha virt. eigenvalues --    0.11128   0.11863   0.12129   0.12888   0.13629

 Mulliken charges:
               1
     1  C    0.328821
     2  C    0.328821
     3  C   -0.182409
     4  C   -0.182409
     5  C    0.549707
     6  C    0.549707
     7  C    1.576474
     8  C    1.576474
     9  O   -1.718226
    10  O   -1.718226
    11  H   -0.148739
    12  H   -0.148739
    13  H   -0.228476
    14  H   -0.228476
    15  H   -0.177150
    16  H   -0.177150
 Sum of Mulliken charges =  -0.00000

 Dipole moment (field-independent basis, Debye):
    X=             -0.0000    Y=              0.0000    Z=              0.0000  Tot=              0.0000

 Test job not archived.
 1\1\GINC-SE183\SP\RHF\Aug-CC-pVDZ\C8H6O2\OHZDE\05-Apr-2025\0\\#t hf au
 g-cc-pvdz iop(5/13=1,5/36=2,99/5=2) pseudo=read geom=check guess=(read
 ,tcheck) scf=(maxcycle=1)\\title\\0,1\C,0,-0.340935,2.925198,0.\C,0,0.
 340935,-2.925198,0.\C,0,-0.99075,1.654854,0.\C,0,0.99075,-1.654854,0.\
 C,0,0.99075,2.673861,0.\C,0,-0.99075,-2.673861,0.\C,0,0.001025,0.71717
 1,0.\C,0,-0.001025,-0.717171,0.\O,0,1.221122,1.331017,0.\O,0,-1.221122
 ,-1.331017,0.\H,0,-0.806983,3.895142,0.\H,0,0.806983,-3.895142,0.\H,0,
 -2.047458,1.455961,0.\H,0,2.047458,-1.455961,0.\H,0,1.864288,3.299524,

 Normal termination of Gaussian 16 at Sat Apr  5 22:32:18 2025.
