 Gaussian 16, Revision C.01,

 ----------------------------------------------------------------------
 #t hf aug-cc-pvdz symm=none int=(grid=ultrafine) guess=(read,tcheck) s
 table=(opt,rrhf)
 ----------------------------------------------------------------------
 -----
 title
 -----
 Symbolic Z-matrix:
 Charge =  0 Multiplicity = 1

 SCF Done:  E(RHF) =  -196.355001592     A.U. after   10 cycles
 Normal termination of Gaussian 16 at Sat Apr  5 22:32:49 2025.
 Gaussian 16:  ES64L-G16RevC.01  3-Jul-2019

 ----------------------------------------------------------------------
 #t hf aug-cc-pvdz iop(5/13=1,5/36=2,99/5=2) pseudo=read geom=check gue
 ss=(read,tcheck) scf=(maxcycle=1)
 ----------------------------------------------------------------------
 -----
 title
 -----
 Structure from the checkpoint file:  "2-2-dimethylpropane.chk"
 Charge =  0 Multiplicity = 1

                         Standard orientation:
 ---------------------------------------------------------------------
 Center     Atomic      Atomic             Coordinates (Angstroms)
 Number     Number       Type             X           Y           Z
 ---------------------------------------------------------------------
      1          6           0        0.000000    0.000000    0.000000
      2          6           0        0.886726    0.886726    0.886726
      3          6           0       -0.886726   -0.886726    0.886726
      4          6           0        0.886726   -0.886726   -0.886726
      5          6           0       -0.886726    0.886726   -0.886726
      6          1           0       -1.529798    0.282357   -1.529798
      7          1           0        1.529798    1.529798    0.282357
      8          1           0        1.529798   -0.282357   -1.529798
      9          1           0        1.529798    0.282357    1.529798
     10          1           0       -1.529798   -0.282357    1.529798
     11          1           0        1.529798   -1.529798   -0.282357
     12          1           0       -0.282357    1.529798   -1.529798
     13          1           0        0.282357    1.529798    1.529798
     14          1           0        0.282357   -1.529798   -1.529798
     15          1           0       -0.282357   -1.529798    1.529798
     16          1           0       -1.529798    1.529798   -0.282357
     17          1           0       -1.529798   -1.529798    0.282357
 ---------------------------------------------------------------------

 SCF Done:  E(RHF) =  -196.579812421     A.U. after    2 cycles

 The electronic state is 1-A1.
 Alpha  occ. eigenvalues --  -11.23566 -11.21644 -11.21644 -11.21644 -11.21597
 Alpha  occ. eigenvalues --   -1.10411  -0.92987  -0.92987  -0.92987  -0.73702
 Alpha  occ. eigenvalues --   -0.61743  -0.61743  -0.61743  -0.55840  -0.55840
 Alpha  occ. eigenvalues --   -0.51602  -0.51602  -0.51602  -0.46136  -0.46136
 Alpha  occ. eigenvalues --   -0.46136
 Alpha virt. eigenvalues --    0.03978   0.04018   0.04018   0.04018   0.06629
 Alpha virt. eigenvalues --    0.06629   0.06629   0.06962   0.06962   0.09821
 Alpha virt. eigenvalues --    0.09821   0.09821   0.12187   0.14530   0.14530

 Mulliken charges:
               1
     1  C   -3.612572
     2  C    0.348155
     3  C    0.348155
     4  C    0.348155
     5  C    0.348155
     6  H    0.184996
     7  H    0.184996
     8  H    0.184996
     9  H    0.184996
    10  H    0.184996
    11  H    0.184996
    12  H    0.184996
    13  H    0.184996
    14  H    0.184996
    15  H    0.184996
    16  H    0.184996
    17  H    0.184996
 Sum of Mulliken charges =  -0.00000

 Dipole moment (field-independent basis, Debye):
    X=             -0.0000    Y=              0.0000    Z=             -0.0000  Tot=              0.0000

 Test job not archived.
 1\1\GINC-SE041\SP\RHF\Aug-CC-pVDZ\C5H12\OHZDE\05-Apr-2025\0\\#t hf aug
 -cc-pvdz iop(5/13=1,5/36=2,99/5=2) pseudo=read geom=check guess=(read,
 tcheck) scf=(maxcycle=1)\\title\\0,1\C,0,0.,0.,0.\C,0,0.886726,0.88672
 6,0.886726\C,0,-0.886726,-0.886726,0.886726\C,0,0.886726,-0.886726,-0.
 886726\C,0,-0.886726,0.886726,-0.886726\H,0,-1.529798,0.282357,-1.5297
 98\H,0,1.529798,1.529798,0.282357\H,0,1.529798,-0.282357,-1.529798\H,0
 ,1.529798,0.282357,1.529798\H,0,-1.529798,-0.282357,1.529798\H,0,1.529
 798,-1.529798,-0.282357\H,0,-0.282357,1.529798,-1.529798\H,0,0.282357,

 Normal termination of Gaussian 16 at Sat Apr  5 22:33:22 2025.
