 Gaussian 16, Revision C.01,

 ----------------------------------------------------------------------
 #t hf aug-cc-pvdz symm=none int=(grid=ultrafine) guess=(read,tcheck) s
 table=(opt,rrhf)
 ----------------------------------------------------------------------
 -----
 title
 -----
 Symbolic Z-matrix:
 Charge =  0 Multiplicity = 1

 SCF Done:  E(RHF) =  -432.174330428     A.U. after   17 cycles
 Normal termination of Gaussian 16 at Sat Apr  5 22:32:35 2025.
 Gaussian 16:  ES64L-G16RevC.01  3-Jul-2019

 ----------------------------------------------------------------------
 #t hf aug-cc-pvdz iop(5/13=1,5/36=2,99/5=2) pseudo=read geom=check gue
 ss=(read,tcheck) scf=(maxcycle=1)
 ----------------------------------------------------------------------
 -----
 title
 -----
 Structure from the checkpoint file:  "2-2-oxoethylideneaminooxyethenone.chk"
 Charge =  0 Multiplicity = 1

                         Standard orientation:
 ---------------------------------------------------------------------
 Center     Atomic      Atomic             Coordinates (Angstroms)
 Number     Number       Type             X           Y           Z
 ---------------------------------------------------------------------
      1          8           0       -0.632058    0.672130   -0.429729
      2          8           0       -3.588830   -0.935067   -0.145234
      3          8           0        3.802898   -0.381162   -0.172489
      4          7           0        0.433297    0.185855    0.340131
      5          6           0       -1.809404    0.727301    0.307417
      6          6           0        1.516191    0.170796   -0.329905
      7          6           0       -2.745700   -0.171725    0.074575
      8          6           0        2.724311   -0.315122    0.366593
      9          1           0       -1.953915    1.509033    1.036401
     10          1           0        1.584308    0.490399   -1.366547
     11          1           0        2.568061   -0.615137    1.416763
 ---------------------------------------------------------------------

 SCF Done:  E(RHF) =  -432.591053944     A.U. after    2 cycles

 The electronic state is 1-A.
 Alpha  occ. eigenvalues --  -20.64062 -20.64025 -20.57439 -15.61922 -11.41052
 Alpha  occ. eigenvalues --  -11.36819 -11.31985 -11.31714  -1.57898  -1.56021
 Alpha  occ. eigenvalues --   -1.50162  -1.24625  -1.06237  -0.95014  -0.82848
 Alpha  occ. eigenvalues --   -0.79718  -0.76460  -0.74574  -0.73055  -0.66659
 Alpha  occ. eigenvalues --   -0.66175  -0.65172  -0.62887  -0.59932  -0.55793
 Alpha  occ. eigenvalues --   -0.52743  -0.45432  -0.44965  -0.37987
 Alpha virt. eigenvalues --    0.03131   0.03640   0.04645   0.04765   0.06632
 Alpha virt. eigenvalues --    0.07724   0.09179   0.09315   0.09973   0.10296
 Alpha virt. eigenvalues --    0.10864   0.13017   0.13247   0.14078   0.14436

 Mulliken charges:
               1
     1  O   -1.369060
     2  O   -0.797266
     3  O   -1.077967
     4  N    1.335095
     5  C    1.163980
     6  C   -0.777219
     7  C    0.313244
     8  C    1.089065
     9  H    0.050688
    10  H   -0.044452
    11  H    0.113891
 Sum of Mulliken charges =  -0.00000

 Dipole moment (field-independent basis, Debye):
    X=             -1.1580    Y=              1.1707    Z=              0.6788  Tot=              1.7811

 Test job not archived.
 1\1\GINC-SE176\SP\RHF\Aug-CC-pVDZ\C4H3N1O3\OHZDE\05-Apr-2025\0\\#t hf
 aug-cc-pvdz iop(5/13=1,5/36=2,99/5=2) pseudo=read geom=check guess=(re
 ad,tcheck) scf=(maxcycle=1)\\title\\0,1\O,0,-0.632058,0.67213,-0.42972
 9\O,0,-3.58883,-0.935067,-0.145234\O,0,3.802898,-0.381162,-0.172489\N,
 0,0.433297,0.185855,0.340131\C,0,-1.809404,0.727301,0.307417\C,0,1.516
 191,0.170796,-0.329905\C,0,-2.7457,-0.171725,0.074575\C,0,2.724311,-0.
 315122,0.366593\H,0,-1.953915,1.509033,1.036401\H,0,1.584308,0.490399,
 -1.366547\H,0,2.568061,-0.615137,1.416763\\Version=ES64L-G16RevC.01\St

 Normal termination of Gaussian 16 at Sat Apr  5 22:32:40 2025.
