 Gaussian 16, Revision C.01,

 ----------------------------------------------------------------------
 #t hf aug-cc-pvdz symm=none int=(grid=ultrafine) guess=(read,tcheck) s
 table=(opt,rrhf)
 ----------------------------------------------------------------------
 -----
 title
 -----
 Symbolic Z-matrix:
 Charge =  0 Multiplicity = 1

 SCF Done:  E(RHF) =  -313.460817111     A.U. after   12 cycles
 Normal termination of Gaussian 16 at Sat Apr  5 22:32:43 2025.
 Gaussian 16:  ES64L-G16RevC.01  3-Jul-2019

 ----------------------------------------------------------------------
 #t hf aug-cc-pvdz iop(5/13=1,5/36=2,99/5=2) pseudo=read geom=check gue
 ss=(read,tcheck) scf=(maxcycle=1)
 ----------------------------------------------------------------------
 -----
 title
 -----
 Structure from the checkpoint file:  "2-2-4-trimethylpentane.chk"
 Charge =  0 Multiplicity = 1

                         Standard orientation:
 ---------------------------------------------------------------------
 Center     Atomic      Atomic             Coordinates (Angstroms)
 Number     Number       Type             X           Y           Z
 ---------------------------------------------------------------------
      1          6           0       -1.846468    1.363840   -0.077215
      2          6           0       -2.662406   -1.005759   -0.096294
      3          6           0        2.238415   -1.049347   -0.534903
      4          6           0        1.347049    0.062739    1.517236
      5          6           0        1.470851    1.310380   -0.660535
      6          6           0       -0.206189   -0.619162   -0.388682
      7          6           0       -1.491679   -0.085189    0.274492
      8          6           0        1.189357   -0.053191   -0.006364
      9          1           0       -1.878530    1.507566   -1.160137
     10          1           0       -2.830639    1.621044    0.318884
     11          1           0       -1.136791    2.079950    0.332372
     12          1           0       -2.842778   -0.992361   -1.174393
     13          1           0       -3.583115   -0.688469    0.396236
     14          1           0       -2.465759   -2.039230    0.193579
     15          1           0        2.126690   -2.027904   -0.064042
     16          1           0        3.250825   -0.693599   -0.333918
     17          1           0        2.141559   -1.185634   -1.614225
     18          1           0        2.366909    0.355952    1.774490
     19          1           0        0.675201    0.809842    1.941318
     20          1           0        1.141903   -0.890029    2.010264
     21          1           0        0.817786    2.095891   -0.286579
     22          1           0        2.499514    1.619425   -0.462797
     23          1           0        1.343993    1.257474   -1.743806
     24          1           0       -0.175142   -1.692454   -0.177183
     25          1           0       -0.319174   -0.537597   -1.476057
     26          1           0       -1.366031   -0.145726    1.359582
 ---------------------------------------------------------------------

 SCF Done:  E(RHF) =  -313.815212276     A.U. after    2 cycles

 The electronic state is 1-A.
 Alpha  occ. eigenvalues --  -11.23575 -11.22835 -11.21803 -11.21686 -11.21635
 Alpha  occ. eigenvalues --  -11.21617 -11.21539 -11.21411  -1.11530  -1.06018
 Alpha  occ. eigenvalues --   -0.93642  -0.93055  -0.92141  -0.91730  -0.78334
 Alpha  occ. eigenvalues --   -0.72980  -0.64652  -0.62420  -0.61790  -0.59932
 Alpha  occ. eigenvalues --   -0.57757  -0.56226  -0.54802  -0.54171  -0.53391
 Alpha  occ. eigenvalues --   -0.51679  -0.51283  -0.49848  -0.47739  -0.47212
 Alpha  occ. eigenvalues --   -0.45398  -0.44591  -0.43605
 Alpha virt. eigenvalues --    0.03314   0.03401   0.03496   0.04051   0.05485
 Alpha virt. eigenvalues --    0.05539   0.05716   0.06051   0.06276   0.08394
 Alpha virt. eigenvalues --    0.08586   0.08766   0.09017   0.09502   0.09783

 Mulliken charges:
               1
     1  C    0.011132
     2  C   -0.174413
     3  C    0.306231
     4  C    0.157311
     5  C    0.182532
     6  C    0.289008
     7  C   -1.110036
     8  C   -2.668872
     9  H    0.200902
    10  H    0.070376
    11  H    0.164577
    12  H    0.245488
    13  H    0.133921
    14  H    0.149962
    15  H    0.190742
    16  H    0.145908
    17  H    0.232199
    18  H    0.130129
    19  H    0.203696
    20  H    0.211255
    21  H    0.153705
    22  H    0.207065
    23  H    0.181413
    24  H    0.137322
    25  H    0.109220
    26  H    0.139226
 Sum of Mulliken charges =  -0.00000

 Dipole moment (field-independent basis, Debye):
    X=             -0.0099    Y=             -0.0182    Z=              0.1170  Tot=              0.1189

 Test job not archived.
 1\1\GINC-SE180\SP\RHF\Aug-CC-pVDZ\C8H18\OHZDE\05-Apr-2025\0\\#t hf aug
 -cc-pvdz iop(5/13=1,5/36=2,99/5=2) pseudo=read geom=check guess=(read,
 tcheck) scf=(maxcycle=1)\\title\\0,1\C,0,-1.846468,1.36384,-0.077215\C
 ,0,-2.662406,-1.005759,-0.096294\C,0,2.238415,-1.049347,-0.534903\C,0,
 1.347049,0.062739,1.517236\C,0,1.470851,1.31038,-0.660535\C,0,-0.20618
 9,-0.619162,-0.388682\C,0,-1.491679,-0.085189,0.274492\C,0,1.189357,-0
 .053191,-0.006364\H,0,-1.87853,1.507566,-1.160137\H,0,-2.830639,1.6210
 44,0.318884\H,0,-1.136791,2.07995,0.332372\H,0,-2.842778,-0.992361,-1.

 Normal termination of Gaussian 16 at Sat Apr  5 22:33:34 2025.
