 Gaussian 16, Revision C.01,

 ----------------------------------------------------------------------
 #t hf aug-cc-pvdz symm=none int=(grid=ultrafine) guess=(read,tcheck) s
 table=(opt,rrhf)
 ----------------------------------------------------------------------
 -----
 title
 -----
 Symbolic Z-matrix:
 Charge =  0 Multiplicity = 1

 SCF Done:  E(RHF) =  -1992.99313943     A.U. after   12 cycles

 1\1\GINC-SE084\Stability\RHF\Aug-CC-pVDZ\C4H6Cl4\OHZDE\05-Apr-2025\0\\
 #t hf aug-cc-pvdz symm=none int=(grid=ultrafine) guess=(read,tcheck) s
 table=(opt,rrhf)\\title\\0,1\C,0,1.119788,1.638607,0.\C,0,-1.119788,-1
 .638607,0.\C,0,-0.125681,0.772915,0.\C,0,0.125681,-0.772915,0.\Cl,0,-1
 .119788,1.196241,1.462338\Cl,0,-1.119788,1.196241,-1.462338\Cl,0,1.119
 788,-1.196241,-1.462338\Cl,0,1.119788,-1.196241,1.462338\H,0,1.713774,
 1.435038,0.887218\H,0,1.713774,1.435038,-0.887218\H,0,0.825079,2.68419
 9,0.\H,0,-0.825079,-2.684199,0.\H,0,-1.713774,-1.435038,-0.887218\H,0,

 Normal termination of Gaussian 16 at Sat Apr  5 22:31:24 2025.
 Gaussian 16:  ES64L-G16RevC.01  3-Jul-2019

 ----------------------------------------------------------------------
 #t hf aug-cc-pvdz iop(5/13=1,5/36=2,99/5=2) pseudo=read geom=check gue
 ss=(read,tcheck) scf=(maxcycle=1)
 ----------------------------------------------------------------------
 -----
 title
 -----
 Structure from the checkpoint file:  "2-2-3-3-tetrachlorobutane.chk"
 Charge =  0 Multiplicity = 1

                         Standard orientation:
 ---------------------------------------------------------------------
 Center     Atomic      Atomic             Coordinates (Angstroms)
 Number     Number       Type             X           Y           Z
 ---------------------------------------------------------------------
      1          6           0        1.119788    1.638607   -0.000000
      2          6           0       -1.119788   -1.638607   -0.000000
      3          6           0       -0.125681    0.772915   -0.000000
      4          6           0        0.125681   -0.772915   -0.000000
      5         17           0       -1.119788    1.196241    1.462338
      6         17           0       -1.119788    1.196241   -1.462338
      7         17           0        1.119788   -1.196241   -1.462338
      8         17           0        1.119788   -1.196241    1.462338
      9          1           0        1.713774    1.435038    0.887218
     10          1           0        1.713774    1.435038   -0.887218
     11          1           0        0.825079    2.684199   -0.000000
     12          1           0       -0.825079   -2.684199   -0.000000
     13          1           0       -1.713774   -1.435038   -0.887218
     14          1           0       -1.713774   -1.435038    0.887218
 ---------------------------------------------------------------------

 SCF Done:  E(RHF) =  -1993.46001147     A.U. after    2 cycles

 The electronic state is 1-AG.
 Alpha  occ. eigenvalues -- -105.58415-105.58415-105.58415-105.58415 -11.41218
 Alpha  occ. eigenvalues --  -11.41198 -11.26153 -11.26144 -10.63239 -10.63236
 Alpha  occ. eigenvalues --  -10.63234 -10.63230  -7.80182  -7.80176  -7.80172
 Alpha  occ. eigenvalues --   -7.80169  -7.79789  -7.79785  -7.79784  -7.79782
 Alpha  occ. eigenvalues --   -7.79775  -7.79770  -7.79770  -7.79766  -1.22865
 Alpha  occ. eigenvalues --   -1.14151  -1.06732  -1.04233  -1.02113  -0.99616
 Alpha  occ. eigenvalues --   -0.89363  -0.75802  -0.68826  -0.66529  -0.65455
 Alpha  occ. eigenvalues --   -0.63793  -0.58915  -0.58664  -0.55927  -0.55621
 Alpha  occ. eigenvalues --   -0.53510  -0.49628  -0.49290  -0.48848  -0.48349
 Alpha  occ. eigenvalues --   -0.47090  -0.46792  -0.45493  -0.44111
 Alpha virt. eigenvalues --    0.04048   0.04295   0.05459   0.05543   0.06152
 Alpha virt. eigenvalues --    0.06227   0.08361   0.09350   0.09860   0.09977
 Alpha virt. eigenvalues --    0.12232   0.12370   0.14114   0.14352   0.15112

 Mulliken charges:
               1
     1  C    0.059841
     2  C    0.059841
     3  C   -0.714556
     4  C   -0.714556
     5  Cl  -0.016599
     6  Cl  -0.016599
     7  Cl  -0.016599
     8  Cl  -0.016599
     9  H    0.252677
    10  H    0.252677
    11  H    0.182559
    12  H    0.182559
    13  H    0.252677
    14  H    0.252677
 Sum of Mulliken charges =  -0.00000

 Dipole moment (field-independent basis, Debye):
    X=             -0.0000    Y=             -0.0000    Z=              0.0000  Tot=              0.0000

 Test job not archived.
 1\1\GINC-SE084\SP\RHF\Aug-CC-pVDZ\C4H6Cl4\OHZDE\05-Apr-2025\0\\#t hf a
 ug-cc-pvdz iop(5/13=1,5/36=2,99/5=2) pseudo=read geom=check guess=(rea
 d,tcheck) scf=(maxcycle=1)\\title\\0,1\C,0,1.119788,1.638607,0.\C,0,-1
 .119788,-1.638607,0.\C,0,-0.125681,0.772915,0.\C,0,0.125681,-0.772915,
 0.\Cl,0,-1.119788,1.196241,1.462338\Cl,0,-1.119788,1.196241,-1.462338\
 Cl,0,1.119788,-1.196241,-1.462338\Cl,0,1.119788,-1.196241,1.462338\H,0
 ,1.713774,1.435038,0.887218\H,0,1.713774,1.435038,-0.887218\H,0,0.8250
 79,2.684199,0.\H,0,-0.825079,-2.684199,0.\H,0,-1.713774,-1.435038,-0.8

 Normal termination of Gaussian 16 at Sat Apr  5 22:32:19 2025.
