 Gaussian 16, Revision C.01,

 ----------------------------------------------------------------------
 #t hf aug-cc-pvdz symm=none int=(grid=ultrafine) guess=(read,tcheck) s
 table=(opt,rrhf)
 ----------------------------------------------------------------------
 -----
 title
 -----
 Symbolic Z-matrix:
 Charge =  0 Multiplicity = 1

 SCF Done:  E(RHF) =  -443.614036895     A.U. after   14 cycles
 Normal termination of Gaussian 16 at Sat Apr  5 22:32:27 2025.
 Gaussian 16:  ES64L-G16RevC.01  3-Jul-2019

 ----------------------------------------------------------------------
 #t hf aug-cc-pvdz iop(5/13=1,5/36=2,99/5=2) pseudo=read geom=check gue
 ss=(read,tcheck) scf=(maxcycle=1)
 ----------------------------------------------------------------------
 -----
 title
 -----
 Structure from the checkpoint file:  "2-2-difluoro-2-isocyanatoethane.chk"
 Charge =  0 Multiplicity = 1

                         Standard orientation:
 ---------------------------------------------------------------------
 Center     Atomic      Atomic             Coordinates (Angstroms)
 Number     Number       Type             X           Y           Z
 ---------------------------------------------------------------------
      1          9           0       -0.777482   -0.846334    1.091554
      2          9           0       -0.777487   -0.846342   -1.091545
      3          8           0        2.802791    0.007738   -0.000006
      4          7           0        0.529576    0.669815   -0.000003
      5          6           0       -0.715131   -0.014559    0.000002
      6          6           0       -1.891632    0.924090    0.000000
      7          6           0        1.670848    0.263476   -0.000005
      8          1           0       -2.809445    0.341143    0.000005
      9          1           0       -1.854854    1.552140   -0.887058
     10          1           0       -1.854850    1.552146    0.887056
 ---------------------------------------------------------------------

 SCF Done:  E(RHF) =  -444.036666061     A.U. after    2 cycles

 The electronic state is 1-A.
 Alpha  occ. eigenvalues --  -26.49141 -26.49138 -20.63160 -15.54886 -11.48764
 Alpha  occ. eigenvalues --  -11.44698 -11.26519  -1.66218  -1.59008  -1.57879
 Alpha  occ. eigenvalues --   -1.31177  -1.08382  -0.95117  -0.83578  -0.77713
 Alpha  occ. eigenvalues --   -0.76271  -0.74914  -0.68981  -0.68448  -0.65605
 Alpha  occ. eigenvalues --   -0.65301  -0.61658  -0.59774  -0.58586  -0.56294
 Alpha  occ. eigenvalues --   -0.51644  -0.49435
 Alpha virt. eigenvalues --    0.03407   0.05101   0.05346   0.06889   0.09059
 Alpha virt. eigenvalues --    0.09615   0.09942   0.11768   0.12340   0.12638
 Alpha virt. eigenvalues --    0.14403   0.15484   0.15932   0.16002   0.17478

 Mulliken charges:
               1
     1  F   -0.822012
     2  F   -0.822012
     3  O   -0.842641
     4  N    0.696858
     5  C    1.191134
     6  C   -0.363141
     7  C    0.352861
     8  H    0.194377
     9  H    0.207287
    10  H    0.207291
 Sum of Mulliken charges =  -0.00000

 Dipole moment (field-independent basis, Debye):
    X=             -1.4827    Y=              1.3336    Z=              0.0000  Tot=              1.9942

 Test job not archived.
 1\1\GINC-SE013\SP\RHF\Aug-CC-pVDZ\C3H3F2N1O1\OHZDE\05-Apr-2025\0\\#t h
 f aug-cc-pvdz iop(5/13=1,5/36=2,99/5=2) pseudo=read geom=check guess=(
 read,tcheck) scf=(maxcycle=1)\\title\\0,1\F,0,-0.777482,-0.846334,1.09
 1554\F,0,-0.777487,-0.846342,-1.091545\O,0,2.802791,0.007738,-0.000006
 \N,0,0.529576,0.669815,-0.000003\C,0,-0.715131,-0.014559,0.000002\C,0,
 -1.891632,0.92409,0.\C,0,1.670848,0.263476,-0.000005\H,0,-2.809445,0.3
 41143,0.000005\H,0,-1.854854,1.55214,-0.887058\H,0,-1.85485,1.552146,0
 .887056\\Version=ES64L-G16RevC.01\State=1-A\HF=-444.0366661\RMSD=1.263

 Normal termination of Gaussian 16 at Sat Apr  5 22:32:31 2025.
