 Gaussian 16, Revision C.01,

 ----------------------------------------------------------------------
 #t hf aug-cc-pvdz symm=none int=(grid=ultrafine) guess=(read,tcheck) s
 table=(opt,rrhf)
 ----------------------------------------------------------------------
 -----
 title
 -----
 Symbolic Z-matrix:
 Charge =  0 Multiplicity = 1

 SCF Done:  E(RHF) =  -450.729328181     A.U. after   12 cycles
 Normal termination of Gaussian 16 at Sat Apr  5 22:30:46 2025.
 Gaussian 16:  ES64L-G16RevC.01  3-Jul-2019

 ----------------------------------------------------------------------
 #t hf aug-cc-pvdz iop(5/13=1,5/36=2,99/5=2) pseudo=read geom=check gue
 ss=(read,tcheck) scf=(maxcycle=1)
 ----------------------------------------------------------------------
 -----
 title
 -----
 Structure from the checkpoint file:  "2-2-2-trifluoroethanol.chk"
 Charge =  0 Multiplicity = 1

                         Standard orientation:
 ---------------------------------------------------------------------
 Center     Atomic      Atomic             Coordinates (Angstroms)
 Number     Number       Type             X           Y           Z
 ---------------------------------------------------------------------
      1          6           0        0.903475    0.760982   -0.089733
      2          6           0       -0.418912    0.014271    0.005675
      3          8           0        2.010756   -0.082096    0.112517
      4          9           0       -0.478794   -0.982705   -0.908971
      5          9           0       -1.449314    0.849658   -0.237742
      6          9           0       -0.616843   -0.540066    1.211194
      7          1           0        0.924062    1.263938   -1.060758
      8          1           0        0.919466    1.514977    0.695005
      9          1           0        2.067608   -0.715645   -0.610367
 ---------------------------------------------------------------------

 SCF Done:  E(RHF) =  -451.154342515     A.U. after    2 cycles

 The electronic state is 1-A.
 Alpha  occ. eigenvalues --  -26.51138 -26.51056 -26.50738 -20.58439 -11.52042
 Alpha  occ. eigenvalues --  -11.33173  -1.71673  -1.61722  -1.61537  -1.48735
 Alpha  occ. eigenvalues --   -1.05227  -0.91513  -0.81724  -0.81467  -0.79825
 Alpha  occ. eigenvalues --   -0.72205  -0.69454  -0.68179  -0.64858  -0.64061
 Alpha  occ. eigenvalues --   -0.62579  -0.62336  -0.61195  -0.53962  -0.48547
 Alpha virt. eigenvalues --    0.03460   0.04700   0.05470   0.08022   0.11093
 Alpha virt. eigenvalues --    0.11436   0.12000   0.12143   0.15265   0.16505
 Alpha virt. eigenvalues --    0.20380   0.20491   0.21135   0.25248   0.25793

 Mulliken charges:
               1
     1  C    0.393687
     2  C    2.311416
     3  O   -1.053601
     4  F   -0.760076
     5  F   -0.735737
     6  F   -0.722541
     7  H    0.170601
     8  H    0.102958
     9  H    0.293294
 Sum of Mulliken charges =  -0.00000

 Dipole moment (field-independent basis, Debye):
    X=              0.9945    Y=              0.9027    Z=             -1.3523  Tot=              1.9060

 Test job not archived.
 1\1\GINC-SE052\SP\RHF\Aug-CC-pVDZ\C2H3F3O1\OHZDE\05-Apr-2025\0\\#t hf
 aug-cc-pvdz iop(5/13=1,5/36=2,99/5=2) pseudo=read geom=check guess=(re
 ad,tcheck) scf=(maxcycle=1)\\title\\0,1\C,0,0.903475,0.760982,-0.08973
 3\C,0,-0.418912,0.014271,0.005675\O,0,2.010756,-0.082096,0.112517\F,0,
 -0.478794,-0.982705,-0.908971\F,0,-1.449314,0.849658,-0.237742\F,0,-0.
 616843,-0.540066,1.211194\H,0,0.924062,1.263938,-1.060758\H,0,0.919466
 ,1.514977,0.695005\H,0,2.067608,-0.715645,-0.610367\\Version=ES64L-G16
 RevC.01\State=1-A\HF=-451.1543425\RMSD=6.389e-03\Dipole=0.39125,0.3551

 Normal termination of Gaussian 16 at Sat Apr  5 22:32:17 2025.
