 Gaussian 16, Revision C.01,

 ----------------------------------------------------------------------
 #t hf aug-cc-pvdz symm=none int=(grid=ultrafine) guess=(read,tcheck) s
 table=(opt,rrhf)
 ----------------------------------------------------------------------
 -----
 title
 -----
 Symbolic Z-matrix:
 Charge =  0 Multiplicity = 1

 SCF Done:  E(RHF) =  -1109.89876709     A.U. after   13 cycles
 Normal termination of Gaussian 16 at Sat Apr  5 22:32:29 2025.
 Gaussian 16:  ES64L-G16RevC.01  3-Jul-2019

 ----------------------------------------------------------------------
 #t hf aug-cc-pvdz iop(5/13=1,5/36=2,99/5=2) pseudo=read geom=check gue
 ss=(read,tcheck) scf=(maxcycle=1)
 ----------------------------------------------------------------------
 -----
 title
 -----
 Structure from the checkpoint file:  "2-2-difluoro-1-3-dithiolane.chk"
 Charge =  0 Multiplicity = 1

                         Standard orientation:
 ---------------------------------------------------------------------
 Center     Atomic      Atomic             Coordinates (Angstroms)
 Number     Number       Type             X           Y           Z
 ---------------------------------------------------------------------
      1         16           0       -0.180530   -1.510125    0.096697
      2         16           0       -0.180530    1.510125   -0.096698
      3          9           0        1.690299   -0.019073   -1.077617
      4          9           0        1.690298    0.019073    1.077618
      5          6           0        0.856748   -0.000000   -0.000000
      6          6           0       -1.750263   -0.681445   -0.334640
      7          6           0       -1.750262    0.681445    0.334641
      8          1           0       -2.551770   -1.315256    0.043945
      9          1           0       -1.841107   -0.594140   -1.415457
     10          1           0       -2.551770    1.315257   -0.043944
     11          1           0       -1.841105    0.594141    1.415458
 ---------------------------------------------------------------------

 SCF Done:  E(RHF) =  -1110.31757558     A.U. after    2 cycles

 The electronic state is 1-A.
 Alpha  occ. eigenvalues --  -93.97762 -93.97761 -26.48927 -26.48925 -11.48087
 Alpha  occ. eigenvalues --  -11.30342 -11.30316  -8.25944  -8.25937  -6.23725
 Alpha  occ. eigenvalues --   -6.23725  -6.23587  -6.23585  -6.23344  -6.23343
 Alpha  occ. eigenvalues --   -1.66213  -1.58584  -1.17123  -1.04552  -1.01651
 Alpha  occ. eigenvalues --   -0.85739  -0.85736  -0.75744  -0.72911  -0.72407
 Alpha  occ. eigenvalues --   -0.66675  -0.65510  -0.65070  -0.60934  -0.58622
 Alpha  occ. eigenvalues --   -0.57280  -0.50919  -0.50354  -0.45312  -0.40034
 Alpha  occ. eigenvalues --   -0.38233
 Alpha virt. eigenvalues --    0.02719   0.04192   0.04301   0.06101   0.07346
 Alpha virt. eigenvalues --    0.08395   0.08756   0.11869   0.11931   0.12387
 Alpha virt. eigenvalues --    0.12458   0.14139   0.14558   0.15130   0.15719

 Mulliken charges:
               1
     1  S    0.549394
     2  S    0.549394
     3  F   -0.723762
     4  F   -0.723762
     5  C    0.835395
     6  C   -0.661542
     7  C   -0.661546
     8  H    0.223320
     9  H    0.194893
    10  H    0.223323
    11  H    0.194892
 Sum of Mulliken charges =  -0.00000

 Dipole moment (field-independent basis, Debye):
    X=             -4.0688    Y=              0.0000    Z=              0.0000  Tot=              4.0688

 Test job not archived.
 1\1\GINC-SE010\SP\RHF\Aug-CC-pVDZ\C3H4F2S2\OHZDE\05-Apr-2025\0\\#t hf
 aug-cc-pvdz iop(5/13=1,5/36=2,99/5=2) pseudo=read geom=check guess=(re
 ad,tcheck) scf=(maxcycle=1)\\title\\0,1\S,0,-0.18053,-1.510125,0.09669
 7\S,0,-0.18053,1.510125,-0.096698\F,0,1.690299,-0.019073,-1.077617\F,0
 ,1.690298,0.019073,1.077618\C,0,0.856748,0.,0.\C,0,-1.750263,-0.681445
 ,-0.33464\C,0,-1.750262,0.681445,0.334641\H,0,-2.55177,-1.315256,0.043
 945\H,0,-1.841107,-0.59414,-1.415457\H,0,-2.55177,1.315257,-0.043944\H
 ,0,-1.841105,0.594141,1.415458\\Version=ES64L-G16RevC.01\State=1-A\HF=

 Normal termination of Gaussian 16 at Sat Apr  5 22:32:34 2025.
