 Gaussian 16, Revision C.01,

 ----------------------------------------------------------------------
 #t hf aug-cc-pvdz symm=none int=(grid=ultrafine) guess=(read,tcheck) s
 table=(opt,rrhf)
 ----------------------------------------------------------------------
 -----
 title
 -----
 Symbolic Z-matrix:
 Charge =  0 Multiplicity = 1

 SCF Done:  E(RHF) =  -552.808131376     A.U. after   12 cycles
 Normal termination of Gaussian 16 at Sat Apr  5 22:31:02 2025.
 Gaussian 16:  ES64L-G16RevC.01  3-Jul-2019

 ----------------------------------------------------------------------
 #t hf aug-cc-pvdz iop(5/13=1,5/36=2,99/5=2) pseudo=read geom=check gue
 ss=(read,tcheck) scf=(maxcycle=1)
 ----------------------------------------------------------------------
 -----
 title
 -----
 Structure from the checkpoint file:  "2-2-3-3-tetrafluorobutane.chk"
 Charge =  0 Multiplicity = 1

                         Standard orientation:
 ---------------------------------------------------------------------
 Center     Atomic      Atomic             Coordinates (Angstroms)
 Number     Number       Type             X           Y           Z
 ---------------------------------------------------------------------
      1          6           0        0.328548    1.572029    1.131282
      2          6           0       -0.328548   -1.572029    1.131282
      3          6           0       -0.204552    0.748232   -0.013408
      4          6           0        0.204552   -0.748232   -0.013408
      5          9           0       -1.578360    0.789917   -0.017302
      6          9           0        0.204552    1.293625   -1.195961
      7          9           0       -0.204552   -1.293625   -1.195961
      8          9           0        1.578360   -0.789917   -0.017302
      9          1           0       -0.001444    2.599626    0.991670
     10          1           0       -0.053588    1.204459    2.080962
     11          1           0        1.415266    1.540080    1.139481
     12          1           0       -1.415266   -1.540080    1.139481
     13          1           0        0.001444   -2.599626    0.991670
     14          1           0        0.053588   -1.204459    2.080962
 ---------------------------------------------------------------------

 SCF Done:  E(RHF) =  -553.334638419     A.U. after    2 cycles

 The electronic state is 1-A.
 Alpha  occ. eigenvalues --  -26.48720 -26.48720 -26.48296 -26.48296 -11.43864
 Alpha  occ. eigenvalues --  -11.43845 -11.26356 -11.26341  -1.66290  -1.63987
 Alpha  occ. eigenvalues --   -1.58506  -1.58188  -1.09986  -1.04070  -0.94823
 Alpha  occ. eigenvalues --   -0.85117  -0.79803  -0.76911  -0.75772  -0.72829
 Alpha  occ. eigenvalues --   -0.72301  -0.67017  -0.65426  -0.64548  -0.62071
 Alpha  occ. eigenvalues --   -0.61879  -0.60722  -0.59446  -0.59021  -0.57614
 Alpha  occ. eigenvalues --   -0.57612  -0.55682  -0.50459
 Alpha virt. eigenvalues --    0.03166   0.03856   0.04764   0.05300   0.06698
 Alpha virt. eigenvalues --    0.07945   0.08756   0.11173   0.11685   0.11930
 Alpha virt. eigenvalues --    0.14289   0.14926   0.14965   0.15688   0.16231

 Mulliken charges:
               1
     1  C   -0.570782
     2  C   -0.570782
     3  C    1.741858
     4  C    1.741858
     5  F   -0.904768
     6  F   -0.902260
     7  F   -0.902260
     8  F   -0.904768
     9  H    0.187236
    10  H    0.204756
    11  H    0.243960
    12  H    0.243960
    13  H    0.187236
    14  H    0.204756
 Sum of Mulliken charges =  -0.00000

 Dipole moment (field-independent basis, Debye):
    X=             -0.0000    Y=             -0.0000    Z=              3.4661  Tot=              3.4661

 Test job not archived.
 1\1\GINC-SE085\SP\RHF\Aug-CC-pVDZ\C4H6F4\OHZDE\05-Apr-2025\0\\#t hf au
 g-cc-pvdz iop(5/13=1,5/36=2,99/5=2) pseudo=read geom=check guess=(read
 ,tcheck) scf=(maxcycle=1)\\title\\0,1\C,0,0.328548,1.572029,1.131282\C
 ,0,-0.328548,-1.572029,1.131282\C,0,-0.204552,0.748232,-0.013408\C,0,0
 .204552,-0.748232,-0.013408\F,0,-1.57836,0.789917,-0.017302\F,0,0.2045
 52,1.293625,-1.195961\F,0,-0.204552,-1.293625,-1.195961\F,0,1.57836,-0
 .789917,-0.017302\H,0,-0.001444,2.599626,0.99167\H,0,-0.053588,1.20445
 9,2.080962\H,0,1.415266,1.54008,1.139481\H,0,-1.415266,-1.54008,1.1394

 Normal termination of Gaussian 16 at Sat Apr  5 22:32:17 2025.
