 Gaussian 16, Revision C.01,

 ----------------------------------------------------------------------
 #t hf aug-cc-pvdz symm=none int=(grid=ultrafine) guess=(read,tcheck) s
 table=(opt,rrhf)
 ----------------------------------------------------------------------
 -----
 title
 -----
 Symbolic Z-matrix:
 Charge =  0 Multiplicity = 1

 SCF Done:  E(RHF) =  -848.101209218     A.U. after   17 cycles
 Normal termination of Gaussian 16 at Sat Apr  5 22:33:42 2025.
 Gaussian 16:  ES64L-G16RevC.01  3-Jul-2019

 ----------------------------------------------------------------------
 #t hf aug-cc-pvdz iop(5/13=1,5/36=2,99/5=2) pseudo=read geom=check gue
 ss=(read,tcheck) scf=(maxcycle=1)
 ----------------------------------------------------------------------
 -----
 title
 -----
 Structure from the checkpoint file:  "2-2-nitrosoamino-3-sulfanylpropanoic_acid.chk"
 Charge =  0 Multiplicity = 1

                         Standard orientation:
 ---------------------------------------------------------------------
 Center     Atomic      Atomic             Coordinates (Angstroms)
 Number     Number       Type             X           Y           Z
 ---------------------------------------------------------------------
      1         16           0       -2.712144   -0.669689    0.037222
      2          8           0        0.933734    2.198989    0.455731
      3          8           0       -0.813212    1.753882   -0.838351
      4          8           0        3.132632   -1.292924   -0.368579
      5          7           0        1.364274   -0.584057    0.618722
      6          7           0        2.135784   -0.617459   -0.478845
      7          6           0        0.002543   -0.066606    0.511530
      8          6           0       -0.932563   -0.985226   -0.286130
      9          6           0       -0.000890    1.370282   -0.050456
     10          1           0       -0.365039    0.012010    1.536683
     11          1           0       -0.768377   -0.838439   -1.350349
     12          1           0       -0.717791   -2.023048   -0.047362
     13          1           0        1.618464   -1.240568    1.355307
     14          1           0       -2.888807   -1.681240    0.906858
     15          1           0        1.575666    1.706649    0.984110
 ---------------------------------------------------------------------

 SCF Done:  E(RHF) =  -848.602276355     A.U. after    2 cycles

 The electronic state is 1-A.
 Alpha  occ. eigenvalues --  -93.96761 -20.61724 -20.61227 -20.55554 -15.70342
 Alpha  occ. eigenvalues --  -15.60289 -11.41607 -11.34249 -11.30112  -8.24774
 Alpha  occ. eigenvalues --   -6.22610  -6.22470  -6.22243  -1.62046  -1.56376
 Alpha  occ. eigenvalues --   -1.47751  -1.33155  -1.13070  -1.04548  -0.97047
 Alpha  occ. eigenvalues --   -0.90417  -0.84845  -0.80106  -0.79779  -0.73749
 Alpha  occ. eigenvalues --   -0.70968  -0.68056  -0.66327  -0.65413  -0.63510
 Alpha  occ. eigenvalues --   -0.60187  -0.57815  -0.55247  -0.50360  -0.49185
 Alpha  occ. eigenvalues --   -0.47238  -0.46441  -0.46001  -0.38315
 Alpha virt. eigenvalues --    0.01866   0.03395   0.03934   0.04671   0.05447
 Alpha virt. eigenvalues --    0.06132   0.06534   0.08772   0.09944   0.10464
 Alpha virt. eigenvalues --    0.11410   0.12134   0.12642   0.13442   0.14067

 Mulliken charges:
               1
     1  S    0.114401
     2  O   -1.366873
     3  O   -1.235290
     4  O   -1.042245
     5  N    0.007524
     6  N    1.164447
     7  C   -0.962664
     8  C   -0.536609
     9  C    2.283050
    10  H    0.217018
    11  H    0.229920
    12  H    0.113283
    13  H    0.241974
    14  H    0.304099
    15  H    0.467966
 Sum of Mulliken charges =  -0.00000

 Dipole moment (field-independent basis, Debye):
    X=              0.7241    Y=             -3.4811    Z=              4.3662  Tot=              5.6308

 Test job not archived.
 1\1\GINC-SE176\SP\RHF\Aug-CC-pVDZ\C3H6N2O3S1\OHZDE\05-Apr-2025\0\\#t h
 f aug-cc-pvdz iop(5/13=1,5/36=2,99/5=2) pseudo=read geom=check guess=(
 read,tcheck) scf=(maxcycle=1)\\title\\0,1\S,0,-2.712144,-0.669688,0.03
 7222\O,0,0.933735,2.198989,0.455731\O,0,-0.813211,1.753882,-0.838351\O
 ,0,3.132632,-1.292925,-0.368579\N,0,1.364274,-0.584057,0.618722\N,0,2.
 135784,-0.61746,-0.478845\C,0,0.002543,-0.066606,0.51153\C,0,-0.932563
 ,-0.985226,-0.28613\C,0,-0.00089,1.370282,-0.050456\H,0,-0.365039,0.01
 201,1.536683\H,0,-0.768377,-0.838439,-1.350349\H,0,-0.717791,-2.023048

 Normal termination of Gaussian 16 at Sat Apr  5 22:34:42 2025.
