 Gaussian 16, Revision C.01,

 ----------------------------------------------------------------------
 #t hf aug-cc-pvdz symm=none int=(grid=ultrafine) guess=(read,tcheck) s
 table=(opt,rrhf)
 ----------------------------------------------------------------------
 -----
 title
 -----
 Symbolic Z-matrix:
 Charge =  0 Multiplicity = 1

 SCF Done:  E(RHF) =  -193.959539274     A.U. after   12 cycles
 Normal termination of Gaussian 16 at Sat Apr  5 22:33:52 2025.
 Gaussian 16:  ES64L-G16RevC.01  3-Jul-2019

 ----------------------------------------------------------------------
 #t hf aug-cc-pvdz iop(5/13=1,5/36=2,99/5=2) pseudo=read geom=check gue
 ss=(read,tcheck) scf=(maxcycle=1)
 ----------------------------------------------------------------------
 -----
 title
 -----
 Structure from the checkpoint file:  "2-3-pentadiene.chk"
 Charge =  0 Multiplicity = 1

                         Standard orientation:
 ---------------------------------------------------------------------
 Center     Atomic      Atomic             Coordinates (Angstroms)
 Number     Number       Type             X           Y           Z
 ---------------------------------------------------------------------
      1          6           0       -0.000000    0.000000    0.410032
      2          6           0       -0.000000    1.303082    0.410018
      3          6           0       -0.000000   -1.303082    0.410018
      4          6           0       -0.871882    2.172515   -0.457285
      5          6           0        0.871882   -2.172515   -0.457285
      6          1           0        0.676863    1.817656    1.088068
      7          1           0       -0.676863   -1.817656    1.088068
      8          1           0       -1.504967    2.819715    0.154671
      9          1           0       -0.264433    2.825078   -1.089145
     10          1           0       -1.514184    1.573281   -1.100088
     11          1           0        1.504967   -2.819715    0.154671
     12          1           0        0.264433   -2.825078   -1.089145
     13          1           0        1.514184   -1.573281   -1.100088
 ---------------------------------------------------------------------

 SCF Done:  E(RHF) =  -194.171211763     A.U. after    2 cycles

 The electronic state is 1-A.
 Alpha  occ. eigenvalues --  -11.24471 -11.24297 -11.24194 -11.23423 -11.23418
 Alpha  occ. eigenvalues --   -1.09219  -1.03038  -0.93513  -0.86855  -0.70019
 Alpha  occ. eigenvalues --   -0.65583  -0.59197  -0.58264  -0.57024  -0.56616
 Alpha  occ. eigenvalues --   -0.53360  -0.52703  -0.36313  -0.36299
 Alpha virt. eigenvalues --    0.03737   0.03825   0.04378   0.04393   0.06189
 Alpha virt. eigenvalues --    0.06288   0.06936   0.07272   0.11635   0.11984
 Alpha virt. eigenvalues --    0.12048   0.12660   0.13583   0.14684   0.15380

 Mulliken charges:
               1
     1  C    0.017575
     2  C    0.281500
     3  C    0.281500
     4  C   -0.638020
     5  C   -0.638020
     6  H   -0.136154
     7  H   -0.136154
     8  H    0.199302
     9  H    0.205642
    10  H    0.078941
    11  H    0.199302
    12  H    0.205642
    13  H    0.078941
 Sum of Mulliken charges =  -0.00000

 Dipole moment (field-independent basis, Debye):
    X=              0.0000    Y=             -0.0000    Z=             -0.2210  Tot=              0.2210

 Test job not archived.
 1\1\GINC-SE185\SP\RHF\Aug-CC-pVDZ\C5H8\OHZDE\05-Apr-2025\0\\#t hf aug-
 cc-pvdz iop(5/13=1,5/36=2,99/5=2) pseudo=read geom=check guess=(read,t
 check) scf=(maxcycle=1)\\title\\0,1\C,0,0.,0.,0.410032\C,0,0.,1.303082
 ,0.410018\C,0,0.,-1.303082,0.410018\C,0,-0.871882,2.172515,-0.457285\C
 ,0,0.871882,-2.172515,-0.457285\H,0,0.676863,1.817656,1.088068\H,0,-0.
 676863,-1.817656,1.088068\H,0,-1.504967,2.819715,0.154671\H,0,-0.26443
 3,2.825078,-1.089145\H,0,-1.514184,1.573281,-1.100088\H,0,1.504967,-2.
 819715,0.154671\H,0,0.264433,-2.825078,-1.089145\H,0,1.514184,-1.57328

 Normal termination of Gaussian 16 at Sat Apr  5 22:34:39 2025.
