 Gaussian 16, Revision C.01,

 ----------------------------------------------------------------------
 #t hf aug-cc-pvdz symm=none int=(grid=ultrafine) guess=(read,tcheck) s
 table=(opt,rrhf)
 ----------------------------------------------------------------------
 -----
 title
 -----
 Symbolic Z-matrix:
 Charge =  0 Multiplicity = 1

 SCF Done:  E(RHF) =  -643.293755187     A.U. after   15 cycles
 Normal termination of Gaussian 16 at Sat Apr  5 22:32:28 2025.
 Gaussian 16:  ES64L-G16RevC.01  3-Jul-2019

 ----------------------------------------------------------------------
 #t hf aug-cc-pvdz iop(5/13=1,5/36=2,99/5=2) pseudo=read geom=check gue
 ss=(read,tcheck) scf=(maxcycle=1)
 ----------------------------------------------------------------------
 -----
 title
 -----
 Structure from the checkpoint file:  "2-3-dihydro-1-2-thiazole-1-oxide.chk"
 Charge =  0 Multiplicity = 1

                         Standard orientation:
 ---------------------------------------------------------------------
 Center     Atomic      Atomic             Coordinates (Angstroms)
 Number     Number       Type             X           Y           Z
 ---------------------------------------------------------------------
      1          6           0       -1.470654    0.825217    0.180286
      2          6           0       -1.553390   -0.662462    0.294602
      3          6           0       -0.306511    1.283031   -0.252180
      4          7           0       -0.356943   -1.153514   -0.388425
      5          8           0        1.719592    0.003041    0.864117
      6         16           0        0.944753   -0.019129   -0.414780
      7          1           0       -2.309000    1.451695    0.454288
      8          1           0       -1.613318   -0.957897    1.349242
      9          1           0       -2.442883   -1.050971   -0.208260
     10          1           0        0.004141    2.307754   -0.379815
     11          1           0       -0.029788   -2.068961   -0.109186
 ---------------------------------------------------------------------

 SCF Done:  E(RHF) =  -643.606826149     A.U. after    2 cycles

 The electronic state is 1-A.
 Alpha  occ. eigenvalues --  -94.09970 -20.50173 -15.53057 -11.29672 -11.28148
 Alpha  occ. eigenvalues --  -11.27669  -8.36296  -6.34117  -6.33994  -6.33753
 Alpha  occ. eigenvalues --   -1.44200  -1.25191  -1.08829  -1.01603  -0.87068
 Alpha  occ. eigenvalues --   -0.79837  -0.74888  -0.67432  -0.63234  -0.62155
 Alpha  occ. eigenvalues --   -0.60422  -0.56480  -0.56032  -0.47837  -0.42449
 Alpha  occ. eigenvalues --   -0.40386  -0.38202
 Alpha virt. eigenvalues --    0.02926   0.03890   0.04425   0.04953   0.05869
 Alpha virt. eigenvalues --    0.08528   0.08842   0.09980   0.11932   0.12229
 Alpha virt. eigenvalues --    0.12715   0.13972   0.14300   0.14396   0.16015

 Mulliken charges:
               1
     1  C    0.606849
     2  C   -0.659364
     3  C   -0.628514
     4  N   -0.051550
     5  O   -1.425400
     6  S    1.874167
     7  H   -0.053569
     8  H    0.152485
     9  H    0.167016
    10  H   -0.099606
    11  H    0.117486
 Sum of Mulliken charges =  -0.00000

 Dipole moment (field-independent basis, Debye):
    X=             -3.9386    Y=              0.1881    Z=             -0.7363  Tot=              4.0113

 Test job not archived.
 1\1\GINC-SE108\SP\RHF\Aug-CC-pVDZ\C3H5N1O1S1\OHZDE\05-Apr-2025\0\\#t h
 f aug-cc-pvdz iop(5/13=1,5/36=2,99/5=2) pseudo=read geom=check guess=(
 read,tcheck) scf=(maxcycle=1)\\title\\0,1\C,0,-1.470654,0.825217,0.180
 286\C,0,-1.55339,-0.662462,0.294602\C,0,-0.306511,1.283031,-0.25218\N,
 0,-0.356943,-1.153514,-0.388425\O,0,1.719592,0.003041,0.864117\S,0,0.9
 44753,-0.019129,-0.41478\H,0,-2.309,1.451695,0.454288\H,0,-1.613318,-0
 .957897,1.349242\H,0,-2.442883,-1.050971,-0.20826\H,0,0.004141,2.30775
 4,-0.379815\H,0,-0.029788,-2.068961,-0.109186\\Version=ES64L-G16RevC.0

 Normal termination of Gaussian 16 at Sat Apr  5 22:32:33 2025.
