 Gaussian 16, Revision C.01,

 ----------------------------------------------------------------------
 #t hf aug-cc-pvdz symm=none int=(grid=ultrafine) guess=(read,tcheck) s
 table=(opt,rrhf)
 ----------------------------------------------------------------------
 -----
 title
 -----
 Symbolic Z-matrix:
 Charge =  0 Multiplicity = 1

 SCF Done:  E(RHF) =  -461.474947099     A.U. after   16 cycles
 Normal termination of Gaussian 16 at Sat Apr  5 22:38:33 2025.
 Gaussian 16:  ES64L-G16RevC.01  3-Jul-2019

 ----------------------------------------------------------------------
 #t hf aug-cc-pvdz iop(5/13=1,5/36=2,99/5=2) pseudo=read geom=check gue
 ss=(read,tcheck) scf=(maxcycle=1)
 ----------------------------------------------------------------------
 -----
 title
 -----
 Structure from the checkpoint file:  "2-3-dimethylnaphthalene.chk"
 Charge =  0 Multiplicity = 1

                         Standard orientation:
 ---------------------------------------------------------------------
 Center     Atomic      Atomic             Coordinates (Angstroms)
 Number     Number       Type             X           Y           Z
 ---------------------------------------------------------------------
      1          6           0        0.000000    0.705545    3.172599
      2          6           0       -0.000000   -0.705545    3.172599
      3          6           0        0.000000    1.396736    1.988558
      4          6           0       -0.000000   -1.396736    1.988558
      5          6           0        0.000000    1.384878   -0.494217
      6          6           0       -0.000000   -1.384878   -0.494217
      7          6           0        0.000000    0.711893    0.749997
      8          6           0       -0.000000   -0.711893    0.749997
      9          6           0        0.000000    0.714904   -1.692605
     10          6           0       -0.000000   -0.714904   -1.692605
     11          6           0        0.000000    1.476613   -2.990942
     12          6           0       -0.000000   -1.476613   -2.990942
     13          1           0        0.000000    1.240249    4.113143
     14          1           0       -0.000000   -1.240249    4.113143
     15          1           0        0.000000    2.479711    1.986908
     16          1           0       -0.000000   -2.479711    1.986908
     17          1           0        0.000000    2.468780   -0.491189
     18          1           0       -0.000000   -2.468780   -0.491189
     19          1           0       -0.876451    1.238572   -3.598523
     20          1           0        0.000000    2.550606   -2.812154
     21          1           0        0.876451    1.238572   -3.598523
     22          1           0       -0.876451   -1.238572   -3.598523
     23          1           0        0.876451   -1.238572   -3.598523
     24          1           0       -0.000000   -2.550606   -2.812154
 ---------------------------------------------------------------------

 SCF Done:  E(RHF) =  -461.955423948     A.U. after    2 cycles

 The electronic state is 1-A1.
 Alpha  occ. eigenvalues --  -11.24515 -11.24450 -11.24154 -11.24080 -11.23867
 Alpha  occ. eigenvalues --  -11.23860 -11.23755 -11.23726 -11.23441 -11.23412
 Alpha  occ. eigenvalues --  -11.23401 -11.23395  -1.17867  -1.12213  -1.05512
 Alpha  occ. eigenvalues --   -1.03615  -1.00793  -0.93710  -0.93652  -0.83692
 Alpha  occ. eigenvalues --   -0.82055  -0.82036  -0.71301  -0.69245  -0.67667
 Alpha  occ. eigenvalues --   -0.62907  -0.62800  -0.60105  -0.59429  -0.59155
 Alpha  occ. eigenvalues --   -0.56051  -0.55776  -0.55089  -0.54842  -0.53026
 Alpha  occ. eigenvalues --   -0.51743  -0.49052  -0.47991  -0.44000  -0.38886
 Alpha  occ. eigenvalues --   -0.31610  -0.29225
 Alpha virt. eigenvalues --    0.03047   0.03232   0.03681   0.04291   0.04484
 Alpha virt. eigenvalues --    0.04966   0.06484   0.07047   0.07258   0.07700
 Alpha virt. eigenvalues --    0.08027   0.09162   0.10353   0.10354   0.10583

 Mulliken charges:
               1
     1  C   -0.230634
     2  C   -0.230634
     3  C    0.173309
     4  C    0.173309
     5  C    0.385702
     6  C    0.385702
     7  C    0.565850
     8  C    0.565850
     9  C    0.048495
    10  C    0.048495
    11  C   -0.684096
    12  C   -0.684096
    13  H   -0.263842
    14  H   -0.263842
    15  H   -0.312623
    16  H   -0.312623
    17  H   -0.286097
    18  H   -0.286097
    19  H    0.316822
    20  H   -0.029707
    21  H    0.316822
    22  H    0.316822
    23  H    0.316822
    24  H   -0.029707
 Sum of Mulliken charges =  -0.00000

 Dipole moment (field-independent basis, Debye):
    X=              0.0000    Y=             -0.0000    Z=             -0.9040  Tot=              0.9040

 Test job not archived.
 1\1\GINC-SE036\SP\RHF\Aug-CC-pVDZ\C12H12\OHZDE\05-Apr-2025\0\\#t hf au
 g-cc-pvdz iop(5/13=1,5/36=2,99/5=2) pseudo=read geom=check guess=(read
 ,tcheck) scf=(maxcycle=1)\\title\\0,1\C,0,0.,0.705545,3.172599\C,0,0.,
 -0.705545,3.172599\C,0,0.,1.396736,1.988558\C,0,0.,-1.396736,1.988558\
 C,0,0.,1.384878,-0.494217\C,0,0.,-1.384878,-0.494217\C,0,0.,0.711893,0
 .749997\C,0,0.,-0.711893,0.749997\C,0,0.,0.714904,-1.692605\C,0,0.,-0.
 714904,-1.692605\C,0,0.,1.476613,-2.990942\C,0,0.,-1.476613,-2.990942\
 H,0,0.,1.240249,4.113143\H,0,0.,-1.240249,4.113143\H,0,0.,2.479711,1.9

 Normal termination of Gaussian 16 at Sat Apr  5 22:39:24 2025.
