 Gaussian 16, Revision C.01,

 ----------------------------------------------------------------------
 #t hf aug-cc-pvdz symm=none int=(grid=ultrafine) guess=(read,tcheck) s
 table=(opt,rrhf)
 ----------------------------------------------------------------------
 -----
 title
 -----
 Symbolic Z-matrix:
 Charge =  0 Multiplicity = 1

 SCF Done:  E(RHF) =  -584.431978912     A.U. after   15 cycles
 Normal termination of Gaussian 16 at Sat Apr  5 22:32:23 2025.
 Gaussian 16:  ES64L-G16RevC.01  3-Jul-2019

 ----------------------------------------------------------------------
 #t hf aug-cc-pvdz iop(5/13=1,5/36=2,99/5=2) pseudo=read geom=check gue
 ss=(read,tcheck) scf=(maxcycle=1)
 ----------------------------------------------------------------------
 -----
 title
 -----
 Structure from the checkpoint file:  "2-3-dihydro-1-2-3-thiadiazole.chk"
 Charge =  0 Multiplicity = 1

                         Standard orientation:
 ---------------------------------------------------------------------
 Center     Atomic      Atomic             Coordinates (Angstroms)
 Number     Number       Type             X           Y           Z
 ---------------------------------------------------------------------
      1         16           0       -1.237044    0.001448   -0.107671
      2          7           0        0.008561   -1.244800    0.162871
      3          7           0        1.291262   -0.667661   -0.105066
      4          6           0       -0.008423    1.263519    0.104972
      5          6           0        1.217607    0.751160    0.046079
      6          1           0       -0.002263   -1.404163    1.165699
      7          1           0        1.571441   -0.928185   -1.047847
      8          1           0       -0.273152    2.302314    0.208260
      9          1           0        2.142819    1.306025    0.085693
 ---------------------------------------------------------------------

 SCF Done:  E(RHF) =  -584.684726491     A.U. after    2 cycles

 The electronic state is 1-A.
 Alpha  occ. eigenvalues --  -93.98068 -15.55937 -15.54548 -11.28399 -11.27281
 Alpha  occ. eigenvalues --   -8.25925  -6.23694  -6.23569  -6.23287  -1.32016
 Alpha  occ. eigenvalues --   -1.10643  -1.08202  -0.90604  -0.81132  -0.74151
 Alpha  occ. eigenvalues --   -0.71023  -0.64893  -0.60582  -0.52500  -0.51153
 Alpha  occ. eigenvalues --   -0.47772  -0.43006  -0.32348
 Alpha virt. eigenvalues --    0.03454   0.04232   0.05066   0.06093   0.07917
 Alpha virt. eigenvalues --    0.09280   0.11081   0.11145   0.12059   0.12920
 Alpha virt. eigenvalues --    0.13851   0.15172   0.16386   0.16585   0.17563

 Mulliken charges:
               1
     1  S    0.413003
     2  N   -0.519473
     3  N    0.310306
     4  C    0.049059
     5  C   -0.375683
     6  H    0.194186
     7  H    0.178262
     8  H   -0.150156
     9  H   -0.099503
 Sum of Mulliken charges =  -0.00000

 Dipole moment (field-independent basis, Debye):
    X=              0.9496    Y=              1.9206    Z=              0.0784  Tot=              2.1439

 Test job not archived.
 1\1\GINC-SE108\SP\RHF\Aug-CC-pVDZ\C2H4N2S1\OHZDE\05-Apr-2025\0\\#t hf
 aug-cc-pvdz iop(5/13=1,5/36=2,99/5=2) pseudo=read geom=check guess=(re
 ad,tcheck) scf=(maxcycle=1)\\title\\0,1\S,0,-1.237044,0.001448,-0.1076
 71\N,0,0.008561,-1.2448,0.162871\N,0,1.291262,-0.667661,-0.105066\C,0,
 -0.008423,1.263519,0.104972\C,0,1.217607,0.75116,0.046079\H,0,-0.00226
 3,-1.404163,1.165699\H,0,1.571441,-0.928185,-1.047847\H,0,-0.273152,2.
 302314,0.20826\H,0,2.142819,1.306025,0.085693\\Version=ES64L-G16RevC.0
 1\State=1-A\HF=-584.6847265\RMSD=2.142e-02\Dipole=0.3736088,0.7556086,

 Normal termination of Gaussian 16 at Sat Apr  5 22:32:27 2025.
