 Gaussian 16, Revision C.01,

 ----------------------------------------------------------------------
 #t hf aug-cc-pvdz symm=none int=(grid=ultrafine) guess=(read,tcheck) s
 table=(opt,rrhf)
 ----------------------------------------------------------------------
 -----
 title
 -----
 Symbolic Z-matrix:
 Charge =  0 Multiplicity = 1

 SCF Done:  E(RHF) =  -552.492214528     A.U. after   14 cycles
 Normal termination of Gaussian 16 at Sat Apr  5 22:32:29 2025.
 Gaussian 16:  ES64L-G16RevC.01  3-Jul-2019

 ----------------------------------------------------------------------
 #t hf aug-cc-pvdz iop(5/13=1,5/36=2,99/5=2) pseudo=read geom=check gue
 ss=(read,tcheck) scf=(maxcycle=1)
 ----------------------------------------------------------------------
 -----
 title
 -----
 Structure from the checkpoint file:  "2-3-dihydrothiophene.chk"
 Charge =  0 Multiplicity = 1

                         Standard orientation:
 ---------------------------------------------------------------------
 Center     Atomic      Atomic             Coordinates (Angstroms)
 Number     Number       Type             X           Y           Z
 ---------------------------------------------------------------------
      1          6           0       -0.078596   -1.271647    0.190282
      2          1           0       -0.054339   -1.558641    1.240593
      3          1           0        0.112578   -2.148979   -0.421154
      4          6           0       -1.395081   -0.560009   -0.160033
      5          1           0       -2.213837   -0.949245    0.447464
      6          1           0       -1.665515   -0.738605   -1.207404
      7          6           0        0.114747    1.280233    0.074877
      8          1           0        0.490719    2.289118    0.151229
      9          6           0       -1.163345    0.913938    0.056193
     10          1           0       -1.979816    1.619897    0.117529
     11         16           0        1.277741   -0.043040   -0.081011
 ---------------------------------------------------------------------

 SCF Done:  E(RHF) =  -552.718079076     A.U. after    2 cycles

 The electronic state is 1-A.
 Alpha  occ. eigenvalues --  -93.94484 -11.27115 -11.26617 -11.24992 -11.24156
 Alpha  occ. eigenvalues --   -8.22633  -6.20437  -6.20314  -6.20072  -1.15180
 Alpha  occ. eigenvalues --   -0.99453  -0.98858  -0.81523  -0.74831  -0.68545
 Alpha  occ. eigenvalues --   -0.64900  -0.55988  -0.54044  -0.52635  -0.50374
 Alpha  occ. eigenvalues --   -0.45671  -0.43576  -0.31058
 Alpha virt. eigenvalues --    0.03559   0.03938   0.04588   0.04620   0.06133
 Alpha virt. eigenvalues --    0.06949   0.08524   0.11769   0.12464   0.12734
 Alpha virt. eigenvalues --    0.13027   0.14319   0.15246   0.15525   0.16199

 Mulliken charges:
               1
     1  C   -0.558452
     2  H    0.189944
     3  H    0.187872
     4  C   -0.503228
     5  H    0.182056
     6  H    0.198221
     7  C   -0.387731
     8  H   -0.164892
     9  C    0.511283
    10  H   -0.094402
    11  S    0.439329
 Sum of Mulliken charges =   0.00000

 Dipole moment (field-independent basis, Debye):
    X=             -1.8577    Y=             -0.3762    Z=              0.1835  Tot=              1.9043

 Test job not archived.
 1\1\GINC-SE152\SP\RHF\Aug-CC-pVDZ\C4H6S1\OHZDE\05-Apr-2025\0\\#t hf au
 g-cc-pvdz iop(5/13=1,5/36=2,99/5=2) pseudo=read geom=check guess=(read
 ,tcheck) scf=(maxcycle=1)\\title\\0,1\C,0,-0.078596,-1.271647,0.190282
 \H,0,-0.054339,-1.558641,1.240593\H,0,0.112578,-2.148979,-0.421154\C,0
 ,-1.395081,-0.560009,-0.160033\H,0,-2.213837,-0.949245,0.447464\H,0,-1
 .665515,-0.738605,-1.207404\C,0,0.114747,1.280233,0.074877\H,0,0.49071
 9,2.289118,0.151229\C,0,-1.163345,0.913938,0.056193\H,0,-1.979816,1.61
 9897,0.117529\S,0,1.277741,-0.04304,-0.081011\\Version=ES64L-G16RevC.0

 Normal termination of Gaussian 16 at Sat Apr  5 22:32:33 2025.
