 Gaussian 16, Revision C.01,

 ----------------------------------------------------------------------
 #t hf aug-cc-pvdz symm=none int=(grid=ultrafine) guess=(read,tcheck) s
 table=(opt,rrhf)
 ----------------------------------------------------------------------
 -----
 title
 -----
 Symbolic Z-matrix:
 Charge =  0 Multiplicity = 1

 SCF Done:  E(RHF) =  -774.652649395     A.U. after   17 cycles
 Normal termination of Gaussian 16 at Sat Apr  5 22:33:55 2025.
 Gaussian 16:  ES64L-G16RevC.01  3-Jul-2019

 ----------------------------------------------------------------------
 #t hf aug-cc-pvdz iop(5/13=1,5/36=2,99/5=2) pseudo=read geom=check gue
 ss=(read,tcheck) scf=(maxcycle=1)
 ----------------------------------------------------------------------
 -----
 title
 -----
 Structure from the checkpoint file:  "2-3-furo-1-3-2-dioxathiole.chk"
 Charge =  0 Multiplicity = 1

                         Standard orientation:
 ---------------------------------------------------------------------
 Center     Atomic      Atomic             Coordinates (Angstroms)
 Number     Number       Type             X           Y           Z
 ---------------------------------------------------------------------
      1         16           0        1.989323   -0.009549   -0.145290
      2          8           0        0.854042   -1.274861    0.212013
      3          8           0        0.929171    1.296398    0.203214
      4          8           0       -1.541919   -1.139480   -0.026054
      5          6           0       -0.315704   -0.615131   -0.021948
      6          6           0       -0.319252    0.726214   -0.022953
      7          6           0       -1.682955    1.131606   -0.022667
      8          6           0       -2.386914   -0.036529   -0.038427
      9          1           0       -2.098136    2.123419   -0.033853
     10          1           0       -3.432428   -0.264049   -0.118917
 ---------------------------------------------------------------------

 SCF Done:  E(RHF) =  -775.073888970     A.U. after    2 cycles

 The electronic state is 1-A.
 Alpha  occ. eigenvalues --  -94.08292 -20.63995 -20.63342 -20.62373 -11.36576
 Alpha  occ. eigenvalues --  -11.31784 -11.30396 -11.27195  -8.35099  -6.32851
 Alpha  occ. eigenvalues --   -6.32711  -6.32266  -1.59031  -1.54563  -1.48783
 Alpha  occ. eigenvalues --   -1.12415  -1.03241  -0.96487  -0.85899  -0.81710
 Alpha  occ. eigenvalues --   -0.75464  -0.70617  -0.68382  -0.64646  -0.63393
 Alpha  occ. eigenvalues --   -0.60930  -0.60245  -0.58355  -0.56254  -0.53119
 Alpha  occ. eigenvalues --   -0.42412  -0.39030  -0.31298
 Alpha virt. eigenvalues --    0.03378   0.04124   0.05466   0.06171   0.07818
 Alpha virt. eigenvalues --    0.09481   0.09957   0.10203   0.11695   0.12363
 Alpha virt. eigenvalues --    0.13297   0.14046   0.14504   0.14804   0.15377

 Mulliken charges:
               1
     1  S    1.161027
     2  O   -1.528240
     3  O   -1.678988
     4  O   -1.320291
     5  C    1.625653
     6  C    0.951800
     7  C    0.438303
     8  C    0.553939
     9  H   -0.088671
    10  H   -0.114530
 Sum of Mulliken charges =  -0.00000

 Dipole moment (field-independent basis, Debye):
    X=             -1.2111    Y=              0.8854    Z=             -0.3651  Tot=              1.5440

 Test job not archived.
 1\1\GINC-SE158\SP\RHF\Aug-CC-pVDZ\C4H2O3S1\OHZDE\05-Apr-2025\0\\#t hf
 aug-cc-pvdz iop(5/13=1,5/36=2,99/5=2) pseudo=read geom=check guess=(re
 ad,tcheck) scf=(maxcycle=1)\\title\\0,1\S,0,1.989323,-0.009549,-0.1452
 9\O,0,0.854042,-1.274861,0.212013\O,0,0.929171,1.296398,0.203214\O,0,-
 1.541919,-1.13948,-0.026054\C,0,-0.315704,-0.615131,-0.021948\C,0,-0.3
 19252,0.726214,-0.022953\C,0,-1.682955,1.131606,-0.022667\C,0,-2.38691
 4,-0.036529,-0.038427\H,0,-2.098136,2.123419,-0.033853\H,0,-3.432428,-
 0.264049,-0.118917\\Version=ES64L-G16RevC.01\State=1-A\HF=-775.073889\

 Normal termination of Gaussian 16 at Sat Apr  5 22:34:40 2025.
