 Gaussian 16, Revision C.01,

 ----------------------------------------------------------------------
 #t hf aug-cc-pvdz symm=none int=(grid=ultrafine) guess=(read,tcheck) s
 table=(opt,rrhf)
 ----------------------------------------------------------------------
 -----
 title
 -----
 Symbolic Z-matrix:
 Charge =  0 Multiplicity = 1

 SCF Done:  E(RHF) =  -229.819606046     A.U. after   13 cycles
 Normal termination of Gaussian 16 at Sat Apr  5 22:32:21 2025.
 Gaussian 16:  ES64L-G16RevC.01  3-Jul-2019

 ----------------------------------------------------------------------
 #t hf aug-cc-pvdz iop(5/13=1,5/36=2,99/5=2) pseudo=read geom=check gue
 ss=(read,tcheck) scf=(maxcycle=1)
 ----------------------------------------------------------------------
 -----
 title
 -----
 Structure from the checkpoint file:  "2-3-dihydrofuran.chk"
 Charge =  0 Multiplicity = 1

                         Standard orientation:
 ---------------------------------------------------------------------
 Center     Atomic      Atomic             Coordinates (Angstroms)
 Number     Number       Type             X           Y           Z
 ---------------------------------------------------------------------
      1          1           0        1.090371    2.042313    0.076465
      2          6           0        0.596543    1.086225    0.038981
      3          1           0        2.249849   -0.338569    0.019187
      4          6           0        1.198765   -0.096250    0.008788
      5          8           0        0.365292   -1.176016   -0.062866
      6          1           0       -1.297408    1.237766   -1.005784
      7          1           0       -1.452900    1.372802    0.739281
      8          6           0       -0.896856    0.873536   -0.055484
      9          1           0       -1.592746   -1.131235   -0.710934
     10          1           0       -1.364628   -0.974544    1.041627
     11          6           0       -0.990930   -0.663578    0.064896
 ---------------------------------------------------------------------

 SCF Done:  E(RHF) =  -230.059941433     A.U. after    2 cycles

 The electronic state is 1-A.
 Alpha  occ. eigenvalues --  -20.55917 -11.29153 -11.29046 -11.24280 -11.22349
 Alpha  occ. eigenvalues --   -1.48362  -1.07294  -1.00050  -0.83522  -0.77408
 Alpha  occ. eigenvalues --   -0.71386  -0.67203  -0.59659  -0.55676  -0.54999
 Alpha  occ. eigenvalues --   -0.52804  -0.50245  -0.49852  -0.32879
 Alpha virt. eigenvalues --    0.03742   0.04215   0.04462   0.04700   0.06185
 Alpha virt. eigenvalues --    0.07091   0.10475   0.11228   0.12378   0.13914
 Alpha virt. eigenvalues --    0.14072   0.14222   0.15226   0.16078   0.16409

 Mulliken charges:
               1
     1  H   -0.121516
     2  C    0.294222
     3  H   -0.091105
     4  C    0.862120
     5  O   -1.342380
     6  H    0.154166
     7  H    0.167314
     8  C   -0.590831
     9  H    0.054561
    10  H    0.078487
    11  C    0.534963
 Sum of Mulliken charges =  -0.00000

 Dipole moment (field-independent basis, Debye):
    X=             -0.7732    Y=              1.0195    Z=              0.0831  Tot=              1.2822

 Test job not archived.
 1\1\GINC-SE222\SP\RHF\Aug-CC-pVDZ\C4H6O1\OHZDE\05-Apr-2025\0\\#t hf au
 g-cc-pvdz iop(5/13=1,5/36=2,99/5=2) pseudo=read geom=check guess=(read
 ,tcheck) scf=(maxcycle=1)\\title\\0,1\H,0,1.090374,2.042312,0.076465\C
 ,0,0.596544,1.086224,0.038981\H,0,2.249849,-0.338572,0.019187\C,0,1.19
 8765,-0.096252,0.008788\O,0,0.36529,-1.176016,-0.062866\H,0,-1.297406,
 1.237768,-1.005784\H,0,-1.452898,1.372804,0.739281\C,0,-0.896855,0.873
 537,-0.055484\H,0,-1.592748,-1.131233,-0.710934\H,0,-1.364629,-0.97454
 2,1.041627\C,0,-0.990931,-0.663577,0.064896\\Version=ES64L-G16RevC.01\

 Normal termination of Gaussian 16 at Sat Apr  5 22:32:24 2025.
