 Gaussian 16, Revision C.01,

 ----------------------------------------------------------------------
 #t hf aug-cc-pvdz symm=none int=(grid=ultrafine) guess=(read,tcheck) s
 table=(opt,rrhf)
 ----------------------------------------------------------------------
 -----
 title
 -----
 Symbolic Z-matrix:
 Charge =  0 Multiplicity = 1

 SCF Done:  E(RHF) =  -268.868409677     A.U. after   14 cycles
 Normal termination of Gaussian 16 at Sat Apr  5 22:32:36 2025.
 Gaussian 16:  ES64L-G16RevC.01  3-Jul-2019

 ----------------------------------------------------------------------
 #t hf aug-cc-pvdz iop(5/13=1,5/36=2,99/5=2) pseudo=read geom=check gue
 ss=(read,tcheck) scf=(maxcycle=1)
 ----------------------------------------------------------------------
 -----
 title
 -----
 Structure from the checkpoint file:  "2-3-dihydro-5-methylfuran.chk"
 Charge =  0 Multiplicity = 1

                         Standard orientation:
 ---------------------------------------------------------------------
 Center     Atomic      Atomic             Coordinates (Angstroms)
 Number     Number       Type             X           Y           Z
 ---------------------------------------------------------------------
      1          6           0       -1.368345   -0.812936    0.080163
      2          1           0       -1.906003   -1.388570   -0.670058
      3          1           0       -1.661689   -1.161174    1.072427
      4          8           0        0.046311   -1.092004   -0.079668
      5          6           0       -1.532303    0.714437   -0.061297
      6          1           0       -2.174500    1.121723    0.721203
      7          1           0       -1.979486    0.993680   -1.020378
      8          6           0       -0.096949    1.168984    0.041568
      9          1           0        0.227483    2.195282    0.084198
     10          6           0        2.190006    0.000476    0.008583
     11          1           0        2.539202   -0.503258   -0.895119
     12          1           0        2.646994    0.986271    0.059826
     13          1           0        2.528636   -0.591735    0.860936
     14          6           0        0.709071    0.109674    0.001700
 ---------------------------------------------------------------------

 SCF Done:  E(RHF) =  -269.152373338     A.U. after    2 cycles

 The electronic state is 1-A.
 Alpha  occ. eigenvalues --  -20.55440 -11.29139 -11.28633 -11.23718 -11.23587
 Alpha  occ. eigenvalues --  -11.21317  -1.47989  -1.07136  -1.03898  -0.93200
 Alpha  occ. eigenvalues --   -0.83182  -0.74457  -0.68318  -0.67097  -0.60855
 Alpha  occ. eigenvalues --   -0.58453  -0.55082  -0.54487  -0.53619  -0.51698
 Alpha  occ. eigenvalues --   -0.49389  -0.48156  -0.32051
 Alpha virt. eigenvalues --    0.03784   0.03929   0.04290   0.04496   0.06008
 Alpha virt. eigenvalues --    0.06599   0.06799   0.07367   0.10582   0.12321
 Alpha virt. eigenvalues --    0.12419   0.13912   0.14530   0.14879   0.15825

 Mulliken charges:
               1
     1  C    0.471593
     2  H    0.044215
     3  H    0.085255
     4  O   -1.589743
     5  C   -0.578320
     6  H    0.176805
     7  H    0.163379
     8  C    0.057790
     9  H   -0.174418
    10  C   -0.605603
    11  H    0.213448
    12  H    0.168956
    13  H    0.227209
    14  C    1.339434
 Sum of Mulliken charges =   0.00000

 Dipole moment (field-independent basis, Debye):
    X=             -0.4234    Y=              0.7357    Z=              0.1015  Tot=              0.8548

 Test job not archived.
 1\1\GINC-SE222\SP\RHF\Aug-CC-pVDZ\C5H8O1\OHZDE\05-Apr-2025\0\\#t hf au
 g-cc-pvdz iop(5/13=1,5/36=2,99/5=2) pseudo=read geom=check guess=(read
 ,tcheck) scf=(maxcycle=1)\\title\\0,1\C,0,-1.368345,-0.812936,0.080163
 \H,0,-1.906003,-1.38857,-0.670058\H,0,-1.661689,-1.161174,1.072427\O,0
 ,0.046311,-1.092004,-0.079668\C,0,-1.532303,0.714437,-0.061297\H,0,-2.
 1745,1.121723,0.721203\H,0,-1.979486,0.99368,-1.020378\C,0,-0.096949,1
 .168984,0.041568\H,0,0.227483,2.195282,0.084198\C,0,2.190006,0.000476,
 0.008583\H,0,2.539202,-0.503258,-0.895119\H,0,2.646994,0.986271,0.0598

 Normal termination of Gaussian 16 at Sat Apr  5 22:32:41 2025.
