 Gaussian 16, Revision C.01,

 ----------------------------------------------------------------------
 #t hf aug-cc-pvdz symm=none int=(grid=ultrafine) guess=(read,tcheck) s
 table=(opt,rrhf)
 ----------------------------------------------------------------------
 -----
 title
 -----
 Symbolic Z-matrix:
 Charge =  0 Multiplicity = 1

 SCF Done:  E(RHF) =  -447.301185779     A.U. after   13 cycles
 Normal termination of Gaussian 16 at Sat Apr  5 22:33:09 2025.
 Gaussian 16:  ES64L-G16RevC.01  3-Jul-2019

 ----------------------------------------------------------------------
 #t hf aug-cc-pvdz iop(5/13=1,5/36=2,99/5=2) pseudo=read geom=check gue
 ss=(read,tcheck) scf=(maxcycle=1)
 ----------------------------------------------------------------------
 -----
 title
 -----
 Structure from the checkpoint file:  "2-3-6-7-tetraazanaphthalene.chk"
 Charge =  0 Multiplicity = 1

                         Standard orientation:
 ---------------------------------------------------------------------
 Center     Atomic      Atomic             Coordinates (Angstroms)
 Number     Number       Type             X           Y           Z
 ---------------------------------------------------------------------
      1          6           0        0.000000    0.000000    0.697725
      2          6           0        0.000000    1.263786    1.332760
      3          6           0        0.000000    0.000000   -0.697725
      4          7           0        0.000000    2.398784    0.679888
      5          6           0        0.000000    1.263786   -1.332760
      6          7           0        0.000000    2.398784   -0.679888
      7          6           0       -0.000000   -1.263786   -1.332760
      8          7           0       -0.000000   -2.398784   -0.679888
      9          6           0       -0.000000   -1.263786    1.332760
     10          7           0       -0.000000   -2.398784    0.679888
     11          1           0        0.000000   -1.340928   -2.414429
     12          1           0        0.000000    1.340928    2.414429
     13          1           0       -0.000000   -1.340928    2.414429
     14          1           0        0.000000    1.340928   -2.414429
 ---------------------------------------------------------------------

 SCF Done:  E(RHF) =  -447.740771483     A.U. after    2 cycles

 The electronic state is 1-AG.
 Alpha  occ. eigenvalues --  -15.57477 -15.57465 -15.56924 -15.56921 -11.32009
 Alpha  occ. eigenvalues --  -11.32000 -11.31984 -11.31973 -11.30604 -11.30526
 Alpha  occ. eigenvalues --   -1.36782  -1.35533  -1.17825  -1.16476  -1.15705
 Alpha  occ. eigenvalues --   -0.98842  -0.98112  -0.92521  -0.80039  -0.79851
 Alpha  occ. eigenvalues --   -0.79144  -0.71541  -0.69462  -0.65866  -0.65722
 Alpha  occ. eigenvalues --   -0.65118  -0.60688  -0.54250  -0.52188  -0.50830
 Alpha  occ. eigenvalues --   -0.47690  -0.46605  -0.45161  -0.40805
 Alpha virt. eigenvalues --    0.00547   0.01780   0.02799   0.03467   0.04506
 Alpha virt. eigenvalues --    0.05345   0.07055   0.07098   0.07129   0.10521
 Alpha virt. eigenvalues --    0.10972   0.11075   0.11522   0.13639   0.13741

 Mulliken charges:
               1
     1  C    1.286980
     2  C   -0.718577
     3  C    1.286980
     4  N    0.233543
     5  C   -0.718577
     6  N    0.233543
     7  C   -0.718577
     8  N    0.233543
     9  C   -0.718577
    10  N    0.233543
    11  H   -0.158456
    12  H   -0.158456
    13  H   -0.158456
    14  H   -0.158456
 Sum of Mulliken charges =  -0.00000

 Dipole moment (field-independent basis, Debye):
    X=              0.0000    Y=             -0.0000    Z=              0.0000  Tot=              0.0000

 Test job not archived.
 1\1\GINC-SE045\SP\RHF\Aug-CC-pVDZ\C6H4N4\OHZDE\05-Apr-2025\0\\#t hf au
 g-cc-pvdz iop(5/13=1,5/36=2,99/5=2) pseudo=read geom=check guess=(read
 ,tcheck) scf=(maxcycle=1)\\title\\0,1\C,0,0.,0.,0.697725\C,0,0.,1.2637
 86,1.33276\C,0,0.,0.,-0.697725\N,0,0.,2.398784,0.679888\C,0,0.,1.26378
 6,-1.33276\N,0,0.,2.398784,-0.679888\C,0,0.,-1.263786,-1.33276\N,0,0.,
 -2.398784,-0.679888\C,0,0.,-1.263786,1.33276\N,0,0.,-2.398784,0.679888
 \H,0,0.,-1.340928,-2.414429\H,0,0.,1.340928,2.414429\H,0,0.,-1.340928,
 2.414429\H,0,0.,1.340928,-2.414429\\Version=ES64L-G16RevC.01\State=1-A

 Normal termination of Gaussian 16 at Sat Apr  5 22:33:43 2025.
