 Gaussian 16, Revision C.01,

 ----------------------------------------------------------------------
 #t hf aug-cc-pvdz symm=none int=(grid=ultrafine) guess=(read,tcheck) s
 table=(opt,rrhf)
 ----------------------------------------------------------------------
 -----
 title
 -----
 Symbolic Z-matrix:
 Charge =  0 Multiplicity = 1

 SCF Done:  E(RHF) =  -234.202053432     A.U. after   11 cycles
 Normal termination of Gaussian 16 at Sat Apr  5 22:32:53 2025.
 Gaussian 16:  ES64L-G16RevC.01  3-Jul-2019

 ----------------------------------------------------------------------
 #t hf aug-cc-pvdz iop(5/13=1,5/36=2,99/5=2) pseudo=read geom=check gue
 ss=(read,tcheck) scf=(maxcycle=1)
 ----------------------------------------------------------------------
 -----
 title
 -----
 Structure from the checkpoint file:  "2-3-dimethyl-2-butene.chk"
 Charge =  0 Multiplicity = 1

                         Standard orientation:
 ---------------------------------------------------------------------
 Center     Atomic      Atomic             Coordinates (Angstroms)
 Number     Number       Type             X           Y           Z
 ---------------------------------------------------------------------
      1          6           0        0.671348   -0.000000   -0.000000
      2          6           0       -0.671348    0.000000   -0.000000
      3          6           0        1.522644    1.246022    0.000000
      4          6           0        1.522644   -1.246022   -0.000000
      5          6           0       -1.522644   -1.246022    0.000000
      6          6           0       -1.522644    1.246022   -0.000000
      7          1           0        2.179680    1.256485    0.874962
      8          1           0        2.179680    1.256485   -0.874962
      9          1           0        0.958985    2.173276    0.000000
     10          1           0        2.179680   -1.256485    0.874962
     11          1           0        0.958985   -2.173276   -0.000000
     12          1           0        2.179680   -1.256485   -0.874962
     13          1           0       -2.179680   -1.256485   -0.874962
     14          1           0       -2.179680   -1.256485    0.874962
     15          1           0       -0.958985   -2.173276    0.000000
     16          1           0       -2.179680    1.256485   -0.874962
     17          1           0       -2.179680    1.256485    0.874962
     18          1           0       -0.958985    2.173276   -0.000000
 ---------------------------------------------------------------------

 SCF Done:  E(RHF) =  -234.464182790     A.U. after    2 cycles

 The electronic state is 1-AG.
 Alpha  occ. eigenvalues --  -11.22924 -11.22827 -11.22160 -11.22156 -11.22141
 Alpha  occ. eigenvalues --  -11.22130  -1.10571  -1.01313  -0.95001  -0.91557
 Alpha  occ. eigenvalues --   -0.86112  -0.68143  -0.64762  -0.60642  -0.60449
 Alpha  occ. eigenvalues --   -0.57531  -0.54167  -0.53521  -0.53146  -0.53063
 Alpha  occ. eigenvalues --   -0.51603  -0.50891  -0.46205  -0.32873
 Alpha virt. eigenvalues --    0.03593   0.03961   0.03996   0.04651   0.05192
 Alpha virt. eigenvalues --    0.06124   0.06307   0.07273   0.09043   0.09293
 Alpha virt. eigenvalues --    0.09331   0.10435   0.11541   0.13672   0.14221

 Mulliken charges:
               1
     1  C    0.196616
     2  C    0.196616
     3  C   -0.680221
     4  C   -0.680221
     5  C   -0.680221
     6  C   -0.680221
     7  H    0.273090
     8  H    0.273090
     9  H    0.035734
    10  H    0.273090
    11  H    0.035734
    12  H    0.273090
    13  H    0.273090
    14  H    0.273090
    15  H    0.035734
    16  H    0.273090
    17  H    0.273090
    18  H    0.035734
 Sum of Mulliken charges =  -0.00000

 Dipole moment (field-independent basis, Debye):
    X=              0.0000    Y=             -0.0000    Z=              0.0000  Tot=              0.0000

 Test job not archived.
 1\1\GINC-SE052\SP\RHF\Aug-CC-pVDZ\C6H12\OHZDE\05-Apr-2025\0\\#t hf aug
 -cc-pvdz iop(5/13=1,5/36=2,99/5=2) pseudo=read geom=check guess=(read,
 tcheck) scf=(maxcycle=1)\\title\\0,1\C,0,0.671348,0.,0.\C,0,-0.671348,
 0.,0.\C,0,1.522644,1.246022,0.\C,0,1.522644,-1.246022,0.\C,0,-1.522644
 ,-1.246022,0.\C,0,-1.522644,1.246022,0.\H,0,2.17968,1.256485,0.874962\
 H,0,2.17968,1.256485,-0.874962\H,0,0.958985,2.173276,0.\H,0,2.17968,-1
 .256485,0.874962\H,0,0.958985,-2.173276,0.\H,0,2.17968,-1.256485,-0.87
 4962\H,0,-2.17968,-1.256485,-0.874962\H,0,-2.17968,-1.256485,0.874962\

 Normal termination of Gaussian 16 at Sat Apr  5 22:33:23 2025.
