 Gaussian 16, Revision C.01,

 ----------------------------------------------------------------------
 #t hf aug-cc-pvdz symm=none int=(grid=ultrafine) guess=(read,tcheck) s
 table=(opt,rrhf)
 ----------------------------------------------------------------------
 -----
 title
 -----
 Symbolic Z-matrix:
 Charge =  0 Multiplicity = 1

 SCF Done:  E(RHF) =  -235.388230937     A.U. after   11 cycles
 Normal termination of Gaussian 16 at Sat Apr  5 22:34:53 2025.
 Gaussian 16:  ES64L-G16RevC.01  3-Jul-2019

 ----------------------------------------------------------------------
 #t hf aug-cc-pvdz iop(5/13=1,5/36=2,99/5=2) pseudo=read geom=check gue
 ss=(read,tcheck) scf=(maxcycle=1)
 ----------------------------------------------------------------------
 -----
 title
 -----
 Structure from the checkpoint file:  "2-3-dimethylbutane.chk"
 Charge =  0 Multiplicity = 1

                         Standard orientation:
 ---------------------------------------------------------------------
 Center     Atomic      Atomic             Coordinates (Angstroms)
 Number     Number       Type             X           Y           Z
 ---------------------------------------------------------------------
      1          6           0       -0.230967    0.739015    0.000000
      2          6           0        0.230967    1.496803    1.250954
      3          6           0        0.230967    1.496803   -1.250954
      4          1           0       -0.181582    1.079091    2.167949
      5          1           0        1.320994    1.480162    1.335695
      6          1           0        1.320994    1.480162   -1.335695
      7          1           0       -0.181582    1.079091   -2.167949
      8          1           0       -0.077437    2.542265    1.200790
      9          1           0       -0.077437    2.542265   -1.200790
     10          1           0       -1.328230    0.732224    0.000000
     11          6           0        0.230967   -0.739015    0.000000
     12          6           0       -0.230967   -1.496803    1.250954
     13          6           0       -0.230967   -1.496803   -1.250954
     14          1           0        0.181582   -1.079091    2.167949
     15          1           0       -1.320994   -1.480162    1.335695
     16          1           0       -1.320994   -1.480162   -1.335695
     17          1           0        0.077437   -2.542265   -1.200790
     18          1           0        0.181582   -1.079091   -2.167949
     19          1           0        0.077437   -2.542265    1.200790
     20          1           0        1.328230   -0.732224    0.000000
 ---------------------------------------------------------------------

 SCF Done:  E(RHF) =  -235.656462973     A.U. after    2 cycles

 The electronic state is 1-AG.
 Alpha  occ. eigenvalues --  -11.22785 -11.22762 -11.21615 -11.21609 -11.21595
 Alpha  occ. eigenvalues --  -11.21590  -1.10349  -1.01231  -0.94028  -0.91038
 Alpha  occ. eigenvalues --   -0.83470  -0.75440  -0.63288  -0.62752  -0.59679
 Alpha  occ. eigenvalues --   -0.58662  -0.55092  -0.54422  -0.53305  -0.51618
 Alpha  occ. eigenvalues --   -0.50676  -0.48730  -0.45942  -0.45355  -0.44430
 Alpha virt. eigenvalues --    0.03509   0.03728   0.03804   0.04226   0.05947
 Alpha virt. eigenvalues --    0.06054   0.06548   0.06561   0.06687   0.08834
 Alpha virt. eigenvalues --    0.09563   0.09665   0.09715   0.12104   0.13423

 Mulliken charges:
               1
     1  C   -1.034711
     2  C   -0.049378
     3  C   -0.049378
     4  H    0.148189
     5  H    0.223665
     6  H    0.223665
     7  H    0.148189
     8  H    0.135985
     9  H    0.135985
    10  H    0.117788
    11  C   -1.034711
    12  C   -0.049378
    13  C   -0.049378
    14  H    0.148189
    15  H    0.223665
    16  H    0.223665
    17  H    0.135985
    18  H    0.148189
    19  H    0.135985
    20  H    0.117788
 Sum of Mulliken charges =   0.00000

 Dipole moment (field-independent basis, Debye):
    X=             -0.0000    Y=              0.0000    Z=             -0.0000  Tot=              0.0000

 Test job not archived.
 1\1\GINC-SE028\SP\RHF\Aug-CC-pVDZ\C6H14\OHZDE\05-Apr-2025\0\\#t hf aug
 -cc-pvdz iop(5/13=1,5/36=2,99/5=2) pseudo=read geom=check guess=(read,
 tcheck) scf=(maxcycle=1)\\title\\0,1\C,0,-0.230967,0.739015,0.\C,0,0.2
 30967,1.496803,1.250954\C,0,0.230967,1.496803,-1.250954\H,0,-0.181582,
 1.079091,2.167949\H,0,1.320994,1.480162,1.335695\H,0,1.320994,1.480162
 ,-1.335695\H,0,-0.181582,1.079091,-2.167949\H,0,-0.077437,2.542265,1.2
 0079\H,0,-0.077437,2.542265,-1.20079\H,0,-1.32823,0.732224,0.\C,0,0.23
 0967,-0.739015,0.\C,0,-0.230967,-1.496803,1.250954\C,0,-0.230967,-1.49

 Normal termination of Gaussian 16 at Sat Apr  5 22:34:59 2025.
