 Gaussian 16, Revision C.01,

 ----------------------------------------------------------------------
 #t hf aug-cc-pvdz symm=none int=(grid=ultrafine) guess=(read,tcheck) s
 table=(opt,rrhf)
 ----------------------------------------------------------------------
 -----
 title
 -----
 Symbolic Z-matrix:
 Charge =  0 Multiplicity = 1

 SCF Done:  E(RHF) =  -233.020848736     A.U. after   12 cycles
 Normal termination of Gaussian 16 at Sat Apr  5 22:32:49 2025.
 Gaussian 16:  ES64L-G16RevC.01  3-Jul-2019

 ----------------------------------------------------------------------
 #t hf aug-cc-pvdz iop(5/13=1,5/36=2,99/5=2) pseudo=read geom=check gue
 ss=(read,tcheck) scf=(maxcycle=1)
 ----------------------------------------------------------------------
 -----
 title
 -----
 Structure from the checkpoint file:  "2-3-dimethylbutadiene.chk"
 Charge =  0 Multiplicity = 1

                         Standard orientation:
 ---------------------------------------------------------------------
 Center     Atomic      Atomic             Coordinates (Angstroms)
 Number     Number       Type             X           Y           Z
 ---------------------------------------------------------------------
      1          6           0        0.046940    0.737664    0.000000
      2          6           0       -0.046940   -0.737664    0.000000
      3          6           0        1.229298   -1.540526    0.000000
      4          6           0       -1.229298   -1.365802   -0.000001
      5          6           0       -1.229298    1.540526    0.000000
      6          6           0        1.229298    1.365802   -0.000001
      7          1           0        1.011005   -2.606697    0.000002
      8          1           0        1.839074   -1.319891   -0.878346
      9          1           0        1.839074   -1.319889    0.878347
     10          1           0       -1.285187   -2.445953   -0.000001
     11          1           0       -2.170393   -0.836461   -0.000001
     12          1           0       -1.839074    1.319889    0.878347
     13          1           0       -1.011005    2.606697    0.000002
     14          1           0       -1.839074    1.319891   -0.878346
     15          1           0        2.170393    0.836461   -0.000001
     16          1           0        1.285187    2.445953   -0.000001
 ---------------------------------------------------------------------

 SCF Done:  E(RHF) =  -233.275014941     A.U. after    2 cycles

 The electronic state is 1-A.
 Alpha  occ. eigenvalues --  -11.24787 -11.24755 -11.22874 -11.22867 -11.22803
 Alpha  occ. eigenvalues --  -11.22799  -1.12143  -1.02939  -0.95647  -0.91647
 Alpha  occ. eigenvalues --   -0.81508  -0.69903  -0.66827  -0.63047  -0.58763
 Alpha  occ. eigenvalues --   -0.56831  -0.56656  -0.55806  -0.54059  -0.51601
 Alpha  occ. eigenvalues --   -0.48242  -0.41244  -0.32824
 Alpha virt. eigenvalues --    0.03638   0.03898   0.03912   0.04833   0.05200
 Alpha virt. eigenvalues --    0.05719   0.06738   0.08241   0.08487   0.09118
 Alpha virt. eigenvalues --    0.10003   0.11316   0.12584   0.13243   0.14141

 Mulliken charges:
               1
     1  C    0.402272
     2  C    0.402272
     3  C   -0.870459
     4  C    0.238020
     5  C   -0.870459
     6  C    0.238020
     7  H   -0.035175
     8  H    0.337842
     9  H    0.337844
    10  H   -0.171015
    11  H   -0.239329
    12  H    0.337844
    13  H   -0.035175
    14  H    0.337842
    15  H   -0.239329
    16  H   -0.171015
 Sum of Mulliken charges =   0.00000

 Dipole moment (field-independent basis, Debye):
    X=              0.0000    Y=             -0.0000    Z=              0.0000  Tot=              0.0000

 Test job not archived.
 1\1\GINC-SE085\SP\RHF\Aug-CC-pVDZ\C6H10\OHZDE\05-Apr-2025\0\\#t hf aug
 -cc-pvdz iop(5/13=1,5/36=2,99/5=2) pseudo=read geom=check guess=(read,
 tcheck) scf=(maxcycle=1)\\title\\0,1\C,0,0.04694,0.737664,0.\C,0,-0.04
 694,-0.737664,0.\C,0,1.229298,-1.540526,0.\C,0,-1.229298,-1.365802,-0.
 000001\C,0,-1.229298,1.540526,0.\C,0,1.229298,1.365802,-0.000001\H,0,1
 .011005,-2.606697,0.000002\H,0,1.839074,-1.319891,-0.878346\H,0,1.8390
 74,-1.319889,0.878347\H,0,-1.285187,-2.445953,-0.000001\H,0,-2.170393,
 -0.836461,-0.000001\H,0,-1.839074,1.319889,0.878347\H,0,-1.011005,2.60

 Normal termination of Gaussian 16 at Sat Apr  5 22:33:34 2025.
