 Gaussian 16, Revision C.01,

 ----------------------------------------------------------------------
 #t hf aug-cc-pvdz symm=none int=(grid=ultrafine) guess=(read,tcheck) s
 table=(opt,rrhf)
 ----------------------------------------------------------------------
 -----
 title
 -----
 Symbolic Z-matrix:
 Charge =  0 Multiplicity = 1

 SCF Done:  E(RHF) =  -412.397843294     A.U. after   15 cycles
 Normal termination of Gaussian 16 at Sat Apr  5 22:32:34 2025.
 Gaussian 16:  ES64L-G16RevC.01  3-Jul-2019

 ----------------------------------------------------------------------
 #t hf aug-cc-pvdz iop(5/13=1,5/36=2,99/5=2) pseudo=read geom=check gue
 ss=(read,tcheck) scf=(maxcycle=1)
 ----------------------------------------------------------------------
 -----
 title
 -----
 Structure from the checkpoint file:  "2-3-diamino-1-3-butadiene-1-4-dione.chk"
 Charge =  0 Multiplicity = 1

                         Standard orientation:
 ---------------------------------------------------------------------
 Center     Atomic      Atomic             Coordinates (Angstroms)
 Number     Number       Type             X           Y           Z
 ---------------------------------------------------------------------
      1          8           0        0.662791    2.150274   -1.440821
      2          8           0       -0.662791   -2.150274   -1.440821
      3          7           0       -1.126502    1.290107    1.322386
      4          7           0        1.126502   -1.290107    1.322386
      5          6           0       -0.235728    0.702221    0.369706
      6          6           0        0.235728   -0.702221    0.369706
      7          6           0        0.235728    1.488873   -0.589450
      8          6           0       -0.235728   -1.488873   -0.589450
      9          1           0       -0.752204    1.293584    2.261984
     10          1           0       -2.038657    0.851873    1.326339
     11          1           0        0.752204   -1.293584    2.261984
     12          1           0        2.038657   -0.851873    1.326339
 ---------------------------------------------------------------------

 SCF Done:  E(RHF) =  -412.801047218     A.U. after    2 cycles

 The electronic state is 1-A.
 Alpha  occ. eigenvalues --  -20.62373 -20.62371 -15.52059 -15.52039 -11.39733
 Alpha  occ. eigenvalues --  -11.39729 -11.29320 -11.29282  -1.56373  -1.56353
 Alpha  occ. eigenvalues --   -1.23753  -1.20169  -1.07045  -0.99253  -0.79207
 Alpha  occ. eigenvalues --   -0.75983  -0.72868  -0.72810  -0.72661  -0.70954
 Alpha  occ. eigenvalues --   -0.69681  -0.64334  -0.64215  -0.60349  -0.58844
 Alpha  occ. eigenvalues --   -0.50425  -0.46265  -0.39128  -0.34917
 Alpha virt. eigenvalues --    0.02065   0.04079   0.05499   0.05736   0.07407
 Alpha virt. eigenvalues --    0.07781   0.09704   0.09971   0.10574   0.10636
 Alpha virt. eigenvalues --    0.11038   0.13163   0.13571   0.14388   0.15012

 Mulliken charges:
               1
     1  O   -0.836207
     2  O   -0.836207
     3  N    0.640215
     4  N    0.640215
     5  C   -0.590479
     6  C   -0.590479
     7  C    0.398378
     8  C    0.398378
     9  H    0.184176
    10  H    0.203917
    11  H    0.184176
    12  H    0.203917
 Sum of Mulliken charges =  -0.00000

 Dipole moment (field-independent basis, Debye):
    X=              0.0000    Y=             -0.0000    Z=              3.1224  Tot=              3.1224

 Test job not archived.
 1\1\GINC-SE106\SP\RHF\Aug-CC-pVDZ\C4H4N2O2\OHZDE\05-Apr-2025\0\\#t hf
 aug-cc-pvdz iop(5/13=1,5/36=2,99/5=2) pseudo=read geom=check guess=(re
 ad,tcheck) scf=(maxcycle=1)\\title\\0,1\O,0,0.662791,2.150274,-1.44082
 1\O,0,-0.662791,-2.150274,-1.440821\N,0,-1.126502,1.290107,1.322386\N,
 0,1.126502,-1.290107,1.322386\C,0,-0.235728,0.702221,0.369706\C,0,0.23
 5728,-0.702221,0.369706\C,0,0.235728,1.488873,-0.58945\C,0,-0.235728,-
 1.488873,-0.58945\H,0,-0.752204,1.293584,2.261984\H,0,-2.038657,0.8518
 73,1.326339\H,0,0.752204,-1.293584,2.261984\H,0,2.038657,-0.851873,1.3

 Normal termination of Gaussian 16 at Sat Apr  5 22:32:39 2025.
