 Gaussian 16, Revision C.01,

 ----------------------------------------------------------------------
 #t hf aug-cc-pvdz symm=none int=(grid=ultrafine) guess=(read,tcheck) s
 table=(opt,rrhf)
 ----------------------------------------------------------------------
 -----
 title
 -----
 Symbolic Z-matrix:
 Charge =  0 Multiplicity = 1

 SCF Done:  E(RHF) =  -981.995433738     A.U. after   15 cycles
 Normal termination of Gaussian 16 at Sat Apr  5 22:32:27 2025.
 Gaussian 16:  ES64L-G16RevC.01  3-Jul-2019

 ----------------------------------------------------------------------
 #t hf aug-cc-pvdz iop(5/13=1,5/36=2,99/5=2) pseudo=read geom=check gue
 ss=(read,tcheck) scf=(maxcycle=1)
 ----------------------------------------------------------------------
 -----
 title
 -----
 Structure from the checkpoint file:  "2-3-dihydro-1-3-4-thiadiazole-2-thiol.chk"
 Charge =  0 Multiplicity = 1

                         Standard orientation:
 ---------------------------------------------------------------------
 Center     Atomic      Atomic             Coordinates (Angstroms)
 Number     Number       Type             X           Y           Z
 ---------------------------------------------------------------------
      1         16           0        0.807257   -1.220346    0.197198
      2         16           0       -1.948226   -0.076614   -0.421874
      3          7           0        0.326375    1.278014    0.589110
      4          7           0        1.350166    1.260862   -0.340449
      5          6           0       -0.427430    0.038051    0.678459
      6          6           0        1.721627    0.074068   -0.599627
      7          1           0       -2.794969    0.485791    0.462355
      8          1           0       -0.239031    2.107672    0.478029
      9          1           0       -0.761306   -0.139902    1.694067
     10          1           0        2.549843   -0.147039   -1.253252
 ---------------------------------------------------------------------

 SCF Done:  E(RHF) =  -982.303173204     A.U. after    2 cycles

 The electronic state is 1-A.
 Alpha  occ. eigenvalues --  -93.98174 -93.96432 -15.55781 -15.55218 -11.35824
 Alpha  occ. eigenvalues --  -11.31621  -8.26379  -8.24508  -6.24146  -6.24045
 Alpha  occ. eigenvalues --   -6.23782  -6.22327  -6.22197  -6.21969  -1.35727
 Alpha  occ. eigenvalues --   -1.15261  -1.10378  -1.01037  -0.87481  -0.84273
 Alpha  occ. eigenvalues --   -0.74836  -0.68950  -0.66419  -0.59458  -0.57748
 Alpha  occ. eigenvalues --   -0.52564  -0.49578  -0.48292  -0.45630  -0.38578
 Alpha  occ. eigenvalues --   -0.35342
 Alpha virt. eigenvalues --    0.03239   0.04207   0.04984   0.05921   0.07149
 Alpha virt. eigenvalues --    0.08416   0.09305   0.09859   0.11012   0.11975
 Alpha virt. eigenvalues --    0.12628   0.13040   0.14606   0.15407   0.15938

 Mulliken charges:
               1
     1  S    0.685551
     2  S   -0.020651
     3  N   -0.001919
     4  N    0.340009
     5  C   -0.853960
     6  C   -0.714304
     7  H    0.330119
     8  H    0.192022
     9  H    0.057486
    10  H   -0.014352
 Sum of Mulliken charges =  -0.00000

 Dipole moment (field-independent basis, Debye):
    X=             -0.7810    Y=             -0.5598    Z=              0.9180  Tot=              1.3289

 Test job not archived.
 1\1\GINC-SE220\SP\RHF\Aug-CC-pVDZ\C2H4N2S2\OHZDE\05-Apr-2025\0\\#t hf
 aug-cc-pvdz iop(5/13=1,5/36=2,99/5=2) pseudo=read geom=check guess=(re
 ad,tcheck) scf=(maxcycle=1)\\title\\0,1\S,0,0.807257,-1.220346,0.19719
 8\S,0,-1.948226,-0.076615,-0.421874\N,0,0.326375,1.278014,0.58911\N,0,
 1.350166,1.260862,-0.340449\C,0,-0.42743,0.038051,0.678459\C,0,1.72162
 7,0.074068,-0.599627\H,0,-2.794969,0.48579,0.462355\H,0,-0.239031,2.10
 7672,0.478029\H,0,-0.761306,-0.139902,1.694067\H,0,2.549843,-0.147039,
 -1.253252\\Version=ES64L-G16RevC.01\State=1-A\HF=-982.3031732\RMSD=1.7

 Normal termination of Gaussian 16 at Sat Apr  5 22:32:32 2025.
