 Gaussian 16, Revision C.01,

 ----------------------------------------------------------------------
 #t hf aug-cc-pvdz symm=none int=(grid=ultrafine) guess=(read,tcheck) s
 table=(opt,rrhf)
 ----------------------------------------------------------------------
 -----
 title
 -----
 Symbolic Z-matrix:
 Charge =  0 Multiplicity = 1

 SCF Done:  E(RHF) =  -627.364046593     A.U. after   14 cycles
 Normal termination of Gaussian 16 at Sat Apr  5 22:32:30 2025.
 Gaussian 16:  ES64L-G16RevC.01  3-Jul-2019

 ----------------------------------------------------------------------
 #t hf aug-cc-pvdz iop(5/13=1,5/36=2,99/5=2) pseudo=read geom=check gue
 ss=(read,tcheck) scf=(maxcycle=1)
 ----------------------------------------------------------------------
 -----
 title
 -----
 Structure from the checkpoint file:  "2-3-dihydrothiophene-2-ol.chk"
 Charge =  0 Multiplicity = 1

                         Standard orientation:
 ---------------------------------------------------------------------
 Center     Atomic      Atomic             Coordinates (Angstroms)
 Number     Number       Type             X           Y           Z
 ---------------------------------------------------------------------
      1         16           0       -0.392973   -1.265072    0.210669
      2          6           0        0.940796    0.017802    0.413655
      3          6           0        0.214760    1.365119    0.480256
      4          6           0       -1.100527    1.217509   -0.232047
      5          6           0       -1.506870   -0.035216   -0.406130
      6          8           0        1.821436    0.051739   -0.690597
      7          1           0        1.477232   -0.222621    1.331943
      8          1           0        0.856680    2.126103    0.033990
      9          1           0       -1.678393    2.075103   -0.546595
     10          1           0       -2.430535   -0.355575   -0.862849
     11          1           0        0.048225    1.648671    1.524486
     12          1           0        2.153911   -0.835726   -0.861306
 ---------------------------------------------------------------------

 SCF Done:  E(RHF) =  -627.660935109     A.U. after    2 cycles

 The electronic state is 1-A.
 Alpha  occ. eigenvalues --  -93.94974 -20.56167 -11.33290 -11.26851 -11.24995
 Alpha  occ. eigenvalues --  -11.24512  -8.23188  -6.20979  -6.20858  -6.20631
 Alpha  occ. eigenvalues --   -1.46711  -1.14865  -0.99883  -0.98481  -0.81606
 Alpha  occ. eigenvalues --   -0.76239  -0.71719  -0.68910  -0.60529  -0.58105
 Alpha  occ. eigenvalues --   -0.57327  -0.55646  -0.50066  -0.47550  -0.44276
 Alpha  occ. eigenvalues --   -0.43303  -0.32159
 Alpha virt. eigenvalues --    0.03739   0.03858   0.04442   0.04791   0.06144
 Alpha virt. eigenvalues --    0.06595   0.08393   0.11575   0.11892   0.12219
 Alpha virt. eigenvalues --    0.12749   0.14282   0.15042   0.15362   0.15892

 Mulliken charges:
               1
     1  S    0.440598
     2  C    0.674751
     3  C   -0.716096
     4  C    0.616512
     5  C   -0.441563
     6  O   -1.254105
     7  H    0.183953
     8  H    0.205086
     9  H   -0.090189
    10  H   -0.164985
    11  H    0.215361
    12  H    0.330676
 Sum of Mulliken charges =  -0.00000

 Dipole moment (field-independent basis, Debye):
    X=              0.0681    Y=              0.6241    Z=              0.5905  Tot=              0.8619

 Test job not archived.
 1\1\GINC-SE196\SP\RHF\Aug-CC-pVDZ\C4H6O1S1\OHZDE\05-Apr-2025\0\\#t hf
 aug-cc-pvdz iop(5/13=1,5/36=2,99/5=2) pseudo=read geom=check guess=(re
 ad,tcheck) scf=(maxcycle=1)\\title\\0,1\S,0,-0.392972,-1.265072,0.2106
 69\C,0,0.940796,0.017803,0.413655\C,0,0.214759,1.365119,0.480256\C,0,-
 1.100528,1.217508,-0.232047\C,0,-1.50687,-0.035217,-0.40613\O,0,1.8214
 36,0.05174,-0.690597\H,0,1.477232,-0.22262,1.331943\H,0,0.856678,2.126
 104,0.03399\H,0,-1.678395,2.075102,-0.546595\H,0,-2.430535,-0.355577,-
 0.862849\H,0,0.048224,1.648671,1.524486\H,0,2.153911,-0.835724,-0.8613

 Normal termination of Gaussian 16 at Sat Apr  5 22:32:34 2025.
