 Gaussian 16, Revision C.01,

 ----------------------------------------------------------------------
 #t hf aug-cc-pvdz symm=none int=(grid=ultrafine) guess=(read,tcheck) s
 table=(opt,rrhf)
 ----------------------------------------------------------------------
 -----
 title
 -----
 Symbolic Z-matrix:
 Charge =  0 Multiplicity = 1

 SCF Done:  E(RHF) =  -244.517440681     A.U. after   14 cycles
 Normal termination of Gaussian 16 at Sat Apr  5 22:32:21 2025.
 Gaussian 16:  ES64L-G16RevC.01  3-Jul-2019

 ----------------------------------------------------------------------
 #t hf aug-cc-pvdz iop(5/13=1,5/36=2,99/5=2) pseudo=read geom=check gue
 ss=(read,tcheck) scf=(maxcycle=1)
 ----------------------------------------------------------------------
 -----
 title
 -----
 Structure from the checkpoint file:  "2-3-dihydro-1-3-oxazole.chk"
 Charge =  0 Multiplicity = 1

                         Standard orientation:
 ---------------------------------------------------------------------
 Center     Atomic      Atomic             Coordinates (Angstroms)
 Number     Number       Type             X           Y           Z
 ---------------------------------------------------------------------
      1          8           0       -0.353454   -1.104461    0.000000
      2          7           0        0.000000    1.089677    0.000000
      3          6           0       -1.093179    0.134053    0.000000
      4          6           0        0.952187   -0.943381    0.000000
      5          6           0        1.214335    0.602031    0.000000
      6          1           0       -0.198428    2.081953    0.000000
      7          1           0       -1.707000    0.184886    0.898569
      8          1           0       -1.707000    0.184886   -0.898569
 ---------------------------------------------------------------------

 SCF Done:  E(RHF) =  -244.755223305     A.U. after    2 cycles

 The electronic state is 1-A'.
 Alpha  occ. eigenvalues --  -20.63479 -15.58719 -11.36918 -11.31387 -11.27222
 Alpha  occ. eigenvalues --   -1.56642  -1.29565  -1.04294  -0.91184  -0.84338
 Alpha  occ. eigenvalues --   -0.74570  -0.73279  -0.66435  -0.59835  -0.55563
 Alpha  occ. eigenvalues --   -0.52322  -0.39120  -0.37063
 Alpha virt. eigenvalues --    0.01976   0.03414   0.04186   0.04431   0.07767
 Alpha virt. eigenvalues --    0.08972   0.10026   0.11362   0.12930   0.13861
 Alpha virt. eigenvalues --    0.13961   0.15537   0.15821   0.16191   0.17544

 Mulliken charges:
               1
     1  O   -1.076223
     2  N    0.641316
     3  C    0.400849
     4  C    0.447919
     5  C   -0.681918
     6  H    0.063506
     7  H    0.102276
     8  H    0.102276
 Sum of Mulliken charges =  -0.00000

 Dipole moment (field-independent basis, Debye):
    X=             -5.2185    Y=              2.8267    Z=             -0.0000  Tot=              5.9349

 Test job not archived.
 1\1\GINC-SE221\SP\RHF\Aug-CC-pVDZ\C3H3N1O1\OHZDE\05-Apr-2025\0\\#t hf
 aug-cc-pvdz iop(5/13=1,5/36=2,99/5=2) pseudo=read geom=check guess=(re
 ad,tcheck) scf=(maxcycle=1)\\title\\0,1\O,0,-0.353454,-1.104461,0.\N,0
 ,0.,1.089677,0.\C,0,-1.093179,0.134053,0.\C,0,0.952187,-0.943381,0.\C,
 0,1.214335,0.602031,0.\H,0,-0.198428,2.081953,0.\H,0,-1.707,0.184886,0
 .898569\H,0,-1.707,0.184886,-0.898569\\Version=ES64L-G16RevC.01\State=
 1-A'\HF=-244.7552233\RMSD=1.220e-02\Dipole=-2.0531304,1.1121233,0.\Qua
 drupole=-2.0458687,-0.2561534,2.3020221,-1.2610217,0.,0.\PG=CS [SG(C3H

 Normal termination of Gaussian 16 at Sat Apr  5 22:32:23 2025.
