 Gaussian 16, Revision C.01,

 ----------------------------------------------------------------------
 #t hf aug-cc-pvdz symm=none int=(grid=ultrafine) guess=(read,tcheck) s
 table=(opt,rrhf)
 ----------------------------------------------------------------------
 -----
 title
 -----
 Symbolic Z-matrix:
 Charge =  0 Multiplicity = 1

 SCF Done:  E(RHF) =  -324.808225430     A.U. after   15 cycles
 Normal termination of Gaussian 16 at Sat Apr  5 22:34:33 2025.
 Gaussian 16:  ES64L-G16RevC.01  3-Jul-2019

 ----------------------------------------------------------------------
 #t hf aug-cc-pvdz iop(5/13=1,5/36=2,99/5=2) pseudo=read geom=check gue
 ss=(read,tcheck) scf=(maxcycle=1)
 ----------------------------------------------------------------------
 -----
 title
 -----
 Structure from the checkpoint file:  "2-3-dimethylpyridine.chk"
 Charge =  0 Multiplicity = 1

                         Standard orientation:
 ---------------------------------------------------------------------
 Center     Atomic      Atomic             Coordinates (Angstroms)
 Number     Number       Type             X           Y           Z
 ---------------------------------------------------------------------
      1          6           0        1.299716   -1.582465    0.000000
      2          6           0       -0.088674   -1.564388    0.000000
      3          6           0        1.965699   -0.367634    0.000000
      4          6           0       -0.770283   -0.353502    0.000000
      5          6           0        0.000000    0.825444    0.000000
      6          6           0       -2.273731   -0.308186    0.000000
      7          6           0       -0.652970    2.180273    0.000000
      8          7           0        1.335751    0.807581    0.000000
      9          1           0        1.849802   -2.513184    0.000000
     10          1           0       -0.646412   -2.492987    0.000000
     11          1           0        3.049088   -0.329331    0.000000
     12          1           0       -2.693885   -1.312990    0.000000
     13          1           0       -2.659868    0.216687    0.876553
     14          1           0       -2.659868    0.216687   -0.876553
     15          1           0       -1.290044    2.316709    0.877173
     16          1           0        0.112433    2.951380    0.000000
     17          1           0       -1.290044    2.316709   -0.877173
 ---------------------------------------------------------------------

 SCF Done:  E(RHF) =  -325.149003939     A.U. after    2 cycles

 The electronic state is 1-A'.
 Alpha  occ. eigenvalues --  -15.49418 -11.27821 -11.26968 -11.25485 -11.24607
 Alpha  occ. eigenvalues --  -11.23990 -11.23863 -11.22941  -1.25457  -1.09988
 Alpha  occ. eigenvalues --   -1.06666  -0.97949  -0.94101  -0.84741  -0.83345
 Alpha  occ. eigenvalues --   -0.70738  -0.69581  -0.62873  -0.61155  -0.59136
 Alpha  occ. eigenvalues --   -0.58119  -0.56515  -0.56432  -0.54252  -0.53063
 Alpha  occ. eigenvalues --   -0.51349  -0.44050  -0.39346  -0.33623
 Alpha virt. eigenvalues --    0.03325   0.03540   0.03917   0.04982   0.04991
 Alpha virt. eigenvalues --    0.05642   0.07439   0.07766   0.08688   0.09032
 Alpha virt. eigenvalues --    0.09765   0.11185   0.11272   0.12474   0.13507

 Mulliken charges:
               1
     1  C    0.303967
     2  C    0.366877
     3  C   -0.691501
     4  C    1.083321
     5  C   -1.925885
     6  C   -0.648819
     7  C   -0.353338
     8  N    1.152172
     9  H   -0.211201
    10  H   -0.239552
    11  H   -0.197419
    12  H   -0.002136
    13  H    0.316773
    14  H    0.316773
    15  H    0.321880
    16  H    0.086209
    17  H    0.321880
 Sum of Mulliken charges =  -0.00000

 Dipole moment (field-independent basis, Debye):
    X=             -1.9393    Y=             -1.6824    Z=              0.0000  Tot=              2.5674

 Test job not archived.
 1\1\GINC-SE104\SP\RHF\Aug-CC-pVDZ\C7H9N1\OHZDE\05-Apr-2025\0\\#t hf au
 g-cc-pvdz iop(5/13=1,5/36=2,99/5=2) pseudo=read geom=check guess=(read
 ,tcheck) scf=(maxcycle=1)\\title\\0,1\C,0,1.299716,-1.582465,0.\C,0,-0
 .088674,-1.564388,0.\C,0,1.965699,-0.367634,0.\C,0,-0.770283,-0.353502
 ,0.\C,0,0.,0.825444,0.\C,0,-2.273731,-0.308186,0.\C,0,-0.65297,2.18027
 3,0.\N,0,1.335751,0.807581,0.\H,0,1.849802,-2.513184,0.\H,0,-0.646412,
 -2.492987,0.\H,0,3.049088,-0.329331,0.\H,0,-2.693885,-1.31299,0.\H,0,-
 2.659868,0.216687,0.876553\H,0,-2.659868,0.216687,-0.876553\H,0,-1.290

 Normal termination of Gaussian 16 at Sat Apr  5 22:34:43 2025.
