 Gaussian 16, Revision C.01,

 ----------------------------------------------------------------------
 #t hf aug-cc-pvdz symm=none int=(grid=ultrafine) guess=(read,tcheck) s
 table=(opt,rrhf)
 ----------------------------------------------------------------------
 -----
 title
 -----
 Symbolic Z-matrix:
 Charge =  0 Multiplicity = 1

 SCF Done:  E(RHF) =  -702.155392565     A.U. after   13 cycles
 Normal termination of Gaussian 16 at Sat Apr  5 22:32:43 2025.
 Gaussian 16:  ES64L-G16RevC.01  3-Jul-2019

 ----------------------------------------------------------------------
 #t hf aug-cc-pvdz iop(5/13=1,5/36=2,99/5=2) pseudo=read geom=check gue
 ss=(read,tcheck) scf=(maxcycle=1)
 ----------------------------------------------------------------------
 -----
 title
 -----
 Structure from the checkpoint file:  "2-3-dihydrothiophene-1-1-dioxide.chk"
 Charge =  0 Multiplicity = 1

                         Standard orientation:
 ---------------------------------------------------------------------
 Center     Atomic      Atomic             Coordinates (Angstroms)
 Number     Number       Type             X           Y           Z
 ---------------------------------------------------------------------
      1          8           0        1.368073   -0.041927    1.328654
      2         16           0        0.744052    0.002026    0.009543
      3          8           0        1.597344    0.012383   -1.173724
      4          6           0       -0.537812   -1.301973   -0.132311
      5          6           0       -1.894471   -0.605338    0.038088
      6          6           0       -1.683857    0.887280   -0.028918
      7          6           0       -0.438708    1.331798   -0.052416
      8          1           0       -0.319493   -2.041155    0.632439
      9          1           0       -0.409741   -1.736972   -1.119449
     10          1           0       -2.352765   -0.862446    0.995568
     11          1           0       -2.595132   -0.923617   -0.735185
     12          1           0       -2.540636    1.548631   -0.035815
     13          1           0       -0.081319    2.348887   -0.076348
 ---------------------------------------------------------------------

 SCF Done:  E(RHF) =  -702.530421088     A.U. after    2 cycles

 The electronic state is 1-A.
 Alpha  occ. eigenvalues --  -94.18709 -20.53051 -20.52979 -11.29805 -11.29365
 Alpha  occ. eigenvalues --  -11.28780 -11.28757  -8.44032  -6.42118  -6.41926
 Alpha  occ. eigenvalues --   -6.41877  -1.54158  -1.42220  -1.17934  -1.04324
 Alpha  occ. eigenvalues --   -0.99294  -0.84834  -0.79626  -0.72980  -0.69120
 Alpha  occ. eigenvalues --   -0.65559  -0.64503  -0.62784  -0.59366  -0.57324
 Alpha  occ. eigenvalues --   -0.56729  -0.48911  -0.48108  -0.46245  -0.43079
 Alpha  occ. eigenvalues --   -0.41134
 Alpha virt. eigenvalues --    0.02283   0.03406   0.03942   0.04398   0.05826
 Alpha virt. eigenvalues --    0.06822   0.09064   0.09906   0.10840   0.12006
 Alpha virt. eigenvalues --    0.12678   0.13896   0.14238   0.14536   0.14810

 Mulliken charges:
               1
     1  O   -1.608418
     2  S    3.800682
     3  O   -1.630028
     4  C   -0.703644
     5  C   -0.551090
     6  C    0.422914
     7  C   -0.417604
     8  H    0.240951
     9  H    0.232542
    10  H    0.224141
    11  H    0.199584
    12  H   -0.094128
    13  H   -0.115902
 Sum of Mulliken charges =  -0.00000

 Dipole moment (field-independent basis, Debye):
    X=             -6.2110    Y=             -0.2424    Z=             -0.3805  Tot=              6.2274

 Test job not archived.
 1\1\GINC-SE223\SP\RHF\Aug-CC-pVDZ\C4H6O2S1\OHZDE\05-Apr-2025\0\\#t hf
 aug-cc-pvdz iop(5/13=1,5/36=2,99/5=2) pseudo=read geom=check guess=(re
 ad,tcheck) scf=(maxcycle=1)\\title\\0,1\O,0,1.368073,-0.041927,1.32865
 4\S,0,0.744052,0.002026,0.009543\O,0,1.597344,0.012383,-1.173724\C,0,-
 0.537812,-1.301973,-0.132311\C,0,-1.894471,-0.605338,0.038088\C,0,-1.6
 83857,0.88728,-0.028918\C,0,-0.438708,1.331798,-0.052416\H,0,-0.319494
 ,-2.041155,0.632439\H,0,-0.409741,-1.736972,-1.119449\H,0,-2.352765,-0
 .862446,0.995568\H,0,-2.595132,-0.923617,-0.735185\H,0,-2.540636,1.548

 Normal termination of Gaussian 16 at Sat Apr  5 22:33:23 2025.
