 Gaussian 16, Revision C.01,

 ----------------------------------------------------------------------
 #t hf aug-cc-pvdz symm=none int=(grid=ultrafine) guess=(read,tcheck) s
 table=(opt,rrhf)
 ----------------------------------------------------------------------
 -----
 title
 -----
 Symbolic Z-matrix:
 Charge =  0 Multiplicity = 1

 SCF Done:  E(RHF) =  -2216.13544418     A.U. after   15 cycles
 Normal termination of Gaussian 16 at Sat Apr  5 22:34:06 2025.
 Gaussian 16:  ES64L-G16RevC.01  3-Jul-2019

 ----------------------------------------------------------------------
 #t hf aug-cc-pvdz iop(5/13=1,5/36=2,99/5=2) pseudo=read geom=check gue
 ss=(read,tcheck) scf=(maxcycle=1)
 ----------------------------------------------------------------------
 -----
 title
 -----
 Structure from the checkpoint file:  "2-3-5-6-tetrachlorobenzene-1-4-diol.chk"
 Charge =  0 Multiplicity = 1

                         Standard orientation:
 ---------------------------------------------------------------------
 Center     Atomic      Atomic             Coordinates (Angstroms)
 Number     Number       Type             X           Y           Z
 ---------------------------------------------------------------------
      1         17           0        0.000000    1.591361    2.692912
      2          6           0        0.000000    0.696756    1.212282
      3          6           0       -0.000000   -0.696756    1.212282
      4         17           0       -0.000000   -1.591361    2.692912
      5          6           0        0.000000   -1.409756    0.008295
      6          8           0        0.000000   -2.759999    0.052901
      7          6           0        0.000000   -0.695960   -1.189657
      8         17           0        0.000000   -1.601358   -2.678734
      9          6           0        0.000000    0.695960   -1.189657
     10          6           0        0.000000    1.409756    0.008295
     11          8           0        0.000000    2.759999    0.052901
     12         17           0        0.000000    1.601358   -2.678734
     13          1           0        0.000000   -3.106114   -0.849754
     14          1           0        0.000000    3.106114   -0.849754
 ---------------------------------------------------------------------

 SCF Done:  E(RHF) =  -2216.80643021     A.U. after    2 cycles

 The electronic state is 1-A1.
 Alpha  occ. eigenvalues -- -105.61501-105.61501-105.59028-105.59028 -20.60911
 Alpha  occ. eigenvalues --  -20.60907 -11.35673 -11.35633 -11.35038 -11.34959
 Alpha  occ. eigenvalues --  -11.34362 -11.34286 -10.66301 -10.66300 -10.63833
 Alpha  occ. eigenvalues --  -10.63833  -7.83272  -7.83259  -7.82876  -7.82872
 Alpha  occ. eigenvalues --   -7.82829  -7.82827  -7.80819  -7.80806  -7.80375
 Alpha  occ. eigenvalues --   -7.80369  -7.80368  -7.80366  -1.53135  -1.53056
 Alpha  occ. eigenvalues --   -1.24311  -1.18810  -1.13609  -1.11656  -1.08319
 Alpha  occ. eigenvalues --   -1.01399  -0.98044  -0.88406  -0.86526  -0.80679
 Alpha  occ. eigenvalues --   -0.75547  -0.73605  -0.66556  -0.65287  -0.64500
 Alpha  occ. eigenvalues --   -0.63088  -0.62437  -0.61905  -0.59204  -0.56899
 Alpha  occ. eigenvalues --   -0.55521  -0.54939  -0.52547  -0.52462  -0.50319
 Alpha  occ. eigenvalues --   -0.50006  -0.49551  -0.46683  -0.46031  -0.36780
 Alpha  occ. eigenvalues --   -0.33822
 Alpha virt. eigenvalues --    0.03576   0.04185   0.06310   0.06673   0.07446
 Alpha virt. eigenvalues --    0.08426   0.09530   0.09878   0.09943   0.10719
 Alpha virt. eigenvalues --    0.11134   0.11767   0.11946   0.12970   0.13644

 Mulliken charges:
               1
     1  Cl  -0.214402
     2  C    0.163017
     3  C    0.163017
     4  Cl  -0.214402
     5  C    2.059449
     6  O   -1.818822
     7  C   -0.282306
     8  Cl  -0.375679
     9  C   -0.282306
    10  C    2.059449
    11  O   -1.818822
    12  Cl  -0.375679
    13  H    0.468743
    14  H    0.468743
 Sum of Mulliken charges =  -0.00000

 Dipole moment (field-independent basis, Debye):
    X=             -0.0000    Y=              0.0000    Z=             -2.7326  Tot=              2.7326

 Test job not archived.
 1\1\GINC-SE045\SP\RHF\Aug-CC-pVDZ\C6H2Cl4O2\OHZDE\05-Apr-2025\0\\#t hf
  aug-cc-pvdz iop(5/13=1,5/36=2,99/5=2) pseudo=read geom=check guess=(r
 ead,tcheck) scf=(maxcycle=1)\\title\\0,1\Cl,0,0.,1.591361,2.692912\C,0
 ,0.,0.696756,1.212282\C,0,0.,-0.696756,1.212282\Cl,0,0.,-1.591361,2.69
 2912\C,0,0.,-1.409756,0.008295\O,0,0.,-2.759999,0.052901\C,0,0.,-0.695
 96,-1.189657\Cl,0,0.,-1.601358,-2.678734\C,0,0.,0.69596,-1.189657\C,0,
 0.,1.409756,0.008295\O,0,0.,2.759999,0.052901\Cl,0,0.,1.601358,-2.6787
 34\H,0,0.,-3.106114,-0.849754\H,0,0.,3.106114,-0.849754\\Version=ES64L

 Normal termination of Gaussian 16 at Sat Apr  5 22:34:43 2025.
