 Gaussian 16, Revision C.01,

 ----------------------------------------------------------------------
 #t hf aug-cc-pvdz symm=none int=(grid=ultrafine) guess=(read,tcheck) s
 table=(opt,rrhf)
 ----------------------------------------------------------------------
 -----
 title
 -----
 Symbolic Z-matrix:
 Charge =  0 Multiplicity = 1

 SCF Done:  E(RHF) =  -304.730876985     A.U. after   12 cycles
 Normal termination of Gaussian 16 at Sat Apr  5 22:32:27 2025.
 Gaussian 16:  ES64L-G16RevC.01  3-Jul-2019

 ----------------------------------------------------------------------
 #t hf aug-cc-pvdz iop(5/13=1,5/36=2,99/5=2) pseudo=read geom=check gue
 ss=(read,tcheck) scf=(maxcycle=1)
 ----------------------------------------------------------------------
 -----
 title
 -----
 Structure from the checkpoint file:  "2-3-butanedione.chk"
 Charge =  0 Multiplicity = 1

                         Standard orientation:
 ---------------------------------------------------------------------
 Center     Atomic      Atomic             Coordinates (Angstroms)
 Number     Number       Type             X           Y           Z
 ---------------------------------------------------------------------
      1          6           0        1.188334   -1.577198    0.000000
      2          1           0        1.793080   -1.322397    0.871672
      3          1           0        0.948796   -2.636600    0.000000
      4          1           0        1.793080   -1.322397   -0.871672
      5          6           0       -1.188334    1.577198    0.000000
      6          1           0       -1.793080    1.322397    0.871672
      7          1           0       -0.948796    2.636600    0.000000
      8          1           0       -1.793080    1.322397   -0.871672
      9          6           0        0.078985    0.772271    0.000000
     10          8           0        1.188334    1.252788    0.000000
     11          6           0       -0.078985   -0.772271    0.000000
     12          8           0       -1.188334   -1.252788    0.000000
 ---------------------------------------------------------------------

 SCF Done:  E(RHF) =  -305.038193970     A.U. after    2 cycles

 The electronic state is 1-AG.
 Alpha  occ. eigenvalues --  -20.56833 -20.56830 -11.36067 -11.36046 -11.25219
 Alpha  occ. eigenvalues --  -11.25215  -1.50537  -1.49340  -1.04595  -1.02836
 Alpha  occ. eigenvalues --   -0.87970  -0.73671  -0.70522  -0.67178  -0.63881
 Alpha  occ. eigenvalues --   -0.61825  -0.59901  -0.59340  -0.55951  -0.52462
 Alpha  occ. eigenvalues --   -0.50863  -0.50080  -0.40583
 Alpha virt. eigenvalues --    0.03637   0.03873   0.04874   0.05498   0.06259
 Alpha virt. eigenvalues --    0.06426   0.06464   0.08782   0.11390   0.12162
 Alpha virt. eigenvalues --    0.12656   0.13409   0.15141   0.15463   0.15536

 Mulliken charges:
               1
     1  C   -0.476774
     2  H    0.270561
     3  H    0.121994
     4  H    0.270561
     5  C   -0.476774
     6  H    0.270561
     7  H    0.121994
     8  H    0.270561
     9  C    1.162184
    10  O   -1.348525
    11  C    1.162184
    12  O   -1.348525
 Sum of Mulliken charges =  -0.00000

 Dipole moment (field-independent basis, Debye):
    X=              0.0000    Y=             -0.0000    Z=              0.0000  Tot=              0.0000

 Test job not archived.
 1\1\GINC-SE046\SP\RHF\Aug-CC-pVDZ\C4H6O2\OHZDE\05-Apr-2025\0\\#t hf au
 g-cc-pvdz iop(5/13=1,5/36=2,99/5=2) pseudo=read geom=check guess=(read
 ,tcheck) scf=(maxcycle=1)\\title\\0,1\C,0,1.188334,-1.577198,0.\H,0,1.
 79308,-1.322397,0.871672\H,0,0.948796,-2.6366,0.\H,0,1.79308,-1.322397
 ,-0.871672\C,0,-1.188334,1.577198,0.\H,0,-1.79308,1.322397,0.871672\H,
 0,-0.948796,2.6366,0.\H,0,-1.79308,1.322397,-0.871672\C,0,0.078985,0.7
 72271,0.\O,0,1.188334,1.252788,0.\C,0,-0.078985,-0.772271,0.\O,0,-1.18
 8334,-1.252788,0.\\Version=ES64L-G16RevC.01\State=1-AG\HF=-305.038194\

 Normal termination of Gaussian 16 at Sat Apr  5 22:32:30 2025.
