 Gaussian 16, Revision C.01,

 ----------------------------------------------------------------------
 #t hf aug-cc-pvdz symm=none int=(grid=ultrafine) guess=(read,tcheck) s
 table=(opt,rrhf)
 ----------------------------------------------------------------------
 -----
 title
 -----
 Symbolic Z-matrix:
 Charge =  0 Multiplicity = 1

 SCF Done:  E(RHF) =  -470.361956946     A.U. after   15 cycles
 Normal termination of Gaussian 16 at Sat Apr  5 22:34:07 2025.
 Gaussian 16:  ES64L-G16RevC.01  3-Jul-2019

 ----------------------------------------------------------------------
 #t hf aug-cc-pvdz iop(5/13=1,5/36=2,99/5=2) pseudo=read geom=check gue
 ss=(read,tcheck) scf=(maxcycle=1)
 ----------------------------------------------------------------------
 -----
 title
 -----
 Structure from the checkpoint file:  "2-3-2--3--dipyrrolopyrrole.chk"
 Charge =  0 Multiplicity = 1

                         Standard orientation:
 ---------------------------------------------------------------------
 Center     Atomic      Atomic             Coordinates (Angstroms)
 Number     Number       Type             X           Y           Z
 ---------------------------------------------------------------------
      1          6           0        2.531827    0.838284    0.000719
      2          6           0       -2.531828    0.838284    0.000727
      3          6           0        2.945670   -0.478119    0.001541
      4          6           0       -2.945670   -0.478119    0.001498
      5          6           0        1.115603    0.798316   -0.000163
      6          6           0       -1.115604    0.798316   -0.000047
      7          6           0        0.708404   -0.539305    0.000275
      8          6           0       -0.708404   -0.539305    0.000396
      9          7           0        1.844970   -1.314880    0.000405
     10          7           0       -1.844969   -1.314880    0.000310
     11          7           0       -0.000000    1.623424   -0.012899
     12          1           0        3.182514    1.695453    0.001317
     13          1           0       -3.182515    1.695453    0.001272
     14          1           0        3.941593   -0.883817    0.003112
     15          1           0       -3.941593   -0.883818    0.003098
     16          1           0        1.888002   -2.315552   -0.003863
     17          1           0       -1.887996   -2.315553   -0.003452
     18          1           0        0.000005    2.622059    0.054138
 ---------------------------------------------------------------------

 SCF Done:  E(RHF) =  -470.840728169     A.U. after    2 cycles

 The electronic state is 1-A.
 Alpha  occ. eigenvalues --  -15.54039 -15.53842 -15.52246 -11.26038 -11.26033
 Alpha  occ. eigenvalues --  -11.24710 -11.24670 -11.24268 -11.24245 -11.22026
 Alpha  occ. eigenvalues --  -11.22013  -1.30409  -1.27500  -1.23852  -1.04731
 Alpha  occ. eigenvalues --   -1.03255  -1.03033  -0.94506  -0.84389  -0.83067
 Alpha  occ. eigenvalues --   -0.80070  -0.78631  -0.78335  -0.67773  -0.67673
 Alpha  occ. eigenvalues --   -0.63362  -0.63243  -0.60702  -0.59305  -0.58009
 Alpha  occ. eigenvalues --   -0.57948  -0.54002  -0.53377  -0.52618  -0.37450
 Alpha  occ. eigenvalues --   -0.36178  -0.31585  -0.24160
 Alpha virt. eigenvalues --    0.02725   0.03716   0.03874   0.04281   0.04510
 Alpha virt. eigenvalues --    0.06865   0.07146   0.10172   0.10330   0.11651
 Alpha virt. eigenvalues --    0.11681   0.11723   0.12601   0.12856   0.13561

 Mulliken charges:
               1
     1  C    1.747339
     2  C    1.747337
     3  C   -0.405022
     4  C   -0.405018
     5  C   -1.677913
     6  C   -1.677901
     7  C   -0.838496
     8  C   -0.838464
     9  N    1.243782
    10  N    1.243764
    11  N    0.996071
    12  H   -0.199058
    13  H   -0.199058
    14  H   -0.257096
    15  H   -0.257097
    16  H   -0.080463
    17  H   -0.080464
    18  H   -0.062242
 Sum of Mulliken charges =   0.00000

 Dipole moment (field-independent basis, Debye):
    X=              0.0000    Y=             -1.4765    Z=              0.0963  Tot=              1.4796

 Test job not archived.
 1\1\GINC-SE198\SP\RHF\Aug-CC-pVDZ\C8H7N3\OHZDE\05-Apr-2025\0\\#t hf au
 g-cc-pvdz iop(5/13=1,5/36=2,99/5=2) pseudo=read geom=check guess=(read
 ,tcheck) scf=(maxcycle=1)\\title\\0,1\C,0,2.531827,0.838284,0.000719\C
 ,0,-2.531828,0.838284,0.000727\C,0,2.94567,-0.478119,0.001541\C,0,-2.9
 4567,-0.478119,0.001498\C,0,1.115603,0.798316,-0.000163\C,0,-1.115604,
 0.798316,-0.000047\C,0,0.708404,-0.539305,0.000275\C,0,-0.708404,-0.53
 9305,0.000396\N,0,1.84497,-1.31488,0.000405\N,0,-1.844969,-1.31488,0.0
 0031\N,0,0.,1.623424,-0.012899\H,0,3.182514,1.695453,0.001317\H,0,-3.1

 Normal termination of Gaussian 16 at Sat Apr  5 22:34:54 2025.
