 Gaussian 16, Revision C.01,

 ----------------------------------------------------------------------
 #t hf aug-cc-pvdz symm=none int=(grid=ultrafine) guess=(read,tcheck) s
 table=(opt,rrhf)
 ----------------------------------------------------------------------
 -----
 title
 -----
 Symbolic Z-matrix:
 Charge =  0 Multiplicity = 1

 SCF Done:  E(RHF) =  -234.203060122     A.U. after   13 cycles
 Normal termination of Gaussian 16 at Sat Apr  5 22:32:58 2025.
 Gaussian 16:  ES64L-G16RevC.01  3-Jul-2019

 ----------------------------------------------------------------------
 #t hf aug-cc-pvdz iop(5/13=1,5/36=2,99/5=2) pseudo=read geom=check gue
 ss=(read,tcheck) scf=(maxcycle=1)
 ----------------------------------------------------------------------
 -----
 title
 -----
 Structure from the checkpoint file:  "2-3-dimethyl-1-butene.chk"
 Charge =  0 Multiplicity = 1

                         Standard orientation:
 ---------------------------------------------------------------------
 Center     Atomic      Atomic             Coordinates (Angstroms)
 Number     Number       Type             X           Y           Z
 ---------------------------------------------------------------------
      1          6           0       -1.071798    1.395295   -0.516943
      2          1           0       -2.097308    1.655846   -0.745207
      3          1           0       -0.324065    2.139068   -0.752121
      4          6           0       -1.846494   -0.781611    0.354048
      5          1           0       -1.822725   -1.041562    1.416022
      6          1           0       -2.835490   -0.389471    0.122101
      7          1           0       -1.717430   -1.714418   -0.199086
      8          6           0       -0.767616    0.217558    0.024788
      9          6           0        1.126951   -1.341248   -0.574524
     10          1           0        2.119063   -1.686706   -0.279687
     11          1           0        0.459313   -2.201864   -0.554699
     12          1           0        1.185647   -0.984025   -1.604310
     13          6           0        0.651228   -0.212141    0.359200
     14          1           0        0.614475   -0.630270    1.372557
     15          6           0        1.673172    0.925370    0.370849
     16          1           0        1.815739    1.345990   -0.626310
     17          1           0        1.368190    1.732615    1.036949
     18          1           0        2.641935    0.555459    0.709287
 ---------------------------------------------------------------------

 SCF Done:  E(RHF) =  -234.464476641     A.U. after    2 cycles

 The electronic state is 1-A.
 Alpha  occ. eigenvalues --  -11.23959 -11.23719 -11.22668 -11.22296 -11.21961
 Alpha  occ. eigenvalues --  -11.21509  -1.11134  -1.02069  -0.94416  -0.91781
 Alpha  occ. eigenvalues --   -0.83306  -0.71152  -0.65178  -0.62612  -0.60147
 Alpha  occ. eigenvalues --   -0.57593  -0.56536  -0.54435  -0.53593  -0.52034
 Alpha  occ. eigenvalues --   -0.48784  -0.47544  -0.46516  -0.35434
 Alpha virt. eigenvalues --    0.03567   0.03788   0.04016   0.04205   0.05736
 Alpha virt. eigenvalues --    0.05881   0.06616   0.07114   0.07569   0.09109
 Alpha virt. eigenvalues --    0.09533   0.10685   0.12354   0.12847   0.14144

 Mulliken charges:
               1
     1  C    0.219930
     2  H   -0.203471
     3  H   -0.206613
     4  C   -0.864582
     5  H    0.241456
     6  H    0.065574
     7  H    0.203460
     8  C    0.646824
     9  C   -0.153032
    10  H    0.138801
    11  H    0.086494
    12  H    0.201454
    13  C   -1.027523
    14  H    0.181556
    15  C   -0.049152
    16  H    0.285989
    17  H    0.174927
    18  H    0.057908
 Sum of Mulliken charges =  -0.00000

 Dipole moment (field-independent basis, Debye):
    X=              0.1610    Y=             -0.4944    Z=              0.2675  Tot=              0.5847

 Test job not archived.
 1\1\GINC-SE011\SP\RHF\Aug-CC-pVDZ\C6H12\OHZDE\05-Apr-2025\0\\#t hf aug
 -cc-pvdz iop(5/13=1,5/36=2,99/5=2) pseudo=read geom=check guess=(read,
 tcheck) scf=(maxcycle=1)\\title\\0,1\C,0,-1.071798,1.395295,-0.516943\
 H,0,-2.097308,1.655846,-0.745207\H,0,-0.324065,2.139068,-0.752121\C,0,
 -1.846494,-0.781611,0.354048\H,0,-1.822725,-1.041562,1.416022\H,0,-2.8
 3549,-0.389471,0.122101\H,0,-1.71743,-1.714418,-0.199086\C,0,-0.767616
 ,0.217558,0.024788\C,0,1.126951,-1.341248,-0.574524\H,0,2.119063,-1.68
 6706,-0.279687\H,0,0.459313,-2.201864,-0.554699\H,0,1.185647,-0.984025

 Normal termination of Gaussian 16 at Sat Apr  5 22:33:44 2025.
