 Gaussian 16, Revision C.01,

 ----------------------------------------------------------------------
 #t hf aug-cc-pvdz symm=none int=(grid=ultrafine) guess=(read,tcheck) s
 table=(opt,rrhf)
 ----------------------------------------------------------------------
 -----
 title
 -----
 Symbolic Z-matrix:
 Charge =  0 Multiplicity = 1

 SCF Done:  E(RHF) =  -186.914252211     A.U. after   11 cycles
 Normal termination of Gaussian 16 at Sat Apr  5 22:32:18 2025.
 Gaussian 16:  ES64L-G16RevC.01  3-Jul-2019

 ----------------------------------------------------------------------
 #t hf aug-cc-pvdz iop(5/13=1,5/36=2,99/5=2) pseudo=read geom=check gue
 ss=(read,tcheck) scf=(maxcycle=1)
 ----------------------------------------------------------------------
 -----
 title
 -----
 Structure from the checkpoint file:  "2-3-diazabutadiene.chk"
 Charge =  0 Multiplicity = 1

                         Standard orientation:
 ---------------------------------------------------------------------
 Center     Atomic      Atomic             Coordinates (Angstroms)
 Number     Number       Type             X           Y           Z
 ---------------------------------------------------------------------
      1          6           0        0.655134    1.533738    0.000000
      2          7           0        0.655134    0.265229    0.000000
      3          7           0       -0.655134   -0.265229    0.000000
      4          6           0       -0.655134   -1.533738    0.000000
      5          1           0       -0.265958    2.114793    0.000000
      6          1           0        1.612147    2.041686    0.000000
      7          1           0        0.265958   -2.114793    0.000000
      8          1           0       -1.612147   -2.041686    0.000000
 ---------------------------------------------------------------------

 SCF Done:  E(RHF) =  -187.105689919     A.U. after    2 cycles

 The electronic state is 1-AG.
 Alpha  occ. eigenvalues --  -15.53970 -15.53590 -11.28795 -11.28783  -1.31464
 Alpha  occ. eigenvalues --   -1.15942  -0.90249  -0.79582  -0.72111  -0.69881
 Alpha  occ. eigenvalues --   -0.60173  -0.57707  -0.54650  -0.44226  -0.41917
 Alpha virt. eigenvalues --    0.03654   0.05099   0.05294   0.05972   0.06716
 Alpha virt. eigenvalues --    0.08475   0.08659   0.13484   0.13679   0.15438
 Alpha virt. eigenvalues --    0.16649   0.16997   0.17354   0.18771   0.19820

 Mulliken charges:
               1
     1  C   -0.282288
     2  N    0.188107
     3  N    0.188107
     4  C   -0.282288
     5  H    0.064064
     6  H    0.030118
     7  H    0.064064
     8  H    0.030118
 Sum of Mulliken charges =  -0.00000

 Dipole moment (field-independent basis, Debye):
    X=              0.0000    Y=             -0.0000    Z=              0.0000  Tot=              0.0000

 Test job not archived.
 1\1\GINC-SE106\SP\RHF\Aug-CC-pVDZ\C2H4N2\OHZDE\05-Apr-2025\0\\#t hf au
 g-cc-pvdz iop(5/13=1,5/36=2,99/5=2) pseudo=read geom=check guess=(read
 ,tcheck) scf=(maxcycle=1)\\title\\0,1\C,0,0.655134,1.533738,0.\N,0,0.6
 55134,0.265229,0.\N,0,-0.655134,-0.265229,0.\C,0,-0.655134,-1.533738,0
 .\H,0,-0.265958,2.114793,0.\H,0,1.612147,2.041686,0.\H,0,0.265958,-2.1
 14793,0.\H,0,-1.612147,-2.041686,0.\\Version=ES64L-G16RevC.01\State=1-
 AG\HF=-187.1056899\RMSD=1.871e-02\Dipole=0.,0.,0.\Quadrupole=-2.472884
 7,5.5390661,-3.0661814,2.8325015,0.,0.\PG=C02H [SGH(C2H4N2)]\\@

 Normal termination of Gaussian 16 at Sat Apr  5 22:32:19 2025.
