 Gaussian 16, Revision C.01,

 ----------------------------------------------------------------------
 #t hf aug-cc-pvdz symm=none int=(grid=ultrafine) guess=(read,tcheck) s
 table=(opt,rrhf)
 ----------------------------------------------------------------------
 -----
 title
 -----
 Symbolic Z-matrix:
 Charge =  0 Multiplicity = 1

 SCF Done:  E(RHF) =  -627.304698985     A.U. after   14 cycles
 Normal termination of Gaussian 16 at Sat Apr  5 22:32:29 2025.
 Gaussian 16:  ES64L-G16RevC.01  3-Jul-2019

 ----------------------------------------------------------------------
 #t hf aug-cc-pvdz iop(5/13=1,5/36=2,99/5=2) pseudo=read geom=check gue
 ss=(read,tcheck) scf=(maxcycle=1)
 ----------------------------------------------------------------------
 -----
 title
 -----
 Structure from the checkpoint file:  "2-3-dihydrothiophene-1-oxide.chk"
 Charge =  0 Multiplicity = 1

                         Standard orientation:
 ---------------------------------------------------------------------
 Center     Atomic      Atomic             Coordinates (Angstroms)
 Number     Number       Type             X           Y           Z
 ---------------------------------------------------------------------
      1          6           0       -1.465797    0.872297    0.156005
      2          6           0       -1.620855   -0.609455    0.335459
      3          6           0       -0.276897    1.302884   -0.242595
      4          6           0       -0.393911   -1.261059   -0.306555
      5          8           0        1.765599   -0.030829    0.858773
      6         16           0        0.967718    0.002094   -0.419379
      7          1           0       -2.288404    1.542754    0.376595
      8          1           0       -1.699412   -0.844109    1.400319
      9          1           0       -2.540491   -0.970775   -0.129233
     10          1           0        0.033909    2.327308   -0.379703
     11          1           0        0.024673   -2.096585    0.248885
     12          1           0       -0.593786   -1.573461   -1.330850
 ---------------------------------------------------------------------

 SCF Done:  E(RHF) =  -627.603803268     A.U. after    2 cycles

 The electronic state is 1-A.
 Alpha  occ. eigenvalues --  -94.06764 -20.48967 -11.27981 -11.27933 -11.27249
 Alpha  occ. eigenvalues --  -11.26879  -8.33538  -6.31373  -6.31254  -6.31050
 Alpha  occ. eigenvalues --   -1.41936  -1.16012  -1.01669  -0.99149  -0.83168
 Alpha  occ. eigenvalues --   -0.77241  -0.71149  -0.66992  -0.59935  -0.57049
 Alpha  occ. eigenvalues --   -0.56677  -0.55817  -0.54322  -0.52862  -0.41140
 Alpha  occ. eigenvalues --   -0.39593  -0.36405
 Alpha virt. eigenvalues --    0.02772   0.03639   0.04028   0.04880   0.05802
 Alpha virt. eigenvalues --    0.06607   0.08624   0.09398   0.11325   0.12252
 Alpha virt. eigenvalues --    0.13016   0.13640   0.14696   0.14815   0.15177

 Mulliken charges:
               1
     1  C    0.529522
     2  C   -0.590836
     3  C   -0.364805
     4  C   -0.521837
     5  O   -1.469693
     6  S    1.772714
     7  H   -0.081839
     8  H    0.217660
     9  H    0.197490
    10  H   -0.140000
    11  H    0.204499
    12  H    0.247125
 Sum of Mulliken charges =  -0.00000

 Dipole moment (field-independent basis, Debye):
    X=             -4.6351    Y=             -0.2521    Z=             -1.8714  Tot=              5.0050

 Test job not archived.
 1\1\GINC-SE055\SP\RHF\Aug-CC-pVDZ\C4H6O1S1\OHZDE\05-Apr-2025\0\\#t hf
 aug-cc-pvdz iop(5/13=1,5/36=2,99/5=2) pseudo=read geom=check guess=(re
 ad,tcheck) scf=(maxcycle=1)\\title\\0,1\C,0,-1.465797,0.872297,0.15600
 5\C,0,-1.620855,-0.609455,0.335459\C,0,-0.276897,1.302884,-0.242595\C,
 0,-0.393911,-1.261059,-0.306555\O,0,1.765599,-0.030829,0.858773\S,0,0.
 967718,0.002094,-0.419379\H,0,-2.288404,1.542755,0.376595\H,0,-1.69941
 2,-0.844109,1.400319\H,0,-2.540491,-0.970774,-0.129233\H,0,0.03391,2.3
 27308,-0.379703\H,0,0.024673,-2.096585,0.248885\H,0,-0.593786,-1.57346

 Normal termination of Gaussian 16 at Sat Apr  5 22:32:35 2025.
