 Gaussian 16, Revision C.01,

 ----------------------------------------------------------------------
 #t hf aug-cc-pvdz symm=none int=(grid=ultrafine) guess=(read,tcheck) s
 table=(opt,rrhf)
 ----------------------------------------------------------------------
 -----
 title
 -----
 Symbolic Z-matrix:
 Charge =  0 Multiplicity = 1

 SCF Done:  E(RHF) =  -1097.33627500     A.U. after   17 cycles
 Normal termination of Gaussian 16 at Sat Apr  5 22:33:38 2025.
 Gaussian 16:  ES64L-G16RevC.01  3-Jul-2019

 ----------------------------------------------------------------------
 #t hf aug-cc-pvdz iop(5/13=1,5/36=2,99/5=2) pseudo=read geom=check gue
 ss=(read,tcheck) scf=(maxcycle=1)
 ----------------------------------------------------------------------
 -----
 title
 -----
 Structure from the checkpoint file:  "2-3-thieno-1-3-2-dioxathiole.chk"
 Charge =  0 Multiplicity = 1

                         Standard orientation:
 ---------------------------------------------------------------------
 Center     Atomic      Atomic             Coordinates (Angstroms)
 Number     Number       Type             X           Y           Z
 ---------------------------------------------------------------------
      1         16           0        1.786816   -0.999206   -0.026846
      2         16           0       -2.245223   -0.148491   -0.179660
      3          8           0       -1.005016   -1.270226    0.235149
      4          8           0       -1.330231    1.236629    0.220211
      5          6           0        0.134146   -0.525701    0.028191
      6          6           0       -0.017500    0.819744    0.026189
      7          6           0        1.196636    1.540976   -0.022378
      8          6           0        2.258331    0.681032   -0.056911
      9          1           0        1.283391    2.615343   -0.042028
     10          1           0        3.303414    0.920280   -0.147308
 ---------------------------------------------------------------------

 SCF Done:  E(RHF) =  -1097.74338795     A.U. after    2 cycles

 The electronic state is 1-A.
 Alpha  occ. eigenvalues --  -94.07780 -94.00395 -20.62721 -20.62115 -11.33625
 Alpha  occ. eigenvalues --  -11.31334 -11.29069 -11.27256  -8.34613  -8.28477
 Alpha  occ. eigenvalues --   -6.32375  -6.32228  -6.31790  -6.26251  -6.26165
 Alpha  occ. eigenvalues --   -6.25924  -1.55890  -1.48459  -1.20706  -1.03157
 Alpha  occ. eigenvalues --   -1.02022  -0.95429  -0.82614  -0.79303  -0.71939
 Alpha  occ. eigenvalues --   -0.67940  -0.64084  -0.62989  -0.60591  -0.60127
 Alpha  occ. eigenvalues --   -0.55542  -0.53763  -0.52222  -0.50578  -0.39348
 Alpha  occ. eigenvalues --   -0.37110  -0.31659
 Alpha virt. eigenvalues --    0.03397   0.04132   0.05543   0.06352   0.07122
 Alpha virt. eigenvalues --    0.08499   0.09497   0.09923   0.10708   0.12127
 Alpha virt. eigenvalues --    0.12905   0.13177   0.14196   0.14670   0.15146

 Mulliken charges:
               1
     1  S    0.938316
     2  S    1.218648
     3  O   -1.675759
     4  O   -1.720761
     5  C    0.511665
     6  C    1.000792
     7  C    0.444570
     8  C   -0.469943
     9  H   -0.088917
    10  H   -0.158612
 Sum of Mulliken charges =  -0.00000

 Dipole moment (field-independent basis, Debye):
    X=              1.2498    Y=              0.9434    Z=             -0.4151  Tot=              1.6200

 Test job not archived.
 1\1\GINC-SE194\SP\RHF\Aug-CC-pVDZ\C4H2O2S2\OHZDE\05-Apr-2025\0\\#t hf
 aug-cc-pvdz iop(5/13=1,5/36=2,99/5=2) pseudo=read geom=check guess=(re
 ad,tcheck) scf=(maxcycle=1)\\title\\0,1\S,0,1.786816,-0.999206,-0.0268
 46\S,0,-2.245223,-0.148491,-0.17966\O,0,-1.005016,-1.270226,0.235149\O
 ,0,-1.330231,1.236629,0.220211\C,0,0.134146,-0.525701,0.028191\C,0,-0.
 0175,0.819744,0.026189\C,0,1.196636,1.540976,-0.022378\C,0,2.258331,0.
 681032,-0.056911\H,0,1.283391,2.615343,-0.042028\H,0,3.303414,0.92028,
 -0.147308\\Version=ES64L-G16RevC.01\State=1-A\HF=-1097.7433879\RMSD=2.

 Normal termination of Gaussian 16 at Sat Apr  5 22:33:43 2025.
