 Gaussian 16, Revision C.01,

 ----------------------------------------------------------------------
 #t hf aug-cc-pvdz symm=none int=(grid=ultrafine) guess=(read,tcheck) s
 table=(opt,rrhf)
 ----------------------------------------------------------------------
 -----
 title
 -----
 Symbolic Z-matrix:
 Charge =  0 Multiplicity = 1

 SCF Done:  E(RHF) =  -1147.24591473     A.U. after   14 cycles

 1\1\GINC-SE107\Stability\RHF\Aug-CC-pVDZ\C6H2Cl2\OHZDE\05-Apr-2025\0\\
 #t hf aug-cc-pvdz symm=none int=(grid=ultrafine) guess=(read,tcheck) s
 table=(opt,rrhf)\\title\\0,1\Cl,0,1.404145,1.587201,0.\Cl,0,1.404145,-
 1.5872,0.\C,0,-0.099467,0.708116,0.\C,0,-0.099467,-0.708116,0.\C,0,-1.
 288023,1.457987,0.\C,0,-1.288023,-1.457988,0.\C,0,-2.378023,0.619733,0
 .\C,0,-2.378023,-0.619734,0.\H,0,-1.277395,2.536568,0.\H,0,-1.277395,-
 2.536568,0.\\Version=ES64L-G16RevC.01\HF=-1147.2459147\RMSD=6.815e-09\
 Dipole=-0.4015299,-0.0000007,0.\Quadrupole=-2.2223848,4.2798342,-2.057

 Normal termination of Gaussian 16 at Sat Apr  5 22:32:32 2025.
 Gaussian 16:  ES64L-G16RevC.01  3-Jul-2019

 ----------------------------------------------------------------------
 #t hf aug-cc-pvdz iop(5/13=1,5/36=2,99/5=2) pseudo=read geom=check gue
 ss=(read,tcheck) scf=(maxcycle=1)
 ----------------------------------------------------------------------
 -----
 title
 -----
 Structure from the checkpoint file:  "2-3-dichloro-1-3-cyclohexadien-5-yne.chk"
 Charge =  0 Multiplicity = 1

                         Standard orientation:
 ---------------------------------------------------------------------
 Center     Atomic      Atomic             Coordinates (Angstroms)
 Number     Number       Type             X           Y           Z
 ---------------------------------------------------------------------
      1         17           0        1.404145    1.587201    0.000000
      2         17           0        1.404145   -1.587200    0.000000
      3          6           0       -0.099467    0.708116    0.000000
      4          6           0       -0.099467   -0.708116    0.000000
      5          6           0       -1.288023    1.457987    0.000000
      6          6           0       -1.288023   -1.457988    0.000000
      7          6           0       -2.378023    0.619733    0.000000
      8          6           0       -2.378023   -0.619734    0.000000
      9          1           0       -1.277395    2.536568    0.000000
     10          1           0       -1.277395   -2.536568    0.000000
 ---------------------------------------------------------------------

 SCF Done:  E(RHF) =  -1147.62441166     A.U. after    2 cycles

 The electronic state is 1-A'.
 Alpha  occ. eigenvalues -- -105.58970-105.58970 -11.34512 -11.34442 -11.31104
 Alpha  occ. eigenvalues --  -11.31070 -11.28467 -11.28191 -10.63785 -10.63784
 Alpha  occ. eigenvalues --   -7.80762  -7.80750  -7.80339  -7.80331  -7.80321
 Alpha  occ. eigenvalues --   -7.80319  -1.23377  -1.13128  -1.12416  -1.03200
 Alpha  occ. eigenvalues --   -0.98805  -0.89104  -0.80001  -0.71476  -0.69907
 Alpha  occ. eigenvalues --   -0.68530  -0.60290  -0.59125  -0.59069  -0.51217
 Alpha  occ. eigenvalues --   -0.50844  -0.50130  -0.47047  -0.41184  -0.38300
 Alpha  occ. eigenvalues --   -0.36998
 Alpha virt. eigenvalues --    0.02017   0.03654   0.04236   0.05977   0.06688
 Alpha virt. eigenvalues --    0.08549   0.08685   0.09532   0.10667   0.11150
 Alpha virt. eigenvalues --    0.11779   0.12897   0.12930   0.14349   0.14378

 Mulliken charges:
               1
     1  Cl  -0.245047
     2  Cl  -0.245047
     3  C    0.260618
     4  C    0.260617
     5  C    0.095356
     6  C    0.095358
     7  C   -0.002076
     8  C   -0.002076
     9  H   -0.108851
    10  H   -0.108853
 Sum of Mulliken charges =  -0.00000

 Dipole moment (field-independent basis, Debye):
    X=             -1.0042    Y=             -0.0000    Z=              0.0000  Tot=              1.0042

 Test job not archived.
 1\1\GINC-SE107\SP\RHF\Aug-CC-pVDZ\C6H2Cl2\OHZDE\05-Apr-2025\0\\#t hf a
 ug-cc-pvdz iop(5/13=1,5/36=2,99/5=2) pseudo=read geom=check guess=(rea
 d,tcheck) scf=(maxcycle=1)\\title\\0,1\Cl,0,1.404145,1.587201,0.\Cl,0,
 1.404145,-1.5872,0.\C,0,-0.099467,0.708116,0.\C,0,-0.099467,-0.708116,
 0.\C,0,-1.288023,1.457987,0.\C,0,-1.288023,-1.457988,0.\C,0,-2.378023,
 0.619733,0.\C,0,-2.378023,-0.619734,0.\H,0,-1.277395,2.536568,0.\H,0,-
 1.277395,-2.536568,0.\\Version=ES64L-G16RevC.01\State=1-A'\HF=-1147.62
 44117\RMSD=3.076e-02\Dipole=-0.3950763,-0.0000003,0.\Quadrupole=-2.069

 Normal termination of Gaussian 16 at Sat Apr  5 22:32:38 2025.
