 Gaussian 16, Revision C.01,

 ----------------------------------------------------------------------
 #t hf aug-cc-pvdz symm=none int=(grid=ultrafine) guess=(read,tcheck) s
 table=(opt,rrhf)
 ----------------------------------------------------------------------
 -----
 title
 -----
 Symbolic Z-matrix:
 Charge =  0 Multiplicity = 1

 SCF Done:  E(RHF) =  -313.459218829     A.U. after   12 cycles
 Normal termination of Gaussian 16 at Sat Apr  5 22:35:04 2025.
 Gaussian 16:  ES64L-G16RevC.01  3-Jul-2019

 ----------------------------------------------------------------------
 #t hf aug-cc-pvdz iop(5/13=1,5/36=2,99/5=2) pseudo=read geom=check gue
 ss=(read,tcheck) scf=(maxcycle=1)
 ----------------------------------------------------------------------
 -----
 title
 -----
 Structure from the checkpoint file:  "2-3-4-trimethylpentane.chk"
 Charge =  0 Multiplicity = 1

                         Standard orientation:
 ---------------------------------------------------------------------
 Center     Atomic      Atomic             Coordinates (Angstroms)
 Number     Number       Type             X           Y           Z
 ---------------------------------------------------------------------
      1          6           0       -1.643780   -0.744140    1.267860
      2          6           0       -2.416221    0.092866   -0.979081
      3          6           0        1.568432   -1.626417   -0.343229
      4          6           0        2.566669    0.643816   -0.042519
      5          6           0       -0.183821    1.829717    0.314524
      6          6           0       -1.228311   -0.457857   -0.180043
      7          6           0        1.328673   -0.222989    0.228474
      8          6           0        0.031928    0.441798   -0.307623
      9          1           0       -2.484667   -1.439569    1.291217
     10          1           0       -0.835389   -1.189503    1.848803
     11          1           0       -1.961332    0.164639    1.782113
     12          1           0       -2.136078    0.303073   -2.013245
     13          1           0       -2.813834    1.012725   -0.547434
     14          1           0       -3.231892   -0.632223   -0.997675
     15          1           0        2.532205   -2.012895   -0.007877
     16          1           0        0.808890   -2.343326   -0.035097
     17          1           0        1.585518   -1.607030   -1.436276
     18          1           0        2.520811    1.609052    0.458909
     19          1           0        2.684972    0.828086   -1.113860
     20          1           0        3.469540    0.139486    0.305210
     21          1           0       -1.127132    2.269864   -0.006227
     22          1           0        0.602929    2.524328    0.025850
     23          1           0       -0.194597    1.779952    1.405178
     24          1           0       -0.977247   -1.415409   -0.640316
     25          1           0        1.230226   -0.318172    1.315434
     26          1           0        0.185662    0.586165   -1.384882
 ---------------------------------------------------------------------

 SCF Done:  E(RHF) =  -313.813325058     A.U. after    2 cycles

 The electronic state is 1-A.
 Alpha  occ. eigenvalues --  -11.22735 -11.22548 -11.22521 -11.21626 -11.21591
 Alpha  occ. eigenvalues --  -11.21578 -11.21573 -11.21386  -1.11410  -1.04729
 Alpha  occ. eigenvalues --   -0.97957  -0.92743  -0.92447  -0.86783  -0.79522
 Alpha  occ. eigenvalues --   -0.73503  -0.65370  -0.62707  -0.60933  -0.59859
 Alpha  occ. eigenvalues --   -0.57055  -0.56148  -0.55108  -0.53877  -0.53370
 Alpha  occ. eigenvalues --   -0.52220  -0.50832  -0.49455  -0.48628  -0.47430
 Alpha  occ. eigenvalues --   -0.45033  -0.43807  -0.43411
 Alpha virt. eigenvalues --    0.03211   0.03294   0.03563   0.04120   0.05501
 Alpha virt. eigenvalues --    0.05561   0.05830   0.05936   0.06233   0.08240
 Alpha virt. eigenvalues --    0.08715   0.08859   0.09100   0.09267   0.10132

 Mulliken charges:
               1
     1  C    0.001982
     2  C   -0.103132
     3  C    0.008947
     4  C   -0.098257
     5  C   -0.140388
     6  C   -1.030177
     7  C   -1.117774
     8  C   -0.353319
     9  H    0.134751
    10  H    0.148362
    11  H    0.226385
    12  H    0.168174
    13  H    0.198695
    14  H    0.124814
    15  H    0.077873
    16  H    0.208888
    17  H    0.231279
    18  H    0.156112
    19  H    0.237588
    20  H    0.139696
    21  H    0.128078
    22  H    0.132162
    23  H    0.220246
    24  H    0.151617
    25  H    0.086023
    26  H    0.061374
 Sum of Mulliken charges =  -0.00000

 Dipole moment (field-independent basis, Debye):
    X=              0.0288    Y=             -0.0934    Z=             -0.0055  Tot=              0.0979

 Test job not archived.
 1\1\GINC-SE225\SP\RHF\Aug-CC-pVDZ\C8H18\OHZDE\05-Apr-2025\0\\#t hf aug
 -cc-pvdz iop(5/13=1,5/36=2,99/5=2) pseudo=read geom=check guess=(read,
 tcheck) scf=(maxcycle=1)\\title\\0,1\C,0,-1.64378,-0.74414,1.26786\C,0
 ,-2.416221,0.092866,-0.979081\C,0,1.568432,-1.626417,-0.343229\C,0,2.5
 66669,0.643816,-0.042519\C,0,-0.183821,1.829717,0.314524\C,0,-1.228311
 ,-0.457857,-0.180043\C,0,1.328673,-0.222989,0.228474\C,0,0.031928,0.44
 1798,-0.307623\H,0,-2.484667,-1.439569,1.291217\H,0,-0.835389,-1.18950
 3,1.848803\H,0,-1.961332,0.164639,1.782113\H,0,-2.136078,0.303073,-2.0

 Normal termination of Gaussian 16 at Sat Apr  5 22:35:56 2025.
