 Gaussian 16, Revision C.01,

 ----------------------------------------------------------------------
 #t hf aug-cc-pvdz symm=none int=(grid=ultrafine) guess=(read,tcheck) s
 table=(opt,rrhf)
 ----------------------------------------------------------------------
 -----
 title
 -----
 Symbolic Z-matrix:
 Charge =  0 Multiplicity = 1

 SCF Done:  E(RHF) =  -413.685070199     A.U. after   13 cycles
 Normal termination of Gaussian 16 at Sat Apr  5 22:32:23 2025.
 Gaussian 16:  ES64L-G16RevC.01  3-Jul-2019

 ----------------------------------------------------------------------
 #t hf aug-cc-pvdz iop(5/13=1,5/36=2,99/5=2) pseudo=read geom=check gue
 ss=(read,tcheck) scf=(maxcycle=1)
 ----------------------------------------------------------------------
 -----
 title
 -----
 Structure from the checkpoint file:  "2-3-3-trifluoropropene.chk"
 Charge =  0 Multiplicity = 1

                         Standard orientation:
 ---------------------------------------------------------------------
 Center     Atomic      Atomic             Coordinates (Angstroms)
 Number     Number       Type             X           Y           Z
 ---------------------------------------------------------------------
      1          6           0       -1.639261    1.150479    0.000000
      2          1           0       -2.490302    0.487611    0.000000
      3          1           0       -1.809141    2.216402    0.000000
      4          6           0       -0.417478    0.652524    0.000000
      5          9           0        0.670083    1.440552    0.000000
      6          6           0       -0.079576   -0.806625    0.000000
      7          1           0       -0.974900   -1.428241    0.000000
      8          9           0        0.670083   -1.123278    1.097373
      9          9           0        0.670083   -1.123278   -1.097373
 ---------------------------------------------------------------------

 SCF Done:  E(RHF) =  -414.074727748     A.U. after    2 cycles

 The electronic state is 1-A'.
 Alpha  occ. eigenvalues --  -26.49414 -26.48767 -26.48765 -11.44237 -11.36237
 Alpha  occ. eigenvalues --  -11.27507  -1.65602  -1.62340  -1.58443  -1.10751
 Alpha  occ. eigenvalues --   -0.97871  -0.85268  -0.78102  -0.77277  -0.75465
 Alpha  occ. eigenvalues --   -0.70254  -0.68885  -0.66985  -0.64314  -0.61063
 Alpha  occ. eigenvalues --   -0.61049  -0.59534  -0.53881  -0.41775
 Alpha virt. eigenvalues --    0.02966   0.04101   0.05610   0.08606   0.09269
 Alpha virt. eigenvalues --    0.09933   0.10348   0.13881   0.14088   0.14847
 Alpha virt. eigenvalues --    0.15389   0.15938   0.16842   0.17657   0.21033

 Mulliken charges:
               1
     1  C   -0.065503
     2  H   -0.048508
     3  H   -0.045739
     4  C    1.066254
     5  F   -0.875466
     6  C    1.359750
     7  H    0.007368
     8  F   -0.699078
     9  F   -0.699078
 Sum of Mulliken charges =   0.00000

 Dipole moment (field-independent basis, Debye):
    X=             -3.2268    Y=              0.2351    Z=              0.0000  Tot=              3.2354

 Test job not archived.
 1\1\GINC-SE199\SP\RHF\Aug-CC-pVDZ\C3H3F3\OHZDE\05-Apr-2025\0\\#t hf au
 g-cc-pvdz iop(5/13=1,5/36=2,99/5=2) pseudo=read geom=check guess=(read
 ,tcheck) scf=(maxcycle=1)\\title\\0,1\C,0,-1.639261,1.150479,0.\H,0,-2
 .490302,0.487611,0.\H,0,-1.809141,2.216402,0.\C,0,-0.417478,0.652524,0
 .\F,0,0.670083,1.440552,0.\C,0,-0.079576,-0.806625,0.\H,0,-0.9749,-1.4
 28241,0.\F,0,0.670083,-1.123278,1.097373\F,0,0.670083,-1.123278,-1.097
 373\\Version=ES64L-G16RevC.01\State=1-A'\HF=-414.0747277\RMSD=9.386e-0
 3\Dipole=-1.2695234,0.0925045,0.\Quadrupole=1.8696513,0.6665606,-2.536

 Normal termination of Gaussian 16 at Sat Apr  5 22:32:27 2025.
