 Gaussian 16, Revision C.01,

 ----------------------------------------------------------------------
 #t hf aug-cc-pvdz symm=none int=(grid=ultrafine) guess=(read,tcheck) s
 table=(opt,rrhf)
 ----------------------------------------------------------------------
 -----
 title
 -----
 Symbolic Z-matrix:
 Charge =  0 Multiplicity = 1

 SCF Done:  E(RHF) =  -321.578109109     A.U. after   15 cycles
 Normal termination of Gaussian 16 at Sat Apr  5 22:33:53 2025.
 Gaussian 16:  ES64L-G16RevC.01  3-Jul-2019

 ----------------------------------------------------------------------
 #t hf aug-cc-pvdz iop(5/13=1,5/36=2,99/5=2) pseudo=read geom=check gue
 ss=(read,tcheck) scf=(maxcycle=1)
 ----------------------------------------------------------------------
 -----
 title
 -----
 Structure from the checkpoint file:  "2-3H-pyridinone.chk"
 Charge =  0 Multiplicity = 1

                         Standard orientation:
 ---------------------------------------------------------------------
 Center     Atomic      Atomic             Coordinates (Angstroms)
 Number     Number       Type             X           Y           Z
 ---------------------------------------------------------------------
      1          7           0        0.359121   -1.270880    0.172755
      2          6           0        1.043903   -0.042270    0.020425
      3          6           0        0.260787    1.248686    0.217829
      4          6           0       -1.197071    1.126889   -0.072399
      5          6           0       -1.753015   -0.083323   -0.174172
      6          6           0       -0.920479   -1.259790    0.050067
      7          8           0        2.221256   -0.028129   -0.243650
      8          1           0        0.736325    2.029916   -0.376191
      9          1           0       -1.785070    2.030930   -0.170963
     10          1           0       -2.808335   -0.220042   -0.363668
     11          1           0       -1.424810   -2.220985    0.136930
     12          1           0        0.393242    1.560219    1.263311
 ---------------------------------------------------------------------

 SCF Done:  E(RHF) =  -321.902247569     A.U. after    2 cycles

 The electronic state is 1-A.
 Alpha  occ. eigenvalues --  -20.53024 -15.51222 -11.36274 -11.32637 -11.29417
 Alpha  occ. eigenvalues --  -11.27120 -11.26811  -1.47346  -1.26348  -1.11806
 Alpha  occ. eigenvalues --   -1.03001  -0.91030  -0.85660  -0.73645  -0.71044
 Alpha  occ. eigenvalues --   -0.68912  -0.64862  -0.62378  -0.61422  -0.56716
 Alpha  occ. eigenvalues --   -0.54935  -0.49315  -0.48390  -0.41915  -0.38999
 Alpha virt. eigenvalues --    0.02394   0.03173   0.03256   0.04066   0.04931
 Alpha virt. eigenvalues --    0.06021   0.08879   0.10692   0.11277   0.12131
 Alpha virt. eigenvalues --    0.12493   0.12987   0.13274   0.13754   0.14062

 Mulliken charges:
               1
     1  N    1.015499
     2  C    0.614435
     3  C   -0.479053
     4  C    0.187795
     5  C    0.792670
     6  C   -1.032937
     7  O   -1.263531
     8  H    0.232548
     9  H   -0.141974
    10  H   -0.159622
    11  H   -0.132735
    12  H    0.366905
 Sum of Mulliken charges =  -0.00000

 Dipole moment (field-independent basis, Debye):
    X=             -5.5277    Y=              2.5129    Z=              0.4031  Tot=              6.0854

 Test job not archived.
 1\1\GINC-SE046\SP\RHF\Aug-CC-pVDZ\C5H5N1O1\OHZDE\05-Apr-2025\0\\#t hf
 aug-cc-pvdz iop(5/13=1,5/36=2,99/5=2) pseudo=read geom=check guess=(re
 ad,tcheck) scf=(maxcycle=1)\\title\\0,1\N,0,0.359121,-1.27088,0.172755
 \C,0,1.043903,-0.04227,0.020425\C,0,0.260787,1.248686,0.217829\C,0,-1.
 197071,1.126889,-0.072399\C,0,-1.753015,-0.083323,-0.174172\C,0,-0.920
 479,-1.25979,0.050067\O,0,2.221256,-0.028129,-0.24365\H,0,0.736325,2.0
 29916,-0.376191\H,0,-1.78507,2.03093,-0.170963\H,0,-2.808335,-0.220042
 ,-0.363668\H,0,-1.42481,-2.220985,0.13693\H,0,0.393242,1.560219,1.2633

 Normal termination of Gaussian 16 at Sat Apr  5 22:34:40 2025.
