 Gaussian 16, Revision C.01,

 ----------------------------------------------------------------------
 #t hf aug-cc-pvdz symm=none int=(grid=ultrafine) guess=(read,tcheck) s
 table=(opt,rrhf)
 ----------------------------------------------------------------------
 -----
 title
 -----
 Symbolic Z-matrix:
 Charge =  0 Multiplicity = 1

 SCF Done:  E(RHF) =  -383.682309583     A.U. after   15 cycles

 1\1\GINC-SE145\Stability\RHF\Aug-CC-pVDZ\C8H10O1\OHZDE\05-Apr-2025\0\\
 #t hf aug-cc-pvdz symm=none int=(grid=ultrafine) guess=(read,tcheck) s
 table=(opt,rrhf)\\title\\0,1\C,0,-1.194148,-1.273079,-0.003365\C,0,0.1
 57194,-1.604887,-0.000788\C,0,-0.609182,1.03961,-0.002377\C,0,-1.60199
 1,0.056026,-0.003248\C,0,0.749394,0.743892,-0.000095\C,0,1.120492,-0.6
 06384,0.001279\C,0,-3.06105,0.433615,0.003949\C,0,1.799096,1.819578,-0
 .000742\O,0,2.465444,-0.884994,0.002866\H,0,-1.932914,-2.064353,-0.006
 041\H,0,0.460474,-2.645819,-0.001658\H,0,-0.904309,2.082983,-0.004426\

 Normal termination of Gaussian 16 at Sat Apr  5 22:35:00 2025.
 Gaussian 16:  ES64L-G16RevC.01  3-Jul-2019

 ----------------------------------------------------------------------
 #t hf aug-cc-pvdz iop(5/13=1,5/36=2,99/5=2) pseudo=read geom=check gue
 ss=(read,tcheck) scf=(maxcycle=1)
 ----------------------------------------------------------------------
 -----
 title
 -----
 Structure from the checkpoint file:  "2-4-dimethylphenol.chk"
 Charge =  0 Multiplicity = 1

                         Standard orientation:
 ---------------------------------------------------------------------
 Center     Atomic      Atomic             Coordinates (Angstroms)
 Number     Number       Type             X           Y           Z
 ---------------------------------------------------------------------
      1          6           0       -1.194148   -1.273079   -0.003365
      2          6           0        0.157194   -1.604887   -0.000788
      3          6           0       -0.609182    1.039610   -0.002377
      4          6           0       -1.601991    0.056026   -0.003248
      5          6           0        0.749394    0.743892   -0.000095
      6          6           0        1.120492   -0.606384    0.001279
      7          6           0       -3.061050    0.433615    0.003949
      8          6           0        1.799096    1.819578   -0.000742
      9          8           0        2.465444   -0.884994    0.002866
     10          1           0       -1.932914   -2.064353   -0.006041
     11          1           0        0.460474   -2.645819   -0.001658
     12          1           0       -0.904309    2.082983   -0.004426
     13          1           0       -3.301613    1.113926   -0.815300
     14          1           0       -3.696847   -0.445427   -0.096389
     15          1           0       -3.338323    0.937663    0.932716
     16          1           0        2.446613    1.742179    0.874661
     17          1           0        2.448306    1.739421   -0.874651
     18          1           0        1.340514    2.807196   -0.002729
     19          1           0        2.595723   -1.838040    0.003211
 ---------------------------------------------------------------------

 SCF Done:  E(RHF) =  -384.082298808     A.U. after    2 cycles

 The electronic state is 1-A.
 Alpha  occ. eigenvalues --  -20.57504 -11.29723 -11.23921 -11.23684 -11.23611
 Alpha  occ. eigenvalues --  -11.23561 -11.23339 -11.22998 -11.22629  -1.48666
 Alpha  occ. eigenvalues --   -1.15512  -1.05424  -1.03030  -0.93988  -0.92578
 Alpha  occ. eigenvalues --   -0.84528  -0.79087  -0.73301  -0.68443  -0.64213
 Alpha  occ. eigenvalues --   -0.61138  -0.60069  -0.58182  -0.57548  -0.57478
 Alpha  occ. eigenvalues --   -0.55343  -0.55071  -0.53086  -0.50457  -0.49009
 Alpha  occ. eigenvalues --   -0.46897  -0.34004  -0.30771
 Alpha virt. eigenvalues --    0.03088   0.03613   0.03916   0.04832   0.05150
 Alpha virt. eigenvalues --    0.05194   0.06503   0.07496   0.07803   0.09833
 Alpha virt. eigenvalues --    0.10433   0.10677   0.12037   0.12804   0.13215

 Mulliken charges:
               1
     1  C    0.229042
     2  C   -0.378256
     3  C    0.699288
     4  C    0.322598
     5  C   -0.062303
     6  C    1.989775
     7  C   -0.818269
     8  C   -0.642257
     9  O   -1.911068
    10  H   -0.282858
    11  H   -0.363658
    12  H   -0.300734
    13  H    0.209444
    14  H    0.043368
    15  H    0.246501
    16  H    0.267897
    17  H    0.269339
    18  H    0.036837
    19  H    0.445313
 Sum of Mulliken charges =  -0.00000

 Dipole moment (field-independent basis, Debye):
    X=             -0.4675    Y=             -0.8812    Z=              0.0072  Tot=              0.9975

 Test job not archived.
 1\1\GINC-SE145\SP\RHF\Aug-CC-pVDZ\C8H10O1\OHZDE\05-Apr-2025\0\\#t hf a
 ug-cc-pvdz iop(5/13=1,5/36=2,99/5=2) pseudo=read geom=check guess=(rea
 d,tcheck) scf=(maxcycle=1)\\title\\0,1\C,0,-1.194148,-1.273079,-0.0033
 65\C,0,0.157194,-1.604887,-0.000788\C,0,-0.609182,1.03961,-0.002377\C,
 0,-1.601991,0.056026,-0.003248\C,0,0.749394,0.743892,-0.000095\C,0,1.1
 20492,-0.606384,0.001279\C,0,-3.06105,0.433615,0.003949\C,0,1.799096,1
 .819578,-0.000742\O,0,2.465444,-0.884994,0.002866\H,0,-1.932914,-2.064
 353,-0.006041\H,0,0.460474,-2.645819,-0.001658\H,0,-0.904309,2.082983,

 Normal termination of Gaussian 16 at Sat Apr  5 22:35:10 2025.
