 Gaussian 16, Revision C.01,

 ----------------------------------------------------------------------
 #t hf aug-cc-pvdz symm=none int=(grid=ultrafine) guess=(read,tcheck) s
 table=(opt,rrhf)
 ----------------------------------------------------------------------
 -----
 title
 -----
 Symbolic Z-matrix:
 Charge =  0 Multiplicity = 1

 SCF Done:  E(RHF) =  -598.371662522     A.U. after   14 cycles
 Normal termination of Gaussian 16 at Sat Apr  5 22:34:35 2025.
 Gaussian 16:  ES64L-G16RevC.01  3-Jul-2019

 ----------------------------------------------------------------------
 #t hf aug-cc-pvdz iop(5/13=1,5/36=2,99/5=2) pseudo=read geom=check gue
 ss=(read,tcheck) scf=(maxcycle=1)
 ----------------------------------------------------------------------
 -----
 title
 -----
 Structure from the checkpoint file:  "2-4-5-trifluoro-6-methylpyrimidine.chk"
 Charge =  0 Multiplicity = 1

                         Standard orientation:
 ---------------------------------------------------------------------
 Center     Atomic      Atomic             Coordinates (Angstroms)
 Number     Number       Type             X           Y           Z
 ---------------------------------------------------------------------
      1          6           0       -1.022816    0.186174   -0.000039
      2          6           0       -0.513038   -1.102920   -0.000143
      3          6           0       -0.116583    1.240174    0.000005
      4          6           0        1.559349   -0.205422   -0.000000
      5          6           0       -1.388160   -2.314502    0.000022
      6          7           0        0.818742   -1.284102   -0.000133
      7          7           0        1.178216    1.060469    0.000038
      8          9           0       -2.341445    0.427343    0.000001
      9          9           0       -0.566309    2.486423    0.000014
     10          9           0        2.872628   -0.397773    0.000055
     11          1           0       -1.162280   -2.925605   -0.874234
     12          1           0       -1.170278   -2.919635    0.880532
     13          1           0       -2.442518   -2.054287   -0.005320
 ---------------------------------------------------------------------

 SCF Done:  E(RHF) =  -598.942476800     A.U. after    2 cycles

 The electronic state is 1-A.
 Alpha  occ. eigenvalues --  -26.52591 -26.51297 -26.50718 -15.55096 -15.54213
 Alpha  occ. eigenvalues --  -11.43802 -11.43100 -11.36526 -11.35172 -11.26947
 Alpha  occ. eigenvalues --   -1.66863  -1.65082  -1.64153  -1.36161  -1.26069
 Alpha  occ. eigenvalues --   -1.12090  -1.04268  -0.96241  -0.92322  -0.85812
 Alpha  occ. eigenvalues --   -0.81376  -0.77872  -0.75225  -0.75104  -0.71511
 Alpha  occ. eigenvalues --   -0.70011  -0.68328  -0.66339  -0.63875  -0.63102
 Alpha  occ. eigenvalues --   -0.61752  -0.59607  -0.58771  -0.58677  -0.50054
 Alpha  occ. eigenvalues --   -0.49077  -0.40455
 Alpha virt. eigenvalues --    0.02939   0.04361   0.04874   0.05623   0.05940
 Alpha virt. eigenvalues --    0.08486   0.08936   0.09426   0.09839   0.09899
 Alpha virt. eigenvalues --    0.10680   0.11503   0.13025   0.13541   0.14534

 Mulliken charges:
               1
     1  C    1.317080
     2  C   -1.032385
     3  C    0.208240
     4  C   -0.283637
     5  C   -0.131344
     6  N    0.922272
     7  N    0.951410
     8  F   -1.005785
     9  F   -0.830487
    10  F   -0.805869
    11  H    0.278615
    12  H    0.280337
    13  H    0.131550
 Sum of Mulliken charges =  -0.00000

 Dipole moment (field-independent basis, Debye):
    X=             -2.7170    Y=             -1.8353    Z=              0.0007  Tot=              3.2788

 Test job not archived.
 1\1\GINC-SE115\SP\RHF\Aug-CC-pVDZ\C5H3F3N2\OHZDE\05-Apr-2025\0\\#t hf
 aug-cc-pvdz iop(5/13=1,5/36=2,99/5=2) pseudo=read geom=check guess=(re
 ad,tcheck) scf=(maxcycle=1)\\title\\0,1\C,0,-1.022816,0.186174,-0.0000
 39\C,0,-0.513038,-1.10292,-0.000143\C,0,-0.116583,1.240174,0.000005\C,
 0,1.559349,-0.205422,0.\C,0,-1.38816,-2.314502,0.000022\N,0,0.818742,-
 1.284102,-0.000133\N,0,1.178216,1.060469,0.000038\F,0,-2.341445,0.4273
 43,0.000001\F,0,-0.566309,2.486423,0.000014\F,0,2.872628,-0.397773,0.0
 00055\H,0,-1.16228,-2.925605,-0.874234\H,0,-1.170278,-2.919635,0.88053

 Normal termination of Gaussian 16 at Sat Apr  5 22:34:41 2025.
