 Gaussian 16, Revision C.01,

 ----------------------------------------------------------------------
 #t hf aug-cc-pvdz symm=none int=(grid=ultrafine) guess=(read,tcheck) s
 table=(opt,rrhf)
 ----------------------------------------------------------------------
 -----
 title
 -----
 Symbolic Z-matrix:
 Charge =  0 Multiplicity = 1

 SCF Done:  E(RHF) =  -1180.56980833     A.U. after   15 cycles
 Normal termination of Gaussian 16 at Sat Apr  5 22:33:56 2025.
 Gaussian 16:  ES64L-G16RevC.01  3-Jul-2019

 ----------------------------------------------------------------------
 #t hf aug-cc-pvdz iop(5/13=1,5/36=2,99/5=2) pseudo=read geom=check gue
 ss=(read,tcheck) scf=(maxcycle=1)
 ----------------------------------------------------------------------
 -----
 title
 -----
 Structure from the checkpoint file:  "2-4-dichloropyrimidine.chk"
 Charge =  0 Multiplicity = 1

                         Standard orientation:
 ---------------------------------------------------------------------
 Center     Atomic      Atomic             Coordinates (Angstroms)
 Number     Number       Type             X           Y           Z
 ---------------------------------------------------------------------
      1         17           0       -2.599175   -0.886996   -0.000001
      2         17           0        2.613285   -0.893714    0.000000
      3          7           0        0.001967   -0.687993    0.000000
      4          7           0       -1.233601    1.339871    0.000000
      5          6           0       -1.116676    0.025543    0.000000
      6          6           0        1.121365    0.005739    0.000000
      7          6           0        1.154461    1.395274    0.000000
      8          6           0       -0.082104    2.017431    0.000000
      9          1           0        2.080180    1.947300    0.000000
     10          1           0       -0.160883    3.097694    0.000002
 ---------------------------------------------------------------------

 SCF Done:  E(RHF) =  -1180.98206536     A.U. after    2 cycles

 The electronic state is 1-A.
 Alpha  occ. eigenvalues -- -105.60085-105.58770 -15.54721 -15.54182 -11.40503
 Alpha  occ. eigenvalues --  -11.39184 -11.33658 -11.28469 -10.64929 -10.63641
 Alpha  occ. eigenvalues --   -7.81892  -7.81465  -7.81458  -7.80601  -7.80170
 Alpha  occ. eigenvalues --   -7.80155  -1.36631  -1.25250  -1.16345  -1.10456
 Alpha  occ. eigenvalues --   -1.05999  -0.93907  -0.91374  -0.79013  -0.74769
 Alpha  occ. eigenvalues --   -0.67959  -0.66470  -0.64356  -0.62221  -0.55234
 Alpha  occ. eigenvalues --   -0.54626  -0.50413  -0.49870  -0.49512  -0.47911
 Alpha  occ. eigenvalues --   -0.46762  -0.40243
 Alpha virt. eigenvalues --    0.02801   0.04209   0.04246   0.05961   0.06662
 Alpha virt. eigenvalues --    0.08417   0.09296   0.09894   0.10827   0.11464
 Alpha virt. eigenvalues --    0.12214   0.13013   0.13142   0.13975   0.14621

 Mulliken charges:
               1
     1  Cl   0.091912
     2  Cl  -0.064490
     3  N    1.124558
     4  N    0.861415
     5  C   -1.140544
     6  C   -1.168433
     7  C    1.047782
     8  C   -0.551758
     9  H   -0.076231
    10  H   -0.124211
 Sum of Mulliken charges =  -0.00000

 Dipole moment (field-independent basis, Debye):
    X=              2.3061    Y=              2.8419    Z=              0.0000  Tot=              3.6599

 Test job not archived.
 1\1\GINC-SE183\SP\RHF\Aug-CC-pVDZ\C4H2Cl2N2\OHZDE\05-Apr-2025\0\\#t hf
  aug-cc-pvdz iop(5/13=1,5/36=2,99/5=2) pseudo=read geom=check guess=(r
 ead,tcheck) scf=(maxcycle=1)\\title\\0,1\Cl,0,-2.599175,-0.886996,-0.0
 00001\Cl,0,2.613285,-0.893714,0.\N,0,0.001967,-0.687993,0.\N,0,-1.2336
 01,1.339871,0.\C,0,-1.116676,0.025543,0.\C,0,1.121365,0.005739,0.\C,0,
 1.154461,1.395274,0.\C,0,-0.082104,2.017431,0.\H,0,2.08018,1.9473,0.\H
 ,0,-0.160883,3.097694,0.000002\\Version=ES64L-G16RevC.01\State=1-A\HF=
 -1180.9820654\RMSD=2.289e-02\Dipole=0.907307,1.1180789,0.0000005\Quadr

 Normal termination of Gaussian 16 at Sat Apr  5 22:34:40 2025.
