 Gaussian 16, Revision C.01,

 ----------------------------------------------------------------------
 #t hf aug-cc-pvdz symm=none int=(grid=ultrafine) guess=(read,tcheck) s
 table=(opt,rrhf)
 ----------------------------------------------------------------------
 -----
 title
 -----
 Symbolic Z-matrix:
 Charge =  0 Multiplicity = 1

 SCF Done:  E(RHF) =  -527.781934552     A.U. after   16 cycles
 Normal termination of Gaussian 16 at Sat Apr  5 22:34:08 2025.
 Gaussian 16:  ES64L-G16RevC.01  3-Jul-2019

 ----------------------------------------------------------------------
 #t hf aug-cc-pvdz iop(5/13=1,5/36=2,99/5=2) pseudo=read geom=check gue
 ss=(read,tcheck) scf=(maxcycle=1)
 ----------------------------------------------------------------------
 -----
 title
 -----
 Structure from the checkpoint file:  "2-4-hexadiynedioic_acid.chk"
 Charge =  0 Multiplicity = 1

                         Standard orientation:
 ---------------------------------------------------------------------
 Center     Atomic      Atomic             Coordinates (Angstroms)
 Number     Number       Type             X           Y           Z
 ---------------------------------------------------------------------
      1          8           0        3.930220    0.922903   -0.701602
      2          8           0       -3.930220   -0.922899   -0.701611
      3          8           0        3.973285   -0.836514    0.665513
      4          8           0       -3.973285    0.836512    0.665510
      5          6           0        3.332555    0.099218   -0.070156
      6          6           0       -3.332555   -0.099217   -0.070161
      7          6           0        1.886554    0.027690   -0.032419
      8          6           0       -1.886554   -0.027691   -0.032422
      9          6           0        0.677478    0.008906   -0.032785
     10          6           0       -0.677478   -0.008907   -0.032786
     11          1           0        3.342337   -1.424609    1.100947
     12          1           0       -3.342337    1.424605    1.100948
 ---------------------------------------------------------------------

 SCF Done:  E(RHF) =  -528.290252778     A.U. after    2 cycles

 The electronic state is 1-A.
 Alpha  occ. eigenvalues --  -20.63690 -20.63689 -20.57516 -20.57514 -11.45205
 Alpha  occ. eigenvalues --  -11.45201 -11.33544 -11.33450 -11.32225 -11.32222
 Alpha  occ. eigenvalues --   -1.58088  -1.58033  -1.49361  -1.49354  -1.15725
 Alpha  occ. eigenvalues --   -1.09939  -0.98608  -0.93872  -0.87795  -0.84300
 Alpha  occ. eigenvalues --   -0.83168  -0.70308  -0.70277  -0.66986  -0.66932
 Alpha  occ. eigenvalues --   -0.63356  -0.63219  -0.55609  -0.55522  -0.51112
 Alpha  occ. eigenvalues --   -0.50913  -0.49666  -0.49636  -0.42616  -0.42555
 Alpha virt. eigenvalues --    0.01367   0.02224   0.02360   0.03350   0.06536
 Alpha virt. eigenvalues --    0.06713   0.08467   0.09020   0.09371   0.09940
 Alpha virt. eigenvalues --    0.11843   0.12239   0.12349   0.12646   0.14267

 Mulliken charges:
               1
     1  O   -1.131699
     2  O   -1.131699
     3  O   -1.194399
     4  O   -1.194399
     5  C    1.520163
     6  C    1.520165
     7  C   -2.010274
     8  C   -2.010279
     9  C    2.367102
    10  C    2.367104
    11  H    0.449107
    12  H    0.449107
 Sum of Mulliken charges =  -0.00000

 Dipole moment (field-independent basis, Debye):
    X=             -0.0000    Y=             -0.0000    Z=              3.3604  Tot=              3.3604

 Test job not archived.
 1\1\GINC-SE187\SP\RHF\Aug-CC-pVDZ\C6H2O4\OHZDE\05-Apr-2025\0\\#t hf au
 g-cc-pvdz iop(5/13=1,5/36=2,99/5=2) pseudo=read geom=check guess=(read
 ,tcheck) scf=(maxcycle=1)\\title\\0,1\O,0,3.93022,0.922903,-0.701602\O
 ,0,-3.93022,-0.922899,-0.701611\O,0,3.973285,-0.836514,0.665513\O,0,-3
 .973285,0.836512,0.66551\C,0,3.332555,0.099218,-0.070156\C,0,-3.332555
 ,-0.099217,-0.070161\C,0,1.886554,0.02769,-0.032419\C,0,-1.886554,-0.0
 27691,-0.032422\C,0,0.677478,0.008906,-0.032785\C,0,-0.677478,-0.00890
 7,-0.032786\H,0,3.342337,-1.424609,1.100947\H,0,-3.342337,1.424605,1.1

 Normal termination of Gaussian 16 at Sat Apr  5 22:34:41 2025.
