 Gaussian 16, Revision C.01,

 ----------------------------------------------------------------------
 #t hf aug-cc-pvdz symm=none int=(grid=ultrafine) guess=(read,tcheck) s
 table=(opt,rrhf)
 ----------------------------------------------------------------------
 -----
 title
 -----
 Symbolic Z-matrix:
 Charge =  0 Multiplicity = 1

 SCF Done:  E(RHF) =  -1678.52860660     A.U. after   15 cycles
 Normal termination of Gaussian 16 at Sat Apr  5 22:35:04 2025.
 Gaussian 16:  ES64L-G16RevC.01  3-Jul-2019

 ----------------------------------------------------------------------
 #t hf aug-cc-pvdz iop(5/13=1,5/36=2,99/5=2) pseudo=read geom=check gue
 ss=(read,tcheck) scf=(maxcycle=1)
 ----------------------------------------------------------------------
 -----
 title
 -----
 Structure from the checkpoint file:  "2-4-5-trichloro-6-methylpyrimidine.chk"
 Charge =  0 Multiplicity = 1

                         Standard orientation:
 ---------------------------------------------------------------------
 Center     Atomic      Atomic             Coordinates (Angstroms)
 Number     Number       Type             X           Y           Z
 ---------------------------------------------------------------------
      1          6           0        1.021460    0.038369    0.000000
      2          6           0        0.640074   -1.308976    0.000000
      3          6           0        0.000000    0.987794    0.000000
      4          6           0       -1.528760   -0.650022    0.000000
      5          6           0        1.636021   -2.424461    0.000000
      6          7           0       -0.656618   -1.639019    0.000000
      7          7           0       -1.273552    0.646231    0.000000
      8         17           0        2.695285    0.484019    0.000000
      9         17           0        0.352375    2.685355    0.000000
     10         17           0       -3.211246   -1.098954    0.000000
     11          1           0        2.284076   -2.364524    0.875642
     12          1           0        1.111227   -3.374788    0.000000
     13          1           0        2.284076   -2.364524   -0.875642
 ---------------------------------------------------------------------

 SCF Done:  E(RHF) =  -1679.05649562     A.U. after    2 cycles

 The electronic state is 1-A'.
 Alpha  occ. eigenvalues -- -105.60363-105.60331-105.59044 -15.54917 -15.54367
 Alpha  occ. eigenvalues --  -11.40727 -11.39844 -11.35086 -11.34003 -11.26501
 Alpha  occ. eigenvalues --  -10.65178 -10.65174 -10.63904  -7.82154  -7.82142
 Alpha  occ. eigenvalues --   -7.81728  -7.81710  -7.81709  -7.81698  -7.80866
 Alpha  occ. eigenvalues --   -7.80433  -7.80420  -1.37209  -1.25963  -1.19612
 Alpha  occ. eigenvalues --   -1.12165  -1.11033  -1.05277  -1.00232  -0.91066
 Alpha  occ. eigenvalues --   -0.89386  -0.81185  -0.72067  -0.68044  -0.65307
 Alpha  occ. eigenvalues --   -0.63731  -0.61868  -0.61099  -0.58663  -0.56766
 Alpha  occ. eigenvalues --   -0.54813  -0.52764  -0.52753  -0.49947  -0.49160
 Alpha  occ. eigenvalues --   -0.48550  -0.47044  -0.46701  -0.38735
 Alpha virt. eigenvalues --    0.03236   0.04203   0.05157   0.05157   0.05953
 Alpha virt. eigenvalues --    0.06103   0.07363   0.08401   0.08997   0.10510
 Alpha virt. eigenvalues --    0.10521   0.11872   0.12845   0.13301   0.13881

 Mulliken charges:
               1
     1  C    0.576336
     2  C   -0.652816
     3  C   -1.656437
     4  C   -1.397095
     5  C    0.090903
     6  N    1.124863
     7  N    1.393314
     8  Cl  -0.241117
     9  Cl  -0.034136
    10  Cl   0.105391
    11  H    0.293854
    12  H    0.103086
    13  H    0.293854
 Sum of Mulliken charges =  -0.00000

 Dipole moment (field-independent basis, Debye):
    X=              2.8246    Y=             -1.2173    Z=              0.0000  Tot=              3.0758

 Test job not archived.
 1\1\GINC-SE052\SP\RHF\Aug-CC-pVDZ\C5H3Cl3N2\OHZDE\05-Apr-2025\0\\#t hf
  aug-cc-pvdz iop(5/13=1,5/36=2,99/5=2) pseudo=read geom=check guess=(r
 ead,tcheck) scf=(maxcycle=1)\\title\\0,1\C,0,1.02146,0.038369,0.\C,0,0
 .640074,-1.308976,0.\C,0,0.,0.987794,0.\C,0,-1.52876,-0.650022,0.\C,0,
 1.636021,-2.424461,0.\N,0,-0.656618,-1.639019,0.\N,0,-1.273552,0.64623
 1,0.\Cl,0,2.695285,0.484019,0.\Cl,0,0.352375,2.685355,0.\Cl,0,-3.21124
 6,-1.098954,0.\H,0,2.284076,-2.364524,0.875642\H,0,1.111227,-3.374788,
 0.\H,0,2.284076,-2.364524,-0.875642\\Version=ES64L-G16RevC.01\State=1-

 Normal termination of Gaussian 16 at Sat Apr  5 22:35:11 2025.
