 Gaussian 16, Revision C.01,

 ----------------------------------------------------------------------
 #t hf aug-cc-pvdz symm=none int=(grid=ultrafine) guess=(read,tcheck) s
 table=(opt,rrhf)
 ----------------------------------------------------------------------
 -----
 title
 -----
 Symbolic Z-matrix:
 Charge =  0 Multiplicity = 1

 SCF Done:  E(RHF) =  -512.995062461     A.U. after   13 cycles

 1\1\GINC-SE180\Stability\RHF\Aug-CC-pVDZ\C9H15N3\OHZDE\05-Apr-2025\0\\
 #t hf aug-cc-pvdz symm=none int=(grid=ultrafine) guess=(read,tcheck) s
 table=(opt,rrhf)\\title\\0,1\C,0,1.213746,-0.485195,-0.451299\C,0,-0.1
 86751,1.291886,-0.452061\C,0,-1.025519,-0.80954,-0.451492\C,0,3.106193
 ,-1.226077,1.022311\C,0,-0.489286,3.302497,1.02027\C,0,-2.620272,-2.07
 0057,1.021573\C,0,2.607524,-1.040956,-0.418867\C,0,-0.402257,2.77685,-
 0.420576\C,0,-2.203885,-1.738495,-0.419487\N,0,1.071093,0.842916,-0.45
 1579\N,0,0.196001,-1.350037,-0.450873\N,0,-1.265574,0.504278,-0.451645

 Normal termination of Gaussian 16 at Sat Apr  5 22:38:05 2025.
 Gaussian 16:  ES64L-G16RevC.01  3-Jul-2019

 ----------------------------------------------------------------------
 #t hf aug-cc-pvdz iop(5/13=1,5/36=2,99/5=2) pseudo=read geom=check gue
 ss=(read,tcheck) scf=(maxcycle=1)
 ----------------------------------------------------------------------
 -----
 title
 -----
 Structure from the checkpoint file:  "2-4-6-triethyl-1-3-5-triazine.chk"
 Charge =  0 Multiplicity = 1

                         Standard orientation:
 ---------------------------------------------------------------------
 Center     Atomic      Atomic             Coordinates (Angstroms)
 Number     Number       Type             X           Y           Z
 ---------------------------------------------------------------------
      1          6           0        1.213750   -0.485186   -0.451299
      2          6           0       -0.186761    1.291885   -0.452061
      3          6           0       -1.025513   -0.809548   -0.451492
      4          6           0        3.106202   -1.226053    1.022311
      5          6           0       -0.489311    3.302493    1.020270
      6          6           0       -2.620256   -2.070077    1.021573
      7          6           0        2.607532   -1.040936   -0.418867
      8          6           0       -0.402278    2.776847   -0.420576
      9          6           0       -2.203872   -1.738512   -0.419487
     10          7           0        1.071087    0.842924   -0.451579
     11          7           0        0.196011   -1.350035   -0.450873
     12          7           0       -1.265578    0.504269   -0.451645
     13          1           0        3.118889   -0.274412    1.553900
     14          1           0        4.118835   -1.629241    1.024095
     15          1           0        2.464880   -1.917359    1.569345
     16          1           0       -1.319169    2.838256    1.553364
     17          1           0       -0.646278    4.381080    1.021356
     18          1           0        0.430731    3.093042    1.566254
     19          1           0       -1.805204   -2.554601    1.559462
     20          1           0       -3.476117   -2.744974    1.022972
     21          1           0       -2.900225   -1.166017    1.562599
     22          1           0        2.608932   -2.000676   -0.934359
     23          1           0        3.265836   -0.353835   -0.949473
     24          1           0        0.427535    3.257462   -0.937555
     25          1           0       -1.327141    3.003005   -0.950185
     26          1           0       -3.033400   -1.262433   -0.941151
     27          1           0       -1.935704   -2.654880   -0.944181
 ---------------------------------------------------------------------

 SCF Done:  E(RHF) =  -513.533525132     A.U. after    2 cycles

 The electronic state is 1-A.
 Alpha  occ. eigenvalues --  -15.49777 -15.49716 -15.49715 -11.32843 -11.32843
 Alpha  occ. eigenvalues --  -11.32833 -11.23871 -11.23871 -11.23870 -11.23223
 Alpha  occ. eigenvalues --  -11.23223 -11.23217  -1.34177  -1.20594  -1.20593
 Alpha  occ. eigenvalues --   -1.05910  -1.05907  -1.05275  -0.93469  -0.93465
 Alpha  occ. eigenvalues --   -0.87868  -0.82231  -0.82226  -0.79621  -0.69023
 Alpha  occ. eigenvalues --   -0.64147  -0.63370  -0.63370  -0.60747  -0.60631
 Alpha  occ. eigenvalues --   -0.60624  -0.59696  -0.55305  -0.55301  -0.53313
 Alpha  occ. eigenvalues --   -0.52215  -0.52213  -0.51491  -0.50553  -0.50551
 Alpha  occ. eigenvalues --   -0.50215  -0.45420  -0.45419  -0.44166  -0.44162
 Alpha virt. eigenvalues --    0.03721   0.03722   0.03751   0.04446   0.04492
 Alpha virt. eigenvalues --    0.04492   0.04617   0.04621   0.05756   0.07864
 Alpha virt. eigenvalues --    0.08295   0.08298   0.08948   0.08954   0.09385

 Mulliken charges:
               1
     1  C   -1.741352
     2  C   -1.742023
     3  C   -1.741465
     4  C   -0.378822
     5  C   -0.378931
     6  C   -0.378863
     7  C   -0.207761
     8  C   -0.207071
     9  C   -0.207261
    10  N    1.494077
    11  N    1.493636
    12  N    1.494480
    13  H    0.190243
    14  H    0.130610
    15  H    0.188467
    16  H    0.190067
    17  H    0.130646
    18  H    0.188513
    19  H    0.189680
    20  H    0.130629
    21  H    0.188973
    22  H    0.160752
    23  H    0.163868
    24  H    0.160832
    25  H    0.163546
    26  H    0.161699
    27  H    0.162833
 Sum of Mulliken charges =  -0.00000

 Dipole moment (field-independent basis, Debye):
    X=             -0.0010    Y=              0.0015    Z=              0.4318  Tot=              0.4318

 Test job not archived.
 1\1\GINC-SE180\SP\RHF\Aug-CC-pVDZ\C9H15N3\OHZDE\05-Apr-2025\0\\#t hf a
 ug-cc-pvdz iop(5/13=1,5/36=2,99/5=2) pseudo=read geom=check guess=(rea
 d,tcheck) scf=(maxcycle=1)\\title\\0,1\C,0,1.213746,-0.485195,-0.45129
 9\C,0,-0.186751,1.291886,-0.452061\C,0,-1.025519,-0.80954,-0.451492\C,
 0,3.106193,-1.226077,1.022311\C,0,-0.489286,3.302497,1.02027\C,0,-2.62
 0272,-2.070057,1.021573\C,0,2.607524,-1.040956,-0.418867\C,0,-0.402257
 ,2.77685,-0.420576\C,0,-2.203885,-1.738495,-0.419487\N,0,1.071093,0.84
 2916,-0.451579\N,0,0.196001,-1.350037,-0.450873\N,0,-1.265574,0.504278

 Normal termination of Gaussian 16 at Sat Apr  5 22:38:29 2025.
