 Gaussian 16, Revision C.01,

 ----------------------------------------------------------------------
 #t hf aug-cc-pvdz symm=none int=(grid=ultrafine) guess=(read,tcheck) s
 table=(opt,rrhf)
 ----------------------------------------------------------------------
 -----
 title
 -----
 Symbolic Z-matrix:
 Charge =  0 Multiplicity = 1

 SCF Done:  E(RHF) =  -315.734955789     A.U. after   14 cycles
 Normal termination of Gaussian 16 at Sat Apr  5 22:33:46 2025.
 Gaussian 16:  ES64L-G16RevC.01  3-Jul-2019

 ----------------------------------------------------------------------
 #t hf aug-cc-pvdz iop(5/13=1,5/36=2,99/5=2) pseudo=read geom=check gue
 ss=(read,tcheck) scf=(maxcycle=1)
 ----------------------------------------------------------------------
 -----
 title
 -----
 Structure from the checkpoint file:  "2-4-dihydro-1-2-4-triazol-3-one.chk"
 Charge =  0 Multiplicity = 1

                         Standard orientation:
 ---------------------------------------------------------------------
 Center     Atomic      Atomic             Coordinates (Angstroms)
 Number     Number       Type             X           Y           Z
 ---------------------------------------------------------------------
      1          6           0        0.585236   -1.371153    0.000000
      2          6           0       -0.000000    0.803622   -0.000000
      3          7           0       -0.706083   -1.394643    0.000000
      4          7           0        1.075996   -0.090990    0.000000
      5          7           0       -1.065835   -0.067566   -0.000000
      6          8           0        0.019362    2.016386   -0.000000
      7          1           0        1.203231   -2.252103    0.000000
      8          1           0        2.035972    0.202774    0.000000
      9          1           0       -2.034065    0.195812   -0.000000
 ---------------------------------------------------------------------

 SCF Done:  E(RHF) =  -316.049563862     A.U. after    2 cycles

 The electronic state is 1-A'.
 Alpha  occ. eigenvalues --  -20.51420 -15.57445 -15.57178 -15.55563 -11.40046
 Alpha  occ. eigenvalues --  -11.33949  -1.47650  -1.40232  -1.24700  -1.14706
 Alpha  occ. eigenvalues --   -0.93372  -0.91183  -0.80734  -0.73770  -0.70539
 Alpha  occ. eigenvalues --   -0.68600  -0.64310  -0.56607  -0.53979  -0.52519
 Alpha  occ. eigenvalues --   -0.44965  -0.38291
 Alpha virt. eigenvalues --    0.02399   0.04535   0.05157   0.08109   0.08321
 Alpha virt. eigenvalues --    0.09986   0.10635   0.10918   0.13738   0.14147
 Alpha virt. eigenvalues --    0.14236   0.16403   0.16528   0.17373   0.17872

 Mulliken charges:
               1
     1  C   -0.269016
     2  C    0.479082
     3  N    0.032450
     4  N    0.384555
     5  N    0.281680
     6  O   -1.075096
     7  H   -0.008011
     8  H    0.076532
     9  H    0.097824
 Sum of Mulliken charges =  -0.00000

 Dipole moment (field-independent basis, Debye):
    X=              2.3664    Y=             -2.5529    Z=              0.0000  Tot=              3.4810

 Test job not archived.
 1\1\GINC-SE014\SP\RHF\Aug-CC-pVDZ\C2H3N3O1\OHZDE\05-Apr-2025\0\\#t hf
 aug-cc-pvdz iop(5/13=1,5/36=2,99/5=2) pseudo=read geom=check guess=(re
 ad,tcheck) scf=(maxcycle=1)\\title\\0,1\C,0,0.585236,-1.371153,0.\C,0,
 0.,0.803622,0.\N,0,-0.706083,-1.394643,0.\N,0,1.075996,-0.09099,0.\N,0
 ,-1.065835,-0.067566,0.\O,0,0.019362,2.016386,0.\H,0,1.203231,-2.25210
 3,0.\H,0,2.035972,0.202774,0.\H,0,-2.034065,0.195812,0.\\Version=ES64L
 -G16RevC.01\State=1-A'\HF=-316.0495639\RMSD=2.285e-02\Dipole=0.9310195
 ,-1.004399,0.\Quadrupole=7.3040279,-6.2316034,-1.0724245,-3.9620226,0.

 Normal termination of Gaussian 16 at Sat Apr  5 22:34:39 2025.
