 Gaussian 16, Revision C.01,

 ----------------------------------------------------------------------
 #t hf aug-cc-pvdz symm=none int=(grid=ultrafine) guess=(read,tcheck) s
 table=(opt,rrhf)
 ----------------------------------------------------------------------
 -----
 title
 -----
 Symbolic Z-matrix:
 Charge =  0 Multiplicity = 1

 SCF Done:  E(RHF) =  -426.369415191     A.U. after   15 cycles
 Normal termination of Gaussian 16 at Sat Apr  5 22:33:48 2025.
 Gaussian 16:  ES64L-G16RevC.01  3-Jul-2019

 ----------------------------------------------------------------------
 #t hf aug-cc-pvdz iop(5/13=1,5/36=2,99/5=2) pseudo=read geom=check gue
 ss=(read,tcheck) scf=(maxcycle=1)
 ----------------------------------------------------------------------
 -----
 title
 -----
 Structure from the checkpoint file:  "2-4-difluorofuran.chk"
 Charge =  0 Multiplicity = 1

                         Standard orientation:
 ---------------------------------------------------------------------
 Center     Atomic      Atomic             Coordinates (Angstroms)
 Number     Number       Type             X           Y           Z
 ---------------------------------------------------------------------
      1          9           0       -2.349093   -0.439318   -0.000000
      2          9           0        2.398437   -0.465192   -0.000000
      3          8           0       -0.734830    1.107764   -0.000000
      4          6           0       -1.057992   -0.187509   -0.000000
      5          6           0        1.115249   -0.099449   -0.000000
      6          6           0        0.013570   -1.010677   -0.000000
      7          6           0        0.647558    1.167846   -0.000000
      8          1           0        0.028831   -2.084299    0.000001
      9          1           0        1.095398    2.141517   -0.000000
 ---------------------------------------------------------------------

 SCF Done:  E(RHF) =  -426.774977348     A.U. after    2 cycles

 The electronic state is 1-A.
 Alpha  occ. eigenvalues --  -26.52215 -26.49909 -20.64294 -11.41723 -11.35276
 Alpha  occ. eigenvalues --  -11.31087 -11.26480  -1.66967  -1.62940  -1.57391
 Alpha  occ. eigenvalues --   -1.13325  -1.03226  -0.86872  -0.85224  -0.80457
 Alpha  occ. eigenvalues --   -0.73851  -0.72695  -0.71153  -0.69464  -0.67398
 Alpha  occ. eigenvalues --   -0.63948  -0.63423  -0.61030  -0.56349  -0.42692
 Alpha  occ. eigenvalues --   -0.34900
 Alpha virt. eigenvalues --    0.03597   0.03975   0.07237   0.08552   0.09231
 Alpha virt. eigenvalues --    0.10536   0.11582   0.12356   0.12894   0.14023
 Alpha virt. eigenvalues --    0.14427   0.15153   0.15478   0.16012   0.16648

 Mulliken charges:
               1
     1  F   -0.800912
     2  F   -0.895299
     3  O   -1.277118
     4  C    1.626857
     5  C    1.084993
     6  C   -0.194465
     7  C    0.603089
     8  H   -0.069081
     9  H   -0.078063
 Sum of Mulliken charges =  -0.00000

 Dipole moment (field-independent basis, Debye):
    X=              0.1805    Y=             -0.0603    Z=              0.0000  Tot=              0.1903

 Test job not archived.
 1\1\GINC-SE226\SP\RHF\Aug-CC-pVDZ\C4H2F2O1\OHZDE\05-Apr-2025\0\\#t hf
 aug-cc-pvdz iop(5/13=1,5/36=2,99/5=2) pseudo=read geom=check guess=(re
 ad,tcheck) scf=(maxcycle=1)\\title\\0,1\F,0,-2.349093,-0.439318,0.\F,0
 ,2.398437,-0.465192,0.\O,0,-0.73483,1.107764,0.\C,0,-1.057992,-0.18750
 9,0.\C,0,1.115249,-0.099449,0.\C,0,0.01357,-1.010677,0.\C,0,0.647558,1
 .167846,0.\H,0,0.028831,-2.084299,0.000001\H,0,1.095398,2.141517,0.\\V
 ersion=ES64L-G16RevC.01\State=1-A\HF=-426.7749773\RMSD=1.652e-02\Dipol
 e=0.0709946,-0.0237355,0.0000004\Quadrupole=-3.1751575,3.7949966,-0.61

 Normal termination of Gaussian 16 at Sat Apr  5 22:34:38 2025.
