 Gaussian 16, Revision C.01,

 ----------------------------------------------------------------------
 #t hf aug-cc-pvdz symm=none int=(grid=ultrafine) guess=(read,tcheck) s
 table=(opt,rrhf)
 ----------------------------------------------------------------------
 -----
 title
 -----
 Symbolic Z-matrix:
 Charge =  0 Multiplicity = 1

 SCF Done:  E(RHF) =  -230.612748744     A.U. after   11 cycles
 Normal termination of Gaussian 16 at Sat Apr  5 22:33:51 2025.
 Gaussian 16:  ES64L-G16RevC.01  3-Jul-2019

 ----------------------------------------------------------------------
 #t hf aug-cc-pvdz iop(5/13=1,5/36=2,99/5=2) pseudo=read geom=check gue
 ss=(read,tcheck) scf=(maxcycle=1)
 ----------------------------------------------------------------------
 -----
 title
 -----
 Structure from the checkpoint file:  "2-4-hexadiyne.chk"
 Charge =  0 Multiplicity = 1

                         Standard orientation:
 ---------------------------------------------------------------------
 Center     Atomic      Atomic             Coordinates (Angstroms)
 Number     Number       Type             X           Y           Z
 ---------------------------------------------------------------------
      1          6           0        0.000000    0.681952    0.000000
      2          6           0       -0.000000   -0.681952    0.000000
      3          6           0        0.000000    1.889462    0.000000
      4          6           0       -0.000000   -1.889462    0.000000
      5          6           0        0.000000    3.341026    0.000000
      6          6           0       -0.000000   -3.341026    0.000000
      7          1           0        0.000000    3.732419    1.019522
      8          1           0        0.882932    3.732419   -0.509761
      9          1           0       -0.882932    3.732419   -0.509761
     10          1           0       -0.000000   -3.732419    1.019522
     11          1           0       -0.882932   -3.732419   -0.509761
     12          1           0        0.882932   -3.732419   -0.509761
 ---------------------------------------------------------------------

 SCF Done:  E(RHF) =  -230.855526873     A.U. after    2 cycles

 The electronic state is 1-A1.
 Alpha  occ. eigenvalues --  -11.26360 -11.26347 -11.25179 -11.25158 -11.24560
 Alpha  occ. eigenvalues --  -11.24453  -1.08899  -1.05705  -0.99861  -0.95044
 Alpha  occ. eigenvalues --   -0.81172  -0.65384  -0.64250  -0.60334  -0.60334
 Alpha  occ. eigenvalues --   -0.59985  -0.59985  -0.46839  -0.46839  -0.34457
 Alpha  occ. eigenvalues --   -0.34457
 Alpha virt. eigenvalues --    0.03165   0.03446   0.05395   0.05395   0.06023
 Alpha virt. eigenvalues --    0.06023   0.06834   0.09741   0.12134   0.12530
 Alpha virt. eigenvalues --    0.12530   0.14454   0.14731   0.14731   0.15246

 Mulliken charges:
               1
     1  C    2.230274
     2  C    2.230274
     3  C   -2.355435
     4  C   -2.355435
     5  C   -0.703034
     6  C   -0.703034
     7  H    0.276065
     8  H    0.276065
     9  H    0.276065
    10  H    0.276065
    11  H    0.276065
    12  H    0.276065
 Sum of Mulliken charges =  -0.00000

 Dipole moment (field-independent basis, Debye):
    X=              0.0000    Y=             -0.0000    Z=              0.0000  Tot=              0.0000

 Test job not archived.
 1\1\GINC-SE175\SP\RHF\Aug-CC-pVDZ\C6H6\OHZDE\05-Apr-2025\0\\#t hf aug-
 cc-pvdz iop(5/13=1,5/36=2,99/5=2) pseudo=read geom=check guess=(read,t
 check) scf=(maxcycle=1)\\title\\0,1\C,0,0.,0.,0.681952\C,0,0.,0.,-0.68
 1952\C,0,0.,0.,1.889462\C,0,0.,0.,-1.889462\C,0,0.,0.,3.341026\C,0,0.,
 0.,-3.341026\H,0,0.,1.019522,3.732419\H,0,-0.882932,-0.509761,3.732419
 \H,0,0.882932,-0.509761,3.732419\H,0,0.,1.019522,-3.732419\H,0,0.88293
 2,-0.509761,-3.732419\H,0,-0.882932,-0.509761,-3.732419\\Version=ES64L
 -G16RevC.01\State=1-A1\HF=-230.8555269\RMSD=7.394e-02\Dipole=0.,0.,0.\

 Normal termination of Gaussian 16 at Sat Apr  5 22:34:38 2025.
