 Gaussian 16, Revision C.01,

 ----------------------------------------------------------------------
 #t hf aug-cc-pvdz symm=none int=(grid=ultrafine) guess=(read,tcheck) s
 table=(opt,rrhf)
 ----------------------------------------------------------------------
 -----
 title
 -----
 Symbolic Z-matrix:
 Charge =  0 Multiplicity = 1

 SCF Done:  E(RHF) =  -305.576026415     A.U. after   15 cycles
 Normal termination of Gaussian 16 at Sat Apr  5 22:34:06 2025.
 Gaussian 16:  ES64L-G16RevC.01  3-Jul-2019

 ----------------------------------------------------------------------
 #t hf aug-cc-pvdz iop(5/13=1,5/36=2,99/5=2) pseudo=read geom=check gue
 ss=(read,tcheck) scf=(maxcycle=1)
 ----------------------------------------------------------------------
 -----
 title
 -----
 Structure from the checkpoint file:  "2-4-cyclohexadienone.chk"
 Charge =  0 Multiplicity = 1

                         Standard orientation:
 ---------------------------------------------------------------------
 Center     Atomic      Atomic             Coordinates (Angstroms)
 Number     Number       Type             X           Y           Z
 ---------------------------------------------------------------------
      1          6           0       -1.079574    0.025415   -0.000044
      2          6           0       -0.317064    1.276053    0.000024
      3          6           0        1.029994    1.272817    0.000051
      4          6           0        1.811253    0.048223   -0.000048
      5          6           0        1.208607   -1.145981   -0.000088
      6          6           0       -0.278700   -1.273628    0.000176
      7          8           0       -2.298529    0.003676   -0.000115
      8          1           0       -0.888881    2.193888    0.000022
      9          1           0        1.565351    2.214743    0.000240
     10          1           0        2.890068    0.123598   -0.000248
     11          1           0        1.792087   -2.058324   -0.000305
     12          1           0       -0.608643   -1.860082    0.864683
     13          1           0       -0.608845   -1.860624   -0.863902
 ---------------------------------------------------------------------

 SCF Done:  E(RHF) =  -305.888194196     A.U. after    2 cycles

 The electronic state is 1-A.
 Alpha  occ. eigenvalues --  -20.52483 -11.33867 -11.27950 -11.27053 -11.25835
 Alpha  occ. eigenvalues --  -11.25643 -11.24839  -1.45740  -1.15401  -1.04614
 Alpha  occ. eigenvalues --   -1.00489  -0.86805  -0.81868  -0.72054  -0.67374
 Alpha  occ. eigenvalues --   -0.67270  -0.62780  -0.62247  -0.60236  -0.54368
 Alpha  occ. eigenvalues --   -0.53412  -0.51049  -0.46244  -0.40807  -0.34008
 Alpha virt. eigenvalues --    0.02826   0.03330   0.04233   0.04642   0.05231
 Alpha virt. eigenvalues --    0.05725   0.05999   0.10468   0.12029   0.12115
 Alpha virt. eigenvalues --    0.13362   0.13558   0.13575   0.13858   0.14331

 Mulliken charges:
               1
     1  C    1.050038
     2  C    0.279744
     3  C    0.519140
     4  C    0.145293
     5  C    0.723839
     6  C   -1.032125
     7  O   -1.482785
     8  H   -0.229641
     9  H   -0.215682
    10  H   -0.210573
    11  H   -0.198627
    12  H    0.325695
    13  H    0.325685
 Sum of Mulliken charges =   0.00000

 Dipole moment (field-independent basis, Debye):
    X=              3.9646    Y=             -0.4156    Z=              0.0003  Tot=              3.9863

 Test job not archived.
 1\1\GINC-SE183\SP\RHF\Aug-CC-pVDZ\C6H6O1\OHZDE\05-Apr-2025\0\\#t hf au
 g-cc-pvdz iop(5/13=1,5/36=2,99/5=2) pseudo=read geom=check guess=(read
 ,tcheck) scf=(maxcycle=1)\\title\\0,1\C,0,-1.079574,0.025415,-0.000044
 \C,0,-0.317064,1.276053,0.000024\C,0,1.029994,1.272817,0.000051\C,0,1.
 811253,0.048223,-0.000048\C,0,1.208607,-1.145981,-0.000088\C,0,-0.2787
 ,-1.273628,0.000176\O,0,-2.298529,0.003675,-0.000115\H,0,-0.888882,2.1
 93888,0.000022\H,0,1.56535,2.214743,0.00024\H,0,2.890068,0.123598,-0.0
 00248\H,0,1.792087,-2.058324,-0.000305\H,0,-0.608643,-1.860082,0.86468

 Normal termination of Gaussian 16 at Sat Apr  5 22:34:39 2025.
