 Gaussian 16, Revision C.01,

 ----------------------------------------------------------------------
 #t hf aug-cc-pvdz symm=none int=(grid=ultrafine) guess=(read,tcheck) s
 table=(opt,rrhf)
 ----------------------------------------------------------------------
 -----
 title
 -----
 Symbolic Z-matrix:
 Charge =  0 Multiplicity = 1

 SCF Done:  E(RHF) =  -377.985001675     A.U. after   15 cycles
 Normal termination of Gaussian 16 at Sat Apr  5 22:33:56 2025.
 Gaussian 16:  ES64L-G16RevC.01  3-Jul-2019

 ----------------------------------------------------------------------
 #t hf aug-cc-pvdz iop(5/13=1,5/36=2,99/5=2) pseudo=read geom=check gue
 ss=(read,tcheck) scf=(maxcycle=1)
 ----------------------------------------------------------------------
 -----
 title
 -----
 Structure from the checkpoint file:  "2-4-hexadiynedial.chk"
 Charge =  0 Multiplicity = 1

                         Standard orientation:
 ---------------------------------------------------------------------
 Center     Atomic      Atomic             Coordinates (Angstroms)
 Number     Number       Type             X           Y           Z
 ---------------------------------------------------------------------
      1          8           0        4.066762    0.495957    0.360134
      2          8           0       -4.066767    0.495911   -0.360185
      3          6           0        0.673589   -0.167678   -0.057506
      4          6           0       -0.673588   -0.167673    0.057516
      5          6           0        1.882141   -0.160213   -0.149051
      6          6           0       -1.882140   -0.160196    0.149061
      7          6           0        3.314251   -0.185757   -0.295724
      8          6           0       -3.314249   -0.185720    0.295752
      9          1           0        3.682946   -0.885828   -1.064540
     10          1           0       -3.682935   -0.885690    1.064664
 ---------------------------------------------------------------------

 SCF Done:  E(RHF) =  -378.350940754     A.U. after    2 cycles

 The electronic state is 1-A.
 Alpha  occ. eigenvalues --  -20.58527 -20.58526 -11.39418 -11.39414 -11.31998
 Alpha  occ. eigenvalues --  -11.31899 -11.30520 -11.30518  -1.51105  -1.51066
 Alpha  occ. eigenvalues --   -1.14296  -1.08666  -0.98488  -0.93906  -0.86196
 Alpha  occ. eigenvalues --   -0.75873  -0.75292  -0.68664  -0.68597  -0.58779
 Alpha  occ. eigenvalues --   -0.58720  -0.52684  -0.52570  -0.47392  -0.47261
 Alpha  occ. eigenvalues --   -0.40889  -0.40880
 Alpha virt. eigenvalues --    0.01738   0.02014   0.02846   0.03273   0.06394
 Alpha virt. eigenvalues --    0.07822   0.08967   0.09027   0.09123   0.09752
 Alpha virt. eigenvalues --    0.12647   0.12832   0.13087   0.13955   0.14855

 Mulliken charges:
               1
     1  O   -1.033104
     2  O   -1.033104
     3  C    2.695118
     4  C    2.695102
     5  C   -2.194796
     6  C   -2.194807
     7  C    0.435621
     8  C    0.435625
     9  H    0.097173
    10  H    0.097170
 Sum of Mulliken charges =   0.00000

 Dipole moment (field-independent basis, Debye):
    X=              0.0000    Y=             -2.9071    Z=              0.0002  Tot=              2.9071

 Test job not archived.
 1\1\GINC-SE177\SP\RHF\Aug-CC-pVDZ\C6H2O2\OHZDE\05-Apr-2025\0\\#t hf au
 g-cc-pvdz iop(5/13=1,5/36=2,99/5=2) pseudo=read geom=check guess=(read
 ,tcheck) scf=(maxcycle=1)\\title\\0,1\O,0,4.066762,0.495957,0.360134\O
 ,0,-4.066767,0.495911,-0.360185\C,0,0.673589,-0.167678,-0.057506\C,0,-
 0.673588,-0.167673,0.057516\C,0,1.882141,-0.160213,-0.149051\C,0,-1.88
 214,-0.160196,0.149061\C,0,3.314251,-0.185757,-0.295724\C,0,-3.314249,
 -0.18572,0.295752\H,0,3.682946,-0.885828,-1.06454\H,0,-3.682935,-0.885
 69,1.064664\\Version=ES64L-G16RevC.01\State=1-A\HF=-378.3509408\RMSD=7

 Normal termination of Gaussian 16 at Sat Apr  5 22:34:42 2025.
