 Gaussian 16, Revision C.01,

 ----------------------------------------------------------------------
 #t hf aug-cc-pvdz symm=none int=(grid=ultrafine) guess=(read,tcheck) s
 table=(opt,rrhf)
 ----------------------------------------------------------------------
 -----
 title
 -----
 Symbolic Z-matrix:
 Charge =  0 Multiplicity = 1

 SCF Done:  E(RHF) =  -343.775624455     A.U. after   14 cycles
 Normal termination of Gaussian 16 at Sat Apr  5 22:34:12 2025.
 Gaussian 16:  ES64L-G16RevC.01  3-Jul-2019

 ----------------------------------------------------------------------
 #t hf aug-cc-pvdz iop(5/13=1,5/36=2,99/5=2) pseudo=read geom=check gue
 ss=(read,tcheck) scf=(maxcycle=1)
 ----------------------------------------------------------------------
 -----
 title
 -----
 Structure from the checkpoint file:  "2-4-pentanedione.chk"
 Charge =  0 Multiplicity = 1

                         Standard orientation:
 ---------------------------------------------------------------------
 Center     Atomic      Atomic             Coordinates (Angstroms)
 Number     Number       Type             X           Y           Z
 ---------------------------------------------------------------------
      1          6           0        0.000000    1.243074    0.098143
      2          6           0       -0.000000   -1.243074    0.098143
      3          6           0        1.350214    1.778331   -0.300826
      4          6           0       -1.350214   -1.778331   -0.300826
      5          6           0        0.000000    0.000000    0.994477
      6          8           0       -1.040368    1.730141   -0.279145
      7          8           0        1.040368   -1.730141   -0.279145
      8          1           0        1.852898    2.184930    0.580181
      9          1           0        1.978873    0.968481   -0.675930
     10          1           0        1.241245    2.557857   -1.049844
     11          1           0       -1.241245   -2.557857   -1.049844
     12          1           0       -1.852898   -2.184930    0.580181
     13          1           0       -1.978873   -0.968481   -0.675930
     14          1           0       -0.895614    0.031398    1.611420
     15          1           0        0.895614   -0.031398    1.611420
 ---------------------------------------------------------------------

 SCF Done:  E(RHF) =  -344.127448673     A.U. after    2 cycles

 The electronic state is 1-A.
 Alpha  occ. eigenvalues --  -20.54959 -20.54959 -11.35722 -11.35720 -11.26321
 Alpha  occ. eigenvalues --  -11.25006 -11.25004  -1.48742  -1.48298  -1.08587
 Alpha  occ. eigenvalues --   -1.02887  -0.97946  -0.79185  -0.74714  -0.68077
 Alpha  occ. eigenvalues --   -0.67168  -0.67107  -0.63305  -0.60845  -0.60193
 Alpha  occ. eigenvalues --   -0.57788  -0.56379  -0.54547  -0.51154  -0.50875
 Alpha  occ. eigenvalues --   -0.43113  -0.41216
 Alpha virt. eigenvalues --    0.03201   0.03750   0.04146   0.05116   0.05846
 Alpha virt. eigenvalues --    0.06570   0.07200   0.07219   0.10491   0.10553
 Alpha virt. eigenvalues --    0.10730   0.11865   0.13762   0.14268   0.14536

 Mulliken charges:
               1
     1  C    1.175028
     2  C    1.175028
     3  C   -0.500630
     4  C   -0.500630
     5  C   -0.107049
     6  O   -1.384107
     7  O   -1.384107
     8  H    0.276602
     9  H    0.230470
    10  H    0.131198
    11  H    0.131198
    12  H    0.276602
    13  H    0.230470
    14  H    0.124963
    15  H    0.124963
 Sum of Mulliken charges =  -0.00000

 Dipole moment (field-independent basis, Debye):
    X=              0.0000    Y=             -0.0000    Z=              1.6905  Tot=              1.6905

 Test job not archived.
 1\1\GINC-SE199\SP\RHF\Aug-CC-pVDZ\C5H8O2\OHZDE\05-Apr-2025\0\\#t hf au
 g-cc-pvdz iop(5/13=1,5/36=2,99/5=2) pseudo=read geom=check guess=(read
 ,tcheck) scf=(maxcycle=1)\\title\\0,1\C,0,0.,1.243074,0.098143\C,0,0.,
 -1.243074,0.098143\C,0,1.350214,1.778331,-0.300826\C,0,-1.350214,-1.77
 8331,-0.300826\C,0,0.,0.,0.994477\O,0,-1.040368,1.730141,-0.279145\O,0
 ,1.040368,-1.730141,-0.279145\H,0,1.852898,2.18493,0.580181\H,0,1.9788
 73,0.968481,-0.67593\H,0,1.241245,2.557857,-1.049844\H,0,-1.241245,-2.
 557857,-1.049844\H,0,-1.852898,-2.18493,0.580181\H,0,-1.978873,-0.9684

 Normal termination of Gaussian 16 at Sat Apr  5 22:34:39 2025.
