 Gaussian 16, Revision C.01,

 ----------------------------------------------------------------------
 #t hf aug-cc-pvdz symm=none int=(grid=ultrafine) guess=(read,tcheck) s
 table=(opt,rrhf)
 ----------------------------------------------------------------------
 -----
 title
 -----
 Symbolic Z-matrix:
 Charge =  0 Multiplicity = 1

 SCF Done:  E(RHF) =  -324.811673945     A.U. after   15 cycles
 Normal termination of Gaussian 16 at Sat Apr  5 22:34:45 2025.
 Gaussian 16:  ES64L-G16RevC.01  3-Jul-2019

 ----------------------------------------------------------------------
 #t hf aug-cc-pvdz iop(5/13=1,5/36=2,99/5=2) pseudo=read geom=check gue
 ss=(read,tcheck) scf=(maxcycle=1)
 ----------------------------------------------------------------------
 -----
 title
 -----
 Structure from the checkpoint file:  "2-4-dimethylpyridine.chk"
 Charge =  0 Multiplicity = 1

                         Standard orientation:
 ---------------------------------------------------------------------
 Center     Atomic      Atomic             Coordinates (Angstroms)
 Number     Number       Type             X           Y           Z
 ---------------------------------------------------------------------
      1          6           0        1.153465    1.135016   -0.007007
      2          6           0        0.013587   -0.948032   -0.008764
      3          6           0       -0.091847    1.747296    0.002284
      4          6           0        1.221900   -0.256301   -0.010428
      5          6           0       -1.196914   -0.255109    0.000772
      6          6           0        2.541088   -0.977755    0.007212
      7          6           0       -2.516394   -0.975301    0.001562
      8          7           0       -1.245756    1.082383    0.006775
      9          1           0        2.053167    1.736401   -0.014432
     10          1           0        0.010024   -2.030698   -0.017846
     11          1           0       -0.165664    2.829419    0.003732
     12          1           0        2.444441   -1.995475   -0.368921
     13          1           0        3.285505   -0.457038   -0.595106
     14          1           0        2.932172   -1.038201    1.025756
     15          1           0       -2.388031   -2.056557   -0.001058
     16          1           0       -3.098551   -0.693608    0.880030
     17          1           0       -3.102079   -0.689810   -0.873359
 ---------------------------------------------------------------------

 SCF Done:  E(RHF) =  -325.152820615     A.U. after    2 cycles

 The electronic state is 1-A.
 Alpha  occ. eigenvalues --  -15.48948 -11.28021 -11.27412 -11.26630 -11.24397
 Alpha  occ. eigenvalues --  -11.23396 -11.23372 -11.22939  -1.25378  -1.10736
 Alpha  occ. eigenvalues --   -1.05655  -0.97508  -0.95249  -0.86443  -0.80934
 Alpha  occ. eigenvalues --   -0.70414  -0.69366  -0.64320  -0.60258  -0.58974
 Alpha  occ. eigenvalues --   -0.58333  -0.57337  -0.56473  -0.54461  -0.52430
 Alpha  occ. eigenvalues --   -0.51311  -0.44193  -0.38539  -0.34418
 Alpha virt. eigenvalues --    0.03301   0.03678   0.03826   0.04744   0.05028
 Alpha virt. eigenvalues --    0.05734   0.06105   0.07395   0.08307   0.09296
 Alpha virt. eigenvalues --    0.10509   0.11317   0.12235   0.12569   0.13135

 Mulliken charges:
               1
     1  C    0.701420
     2  C    0.712971
     3  C   -1.060698
     4  C    0.624546
     5  C   -1.606522
     6  C   -0.726960
     7  C   -0.497013
     8  N    1.378862
     9  H   -0.267160
    10  H   -0.249983
    11  H   -0.216337
    12  H    0.106338
    13  H    0.158041
    14  H    0.298156
    15  H    0.117039
    16  H    0.260610
    17  H    0.266690
 Sum of Mulliken charges =  -0.00000

 Dipole moment (field-independent basis, Debye):
    X=              2.2599    Y=             -1.6336    Z=              0.0237  Tot=              2.7886

 Test job not archived.
 1\1\GINC-SE145\SP\RHF\Aug-CC-pVDZ\C7H9N1\OHZDE\05-Apr-2025\0\\#t hf au
 g-cc-pvdz iop(5/13=1,5/36=2,99/5=2) pseudo=read geom=check guess=(read
 ,tcheck) scf=(maxcycle=1)\\title\\0,1\C,0,1.153465,1.135016,-0.007007\
 C,0,0.013587,-0.948032,-0.008764\C,0,-0.091847,1.747296,0.002284\C,0,1
 .2219,-0.256301,-0.010428\C,0,-1.196914,-0.255109,0.000772\C,0,2.54108
 8,-0.977755,0.007212\C,0,-2.516394,-0.975301,0.001562\N,0,-1.245756,1.
 082383,0.006775\H,0,2.053167,1.736401,-0.014432\H,0,0.010024,-2.030698
 ,-0.017846\H,0,-0.165664,2.829419,0.003732\H,0,2.444441,-1.995475,-0.3

 Normal termination of Gaussian 16 at Sat Apr  5 22:34:53 2025.
