 Gaussian 16, Revision C.01,

 ----------------------------------------------------------------------
 #t hf aug-cc-pvdz symm=none int=(grid=ultrafine) guess=(read,tcheck) s
 table=(opt,rrhf)
 ----------------------------------------------------------------------
 -----
 title
 -----
 Symbolic Z-matrix:
 Charge =  0 Multiplicity = 1

 SCF Done:  E(RHF) =  -1655.49319391     A.U. after   12 cycles

 1\1\GINC-SE164\Stability\RHF\Aug-CC-pVDZ\C3Cl3N3\OHZDE\05-Apr-2025\0\\
 #t hf aug-cc-pvdz symm=none int=(grid=ultrafine) guess=(read,tcheck) s
 table=(opt,rrhf)\\title\\0,1\C,0,0.,1.278542,0.\C,0,1.10725,-0.639271,
 0.\C,0,-1.10725,-0.639271,0.\N,0,0.,-1.366438,0.\N,0,-1.18337,0.683219
 ,0.\N,0,1.18337,0.683219,0.\Cl,0,0.,3.006062,0.\Cl,0,2.603326,-1.50303
 1,0.\Cl,0,-2.603326,-1.503031,0.\\Version=ES64L-G16RevC.01\HF=-1655.49
 31939\RMSD=8.743e-09\Dipole=0.,-0.0000001,0.\Quadrupole=-0.7684602,-0.
 7684671,1.5369273,0.,0.,0.\PG=Unknown\\@

 Normal termination of Gaussian 16 at Sat Apr  5 22:34:06 2025.
 Gaussian 16:  ES64L-G16RevC.01  3-Jul-2019

 ----------------------------------------------------------------------
 #t hf aug-cc-pvdz iop(5/13=1,5/36=2,99/5=2) pseudo=read geom=check gue
 ss=(read,tcheck) scf=(maxcycle=1)
 ----------------------------------------------------------------------
 -----
 title
 -----
 Structure from the checkpoint file:  "2-4-6-trichloro-1-3-5-triazine.chk"
 Charge =  0 Multiplicity = 1

                         Standard orientation:
 ---------------------------------------------------------------------
 Center     Atomic      Atomic             Coordinates (Angstroms)
 Number     Number       Type             X           Y           Z
 ---------------------------------------------------------------------
      1          6           0       -0.000000    0.000000    1.278542
      2          6           0        0.000000    1.107250   -0.639271
      3          6           0       -0.000000   -1.107250   -0.639271
      4          7           0        0.000000   -0.000000   -1.366438
      5          7           0        0.000000   -1.183370    0.683219
      6          7           0        0.000000    1.183370    0.683219
      7         17           0       -0.000000    0.000000    3.006062
      8         17           0        0.000000    2.603326   -1.503031
      9         17           0       -0.000000   -2.603326   -1.503031
 ---------------------------------------------------------------------

 SCF Done:  E(RHF) =  -1655.99192446     A.U. after    2 cycles

 The electronic state is 1-A1.
 Alpha  occ. eigenvalues -- -105.61360-105.61360-105.61360 -15.56526 -15.56472
 Alpha  occ. eigenvalues --  -15.56472 -11.44115 -11.44115 -11.44093 -10.66249
 Alpha  occ. eigenvalues --  -10.66229 -10.66229  -7.83199  -7.83198  -7.83198
 Alpha  occ. eigenvalues --   -7.82758  -7.82758  -7.82756  -7.82735  -7.82732
 Alpha  occ. eigenvalues --   -7.82732  -1.42713  -1.29041  -1.29041  -1.14153
 Alpha  occ. eigenvalues --   -1.14153  -1.12374  -0.94585  -0.94585  -0.87398
 Alpha  occ. eigenvalues --   -0.75417  -0.71673  -0.65629  -0.65629  -0.64933
 Alpha  occ. eigenvalues --   -0.58462  -0.58462  -0.53316  -0.53316  -0.50967
 Alpha  occ. eigenvalues --   -0.50967  -0.50327  -0.50113  -0.47542  -0.47542
 Alpha virt. eigenvalues --    0.02962   0.02962   0.04859   0.07689   0.07689
 Alpha virt. eigenvalues --    0.08011   0.09389   0.09389   0.09499   0.12597
 Alpha virt. eigenvalues --    0.13100   0.13100   0.13994   0.13994   0.14375

 Mulliken charges:
               1
     1  C   -1.112292
     2  C   -1.112291
     3  C   -1.112291
     4  N    0.984732
     5  N    0.984732
     6  N    0.984732
     7  Cl   0.127559
     8  Cl   0.127559
     9  Cl   0.127559
 Sum of Mulliken charges =  -0.00000

 Dipole moment (field-independent basis, Debye):
    X=              0.0000    Y=              0.0000    Z=             -0.0000  Tot=              0.0000

 Test job not archived.
 1\1\GINC-SE164\SP\RHF\Aug-CC-pVDZ\C3Cl3N3\OHZDE\05-Apr-2025\0\\#t hf a
 ug-cc-pvdz iop(5/13=1,5/36=2,99/5=2) pseudo=read geom=check guess=(rea
 d,tcheck) scf=(maxcycle=1)\\title\\0,1\C,0,0.,1.278542,0.\C,0,1.10725,
 -0.639271,0.\C,0,-1.10725,-0.639271,0.\N,0,0.,-1.366438,0.\N,0,-1.1833
 7,0.683219,0.\N,0,1.18337,0.683219,0.\Cl,0,0.,3.006062,0.\Cl,0,2.60332
 6,-1.503031,0.\Cl,0,-2.603326,-1.503031,0.\\Version=ES64L-G16RevC.01\S
 tate=1-A1\HF=-1655.9919245\RMSD=2.773e-02\Dipole=0.,-0.0000006,0.\Quad
 rupole=-0.3325569,-0.3325602,0.6651171,0.,0.,0.\PG=C02V [C2(N1C1Cl1),S

 Normal termination of Gaussian 16 at Sat Apr  5 22:34:40 2025.
