 Gaussian 16, Revision C.01,

 ----------------------------------------------------------------------
 #t hf aug-cc-pvdz symm=none int=(grid=ultrafine) guess=(read,tcheck) s
 table=(opt,rrhf)
 ----------------------------------------------------------------------
 -----
 title
 -----
 Symbolic Z-matrix:
 Charge =  0 Multiplicity = 1

 SCF Done:  E(RHF) =  -734.807319401     A.U. after   17 cycles
 Normal termination of Gaussian 16 at Sat Apr  5 22:34:07 2025.
 Gaussian 16:  ES64L-G16RevC.01  3-Jul-2019

 ----------------------------------------------------------------------
 #t hf aug-cc-pvdz iop(5/13=1,5/36=2,99/5=2) pseudo=read geom=check gue
 ss=(read,tcheck) scf=(maxcycle=1)
 ----------------------------------------------------------------------
 -----
 title
 -----
 Structure from the checkpoint file:  "2-4-dicyanothiophene.chk"
 Charge =  0 Multiplicity = 1

                         Standard orientation:
 ---------------------------------------------------------------------
 Center     Atomic      Atomic             Coordinates (Angstroms)
 Number     Number       Type             X           Y           Z
 ---------------------------------------------------------------------
      1         16           0       -0.785680    1.458954   -0.000008
      2          7           0       -3.431367   -1.222926    0.000007
      3          7           0        3.697033   -0.916364    0.000004
      4          6           0       -1.052269   -0.263674    0.000002
      5          6           0        1.258799   -0.088174    0.000000
      6          6           0        0.130306   -0.953110    0.000005
      7          6           0        0.907286    1.241520   -0.000007
      8          6           0       -2.359652   -0.797434    0.000005
      9          6           0        2.606930   -0.544009    0.000002
     10          1           0        0.193528   -2.029602    0.000011
     11          1           0        1.569280    2.090663   -0.000012
 ---------------------------------------------------------------------

 SCF Done:  E(RHF) =  -735.190223889     A.U. after    2 cycles

 The electronic state is 1-A.
 Alpha  occ. eigenvalues --  -94.04374 -15.54360 -15.53962 -11.34594 -11.34518
 Alpha  occ. eigenvalues --  -11.32667 -11.31963 -11.31232 -11.30766  -8.32492
 Alpha  occ. eigenvalues --   -6.30248  -6.30145  -6.29936  -1.27568  -1.26037
 Alpha  occ. eigenvalues --   -1.24471  -1.09508  -1.07848  -0.91692  -0.88181
 Alpha  occ. eigenvalues --   -0.80010  -0.72359  -0.65085  -0.64949  -0.62781
 Alpha  occ. eigenvalues --   -0.62461  -0.62365  -0.56610  -0.56086  -0.52954
 Alpha  occ. eigenvalues --   -0.52713  -0.51683  -0.41337  -0.39263
 Alpha virt. eigenvalues --    0.01700   0.02396   0.03592   0.05047   0.06777
 Alpha virt. eigenvalues --    0.06989   0.07892   0.07975   0.08278   0.10556
 Alpha virt. eigenvalues --    0.10580   0.11650   0.11761   0.12102   0.12888

 Mulliken charges:
               1
     1  S    0.745541
     2  N    1.102374
     3  N    1.083526
     4  C    1.243260
     5  C    2.389369
     6  C    0.283940
     7  C   -0.622325
     8  C   -3.031250
     9  C   -2.748462
    10  H   -0.229134
    11  H   -0.216838
 Sum of Mulliken charges =  -0.00000

 Dipole moment (field-independent basis, Debye):
    X=              0.4139    Y=              3.3973    Z=             -0.0000  Tot=              3.4224

 Test job not archived.
 1\1\GINC-SE190\SP\RHF\Aug-CC-pVDZ\C6H2N2S1\OHZDE\05-Apr-2025\0\\#t hf
 aug-cc-pvdz iop(5/13=1,5/36=2,99/5=2) pseudo=read geom=check guess=(re
 ad,tcheck) scf=(maxcycle=1)\\title\\0,1\S,0,-0.78568,1.458954,-0.00000
 8\N,0,-3.431367,-1.222926,0.000007\N,0,3.697033,-0.916364,0.000004\C,0
 ,-1.052269,-0.263674,0.000002\C,0,1.258799,-0.088174,0.\C,0,0.130306,-
 0.95311,0.000005\C,0,0.907286,1.24152,-0.000007\C,0,-2.359652,-0.79743
 4,0.000005\C,0,2.60693,-0.544009,0.000002\H,0,0.193528,-2.029602,0.000
 011\H,0,1.56928,2.090663,-0.000012\\Version=ES64L-G16RevC.01\State=1-A

 Normal termination of Gaussian 16 at Sat Apr  5 22:34:41 2025.
