 Gaussian 16, Revision C.01,

 ----------------------------------------------------------------------
 #t hf aug-cc-pvdz symm=none int=(grid=ultrafine) guess=(read,tcheck) s
 table=(opt,rrhf)
 ----------------------------------------------------------------------
 -----
 title
 -----
 Symbolic Z-matrix:
 Charge =  0 Multiplicity = 1

 SCF Done:  E(RHF) =  -324.809425199     A.U. after   15 cycles
 Normal termination of Gaussian 16 at Sat Apr  5 22:35:40 2025.
 Gaussian 16:  ES64L-G16RevC.01  3-Jul-2019

 ----------------------------------------------------------------------
 #t hf aug-cc-pvdz iop(5/13=1,5/36=2,99/5=2) pseudo=read geom=check gue
 ss=(read,tcheck) scf=(maxcycle=1)
 ----------------------------------------------------------------------
 -----
 title
 -----
 Structure from the checkpoint file:  "2-5-dimethylpyridine.chk"
 Charge =  0 Multiplicity = 1

                         Standard orientation:
 ---------------------------------------------------------------------
 Center     Atomic      Atomic             Coordinates (Angstroms)
 Number     Number       Type             X           Y           Z
 ---------------------------------------------------------------------
      1          6           0       -1.178683   -0.742088    0.000000
      2          6           0        0.047290   -1.388143    0.000000
      3          6           0        0.000000    1.309459    0.000000
      4          6           0       -1.228041    0.649909    0.000000
      5          6           0        1.221409   -0.633508    0.000000
      6          6           0       -2.528268    1.405525    0.000000
      7          6           0        2.580459   -1.275923    0.000000
      8          7           0        1.185094    0.702648    0.000000
      9          1           0       -2.095720   -1.319232    0.000000
     10          1           0        0.097475   -2.468673    0.000000
     11          1           0        0.024650    2.395020    0.000000
     12          1           0       -3.128947    1.163181    0.878919
     13          1           0       -2.357997    2.481564    0.000000
     14          1           0       -3.128947    1.163181   -0.878919
     15          1           0        3.147907   -0.961093   -0.876888
     16          1           0        3.147907   -0.961093    0.876888
     17          1           0        2.513018   -2.362770    0.000000
 ---------------------------------------------------------------------

 SCF Done:  E(RHF) =  -325.150551680     A.U. after    2 cycles

 The electronic state is 1-A'.
 Alpha  occ. eigenvalues --  -15.49323 -11.27718 -11.27005 -11.25579 -11.24486
 Alpha  occ. eigenvalues --  -11.23910 -11.23901 -11.22899  -1.25470  -1.10001
 Alpha  occ. eigenvalues --   -1.06272  -0.99192  -0.91994  -0.86800  -0.82574
 Alpha  occ. eigenvalues --   -0.70718  -0.68783  -0.63690  -0.60053  -0.59108
 Alpha  occ. eigenvalues --   -0.58175  -0.57484  -0.55846  -0.54506  -0.52144
 Alpha  occ. eigenvalues --   -0.51809  -0.43983  -0.39390  -0.33605
 Alpha virt. eigenvalues --    0.03350   0.03557   0.03978   0.04961   0.05088
 Alpha virt. eigenvalues --    0.05354   0.06137   0.07750   0.08207   0.08463
 Alpha virt. eigenvalues --    0.10273   0.11582   0.11877   0.12140   0.13340

 Mulliken charges:
               1
     1  C    0.013580
     2  C    0.385794
     3  C   -0.874818
     4  C    1.088546
     5  C   -1.282715
     6  C   -0.580751
     7  C   -0.433950
     8  N    1.228309
     9  H   -0.259569
    10  H   -0.251344
    11  H   -0.228425
    12  H    0.241753
    13  H    0.091844
    14  H    0.241753
    15  H    0.250873
    16  H    0.250873
    17  H    0.118247
 Sum of Mulliken charges =  -0.00000

 Dipole moment (field-independent basis, Debye):
    X=             -2.1035    Y=             -1.3314    Z=              0.0000  Tot=              2.4895

 Test job not archived.
 1\1\GINC-SE179\SP\RHF\Aug-CC-pVDZ\C7H9N1\OHZDE\05-Apr-2025\0\\#t hf au
 g-cc-pvdz iop(5/13=1,5/36=2,99/5=2) pseudo=read geom=check guess=(read
 ,tcheck) scf=(maxcycle=1)\\title\\0,1\C,0,-1.178683,-0.742088,0.\C,0,0
 .04729,-1.388143,0.\C,0,0.,1.309459,0.\C,0,-1.228041,0.649909,0.\C,0,1
 .221409,-0.633508,0.\C,0,-2.528268,1.405525,0.\C,0,2.580459,-1.275923,
 0.\N,0,1.185094,0.702648,0.\H,0,-2.09572,-1.319232,0.\H,0,0.097475,-2.
 468673,0.\H,0,0.02465,2.39502,0.\H,0,-3.128947,1.163181,0.878919\H,0,-
 2.357997,2.481564,0.\H,0,-3.128947,1.163181,-0.878919\H,0,3.147907,-0.

 Normal termination of Gaussian 16 at Sat Apr  5 22:36:10 2025.
