 Gaussian 16, Revision C.01,

 ----------------------------------------------------------------------
 #t hf aug-cc-pvdz symm=none int=(grid=ultrafine) guess=(read,tcheck) s
 table=(opt,rrhf)
 ----------------------------------------------------------------------
 -----
 title
 -----
 Symbolic Z-matrix:
 Charge =  0 Multiplicity = 1

 SCF Done:  E(RHF) =  -309.094820158     A.U. after   12 cycles

 1\1\GINC-SE194\Stability\RHF\Aug-CC-pVDZ\C6H12O1\OHZDE\05-Apr-2025\0\\
 #t hf aug-cc-pvdz symm=none int=(grid=ultrafine) guess=(read,tcheck) s
 table=(opt,rrhf)\\title\\0,1\C,0,0.,0.764255,-1.297167\C,0,0.,-0.76425
 5,-1.297167\C,0,-0.468541,1.090526,0.123716\C,0,0.468541,-1.090526,0.1
 23716\C,0,0.032579,2.405081,0.690505\C,0,-0.032579,-2.405081,0.690505\
 O,0,0.,0.,0.938605\H,0,1.011237,1.147828,-1.454012\H,0,-0.646734,1.200
 592,-2.057687\H,0,-1.011237,-1.147828,-1.454012\H,0,0.646734,-1.200592
 ,-2.057687\H,0,-1.565793,1.083362,0.154246\H,0,1.565793,-1.083362,0.15

 Normal termination of Gaussian 16 at Sat Apr  5 22:35:48 2025.
 Gaussian 16:  ES64L-G16RevC.01  3-Jul-2019

 ----------------------------------------------------------------------
 #t hf aug-cc-pvdz iop(5/13=1,5/36=2,99/5=2) pseudo=read geom=check gue
 ss=(read,tcheck) scf=(maxcycle=1)
 ----------------------------------------------------------------------
 -----
 title
 -----
 Structure from the checkpoint file:  "2-5-dimethyltetrahydrofuran.chk"
 Charge =  0 Multiplicity = 1

                         Standard orientation:
 ---------------------------------------------------------------------
 Center     Atomic      Atomic             Coordinates (Angstroms)
 Number     Number       Type             X           Y           Z
 ---------------------------------------------------------------------
      1          6           0       -0.000000    0.764255   -1.297167
      2          6           0       -0.000000   -0.764255   -1.297167
      3          6           0       -0.468541    1.090526    0.123716
      4          6           0        0.468541   -1.090526    0.123716
      5          6           0        0.032579    2.405081    0.690505
      6          6           0       -0.032579   -2.405081    0.690505
      7          8           0       -0.000000   -0.000000    0.938605
      8          1           0        1.011237    1.147828   -1.454012
      9          1           0       -0.646734    1.200592   -2.057687
     10          1           0       -1.011237   -1.147828   -1.454012
     11          1           0        0.646734   -1.200592   -2.057687
     12          1           0       -1.565793    1.083362    0.154246
     13          1           0        1.565793   -1.083362    0.154246
     14          1           0       -0.297960    2.529471    1.721560
     15          1           0        1.122913    2.439253    0.673182
     16          1           0       -0.351842    3.243340    0.105964
     17          1           0       -1.122913   -2.439253    0.673182
     18          1           0        0.351842   -3.243340    0.105964
     19          1           0        0.297960   -2.529471    1.721560
 ---------------------------------------------------------------------

 SCF Done:  E(RHF) =  -309.428677947     A.U. after    2 cycles

 The electronic state is 1-A.
 Alpha  occ. eigenvalues --  -20.52538 -11.27862 -11.27797 -11.22924 -11.22910
 Alpha  occ. eigenvalues --  -11.21939 -11.21933  -1.44224  -1.07022  -1.05231
 Alpha  occ. eigenvalues --   -0.96669  -0.87919  -0.80522  -0.77204  -0.68797
 Alpha  occ. eigenvalues --   -0.66536  -0.60262  -0.59481  -0.58677  -0.56080
 Alpha  occ. eigenvalues --   -0.54651  -0.52641  -0.50981  -0.49326  -0.47820
 Alpha  occ. eigenvalues --   -0.47781  -0.45670  -0.39560
 Alpha virt. eigenvalues --    0.03562   0.03581   0.03864   0.04337   0.05761
 Alpha virt. eigenvalues --    0.06026   0.06209   0.06604   0.06611   0.08792
 Alpha virt. eigenvalues --    0.09471   0.09848   0.12170   0.12828   0.14161

 Mulliken charges:
               1
     1  C   -0.196514
     2  C   -0.196514
     3  C    0.497739
     4  C    0.497739
     5  C   -0.332914
     6  C   -0.332914
     7  O   -1.574934
     8  H    0.069071
     9  H    0.138371
    10  H    0.069071
    11  H    0.138371
    12  H    0.063615
    13  H    0.063615
    14  H    0.158860
    15  H    0.183066
    16  H    0.206174
    17  H    0.183066
    18  H    0.206174
    19  H    0.158860
 Sum of Mulliken charges =  -0.00000

 Dipole moment (field-independent basis, Debye):
    X=              0.0000    Y=              0.0000    Z=             -1.6453  Tot=              1.6453

 Test job not archived.
 1\1\GINC-SE194\SP\RHF\Aug-CC-pVDZ\C6H12O1\OHZDE\05-Apr-2025\0\\#t hf a
 ug-cc-pvdz iop(5/13=1,5/36=2,99/5=2) pseudo=read geom=check guess=(rea
 d,tcheck) scf=(maxcycle=1)\\title\\0,1\C,0,0.,0.764255,-1.297167\C,0,0
 .,-0.764255,-1.297167\C,0,-0.468541,1.090526,0.123716\C,0,0.468541,-1.
 090526,0.123716\C,0,0.032579,2.405081,0.690505\C,0,-0.032579,-2.405081
 ,0.690505\O,0,0.,0.,0.938605\H,0,1.011237,1.147828,-1.454012\H,0,-0.64
 6734,1.200592,-2.057687\H,0,-1.011237,-1.147828,-1.454012\H,0,0.646734
 ,-1.200592,-2.057687\H,0,-1.565793,1.083362,0.154246\H,0,1.565793,-1.0

 Normal termination of Gaussian 16 at Sat Apr  5 22:36:09 2025.
