 Gaussian 16, Revision C.01,

 ----------------------------------------------------------------------
 #t hf aug-cc-pvdz symm=none int=(grid=ultrafine) guess=(read,tcheck) s
 table=(opt,rrhf)
 ----------------------------------------------------------------------
 -----
 title
 -----
 Symbolic Z-matrix:
 Charge =  0 Multiplicity = 1

 SCF Done:  E(RHF) =  -383.682321754     A.U. after   15 cycles

 1\1\GINC-SE158\Stability\RHF\Aug-CC-pVDZ\C8H10O1\OHZDE\05-Apr-2025\0\\
 #t hf aug-cc-pvdz symm=none int=(grid=ultrafine) guess=(read,tcheck) s
 table=(opt,rrhf)\\title\\0,1\C,0,1.129531,-1.313585,-0.00856\C,0,-0.23
 851,-1.556011,-0.001692\C,0,0.696232,1.03898,-0.007975\C,0,1.61563,-0.
 006887,-0.009477\C,0,-1.168888,-0.520347,0.002959\C,0,-0.670298,0.7883
 04,-0.000863\C,0,3.095047,0.276324,0.010869\C,0,-2.651007,-0.783942,0.
 006802\O,0,-1.498806,1.880695,-0.001109\H,0,1.821316,-2.145686,-0.0152
 81\H,0,-0.597329,-2.578032,-0.002925\H,0,1.028405,2.069063,-0.014268\H

 Normal termination of Gaussian 16 at Sat Apr  5 22:36:05 2025.
 Gaussian 16:  ES64L-G16RevC.01  3-Jul-2019

 ----------------------------------------------------------------------
 #t hf aug-cc-pvdz iop(5/13=1,5/36=2,99/5=2) pseudo=read geom=check gue
 ss=(read,tcheck) scf=(maxcycle=1)
 ----------------------------------------------------------------------
 -----
 title
 -----
 Structure from the checkpoint file:  "2-5-dimethylphenol.chk"
 Charge =  0 Multiplicity = 1

                         Standard orientation:
 ---------------------------------------------------------------------
 Center     Atomic      Atomic             Coordinates (Angstroms)
 Number     Number       Type             X           Y           Z
 ---------------------------------------------------------------------
      1          6           0        1.129531   -1.313585   -0.008560
      2          6           0       -0.238510   -1.556011   -0.001692
      3          6           0        0.696232    1.038980   -0.007975
      4          6           0        1.615630   -0.006887   -0.009477
      5          6           0       -1.168888   -0.520347    0.002959
      6          6           0       -0.670298    0.788304   -0.000863
      7          6           0        3.095047    0.276324    0.010869
      8          6           0       -2.651007   -0.783942    0.006802
      9          8           0       -1.498806    1.880695   -0.001109
     10          1           0        1.821316   -2.145686   -0.015281
     11          1           0       -0.597329   -2.578032   -0.002925
     12          1           0        1.028405    2.069063   -0.014268
     13          1           0        3.349610    1.113290   -0.640203
     14          1           0        3.430665    0.535881    1.018029
     15          1           0        3.668352   -0.591678   -0.312831
     16          1           0       -3.141766   -0.362979    0.890092
     17          1           0       -3.146115   -0.365455   -0.875291
     18          1           0       -2.851563   -1.853728    0.008728
     19          1           0       -2.417548    1.596761    0.000440
 ---------------------------------------------------------------------

 SCF Done:  E(RHF) =  -384.082614518     A.U. after    2 cycles

 The electronic state is 1-A.
 Alpha  occ. eigenvalues --  -20.57540 -11.30068 -11.24565 -11.24522 -11.24051
 Alpha  occ. eigenvalues --  -11.23921 -11.23109 -11.22532 -11.22489  -1.48797
 Alpha  occ. eigenvalues --   -1.15510  -1.06681  -1.00619  -0.98484  -0.90494
 Alpha  occ. eigenvalues --   -0.83504  -0.81593  -0.71518  -0.68396  -0.65815
 Alpha  occ. eigenvalues --   -0.61626  -0.60849  -0.57882  -0.57597  -0.56892
 Alpha  occ. eigenvalues --   -0.56480  -0.55943  -0.53447  -0.50984  -0.49180
 Alpha  occ. eigenvalues --   -0.47017  -0.33482  -0.31303
 Alpha virt. eigenvalues --    0.03102   0.03653   0.03889   0.04972   0.05065
 Alpha virt. eigenvalues --    0.05125   0.05773   0.07559   0.08076   0.09140
 Alpha virt. eigenvalues --    0.10664   0.11011   0.12052   0.12535   0.13197

 Mulliken charges:
               1
     1  C    0.022181
     2  C    0.268215
     3  C    0.312555
     4  C    0.639616
     5  C    0.253843
     6  C    1.307186
     7  C   -0.718347
     8  C   -0.756505
     9  O   -1.875835
    10  H   -0.312368
    11  H   -0.316625
    12  H   -0.314804
    13  H    0.170344
    14  H    0.280908
    15  H    0.083996
    16  H    0.286504
    17  H    0.286417
    18  H   -0.008906
    19  H    0.391625
 Sum of Mulliken charges =   0.00000

 Dipole moment (field-independent basis, Debye):
    X=             -0.8886    Y=             -1.0632    Z=              0.0309  Tot=              1.3860

 Test job not archived.
 1\1\GINC-SE158\SP\RHF\Aug-CC-pVDZ\C8H10O1\OHZDE\05-Apr-2025\0\\#t hf a
 ug-cc-pvdz iop(5/13=1,5/36=2,99/5=2) pseudo=read geom=check guess=(rea
 d,tcheck) scf=(maxcycle=1)\\title\\0,1\C,0,1.129531,-1.313585,-0.00856
 \C,0,-0.23851,-1.556011,-0.001692\C,0,0.696232,1.03898,-0.007975\C,0,1
 .61563,-0.006887,-0.009477\C,0,-1.168888,-0.520347,0.002959\C,0,-0.670
 298,0.788304,-0.000863\C,0,3.095047,0.276324,0.010869\C,0,-2.651007,-0
 .783942,0.006802\O,0,-1.498806,1.880695,-0.001109\H,0,1.821316,-2.1456
 86,-0.015281\H,0,-0.597329,-2.578032,-0.002925\H,0,1.028405,2.069063,-

 Normal termination of Gaussian 16 at Sat Apr  5 22:37:40 2025.
