 Gaussian 16, Revision C.01,

 ----------------------------------------------------------------------
 #t hf aug-cc-pvdz symm=none int=(grid=ultrafine) guess=(read,tcheck) s
 table=(opt,rrhf)
 ----------------------------------------------------------------------
 -----
 title
 -----
 Symbolic Z-matrix:
 Charge =  0 Multiplicity = 1

 SCF Done:  E(RHF) =  -229.817829529     A.U. after   11 cycles
 Normal termination of Gaussian 16 at Sat Apr  5 22:34:44 2025.
 Gaussian 16:  ES64L-G16RevC.01  3-Jul-2019

 ----------------------------------------------------------------------
 #t hf aug-cc-pvdz iop(5/13=1,5/36=2,99/5=2) pseudo=read geom=check gue
 ss=(read,tcheck) scf=(maxcycle=1)
 ----------------------------------------------------------------------
 -----
 title
 -----
 Structure from the checkpoint file:  "2-5-dihydrofuran.chk"
 Charge =  0 Multiplicity = 1

                         Standard orientation:
 ---------------------------------------------------------------------
 Center     Atomic      Atomic             Coordinates (Angstroms)
 Number     Number       Type             X           Y           Z
 ---------------------------------------------------------------------
      1          8           0        0.000005   -1.187716    0.000000
      2          6           0       -0.000009   -0.367981    1.174300
      3          6           0       -0.000009    1.040764    0.662346
      4          6           0       -0.000009    1.040764   -0.662346
      5          6           0       -0.000009   -0.367981   -1.174300
      6          1           0        0.884524   -0.596428    1.780702
      7          1           0       -0.884421   -0.596465    1.780810
      8          1           0       -0.884421   -0.596465   -1.780810
      9          1           0        0.884524   -0.596428   -1.780702
     10          1           0       -0.000016    1.907063    1.307178
     11          1           0       -0.000016    1.907063   -1.307178
 ---------------------------------------------------------------------

 SCF Done:  E(RHF) =  -230.058714113     A.U. after    2 cycles

 The electronic state is 1-A'.
 Alpha  occ. eigenvalues --  -20.53823 -11.28720 -11.28630 -11.24247 -11.24121
 Alpha  occ. eigenvalues --   -1.45446  -1.08149  -0.99488  -0.83697  -0.76891
 Alpha  occ. eigenvalues --   -0.70951  -0.66878  -0.58630  -0.57833  -0.57677
 Alpha  occ. eigenvalues --   -0.52205  -0.49005  -0.43179  -0.35988
 Alpha virt. eigenvalues --    0.03491   0.03975   0.04712   0.04942   0.06187
 Alpha virt. eigenvalues --    0.06569   0.10517   0.11145   0.12406   0.13325
 Alpha virt. eigenvalues --    0.13421   0.14593   0.15179   0.15548   0.15673

 Mulliken charges:
               1
     1  O   -1.294854
     2  C    0.536433
     3  C   -0.068590
     4  C   -0.068590
     5  C    0.536433
     6  H    0.121540
     7  H    0.121447
     8  H    0.121447
     9  H    0.121540
    10  H   -0.063403
    11  H   -0.063403
 Sum of Mulliken charges =  -0.00000

 Dipole moment (field-independent basis, Debye):
    X=             -0.0001    Y=              1.7097    Z=              0.0000  Tot=              1.7097

 Test job not archived.
 1\1\GINC-SE180\SP\RHF\Aug-CC-pVDZ\C4H6O1\OHZDE\05-Apr-2025\0\\#t hf au
 g-cc-pvdz iop(5/13=1,5/36=2,99/5=2) pseudo=read geom=check guess=(read
 ,tcheck) scf=(maxcycle=1)\\title\\0,1\O,0,-0.000005,1.187716,0.\C,0,0.
 000009,0.367981,1.1743\C,0,0.000009,-1.040764,0.662346\C,0,0.000009,-1
 .040764,-0.662346\C,0,0.000009,0.367981,-1.1743\H,0,-0.884524,0.596428
 ,1.780702\H,0,0.884421,0.596465,1.78081\H,0,0.884421,0.596465,-1.78081
 \H,0,-0.884524,0.596428,-1.780702\H,0,0.000016,-1.907063,1.307178\H,0,
 0.000016,-1.907063,-1.307178\\Version=ES64L-G16RevC.01\State=1-A'\HF=-

 Normal termination of Gaussian 16 at Sat Apr  5 22:34:48 2025.
