 Gaussian 16, Revision C.01,

 ----------------------------------------------------------------------
 #t hf aug-cc-pvdz symm=none int=(grid=ultrafine) guess=(read,tcheck) s
 table=(opt,rrhf)
 ----------------------------------------------------------------------
 -----
 title
 -----
 Symbolic Z-matrix:
 Charge =  0 Multiplicity = 1

 SCF Done:  E(RHF) =  -305.580413112     A.U. after   14 cycles
 Normal termination of Gaussian 16 at Sat Apr  5 22:34:07 2025.
 Gaussian 16:  ES64L-G16RevC.01  3-Jul-2019

 ----------------------------------------------------------------------
 #t hf aug-cc-pvdz iop(5/13=1,5/36=2,99/5=2) pseudo=read geom=check gue
 ss=(read,tcheck) scf=(maxcycle=1)
 ----------------------------------------------------------------------
 -----
 title
 -----
 Structure from the checkpoint file:  "2-5-cyclohexadienone.chk"
 Charge =  0 Multiplicity = 1

                         Standard orientation:
 ---------------------------------------------------------------------
 Center     Atomic      Atomic             Coordinates (Angstroms)
 Number     Number       Type             X           Y           Z
 ---------------------------------------------------------------------
      1          6           0        0.000000   -0.000000    1.108167
      2          6           0        0.000000    1.252736    0.329165
      3          6           0        0.000000    1.253135   -1.006331
      4          6           0        0.000000    0.000000   -1.814407
      5          6           0       -0.000000   -1.253135   -1.006331
      6          6           0       -0.000000   -1.252736    0.329165
      7          8           0        0.000000   -0.000000    2.331070
      8          1           0        0.000000    2.170549    0.902157
      9          1           0        0.000000    2.189815   -1.551879
     10          1           0       -0.863698    0.000000   -2.492840
     11          1           0        0.863698   -0.000000   -2.492840
     12          1           0       -0.000000   -2.189815   -1.551879
     13          1           0       -0.000000   -2.170549    0.902157
 ---------------------------------------------------------------------

 SCF Done:  E(RHF) =  -305.892429244     A.U. after    2 cycles

 The electronic state is 1-A1.
 Alpha  occ. eigenvalues --  -20.52359 -11.33426 -11.27619 -11.27615 -11.27105
 Alpha  occ. eigenvalues --  -11.24908 -11.24905  -1.45285  -1.15618  -1.04874
 Alpha  occ. eigenvalues --   -1.00698  -0.84758  -0.84267  -0.71775  -0.67752
 Alpha  occ. eigenvalues --   -0.67110  -0.62696  -0.62234  -0.59981  -0.55136
 Alpha  occ. eigenvalues --   -0.54091  -0.52421  -0.41076  -0.39620  -0.38169
 Alpha virt. eigenvalues --    0.02632   0.03218   0.04250   0.04440   0.05636
 Alpha virt. eigenvalues --    0.06123   0.07225   0.10215   0.10725   0.11434
 Alpha virt. eigenvalues --    0.12915   0.13155   0.13227   0.13835   0.14120

 Mulliken charges:
               1
     1  C    0.716623
     2  C    0.393937
     3  C    0.686944
     4  C   -1.157873
     5  C    0.686944
     6  C    0.393937
     7  O   -1.457250
     8  H   -0.227374
     9  H   -0.195234
    10  H    0.290977
    11  H    0.290977
    12  H   -0.195234
    13  H   -0.227374
 Sum of Mulliken charges =   0.00000

 Dipole moment (field-independent basis, Debye):
    X=             -0.0000    Y=             -0.0000    Z=             -5.0137  Tot=              5.0137

 Test job not archived.
 1\1\GINC-SE199\SP\RHF\Aug-CC-pVDZ\C6H6O1\OHZDE\05-Apr-2025\0\\#t hf au
 g-cc-pvdz iop(5/13=1,5/36=2,99/5=2) pseudo=read geom=check guess=(read
 ,tcheck) scf=(maxcycle=1)\\title\\0,1\C,0,0.,0.,1.108167\C,0,0.,1.2527
 36,0.329165\C,0,0.,1.253135,-1.006331\C,0,0.,0.,-1.814407\C,0,0.,-1.25
 3135,-1.006331\C,0,0.,-1.252736,0.329165\O,0,0.,0.,2.33107\H,0,0.,2.17
 0549,0.902157\H,0,0.,2.189815,-1.551879\H,0,-0.863698,0.,-2.49284\H,0,
 0.863698,0.,-2.49284\H,0,0.,-2.189815,-1.551879\H,0,0.,-2.170549,0.902
 157\\Version=ES64L-G16RevC.01\State=1-A1\HF=-305.8924292\RMSD=2.896e-0

 Normal termination of Gaussian 16 at Sat Apr  5 22:34:39 2025.
