 Gaussian 16, Revision C.01,

 ----------------------------------------------------------------------
 #t hf aug-cc-pvdz symm=none int=(grid=ultrafine) guess=(read,tcheck) s
 table=(opt,rrhf)
 ----------------------------------------------------------------------
 -----
 title
 -----
 Symbolic Z-matrix:
 Charge =  0 Multiplicity = 1

 SCF Done:  E(RHF) =  -552.494918841     A.U. after   12 cycles
 Normal termination of Gaussian 16 at Sat Apr  5 22:34:52 2025.
 Gaussian 16:  ES64L-G16RevC.01  3-Jul-2019

 ----------------------------------------------------------------------
 #t hf aug-cc-pvdz iop(5/13=1,5/36=2,99/5=2) pseudo=read geom=check gue
 ss=(read,tcheck) scf=(maxcycle=1)
 ----------------------------------------------------------------------
 -----
 title
 -----
 Structure from the checkpoint file:  "2-5-dihydrothiophene.chk"
 Charge =  0 Multiplicity = 1

                         Standard orientation:
 ---------------------------------------------------------------------
 Center     Atomic      Atomic             Coordinates (Angstroms)
 Number     Number       Type             X           Y           Z
 ---------------------------------------------------------------------
      1         16           0        0.000000    0.000000    1.252467
      2          6           0        0.000000    1.350899   -0.004471
      3          6           0       -0.000000   -1.350899   -0.004471
      4          6           0        0.000000    0.662535   -1.335066
      5          6           0       -0.000000   -0.662535   -1.335066
      6          1           0       -0.881617    1.980110    0.130213
      7          1           0        0.881617    1.980110    0.130213
      8          1           0        0.881617   -1.980110    0.130213
      9          1           0       -0.881617   -1.980110    0.130213
     10          1           0        0.000000    1.252912   -2.242943
     11          1           0       -0.000000   -1.252912   -2.242943
 ---------------------------------------------------------------------

 SCF Done:  E(RHF) =  -552.721177220     A.U. after    2 cycles

 The electronic state is 1-A1.
 Alpha  occ. eigenvalues --  -93.93566 -11.27086 -11.27058 -11.24966 -11.24838
 Alpha  occ. eigenvalues --   -8.21671  -6.19474  -6.19355  -6.19113  -1.14665
 Alpha  occ. eigenvalues --   -0.99119  -0.99077  -0.81806  -0.74838  -0.68611
 Alpha  occ. eigenvalues --   -0.62873  -0.58739  -0.57323  -0.53002  -0.49810
 Alpha  occ. eigenvalues --   -0.44183  -0.37920  -0.33926
 Alpha virt. eigenvalues --    0.03386   0.03890   0.04897   0.04924   0.05950
 Alpha virt. eigenvalues --    0.06399   0.08484   0.11584   0.12417   0.12585
 Alpha virt. eigenvalues --    0.13867   0.14202   0.14835   0.15382   0.15854

 Mulliken charges:
               1
     1  S    0.764435
     2  C   -1.058899
     3  C   -1.058899
     4  C    0.278158
     5  C    0.278158
     6  H    0.257658
     7  H    0.257658
     8  H    0.257658
     9  H    0.257658
    10  H   -0.116794
    11  H   -0.116794
 Sum of Mulliken charges =  -0.00000

 Dipole moment (field-independent basis, Debye):
    X=             -0.0000    Y=             -0.0000    Z=             -1.9928  Tot=              1.9928

 Test job not archived.
 1\1\GINC-SE055\SP\RHF\Aug-CC-pVDZ\C4H6S1\OHZDE\05-Apr-2025\0\\#t hf au
 g-cc-pvdz iop(5/13=1,5/36=2,99/5=2) pseudo=read geom=check guess=(read
 ,tcheck) scf=(maxcycle=1)\\title\\0,1\S,0,0.,0.,1.252467\C,0,0.,1.3508
 99,-0.004471\C,0,0.,-1.350899,-0.004471\C,0,0.,0.662535,-1.335066\C,0,
 0.,-0.662535,-1.335066\H,0,-0.881617,1.98011,0.130213\H,0,0.881617,1.9
 8011,0.130213\H,0,0.881617,-1.98011,0.130213\H,0,-0.881617,-1.98011,0.
 130213\H,0,0.,1.252912,-2.242943\H,0,0.,-1.252912,-2.242943\\Version=E
 S64L-G16RevC.01\State=1-A1\HF=-552.7211772\RMSD=1.635e-02\Dipole=0.,0.

 Normal termination of Gaussian 16 at Sat Apr  5 22:34:55 2025.
