 Gaussian 16, Revision C.01,

 ----------------------------------------------------------------------
 #t hf aug-cc-pvdz symm=none int=(grid=ultrafine) guess=(read,tcheck) s
 table=(opt,rrhf)
 ----------------------------------------------------------------------
 -----
 title
 -----
 Symbolic Z-matrix:
 Charge =  0 Multiplicity = 1

 SCF Done:  E(RHF) =  -702.158571154     A.U. after   13 cycles
 Normal termination of Gaussian 16 at Sat Apr  5 22:35:07 2025.
 Gaussian 16:  ES64L-G16RevC.01  3-Jul-2019

 ----------------------------------------------------------------------
 #t hf aug-cc-pvdz iop(5/13=1,5/36=2,99/5=2) pseudo=read geom=check gue
 ss=(read,tcheck) scf=(maxcycle=1)
 ----------------------------------------------------------------------
 -----
 title
 -----
 Structure from the checkpoint file:  "2-5-dihydrothiophene-1-1-dioxide.chk"
 Charge =  0 Multiplicity = 1

                         Standard orientation:
 ---------------------------------------------------------------------
 Center     Atomic      Atomic             Coordinates (Angstroms)
 Number     Number       Type             X           Y           Z
 ---------------------------------------------------------------------
      1          8           0        1.270824   -1.445451   -0.000000
      2         16           0        0.002229   -0.724554   -0.000000
      3          8           0       -1.257213   -1.461278   -0.000000
      4          6           0       -0.004596    0.507527    1.362305
      5          6           0       -0.004596    1.830288    0.665220
      6          6           0       -0.004596    1.830288   -0.665220
      7          6           0       -0.004596    0.507527   -1.362305
      8          1           0        0.883848    0.328649    1.967200
      9          1           0       -0.896445    0.325784    1.961332
     10          1           0       -0.004535    2.742025    1.247250
     11          1           0       -0.004535    2.742025   -1.247250
     12          1           0        0.883848    0.328649   -1.967200
     13          1           0       -0.896445    0.325784   -1.961332
 ---------------------------------------------------------------------

 SCF Done:  E(RHF) =  -702.533349289     A.U. after    2 cycles

 The electronic state is 1-A'.
 Alpha  occ. eigenvalues --  -94.18704 -20.53389 -20.53383 -11.29608 -11.29584
 Alpha  occ. eigenvalues --  -11.28332 -11.28210  -8.44071  -6.42166  -6.41956
 Alpha  occ. eigenvalues --   -6.41889  -1.54388  -1.42701  -1.17548  -1.03749
 Alpha  occ. eigenvalues --   -0.99856  -0.83508  -0.80010  -0.72595  -0.67879
 Alpha  occ. eigenvalues --   -0.64629  -0.64517  -0.63340  -0.61015  -0.60997
 Alpha  occ. eigenvalues --   -0.56805  -0.48311  -0.48199  -0.45681  -0.42498
 Alpha  occ. eigenvalues --   -0.40447
 Alpha virt. eigenvalues --    0.02422   0.03304   0.04609   0.04662   0.05891
 Alpha virt. eigenvalues --    0.06029   0.09257   0.10381   0.10968   0.12314
 Alpha virt. eigenvalues --    0.12614   0.13667   0.13948   0.14044   0.14717

 Mulliken charges:
               1
     1  O   -1.614953
     2  S    3.849272
     3  O   -1.614359
     4  C   -1.152516
     5  C    0.420136
     6  C    0.420136
     7  C   -1.152516
     8  H    0.270783
     9  H    0.270707
    10  H   -0.119091
    11  H   -0.119091
    12  H    0.270783
    13  H    0.270707
 Sum of Mulliken charges =  -0.00000

 Dipole moment (field-independent basis, Debye):
    X=             -0.0316    Y=              5.4506    Z=              0.0000  Tot=              5.4507

 Test job not archived.
 1\1\GINC-SE232\SP\RHF\Aug-CC-pVDZ\C4H6O2S1\OHZDE\05-Apr-2025\0\\#t hf
 aug-cc-pvdz iop(5/13=1,5/36=2,99/5=2) pseudo=read geom=check guess=(re
 ad,tcheck) scf=(maxcycle=1)\\title\\0,1\O,0,1.270824,-1.445451,0.\S,0,
 0.002229,-0.724554,0.\O,0,-1.257213,-1.461278,0.\C,0,-0.004596,0.50752
 7,1.362305\C,0,-0.004596,1.830288,0.66522\C,0,-0.004596,1.830288,-0.66
 522\C,0,-0.004596,0.507527,-1.362305\H,0,0.883848,0.328649,1.9672\H,0,
 -0.896445,0.325784,1.961332\H,0,-0.004535,2.742025,1.24725\H,0,-0.0045
 35,2.742025,-1.24725\H,0,0.883848,0.328649,-1.9672\H,0,-0.896445,0.325

 Normal termination of Gaussian 16 at Sat Apr  5 22:35:11 2025.
