 Gaussian 16, Revision C.01,

 ----------------------------------------------------------------------
 #t hf aug-cc-pvdz symm=none int=(grid=ultrafine) guess=(read,tcheck) s
 table=(opt,rrhf)
 ----------------------------------------------------------------------
 -----
 title
 -----
 Symbolic Z-matrix:
 Charge =  0 Multiplicity = 1

 SCF Done:  E(RHF) =  -411.999930281     A.U. after   15 cycles
 Normal termination of Gaussian 16 at Sat Apr  5 22:34:07 2025.
 Gaussian 16:  ES64L-G16RevC.01  3-Jul-2019

 ----------------------------------------------------------------------
 #t hf aug-cc-pvdz iop(5/13=1,5/36=2,99/5=2) pseudo=read geom=check gue
 ss=(read,tcheck) scf=(maxcycle=1)
 ----------------------------------------------------------------------
 -----
 title
 -----
 Structure from the checkpoint file:  "2-5-diethynyl-1-3-4-oxadiazole.chk"
 Charge =  0 Multiplicity = 1

                         Standard orientation:
 ---------------------------------------------------------------------
 Center     Atomic      Atomic             Coordinates (Angstroms)
 Number     Number       Type             X           Y           Z
 ---------------------------------------------------------------------
      1          8           0        0.000000   -0.687878    0.000070
      2          7           0        0.688992    1.412640   -0.000142
      3          7           0       -0.688992    1.412640   -0.000140
      4          6           0        1.060811    0.167259   -0.000017
      5          6           0       -1.060811    0.167259   -0.000015
      6          6           0        2.366481   -0.358061    0.000033
      7          6           0       -2.366481   -0.358061    0.000038
      8          6           0        3.480741   -0.800640    0.000075
      9          6           0       -3.480741   -0.800640    0.000084
     10          1           0        4.469667   -1.188310    0.000112
     11          1           0       -4.469667   -1.188310    0.000122
 ---------------------------------------------------------------------

 SCF Done:  E(RHF) =  -412.402814924     A.U. after    2 cycles

 The electronic state is 1-A.
 Alpha  occ. eigenvalues --  -20.66579 -15.56806 -15.56211 -11.38876 -11.38818
 Alpha  occ. eigenvalues --  -11.28953 -11.28942 -11.28281 -11.28274  -1.61826
 Alpha  occ. eigenvalues --   -1.34705  -1.18646  -1.08598  -1.06723  -0.94446
 Alpha  occ. eigenvalues --   -0.94260  -0.84182  -0.78180  -0.75248  -0.72417
 Alpha  occ. eigenvalues --   -0.72347  -0.68546  -0.56643  -0.53475  -0.53152
 Alpha  occ. eigenvalues --   -0.52217  -0.45818  -0.45746  -0.44816  -0.38266
 Alpha virt. eigenvalues --    0.02973   0.02979   0.04117   0.06948   0.07384
 Alpha virt. eigenvalues --    0.08474   0.09032   0.09234   0.09680   0.10423
 Alpha virt. eigenvalues --    0.11152   0.11728   0.12505   0.13504   0.13785

 Mulliken charges:
               1
     1  O   -1.315591
     2  N    0.132803
     3  N    0.132803
     4  C    0.243474
     5  C    0.243474
     6  C    0.651600
     7  C    0.651600
     8  C    0.109953
     9  C    0.109953
    10  H   -0.480035
    11  H   -0.480035
 Sum of Mulliken charges =  -0.00000

 Dipole moment (field-independent basis, Debye):
    X=             -0.0000    Y=             -4.4123    Z=              0.0004  Tot=              4.4123

 Test job not archived.
 1\1\GINC-SE231\SP\RHF\Aug-CC-pVDZ\C6H2N2O1\OHZDE\05-Apr-2025\0\\#t hf
 aug-cc-pvdz iop(5/13=1,5/36=2,99/5=2) pseudo=read geom=check guess=(re
 ad,tcheck) scf=(maxcycle=1)\\title\\0,1\O,0,0.,0.687878,0.00007\N,0,-0
 .688992,-1.41264,-0.000142\N,0,0.688992,-1.41264,-0.00014\C,0,-1.06081
 1,-0.167259,-0.000017\C,0,1.060811,-0.167259,-0.000015\C,0,-2.366481,0
 .358061,0.000033\C,0,2.366481,0.358061,0.000038\C,0,-3.480741,0.80064,
 0.000075\C,0,3.480741,0.80064,0.000084\H,0,-4.469667,1.18831,0.000112\
 H,0,4.469667,1.18831,0.000122\\Version=ES64L-G16RevC.01\State=1-A\HF=-

 Normal termination of Gaussian 16 at Sat Apr  5 22:34:40 2025.
