 Gaussian 16, Revision C.01,

 ----------------------------------------------------------------------
 #t hf aug-cc-pvdz symm=none int=(grid=ultrafine) guess=(read,tcheck) s
 table=(opt,rrhf)
 ----------------------------------------------------------------------
 -----
 title
 -----
 Symbolic Z-matrix:
 Charge =  0 Multiplicity = 1

 SCF Done:  E(RHF) =  -244.425925324     A.U. after   15 cycles
 Normal termination of Gaussian 16 at Sat Apr  5 22:33:44 2025.
 Gaussian 16:  ES64L-G16RevC.01  3-Jul-2019

 ----------------------------------------------------------------------
 #t hf aug-cc-pvdz iop(5/13=1,5/36=2,99/5=2) pseudo=read geom=check gue
 ss=(read,tcheck) scf=(maxcycle=1)
 ----------------------------------------------------------------------
 -----
 title
 -----
 Structure from the checkpoint file:  "2-5-dihydro-1-2-oxazole.chk"
 Charge =  0 Multiplicity = 1

                         Standard orientation:
 ---------------------------------------------------------------------
 Center     Atomic      Atomic             Coordinates (Angstroms)
 Number     Number       Type             X           Y           Z
 ---------------------------------------------------------------------
      1          8           0        0.216353   -1.131231   -0.000019
      2          7           0       -1.034393   -0.361706    0.000007
      3          6           0        1.141200   -0.042904    0.000000
      4          6           0       -1.003507    0.912445    0.000005
      5          6           0        0.486279    1.267076   -0.000055
      6          1           0       -1.812095   -1.012001    0.000017
      7          1           0        1.788873   -0.112785    0.883419
      8          1           0        1.789317   -0.113123   -0.883034
 ---------------------------------------------------------------------

 SCF Done:  E(RHF) =  -244.663549165     A.U. after    2 cycles

 The electronic state is 1-A.
 Alpha  occ. eigenvalues --  -20.62556 -15.64842 -11.31575 -11.29987 -11.27603
 Alpha  occ. eigenvalues --   -1.53666  -1.25457  -1.08065  -0.90836  -0.82961
 Alpha  occ. eigenvalues --   -0.72061  -0.70881  -0.63672  -0.58802  -0.57790
 Alpha  occ. eigenvalues --   -0.46878  -0.40533  -0.37733
 Alpha virt. eigenvalues --    0.00165   0.02961   0.04310   0.04974   0.08258
 Alpha virt. eigenvalues --    0.09591   0.09922   0.11022   0.12295   0.14501
 Alpha virt. eigenvalues --    0.14670   0.16532   0.16741   0.16956   0.17170

 Mulliken charges:
               1
     1  O   -1.321861
     2  N    1.125476
     3  C    0.563349
     4  C   -0.578507
     5  C   -0.322293
     6  H    0.111206
     7  H    0.211411
     8  H    0.211218
 Sum of Mulliken charges =  -0.00000

 Dipole moment (field-independent basis, Debye):
    X=              0.9116    Y=             -3.1716    Z=              0.0002  Tot=              3.3000

 Test job not archived.
 1\1\GINC-SE040\SP\RHF\Aug-CC-pVDZ\C3H3N1O1\OHZDE\05-Apr-2025\0\\#t hf
 aug-cc-pvdz iop(5/13=1,5/36=2,99/5=2) pseudo=read geom=check guess=(re
 ad,tcheck) scf=(maxcycle=1)\\title\\0,1\O,0,0.216355,-1.131231,-0.0000
 19\N,0,-1.034393,-0.361708,0.000007\C,0,1.1412,-0.042903,0.\C,0,-1.003
 508,0.912444,0.000005\C,0,0.486277,1.267077,-0.000055\H,0,-1.812094,-1
 .012004,0.000017\H,0,1.788873,-0.112783,0.883419\H,0,1.789317,-0.11312
 1,-0.883034\\Version=ES64L-G16RevC.01\State=1-A\HF=-244.6635492\RMSD=1
 .300e-02\Dipole=0.3586644,-1.2478096,0.0000781\Quadrupole=2.8606305,-4

 Normal termination of Gaussian 16 at Sat Apr  5 22:34:37 2025.
