 Gaussian 16, Revision C.01,

 ----------------------------------------------------------------------
 #t hf aug-cc-pvdz symm=none int=(grid=ultrafine) guess=(read,tcheck) s
 table=(opt,rrhf)
 ----------------------------------------------------------------------
 -----
 title
 -----
 Symbolic Z-matrix:
 Charge =  0 Multiplicity = 1

 SCF Done:  E(RHF) =  -643.300533293     A.U. after   15 cycles
 Normal termination of Gaussian 16 at Sat Apr  5 22:34:50 2025.
 Gaussian 16:  ES64L-G16RevC.01  3-Jul-2019

 ----------------------------------------------------------------------
 #t hf aug-cc-pvdz iop(5/13=1,5/36=2,99/5=2) pseudo=read geom=check gue
 ss=(read,tcheck) scf=(maxcycle=1)
 ----------------------------------------------------------------------
 -----
 title
 -----
 Structure from the checkpoint file:  "2-5-dihydro-1-2-thiazole-1-oxide.chk"
 Charge =  0 Multiplicity = 1

                         Standard orientation:
 ---------------------------------------------------------------------
 Center     Atomic      Atomic             Coordinates (Angstroms)
 Number     Number       Type             X           Y           Z
 ---------------------------------------------------------------------
      1          6           0       -1.589968    0.591998    0.318003
      2          6           0       -1.482626   -0.731595    0.240541
      3          6           0       -0.409779    1.297050   -0.271302
      4          7           0       -0.319737   -1.200523   -0.391951
      5          8           0        1.667032   -0.003415    0.897793
      6         16           0        0.936297    0.011580   -0.400006
      7          1           0       -2.429540    1.112221    0.749196
      8          1           0       -2.206329   -1.457624    0.580961
      9          1           0       -0.583145    1.663910   -1.286760
     10          1           0        0.010173    2.099326    0.334185
     11          1           0        0.024228   -2.116844   -0.139614
 ---------------------------------------------------------------------

 SCF Done:  E(RHF) =  -643.613368183     A.U. after    2 cycles

 The electronic state is 1-A.
 Alpha  occ. eigenvalues --  -94.10310 -20.50925 -15.54212 -11.29591 -11.28490
 Alpha  occ. eigenvalues --  -11.24609  -8.36682  -6.34502  -6.34348  -6.34126
 Alpha  occ. eigenvalues --   -1.45085  -1.26291  -1.07917  -1.01744  -0.86547
 Alpha  occ. eigenvalues --   -0.80965  -0.75305  -0.65641  -0.63621  -0.62156
 Alpha  occ. eigenvalues --   -0.59725  -0.57486  -0.56044  -0.51887  -0.43802
 Alpha  occ. eigenvalues --   -0.38498  -0.35788
 Alpha virt. eigenvalues --    0.03161   0.03935   0.04308   0.05377   0.05881
 Alpha virt. eigenvalues --    0.08167   0.09667   0.11117   0.11500   0.12201
 Alpha virt. eigenvalues --    0.12982   0.13499   0.14061   0.14998   0.16002

 Mulliken charges:
               1
     1  C    0.675529
     2  C   -0.527534
     3  C   -1.054719
     4  N    0.086406
     5  O   -1.478896
     6  S    1.963808
     7  H   -0.107070
     8  H   -0.161459
     9  H    0.323380
    10  H    0.225931
    11  H    0.054624
 Sum of Mulliken charges =  -0.00000

 Dipole moment (field-independent basis, Debye):
    X=             -2.9354    Y=              0.1490    Z=             -1.3392  Tot=              3.2299

 Test job not archived.
 1\1\GINC-SE041\SP\RHF\Aug-CC-pVDZ\C3H5N1O1S1\OHZDE\05-Apr-2025\0\\#t h
 f aug-cc-pvdz iop(5/13=1,5/36=2,99/5=2) pseudo=read geom=check guess=(
 read,tcheck) scf=(maxcycle=1)\\title\\0,1\C,0,-1.589968,0.591998,0.318
 003\C,0,-1.482626,-0.731595,0.240541\C,0,-0.409779,1.29705,-0.271302\N
 ,0,-0.319737,-1.200523,-0.391951\O,0,1.667032,-0.003415,0.897793\S,0,0
 .936297,0.01158,-0.400006\H,0,-2.42954,1.112221,0.749196\H,0,-2.206329
 ,-1.457624,0.580961\H,0,-0.583145,1.66391,-1.28676\H,0,0.010173,2.0993
 26,0.334185\H,0,0.024228,-2.116844,-0.139614\\Version=ES64L-G16RevC.01

 Normal termination of Gaussian 16 at Sat Apr  5 22:34:55 2025.
