 Gaussian 16, Revision C.01,

 ----------------------------------------------------------------------
 #t hf aug-cc-pvdz symm=none int=(grid=ultrafine) guess=(read,tcheck) s
 table=(opt,rrhf)
 ----------------------------------------------------------------------
 -----
 title
 -----
 Symbolic Z-matrix:
 Charge =  0 Multiplicity = 1

 SCF Done:  E(RHF) =  -627.307651468     A.U. after   14 cycles
 Normal termination of Gaussian 16 at Sat Apr  5 22:34:52 2025.
 Gaussian 16:  ES64L-G16RevC.01  3-Jul-2019

 ----------------------------------------------------------------------
 #t hf aug-cc-pvdz iop(5/13=1,5/36=2,99/5=2) pseudo=read geom=check gue
 ss=(read,tcheck) scf=(maxcycle=1)
 ----------------------------------------------------------------------
 -----
 title
 -----
 Structure from the checkpoint file:  "2-5-dihydrothiophene-1-oxide.chk"
 Charge =  0 Multiplicity = 1

                         Standard orientation:
 ---------------------------------------------------------------------
 Center     Atomic      Atomic             Coordinates (Angstroms)
 Number     Number       Type             X           Y           Z
 ---------------------------------------------------------------------
      1          6           0        0.373882    1.565307    0.663411
      2          6           0        0.373882    1.565307   -0.663411
      3          6           0        0.373882    0.225203    1.327115
      4          6           0        0.373882    0.225203   -1.327115
      5          8           0       -1.474114   -1.250243    0.000000
      6         16           0        0.015228   -1.034346    0.000000
      7          1           0        0.372606    2.471237    1.255926
      8          1           0        0.372606    2.471237   -1.255926
      9          1           0        1.331542   -0.026308    1.789128
     10          1           0       -0.416106    0.087751    2.065993
     11          1           0       -0.416106    0.087751   -2.065993
     12          1           0        1.331542   -0.026308   -1.789128
 ---------------------------------------------------------------------

 SCF Done:  E(RHF) =  -627.606739042     A.U. after    2 cycles

 The electronic state is 1-A'.
 Alpha  occ. eigenvalues --  -94.06703 -20.49182 -11.28173 -11.28148 -11.26435
 Alpha  occ. eigenvalues --  -11.26309  -8.33513  -6.31345  -6.31209  -6.31024
 Alpha  occ. eigenvalues --   -1.42238  -1.15527  -1.00944  -0.99546  -0.82902
 Alpha  occ. eigenvalues --   -0.77204  -0.70678  -0.65166  -0.61812  -0.59132
 Alpha  occ. eigenvalues --   -0.56869  -0.55704  -0.54619  -0.51952  -0.40408
 Alpha  occ. eigenvalues --   -0.38786  -0.36493
 Alpha virt. eigenvalues --    0.02922   0.03631   0.03811   0.05527   0.05530
 Alpha virt. eigenvalues --    0.06540   0.08397   0.11141   0.11224   0.11907
 Alpha virt. eigenvalues --    0.12364   0.13548   0.14304   0.14678   0.14951

 Mulliken charges:
               1
     1  C    0.367640
     2  C    0.367640
     3  C   -1.036831
     4  C   -1.036831
     5  O   -1.518922
     6  S    1.986724
     7  H   -0.112535
     8  H   -0.112535
     9  H    0.294554
    10  H    0.253272
    11  H    0.253272
    12  H    0.294554
 Sum of Mulliken charges =  -0.00000

 Dipole moment (field-independent basis, Debye):
    X=              3.5842    Y=              2.7907    Z=              0.0000  Tot=              4.5425

 Test job not archived.
 1\1\GINC-SE232\SP\RHF\Aug-CC-pVDZ\C4H6O1S1\OHZDE\05-Apr-2025\0\\#t hf
 aug-cc-pvdz iop(5/13=1,5/36=2,99/5=2) pseudo=read geom=check guess=(re
 ad,tcheck) scf=(maxcycle=1)\\title\\0,1\C,0,1.587197,-0.663411,0.26604
 5\C,0,1.587197,0.663411,0.266045\C,0,0.353161,-1.327115,-0.25648\C,0,0
 .353161,1.327115,-0.25648\O,0,-1.726065,0.,0.869953\S,0,-0.946541,0.,-
 0.417329\H,0,2.420926,-1.255926,0.620455\H,0,2.420926,1.255926,0.62045
 5\H,0,0.494961,-1.789128,-1.23641\H,0,-0.081439,-2.065993,0.417387\H,0
 ,-0.081439,2.065993,0.417387\H,0,0.494961,1.789128,-1.23641\\Version=E

 Normal termination of Gaussian 16 at Sat Apr  5 22:34:57 2025.
