 Gaussian 16, Revision C.01,

 ----------------------------------------------------------------------
 #t hf aug-cc-pvdz symm=none int=(grid=ultrafine) guess=(read,tcheck) s
 table=(opt,rrhf)
 ----------------------------------------------------------------------
 -----
 title
 -----
 Symbolic Z-matrix:
 Charge =  0 Multiplicity = 1

 SCF Done:  E(RHF) =  -627.370231880     A.U. after   14 cycles
 Normal termination of Gaussian 16 at Sat Apr  5 22:34:49 2025.
 Gaussian 16:  ES64L-G16RevC.01  3-Jul-2019

 ----------------------------------------------------------------------
 #t hf aug-cc-pvdz iop(5/13=1,5/36=2,99/5=2) pseudo=read geom=check gue
 ss=(read,tcheck) scf=(maxcycle=1)
 ----------------------------------------------------------------------
 -----
 title
 -----
 Structure from the checkpoint file:  "2-5-dihydrothiophene-3-ol.chk"
 Charge =  0 Multiplicity = 1

                         Standard orientation:
 ---------------------------------------------------------------------
 Center     Atomic      Atomic             Coordinates (Angstroms)
 Number     Number       Type             X           Y           Z
 ---------------------------------------------------------------------
      1         16           0        0.486424   -1.562232    0.000000
      2          6           0        1.185552    0.135916    0.000000
      3          6           0        0.000000    1.049246    0.000000
      4          6           0       -1.213614    0.503766    0.000000
      5          6           0       -1.274556   -0.989952    0.000000
      6          8           0        0.322895    2.373917    0.000000
      7          1           0        1.804678    0.296812    0.883239
      8          1           0       -2.125549    1.088447    0.000000
      9          1           0       -1.777269   -1.389274   -0.882273
     10          1           0        1.804678    0.296812   -0.883239
     11          1           0       -1.777269   -1.389274    0.882273
     12          1           0       -0.479502    2.906985    0.000000
 ---------------------------------------------------------------------

 SCF Done:  E(RHF) =  -627.667934842     A.U. after    2 cycles

 The electronic state is 1-A'.
 Alpha  occ. eigenvalues --  -93.93927 -20.58992 -11.31600 -11.27342 -11.27299
 Alpha  occ. eigenvalues --  -11.23648  -8.22018  -6.19824  -6.19703  -6.19458
 Alpha  occ. eigenvalues --   -1.50196  -1.14441  -1.00040  -0.98281  -0.83345
 Alpha  occ. eigenvalues --   -0.78770  -0.70325  -0.65407  -0.64579  -0.59476
 Alpha  occ. eigenvalues --   -0.55818  -0.55608  -0.54687  -0.50491  -0.44526
 Alpha  occ. eigenvalues --   -0.35730  -0.33936
 Alpha virt. eigenvalues --    0.02874   0.04049   0.04826   0.04907   0.06248
 Alpha virt. eigenvalues --    0.06557   0.08544   0.10315   0.11948   0.12827
 Alpha virt. eigenvalues --    0.13871   0.14187   0.14667   0.14803   0.16014

 Mulliken charges:
               1
     1  S    0.858413
     2  C   -1.111985
     3  C    1.523400
     4  C    0.108183
     5  C   -0.984580
     6  O   -1.626523
     7  H    0.277282
     8  H   -0.211452
     9  H    0.258401
    10  H    0.277282
    11  H    0.258401
    12  H    0.373178
 Sum of Mulliken charges =   0.00000

 Dipole moment (field-independent basis, Debye):
    X=             -1.8561    Y=              1.8108    Z=              0.0000  Tot=              2.5931

 Test job not archived.
 1\1\GINC-SE011\SP\RHF\Aug-CC-pVDZ\C4H6O1S1\OHZDE\05-Apr-2025\0\\#t hf
 aug-cc-pvdz iop(5/13=1,5/36=2,99/5=2) pseudo=read geom=check guess=(re
 ad,tcheck) scf=(maxcycle=1)\\title\\0,1\S,0,0.486424,-1.562232,0.\C,0,
 1.185552,0.135916,0.\C,0,0.,1.049246,0.\C,0,-1.213614,0.503766,0.\C,0,
 -1.274556,-0.989952,0.\O,0,0.322895,2.373917,0.\H,0,1.804678,0.296812,
 0.883239\H,0,-2.125549,1.088447,0.\H,0,-1.777269,-1.389274,-0.882273\H
 ,0,1.804678,0.296812,-0.883239\H,0,-1.777269,-1.389274,0.882273\H,0,-0
 .479502,2.906985,0.\\Version=ES64L-G16RevC.01\State=1-A'\HF=-627.66793

 Normal termination of Gaussian 16 at Sat Apr  5 22:34:54 2025.
