 Gaussian 16, Revision C.01,

 ----------------------------------------------------------------------
 #t hf aug-cc-pvdz symm=none int=(grid=ultrafine) guess=(read,tcheck) s
 table=(opt,rrhf)
 ----------------------------------------------------------------------
 -----
 title
 -----
 Symbolic Z-matrix:
 Charge =  0 Multiplicity = 1

 SCF Done:  E(RHF) =  -741.199858784     A.U. after   14 cycles
 Normal termination of Gaussian 16 at Sat Apr  5 22:36:06 2025.
 Gaussian 16:  ES64L-G16RevC.01  3-Jul-2019

 ----------------------------------------------------------------------
 #t hf aug-cc-pvdz iop(5/13=1,5/36=2,99/5=2) pseudo=read geom=check gue
 ss=(read,tcheck) scf=(maxcycle=1)
 ----------------------------------------------------------------------
 -----
 title
 -----
 Structure from the checkpoint file:  "2-5-dihydro-2-methylthiophene-1-1-dioxide.chk"
 Charge =  0 Multiplicity = 1

                         Standard orientation:
 ---------------------------------------------------------------------
 Center     Atomic      Atomic             Coordinates (Angstroms)
 Number     Number       Type             X           Y           Z
 ---------------------------------------------------------------------
      1          6           0        1.685700   -1.598566    0.155043
      2          6           0        1.000120   -0.422584   -0.529065
      3          6           0        1.568891    0.929035   -0.216112
      4          6           0        0.733478    1.900514    0.142277
      5          6           0       -0.724568    1.573344    0.203570
      6         16           0       -0.774100   -0.249045   -0.007386
      7          8           0       -0.956176   -0.865654    1.303800
      8          8           0       -1.661019   -0.613275   -1.108479
      9          1           0        1.194401   -2.537785   -0.094112
     10          1           0        2.721514   -1.657362   -0.182632
     11          1           0        1.674864   -1.482978    1.236789
     12          1           0        0.941234   -0.587664   -1.606882
     13          1           0        2.639629    1.076501   -0.276618
     14          1           0        1.070634    2.897063    0.393682
     15          1           0       -1.307196    2.010364   -0.607179
     16          1           0       -1.193646    1.807560    1.158274
 ---------------------------------------------------------------------

 SCF Done:  E(RHF) =  -741.617349764     A.U. after    2 cycles

 The electronic state is 1-A.
 Alpha  occ. eigenvalues --  -94.18053 -20.53150 -20.53077 -11.29770 -11.29339
 Alpha  occ. eigenvalues --  -11.27955 -11.27668 -11.25190  -8.43460  -6.41550
 Alpha  occ. eigenvalues --   -6.41336  -6.41264  -1.53986  -1.42331  -1.17609
 Alpha  occ. eigenvalues --   -1.06845  -0.99936  -0.93264  -0.81642  -0.79204
 Alpha  occ. eigenvalues --   -0.71959  -0.67609  -0.65983  -0.64460  -0.63073
 Alpha  occ. eigenvalues --   -0.61176  -0.59570  -0.57087  -0.56273  -0.53162
 Alpha  occ. eigenvalues --   -0.48030  -0.47668  -0.45369  -0.41705  -0.40058
 Alpha virt. eigenvalues --    0.02502   0.03111   0.04160   0.04440   0.05570
 Alpha virt. eigenvalues --    0.05890   0.06658   0.07668   0.10216   0.10997
 Alpha virt. eigenvalues --    0.11597   0.12153   0.12938   0.13387   0.14086

 Mulliken charges:
               1
     1  C   -0.154130
     2  C   -1.599703
     3  C    0.729572
     4  C    0.346806
     5  C   -1.086166
     6  S    4.045213
     7  O   -1.675102
     8  O   -1.644541
     9  H    0.142459
    10  H    0.163281
    11  H    0.250456
    12  H    0.227360
    13  H   -0.160260
    14  H   -0.121245
    15  H    0.280243
    16  H    0.255757
 Sum of Mulliken charges =  -0.00000

 Dipole moment (field-independent basis, Debye):
    X=              4.1434    Y=              3.3066    Z=             -0.5484  Tot=              5.3294

 Test job not archived.
 1\1\GINC-SE085\SP\RHF\Aug-CC-pVDZ\C5H8O2S1\OHZDE\05-Apr-2025\0\\#t hf
 aug-cc-pvdz iop(5/13=1,5/36=2,99/5=2) pseudo=read geom=check guess=(re
 ad,tcheck) scf=(maxcycle=1)\\title\\0,1\C,0,1.6857,-1.598566,0.155043\
 C,0,1.00012,-0.422584,-0.529065\C,0,1.568891,0.929035,-0.216112\C,0,0.
 733478,1.900514,0.142277\C,0,-0.724568,1.573344,0.20357\S,0,-0.7741,-0
 .249045,-0.007386\O,0,-0.956176,-0.865654,1.3038\O,0,-1.661019,-0.6132
 75,-1.108479\H,0,1.194401,-2.537785,-0.094112\H,0,2.721514,-1.657362,-
 0.182632\H,0,1.674864,-1.482978,1.236789\H,0,0.941234,-0.587664,-1.606

 Normal termination of Gaussian 16 at Sat Apr  5 22:37:38 2025.
