 Gaussian 16, Revision C.01,

 ----------------------------------------------------------------------
 #t hf aug-cc-pvdz symm=none int=(grid=ultrafine) guess=(read,tcheck) s
 table=(opt,rrhf)
 ----------------------------------------------------------------------
 -----
 title
 -----
 Symbolic Z-matrix:
 Charge =  0 Multiplicity = 1

 SCF Done:  E(RHF) =  -321.581354664     A.U. after   14 cycles
 Normal termination of Gaussian 16 at Sat Apr  5 22:34:58 2025.
 Gaussian 16:  ES64L-G16RevC.01  3-Jul-2019

 ----------------------------------------------------------------------
 #t hf aug-cc-pvdz iop(5/13=1,5/36=2,99/5=2) pseudo=read geom=check gue
 ss=(read,tcheck) scf=(maxcycle=1)
 ----------------------------------------------------------------------
 -----
 title
 -----
 Structure from the checkpoint file:  "2-5H-pyridinone.chk"
 Charge =  0 Multiplicity = 1

                         Standard orientation:
 ---------------------------------------------------------------------
 Center     Atomic      Atomic             Coordinates (Angstroms)
 Number     Number       Type             X           Y           Z
 ---------------------------------------------------------------------
      1          7           0       -1.254654    0.394118    0.000000
      2          6           0        0.000000    1.081090    0.000000
      3          6           0        1.244764    0.286621    0.000000
      4          6           0        1.223615   -1.045676    0.000000
      5          6           0       -0.067291   -1.783582    0.000000
      6          6           0       -1.258745   -0.878361    0.000000
      7          8           0        0.015804    2.291171    0.000000
      8          1           0        2.166216    0.852058    0.000000
      9          1           0        2.142475   -1.619589    0.000000
     10          1           0       -0.136811   -2.456207    0.864752
     11          1           0       -2.232984   -1.368807    0.000000
     12          1           0       -0.136811   -2.456207   -0.864752
 ---------------------------------------------------------------------

 SCF Done:  E(RHF) =  -321.905447649     A.U. after    2 cycles

 The electronic state is 1-A'.
 Alpha  occ. eigenvalues --  -20.52995 -15.51662 -11.36103 -11.32645 -11.28626
 Alpha  occ. eigenvalues --  -11.28414 -11.26175  -1.47028  -1.26557  -1.11816
 Alpha  occ. eigenvalues --   -1.03557  -0.89696  -0.86851  -0.72919  -0.72127
 Alpha  occ. eigenvalues --   -0.68311  -0.65011  -0.62593  -0.61363  -0.57035
 Alpha  occ. eigenvalues --   -0.56537  -0.48287  -0.46661  -0.42266  -0.39841
 Alpha virt. eigenvalues --    0.02267   0.03182   0.03925   0.04351   0.06027
 Alpha virt. eigenvalues --    0.06453   0.08652   0.08812   0.10245   0.11899
 Alpha virt. eigenvalues --    0.12500   0.12570   0.13244   0.13942   0.14528

 Mulliken charges:
               1
     1  N    1.127878
     2  C    0.249285
     3  C    0.928880
     4  C    0.160657
     5  C   -0.586445
     6  C   -0.745491
     7  O   -1.271531
     8  H   -0.207889
     9  H   -0.154916
    10  H    0.309250
    11  H   -0.118927
    12  H    0.309250
 Sum of Mulliken charges =   0.00000

 Dipole moment (field-independent basis, Debye):
    X=              1.6290    Y=             -6.5319    Z=             -0.0000  Tot=              6.7319

 Test job not archived.
 1\1\GINC-SE010\SP\RHF\Aug-CC-pVDZ\C5H5N1O1\OHZDE\05-Apr-2025\0\\#t hf
 aug-cc-pvdz iop(5/13=1,5/36=2,99/5=2) pseudo=read geom=check guess=(re
 ad,tcheck) scf=(maxcycle=1)\\title\\0,1\N,0,-1.254654,0.394118,0.\C,0,
 0.,1.08109,0.\C,0,1.244764,0.286621,0.\C,0,1.223615,-1.045676,0.\C,0,-
 0.067291,-1.783582,0.\C,0,-1.258745,-0.878361,0.\O,0,0.015804,2.291171
 ,0.\H,0,2.166216,0.852058,0.\H,0,2.142475,-1.619589,0.\H,0,-0.136811,-
 2.456207,0.864752\H,0,-2.232984,-1.368807,0.\H,0,-0.136811,-2.456207,-
 0.864752\\Version=ES64L-G16RevC.01\State=1-A'\HF=-321.9054476\RMSD=3.4

 Normal termination of Gaussian 16 at Sat Apr  5 22:35:03 2025.
