 Gaussian 16, Revision C.01,

 ----------------------------------------------------------------------
 #t hf aug-cc-pvdz symm=none int=(grid=ultrafine) guess=(read,tcheck) s
 table=(opt,rrhf)
 ----------------------------------------------------------------------
 -----
 title
 -----
 Symbolic Z-matrix:
 Charge =  0 Multiplicity = 1

 SCF Done:  E(RHF) =  -1024.59808129     A.U. after   14 cycles
 Normal termination of Gaussian 16 at Sat Apr  5 22:36:29 2025.
 Gaussian 16:  ES64L-G16RevC.01  3-Jul-2019

 ----------------------------------------------------------------------
 #t hf aug-cc-pvdz iop(5/13=1,5/36=2,99/5=2) pseudo=read geom=check gue
 ss=(read,tcheck) scf=(maxcycle=1)
 ----------------------------------------------------------------------
 -----
 title
 -----
 Structure from the checkpoint file:  "2-6-dithiabicyclo-3-3-0-octa-3-7-9-triene.chk"
 Charge =  0 Multiplicity = 1

                         Standard orientation:
 ---------------------------------------------------------------------
 Center     Atomic      Atomic             Coordinates (Angstroms)
 Number     Number       Type             X           Y           Z
 ---------------------------------------------------------------------
      1          6           0        1.447868    1.099623    0.000000
      2          6           0       -1.447868   -1.099623    0.000000
      3          6           0        2.286737    0.027705    0.000000
      4          6           0       -2.286737   -0.027705    0.000000
      5          6           0        0.088213    0.687881    0.000000
      6          6           0       -0.088213   -0.687881    0.000000
      7         16           0        1.447868   -1.498577    0.000000
      8         16           0       -1.447868    1.498577    0.000000
      9          1           0        1.786562    2.124058    0.000000
     10          1           0       -1.786562   -2.124058    0.000000
     11          1           0        3.363551    0.035733    0.000000
     12          1           0       -3.363551   -0.035733    0.000000
 ---------------------------------------------------------------------

 SCF Done:  E(RHF) =  -1024.94546568     A.U. after    2 cycles

 The electronic state is 1-AG.
 Alpha  occ. eigenvalues --  -93.98378 -93.98374 -11.28071 -11.28062 -11.27478
 Alpha  occ. eigenvalues --  -11.27385 -11.26029 -11.26021  -8.26490  -8.26490
 Alpha  occ. eigenvalues --   -6.24268  -6.24267  -6.24184  -6.24183  -6.23954
 Alpha  occ. eigenvalues --   -6.23954  -1.22381  -1.14138  -1.04236  -0.97521
 Alpha  occ. eigenvalues --   -0.97115  -0.81518  -0.78115  -0.73295  -0.68438
 Alpha  occ. eigenvalues --   -0.65549  -0.58330  -0.57529  -0.55091  -0.54501
 Alpha  occ. eigenvalues --   -0.51089  -0.47868  -0.47307  -0.39842  -0.33114
 Alpha  occ. eigenvalues --   -0.31093
 Alpha virt. eigenvalues --    0.03308   0.03693   0.04377   0.04701   0.07758
 Alpha virt. eigenvalues --    0.08014   0.09430   0.09548   0.10443   0.10919
 Alpha virt. eigenvalues --    0.11623   0.12312   0.12630   0.13266   0.13349

 Mulliken charges:
               1
     1  C    0.039406
     2  C    0.039406
     3  C   -0.548857
     4  C   -0.548857
     5  C   -0.206140
     6  C   -0.206140
     7  S    0.984633
     8  S    0.984633
     9  H   -0.104869
    10  H   -0.104869
    11  H   -0.164173
    12  H   -0.164173
 Sum of Mulliken charges =  -0.00000

 Dipole moment (field-independent basis, Debye):
    X=              0.0000    Y=             -0.0000    Z=              0.0000  Tot=              0.0000

 Test job not archived.
 1\1\GINC-SE185\SP\RHF\Aug-CC-pVDZ\C6H4S2\OHZDE\05-Apr-2025\0\\#t hf au
 g-cc-pvdz iop(5/13=1,5/36=2,99/5=2) pseudo=read geom=check guess=(read
 ,tcheck) scf=(maxcycle=1)\\title\\0,1\C,0,1.447868,1.099623,0.\C,0,-1.
 447868,-1.099623,0.\C,0,2.286737,0.027705,0.\C,0,-2.286737,-0.027705,0
 .\C,0,0.088213,0.687881,0.\C,0,-0.088213,-0.687881,0.\S,0,1.447868,-1.
 498577,0.\S,0,-1.447868,1.498577,0.\H,0,1.786562,2.124058,0.\H,0,-1.78
 6562,-2.124058,0.\H,0,3.363551,0.035733,0.\H,0,-3.363551,-0.035733,0.\
 \Version=ES64L-G16RevC.01\State=1-AG\HF=-1024.9454657\RMSD=2.636e-02\D

 Normal termination of Gaussian 16 at Sat Apr  5 22:37:35 2025.
