 Gaussian 16, Revision C.01,

 ----------------------------------------------------------------------
 #t hf aug-cc-pvdz symm=none int=(grid=ultrafine) guess=(read,tcheck) s
 table=(opt,rrhf)
 ----------------------------------------------------------------------
 -----
 title
 -----
 Symbolic Z-matrix:
 Charge =  0 Multiplicity = 1

 SCF Done:  E(RHF) =  -363.849842377     A.U. after   15 cycles

 1\1\GINC-SE085\Stability\RHF\Aug-CC-pVDZ\C8H11N1\OHZDE\05-Apr-2025\0\\
 #t hf aug-cc-pvdz symm=none int=(grid=ultrafine) guess=(read,tcheck) s
 table=(opt,rrhf)\\title\\0,1\C,0,0.031636,2.12996,0.\C,0,0.02216,1.426
 629,1.197036\C,0,0.02216,1.426629,-1.197036\C,0,0.000741,0.035768,1.22
 0838\C,0,0.000741,0.035768,-1.220838\C,0,-0.014016,-0.663674,0.\C,0,0.
 000741,-0.713836,2.525634\C,0,0.000741,-0.713836,-2.525634\N,0,0.01917
 ,-2.06083,0.\H,0,0.048473,3.210934,0.\H,0,0.033219,1.964237,2.137086\H
 ,0,0.033219,1.964237,-2.137086\H,0,-0.899053,-1.326444,2.647724\H,0,0.

 Normal termination of Gaussian 16 at Sat Apr  5 22:37:45 2025.
 Gaussian 16:  ES64L-G16RevC.01  3-Jul-2019

 ----------------------------------------------------------------------
 #t hf aug-cc-pvdz iop(5/13=1,5/36=2,99/5=2) pseudo=read geom=check gue
 ss=(read,tcheck) scf=(maxcycle=1)
 ----------------------------------------------------------------------
 -----
 title
 -----
 Structure from the checkpoint file:  "2-6-dimethylaniline.chk"
 Charge =  0 Multiplicity = 1

                         Standard orientation:
 ---------------------------------------------------------------------
 Center     Atomic      Atomic             Coordinates (Angstroms)
 Number     Number       Type             X           Y           Z
 ---------------------------------------------------------------------
      1          6           0        0.031636    2.129960    0.000000
      2          6           0        0.022160    1.426629    1.197036
      3          6           0        0.022160    1.426629   -1.197036
      4          6           0        0.000741    0.035768    1.220838
      5          6           0        0.000741    0.035768   -1.220838
      6          6           0       -0.014016   -0.663674   -0.000000
      7          6           0        0.000741   -0.713836    2.525634
      8          6           0        0.000741   -0.713836   -2.525634
      9          7           0        0.019170   -2.060830   -0.000000
     10          1           0        0.048473    3.210934    0.000000
     11          1           0        0.033219    1.964237    2.137086
     12          1           0        0.033219    1.964237   -2.137086
     13          1           0       -0.899053   -1.326444    2.647724
     14          1           0        0.860065   -1.385263    2.606507
     15          1           0        0.037075   -0.025129    3.367762
     16          1           0        0.860065   -1.385263   -2.606507
     17          1           0       -0.899053   -1.326444   -2.647724
     18          1           0        0.037075   -0.025129   -3.367762
     19          1           0       -0.317355   -2.510195   -0.834773
     20          1           0       -0.317355   -2.510195    0.834773
 ---------------------------------------------------------------------

 SCF Done:  E(RHF) =  -364.235501189     A.U. after    2 cycles

 The electronic state is 1-A'.
 Alpha  occ. eigenvalues --  -15.50493 -11.27136 -11.23322 -11.23320 -11.23196
 Alpha  occ. eigenvalues --  -11.23174 -11.22887 -11.22870 -11.22006  -1.22448
 Alpha  occ. eigenvalues --   -1.12908  -1.05782  -1.00953  -0.94094  -0.92542
 Alpha  occ. eigenvalues --   -0.81630  -0.80405  -0.72178  -0.71625  -0.64468
 Alpha  occ. eigenvalues --   -0.62810  -0.59969  -0.59127  -0.57654  -0.56939
 Alpha  occ. eigenvalues --   -0.56849  -0.53325  -0.52228  -0.49914  -0.48842
 Alpha  occ. eigenvalues --   -0.46320  -0.32743  -0.30011
 Alpha virt. eigenvalues --    0.03099   0.03662   0.03919   0.04752   0.04786
 Alpha virt. eigenvalues --    0.05306   0.06046   0.07558   0.07766   0.07858
 Alpha virt. eigenvalues --    0.10914   0.11530   0.11858   0.12585   0.12838

 Mulliken charges:
               1
     1  C   -0.390942
     2  C    0.259440
     3  C    0.259440
     4  C    1.379422
     5  C    1.379422
     6  C   -2.299202
     7  C   -0.855163
     8  C   -0.855163
     9  N    0.881664
    10  H   -0.265711
    11  H   -0.289170
    12  H   -0.289170
    13  H    0.286234
    14  H    0.306304
    15  H   -0.069444
    16  H    0.306304
    17  H    0.286234
    18  H   -0.069444
    19  H    0.019473
    20  H    0.019473
 Sum of Mulliken charges =  -0.00000

 Dipole moment (field-independent basis, Debye):
    X=             -0.9042    Y=             -1.1086    Z=              0.0000  Tot=              1.4305

 Test job not archived.
 1\1\GINC-SE085\SP\RHF\Aug-CC-pVDZ\C8H11N1\OHZDE\05-Apr-2025\0\\#t hf a
 ug-cc-pvdz iop(5/13=1,5/36=2,99/5=2) pseudo=read geom=check guess=(rea
 d,tcheck) scf=(maxcycle=1)\\title\\0,1\C,0,0.031636,2.12996,0.\C,0,0.0
 2216,1.426629,1.197036\C,0,0.02216,1.426629,-1.197036\C,0,0.000741,0.0
 35768,1.220838\C,0,0.000741,0.035768,-1.220838\C,0,-0.014016,-0.663674
 ,0.\C,0,0.000741,-0.713836,2.525634\C,0,0.000741,-0.713836,-2.525634\N
 ,0,0.01917,-2.06083,0.\H,0,0.048473,3.210934,0.\H,0,0.033219,1.964237,
 2.137086\H,0,0.033219,1.964237,-2.137086\H,0,-0.899053,-1.326444,2.647

 Normal termination of Gaussian 16 at Sat Apr  5 22:37:52 2025.
