 Gaussian 16, Revision C.01,

 ----------------------------------------------------------------------
 #t hf aug-cc-pvdz symm=none int=(grid=ultrafine) guess=(read,tcheck) s
 table=(opt,rrhf)
 ----------------------------------------------------------------------
 -----
 title
 -----
 Symbolic Z-matrix:
 Charge =  0 Multiplicity = 1

 SCF Done:  E(RHF) =  -339.600338905     A.U. after   13 cycles
 Normal termination of Gaussian 16 at Sat Apr  5 22:36:41 2025.
 Gaussian 16:  ES64L-G16RevC.01  3-Jul-2019

 ----------------------------------------------------------------------
 #t hf aug-cc-pvdz iop(5/13=1,5/36=2,99/5=2) pseudo=read geom=check gue
 ss=(read,tcheck) scf=(maxcycle=1)
 ----------------------------------------------------------------------
 -----
 title
 -----
 Structure from the checkpoint file:  "2-6-diazabicyclo-3-3-0-octa-3-7-9-triene.chk"
 Charge =  0 Multiplicity = 1

                         Standard orientation:
 ---------------------------------------------------------------------
 Center     Atomic      Atomic             Coordinates (Angstroms)
 Number     Number       Type             X           Y           Z
 ---------------------------------------------------------------------
      1          6           0        1.327665    1.176379    0.000000
      2          6           0       -1.327665   -1.176379    0.000000
      3          6           0        2.119092    0.047739    0.000000
      4          6           0       -2.119092   -0.047739    0.000000
      5          6           0       -0.008256    0.695795    0.000000
      6          6           0        0.008256   -0.695795    0.000000
      7          7           0        1.327665   -1.085752    0.000000
      8          7           0       -1.327665    1.085752    0.000000
      9          1           0        1.685808    2.190986    0.000000
     10          1           0       -1.685808   -2.190986    0.000000
     11          1           0        3.191771   -0.033733    0.000000
     12          1           0       -3.191771    0.033733    0.000000
     13          1           0        1.673163   -2.026299    0.000000
     14          1           0       -1.673163    2.026299    0.000000
 ---------------------------------------------------------------------

 SCF Done:  E(RHF) =  -339.949420816     A.U. after    2 cycles

 The electronic state is 1-AG.
 Alpha  occ. eigenvalues --  -15.53522 -15.53520 -11.26178 -11.26170 -11.23922
 Alpha  occ. eigenvalues --  -11.23833 -11.22129 -11.22125  -1.29915  -1.25361
 Alpha  occ. eigenvalues --   -1.04607  -1.03813  -0.95908  -0.83643  -0.82034
 Alpha  occ. eigenvalues --   -0.80111  -0.74067  -0.65697  -0.64987  -0.61962
 Alpha  occ. eigenvalues --   -0.60307  -0.59347  -0.55787  -0.55055  -0.52114
 Alpha  occ. eigenvalues --   -0.38668  -0.33306  -0.26668
 Alpha virt. eigenvalues --    0.03356   0.03542   0.04303   0.04524   0.05056
 Alpha virt. eigenvalues --    0.07707   0.10147   0.10823   0.11199   0.12034
 Alpha virt. eigenvalues --    0.13086   0.13249   0.13790   0.14059   0.14223

 Mulliken charges:
               1
     1  C    1.634757
     2  C    1.634757
     3  C   -0.540612
     4  C   -0.540612
     5  C   -1.526011
     6  C   -1.526011
     7  N    0.893378
     8  N    0.893378
     9  H   -0.203947
    10  H   -0.203947
    11  H   -0.226760
    12  H   -0.226760
    13  H   -0.030806
    14  H   -0.030806
 Sum of Mulliken charges =   0.00000

 Dipole moment (field-independent basis, Debye):
    X=              0.0000    Y=              0.0000    Z=              0.0000  Tot=              0.0000

 Test job not archived.
 1\1\GINC-SE028\SP\RHF\Aug-CC-pVDZ\C6H6N2\OHZDE\05-Apr-2025\0\\#t hf au
 g-cc-pvdz iop(5/13=1,5/36=2,99/5=2) pseudo=read geom=check guess=(read
 ,tcheck) scf=(maxcycle=1)\\title\\0,1\C,0,1.327665,1.176379,0.\C,0,-1.
 327665,-1.176379,0.\C,0,2.119092,0.047739,0.\C,0,-2.119092,-0.047739,0
 .\C,0,-0.008256,0.695795,0.\C,0,0.008256,-0.695795,0.\N,0,1.327665,-1.
 085752,0.\N,0,-1.327665,1.085752,0.\H,0,1.685808,2.190986,0.\H,0,-1.68
 5808,-2.190986,0.\H,0,3.191771,-0.033733,0.\H,0,-3.191771,0.033733,0.\
 H,0,1.673163,-2.026299,0.\H,0,-1.673163,2.026299,0.\\Version=ES64L-G16

 Normal termination of Gaussian 16 at Sat Apr  5 22:37:34 2025.
