 Gaussian 16, Revision C.01,

 ----------------------------------------------------------------------
 #t hf aug-cc-pvdz symm=none int=(grid=ultrafine) guess=(read,tcheck) s
 table=(opt,rrhf)
 ----------------------------------------------------------------------
 -----
 title
 -----
 Symbolic Z-matrix:
 Charge =  0 Multiplicity = 1

 SCF Done:  E(RHF) =  -444.468265143     A.U. after   14 cycles
 Normal termination of Gaussian 16 at Sat Apr  5 22:36:21 2025.
 Gaussian 16:  ES64L-G16RevC.01  3-Jul-2019

 ----------------------------------------------------------------------
 #t hf aug-cc-pvdz iop(5/13=1,5/36=2,99/5=2) pseudo=read geom=check gue
 ss=(read,tcheck) scf=(maxcycle=1)
 ----------------------------------------------------------------------
 -----
 title
 -----
 Structure from the checkpoint file:  "2-6-difluoropyridine.chk"
 Charge =  0 Multiplicity = 1

                         Standard orientation:
 ---------------------------------------------------------------------
 Center     Atomic      Atomic             Coordinates (Angstroms)
 Number     Number       Type             X           Y           Z
 ---------------------------------------------------------------------
      1          7           0        0.000000   -0.000000    1.004348
      2          6           0       -0.000000    0.000000   -1.763705
      3          6           0        0.000000    1.116033    0.313567
      4          6           0       -0.000000   -1.116033    0.313567
      5          6           0        0.000000    1.202637   -1.069047
      6          6           0       -0.000000   -1.202637   -1.069047
      7          1           0       -0.000000    0.000000   -2.844744
      8          9           0        0.000000    2.245286    1.032550
      9          9           0       -0.000000   -2.245286    1.032550
     10          1           0        0.000000    2.162100   -1.561803
     11          1           0       -0.000000   -2.162100   -1.561803
 ---------------------------------------------------------------------

 SCF Done:  E(RHF) =  -444.896777907     A.U. after    2 cycles

 The electronic state is 1-A1.
 Alpha  occ. eigenvalues --  -26.49550 -26.49550 -15.53306 -11.39657 -11.39654
 Alpha  occ. eigenvalues --  -11.29957 -11.27010 -11.27004  -1.63466  -1.62981
 Alpha  occ. eigenvalues --   -1.30863  -1.13263  -1.06184  -0.92876  -0.91146
 Alpha  occ. eigenvalues --   -0.79755  -0.77965  -0.71865  -0.71268  -0.70695
 Alpha  occ. eigenvalues --   -0.68803  -0.67117  -0.61285  -0.60813  -0.59672
 Alpha  occ. eigenvalues --   -0.56956  -0.51175  -0.44079  -0.37247
 Alpha virt. eigenvalues --    0.02695   0.03728   0.04606   0.06750   0.08443
 Alpha virt. eigenvalues --    0.09092   0.09414   0.10087   0.10968   0.12095
 Alpha virt. eigenvalues --    0.12911   0.13194   0.13715   0.14003   0.14725

 Mulliken charges:
               1
     1  N    0.998571
     2  C    0.162367
     3  C    0.183204
     4  C    0.183204
     5  C    0.340405
     6  C    0.340405
     7  H   -0.130961
     8  F   -0.853879
     9  F   -0.853879
    10  H   -0.184718
    11  H   -0.184718
 Sum of Mulliken charges =   0.00000

 Dipole moment (field-independent basis, Debye):
    X=              0.0000    Y=             -0.0000    Z=             -4.3819  Tot=              4.3819

 Test job not archived.
 1\1\GINC-SE055\SP\RHF\Aug-CC-pVDZ\C5H3F2N1\OHZDE\05-Apr-2025\0\\#t hf
 aug-cc-pvdz iop(5/13=1,5/36=2,99/5=2) pseudo=read geom=check guess=(re
 ad,tcheck) scf=(maxcycle=1)\\title\\0,1\N,0,0.,0.,1.004348\C,0,0.,0.,-
 1.763705\C,0,0.,1.116033,0.313567\C,0,0.,-1.116033,0.313567\C,0,0.,1.2
 02637,-1.069047\C,0,0.,-1.202637,-1.069047\H,0,0.,0.,-2.844744\F,0,0.,
 2.245286,1.03255\F,0,0.,-2.245286,1.03255\H,0,0.,2.1621,-1.561803\H,0,
 0.,-2.1621,-1.561803\\Version=ES64L-G16RevC.01\State=1-A1\HF=-444.8967
 779\RMSD=2.865e-02\Dipole=0.,0.,-1.7239891\Quadrupole=-1.2441695,-0.05

 Normal termination of Gaussian 16 at Sat Apr  5 22:37:34 2025.
