 Gaussian 16, Revision C.01,

 ----------------------------------------------------------------------
 #t hf aug-cc-pvdz symm=none int=(grid=ultrafine) guess=(read,tcheck) s
 table=(opt,rrhf)
 ----------------------------------------------------------------------
 -----
 title
 -----
 Symbolic Z-matrix:
 Charge =  0 Multiplicity = 1

 SCF Done:  E(RHF) =  -742.156722933     A.U. after   15 cycles
 Normal termination of Gaussian 16 at Sat Apr  5 22:37:34 2025.
 Gaussian 16:  ES64L-G16RevC.01  3-Jul-2019

 ----------------------------------------------------------------------
 #t hf aug-cc-pvdz iop(5/13=1,5/36=2,99/5=2) pseudo=read geom=check gue
 ss=(read,tcheck) scf=(maxcycle=1)
 ----------------------------------------------------------------------
 -----
 title
 -----
 Structure from the checkpoint file:  "2-6-dimethyl-4H-pyran-4-thione.chk"
 Charge =  0 Multiplicity = 1

                         Standard orientation:
 ---------------------------------------------------------------------
 Center     Atomic      Atomic             Coordinates (Angstroms)
 Number     Number       Type             X           Y           Z
 ---------------------------------------------------------------------
      1         16           0        0.000000   -0.000000    2.851009
      2          6           0        0.000000   -0.000000    1.185615
      3          6           0        0.000000    1.206883    0.400792
      4          6           0        0.000000    2.352278   -1.861101
      5          6           0        0.000000    1.178354   -0.946461
      6          8           0        0.000000    0.000000   -1.631977
      7          6           0       -0.000000   -1.206883    0.400792
      8          6           0       -0.000000   -1.178354   -0.946461
      9          6           0       -0.000000   -2.352278   -1.861101
     10          1           0        0.000000    2.159035    0.909125
     11          1           0       -0.879753    2.334551   -2.507116
     12          1           0        0.879753    2.334551   -2.507116
     13          1           0        0.000000    3.277663   -1.291277
     14          1           0       -0.000000   -2.159035    0.909125
     15          1           0       -0.879753   -2.334551   -2.507116
     16          1           0       -0.000000   -3.277663   -1.291277
     17          1           0        0.879753   -2.334551   -2.507116
 ---------------------------------------------------------------------

 SCF Done:  E(RHF) =  -742.567762235     A.U. after    2 cycles

 The electronic state is 1-A1.
 Alpha  occ. eigenvalues --  -93.89232 -20.63843 -11.35273 -11.35227 -11.31826
 Alpha  occ. eigenvalues --  -11.26726 -11.26726 -11.25301 -11.25291  -8.17404
 Alpha  occ. eigenvalues --   -6.15255  -6.15011  -6.14847  -1.57346  -1.14937
 Alpha  occ. eigenvalues --   -1.13051  -1.04010  -0.98031  -0.97537  -0.88187
 Alpha  occ. eigenvalues --   -0.81665  -0.73381  -0.73030  -0.68371  -0.65497
 Alpha  occ. eigenvalues --   -0.62198  -0.61306  -0.59677  -0.58113  -0.57740
 Alpha  occ. eigenvalues --   -0.57397  -0.54729  -0.49621  -0.47712  -0.39367
 Alpha  occ. eigenvalues --   -0.32305  -0.31337
 Alpha virt. eigenvalues --    0.02482   0.02890   0.03703   0.04327   0.04546
 Alpha virt. eigenvalues --    0.05273   0.05918   0.06051   0.08176   0.08684
 Alpha virt. eigenvalues --    0.11022   0.11036   0.11951   0.11967   0.12102

 Mulliken charges:
               1
     1  S   -0.069533
     2  C   -0.877261
     3  C    0.766798
     4  C   -0.799065
     5  C    0.946008
     6  O   -1.828611
     7  C    0.766798
     8  C    0.946008
     9  C   -0.799065
    10  H   -0.193907
    11  H    0.263419
    12  H    0.263419
    13  H    0.141029
    14  H   -0.193907
    15  H    0.263419
    16  H    0.141029
    17  H    0.263419
 Sum of Mulliken charges =   0.00000

 Dipole moment (field-independent basis, Debye):
    X=             -0.0000    Y=              0.0000    Z=             -6.6755  Tot=              6.6755

 Test job not archived.
 1\1\GINC-SE190\SP\RHF\Aug-CC-pVDZ\C7H8O1S1\OHZDE\05-Apr-2025\0\\#t hf
 aug-cc-pvdz iop(5/13=1,5/36=2,99/5=2) pseudo=read geom=check guess=(re
 ad,tcheck) scf=(maxcycle=1)\\title\\0,1\S,0,0.,0.,2.851009\C,0,0.,0.,1
 .185615\C,0,0.,1.206883,0.400792\C,0,0.,2.352278,-1.861101\C,0,0.,1.17
 8354,-0.946461\O,0,0.,0.,-1.631977\C,0,0.,-1.206883,0.400792\C,0,0.,-1
 .178354,-0.946461\C,0,0.,-2.352278,-1.861101\H,0,0.,2.159035,0.909125\
 H,0,-0.879753,2.334551,-2.507116\H,0,0.879753,2.334551,-2.507116\H,0,0
 .,3.277663,-1.291277\H,0,0.,-2.159035,0.909125\H,0,-0.879753,-2.334551

 Normal termination of Gaussian 16 at Sat Apr  5 22:37:42 2025.
