 Gaussian 16, Revision C.01,

 ----------------------------------------------------------------------
 #t hf aug-cc-pvdz symm=none int=(grid=ultrafine) guess=(read,tcheck) s
 table=(opt,rrhf)
 ----------------------------------------------------------------------
 -----
 title
 -----
 Symbolic Z-matrix:
 Charge =  0 Multiplicity = 1

 SCF Done:  E(RHF) =  -379.229449348     A.U. after   12 cycles
 Normal termination of Gaussian 16 at Sat Apr  5 22:36:24 2025.
 Gaussian 16:  ES64L-G16RevC.01  3-Jul-2019

 ----------------------------------------------------------------------
 #t hf aug-cc-pvdz iop(5/13=1,5/36=2,99/5=2) pseudo=read geom=check gue
 ss=(read,tcheck) scf=(maxcycle=1)
 ----------------------------------------------------------------------
 -----
 title
 -----
 Structure from the checkpoint file:  "2-6-dioxabicyclo-3-3-0-octa-3-7-9-triene.chk"
 Charge =  0 Multiplicity = 1

                         Standard orientation:
 ---------------------------------------------------------------------
 Center     Atomic      Atomic             Coordinates (Angstroms)
 Number     Number       Type             X           Y           Z
 ---------------------------------------------------------------------
      1          6           0        1.309093    1.172916    0.000000
      2          6           0       -1.309093   -1.172916    0.000000
      3          6           0        2.068867    0.039777    0.000000
      4          6           0       -2.068867   -0.039777    0.000000
      5          6           0       -0.023065    0.680222    0.000000
      6          6           0        0.023065   -0.680222    0.000000
      7          8           0        1.309093   -1.111529    0.000000
      8          8           0       -1.309093    1.111529    0.000000
      9          1           0        1.675271    2.183812    0.000000
     10          1           0       -1.675271   -2.183812    0.000000
     11          1           0        3.132307   -0.112935    0.000000
     12          1           0       -3.132307    0.112935    0.000000
 ---------------------------------------------------------------------

 SCF Done:  E(RHF) =  -379.606167466     A.U. after    2 cycles

 The electronic state is 1-AG.
 Alpha  occ. eigenvalues --  -20.61702 -20.61700 -11.30921 -11.30911 -11.28747
 Alpha  occ. eigenvalues --  -11.28632 -11.25681 -11.25676  -1.55374  -1.53764
 Alpha  occ. eigenvalues --   -1.11307  -1.09045  -0.98826  -0.85621  -0.82203
 Alpha  occ. eigenvalues --   -0.78674  -0.72635  -0.67170  -0.66892  -0.65624
 Alpha  occ. eigenvalues --   -0.60530  -0.59460  -0.59278  -0.57556  -0.52079
 Alpha  occ. eigenvalues --   -0.41879  -0.38854  -0.29858
 Alpha virt. eigenvalues --    0.03595   0.03604   0.04189   0.04875   0.08809
 Alpha virt. eigenvalues --    0.08831   0.10573   0.10717   0.11941   0.11993
 Alpha virt. eigenvalues --    0.13073   0.13547   0.13680   0.14744   0.15243

 Mulliken charges:
               1
     1  C    0.493441
     2  C    0.493441
     3  C    0.777566
     4  C    0.777566
     5  C    0.676365
     6  C    0.676365
     7  O   -1.679371
     8  O   -1.679371
     9  H   -0.131555
    10  H   -0.131555
    11  H   -0.136446
    12  H   -0.136446
 Sum of Mulliken charges =  -0.00000

 Dipole moment (field-independent basis, Debye):
    X=              0.0000    Y=             -0.0000    Z=              0.0000  Tot=              0.0000

 Test job not archived.
 1\1\GINC-SE185\SP\RHF\Aug-CC-pVDZ\C6H4O2\OHZDE\05-Apr-2025\0\\#t hf au
 g-cc-pvdz iop(5/13=1,5/36=2,99/5=2) pseudo=read geom=check guess=(read
 ,tcheck) scf=(maxcycle=1)\\title\\0,1\C,0,1.309093,1.172916,0.\C,0,-1.
 309093,-1.172916,0.\C,0,2.068867,0.039777,0.\C,0,-2.068867,-0.039777,0
 .\C,0,-0.023065,0.680222,0.\C,0,0.023065,-0.680222,0.\O,0,1.309093,-1.
 111529,0.\O,0,-1.309093,1.111529,0.\H,0,1.675271,2.183812,0.\H,0,-1.67
 5271,-2.183812,0.\H,0,3.132307,-0.112935,0.\H,0,-3.132307,0.112935,0.\
 \Version=ES64L-G16RevC.01\State=1-AG\HF=-379.6061675\RMSD=3.001e-02\Di

 Normal termination of Gaussian 16 at Sat Apr  5 22:37:35 2025.
