 Gaussian 16, Revision C.01,

 ----------------------------------------------------------------------
 #t hf aug-cc-pvdz symm=none int=(grid=ultrafine) guess=(read,tcheck) s
 table=(opt,rrhf)
 ----------------------------------------------------------------------
 -----
 title
 -----
 Symbolic Z-matrix:
 Charge =  0 Multiplicity = 1

 SCF Done:  E(RHF) =  -419.506589191     A.U. after   15 cycles
 Normal termination of Gaussian 16 at Sat Apr  5 22:38:35 2025.
 Gaussian 16:  ES64L-G16RevC.01  3-Jul-2019

 ----------------------------------------------------------------------
 #t hf aug-cc-pvdz iop(5/13=1,5/36=2,99/5=2) pseudo=read geom=check gue
 ss=(read,tcheck) scf=(maxcycle=1)
 ----------------------------------------------------------------------
 -----
 title
 -----
 Structure from the checkpoint file:  "2-6-dimethyl-4H-pyran-4-one.chk"
 Charge =  0 Multiplicity = 1

                         Standard orientation:
 ---------------------------------------------------------------------
 Center     Atomic      Atomic             Coordinates (Angstroms)
 Number     Number       Type             X           Y           Z
 ---------------------------------------------------------------------
      1          6           0        0.000000    2.348442   -1.472492
      2          6           0        0.000000    1.181572   -0.546325
      3          6           0        0.000000    1.220509    0.796168
      4          6           0        0.000000   -0.000000    1.597720
      5          8           0        0.000000   -0.000000    2.824812
      6          8           0       -0.000000    0.000000   -1.229567
      7          6           0       -0.000000   -1.220509    0.796168
      8          6           0       -0.000000   -1.181572   -0.546325
      9          6           0       -0.000000   -2.348442   -1.472492
     10          1           0        0.879762    2.324369   -2.118001
     11          1           0        0.000000    3.279116   -0.911282
     12          1           0       -0.879762    2.324369   -2.118001
     13          1           0        0.000000    2.170852    1.309034
     14          1           0       -0.000000   -2.170852    1.309034
     15          1           0       -0.000000   -3.279116   -0.911282
     16          1           0        0.879762   -2.324369   -2.118001
     17          1           0       -0.879762   -2.324369   -2.118001
 ---------------------------------------------------------------------

 SCF Done:  E(RHF) =  -419.932718476     A.U. after    2 cycles

 The electronic state is 1-A1.
 Alpha  occ. eigenvalues --  -20.62659 -20.50446 -11.34395 -11.34344 -11.32871
 Alpha  occ. eigenvalues --  -11.26146 -11.26145 -11.24028 -11.24021  -1.56246
 Alpha  occ. eigenvalues --   -1.43556  -1.12305  -1.10310  -1.01620  -0.96903
 Alpha  occ. eigenvalues --   -0.87348  -0.83860  -0.73584  -0.72273  -0.67619
 Alpha  occ. eigenvalues --   -0.65281  -0.61540  -0.61457  -0.60742  -0.58705
 Alpha  occ. eigenvalues --   -0.57780  -0.57168  -0.55712  -0.54085  -0.53047
 Alpha  occ. eigenvalues --   -0.40285  -0.39004  -0.35637
 Alpha virt. eigenvalues --    0.02732   0.03078   0.04049   0.04274   0.05208
 Alpha virt. eigenvalues --    0.05853   0.06257   0.08118   0.09537   0.10031
 Alpha virt. eigenvalues --    0.11291   0.11635   0.12128   0.12465   0.12954

 Mulliken charges:
               1
     1  C   -0.775125
     2  C    1.113294
     3  C    0.766400
     4  C    0.403132
     5  O   -1.522141
     6  O   -1.841433
     7  C    0.766400
     8  C    1.113294
     9  C   -0.775125
    10  H    0.253994
    11  H    0.143480
    12  H    0.253994
    13  H   -0.275817
    14  H   -0.275817
    15  H    0.143480
    16  H    0.253994
    17  H    0.253994
 Sum of Mulliken charges =  -0.00000

 Dipole moment (field-independent basis, Debye):
    X=             -0.0000    Y=              0.0000    Z=             -5.4209  Tot=              5.4209

 Test job not archived.
 1\1\GINC-SE180\SP\RHF\Aug-CC-pVDZ\C7H8O2\OHZDE\05-Apr-2025\0\\#t hf au
 g-cc-pvdz iop(5/13=1,5/36=2,99/5=2) pseudo=read geom=check guess=(read
 ,tcheck) scf=(maxcycle=1)\\title\\0,1\C,0,0.,2.348442,-1.472492\C,0,0.
 ,1.181572,-0.546325\C,0,0.,1.220509,0.796168\C,0,0.,0.,1.59772\O,0,0.,
 0.,2.824812\O,0,0.,0.,-1.229567\C,0,0.,-1.220509,0.796168\C,0,0.,-1.18
 1572,-0.546325\C,0,0.,-2.348442,-1.472492\H,0,0.879762,2.324369,-2.118
 001\H,0,0.,3.279116,-0.911282\H,0,-0.879762,2.324369,-2.118001\H,0,0.,
 2.170852,1.309034\H,0,0.,-2.170852,1.309034\H,0,0.,-3.279116,-0.911282

 Normal termination of Gaussian 16 at Sat Apr  5 22:39:14 2025.
