 Gaussian 16, Revision C.01,

 ----------------------------------------------------------------------
 #t hf aug-cc-pvdz symm=none int=(grid=ultrafine) guess=(read,tcheck) s
 table=(opt,rrhf)
 ----------------------------------------------------------------------
 -----
 title
 -----
 Symbolic Z-matrix:
 Charge =  0 Multiplicity = 1

 SCF Done:  E(RHF) =  -324.813538925     A.U. after   14 cycles
 Normal termination of Gaussian 16 at Sat Apr  5 22:38:26 2025.
 Gaussian 16:  ES64L-G16RevC.01  3-Jul-2019

 ----------------------------------------------------------------------
 #t hf aug-cc-pvdz iop(5/13=1,5/36=2,99/5=2) pseudo=read geom=check gue
 ss=(read,tcheck) scf=(maxcycle=1)
 ----------------------------------------------------------------------
 -----
 title
 -----
 Structure from the checkpoint file:  "2-6-dimethylpyridine.chk"
 Charge =  0 Multiplicity = 1

                         Standard orientation:
 ---------------------------------------------------------------------
 Center     Atomic      Atomic             Coordinates (Angstroms)
 Number     Number       Type             X           Y           Z
 ---------------------------------------------------------------------
      1          6           0        0.000000    0.000000   -1.831849
      2          6           0        0.000000    1.195324   -1.129066
      3          6           0       -0.000000   -1.195324   -1.129066
      4          6           0        0.000000    1.155404    0.265392
      5          6           0       -0.000000   -1.155404    0.265392
      6          6           0        0.000000    2.411589    1.091716
      7          6           0       -0.000000   -2.411589    1.091716
      8          7           0       -0.000000   -0.000000    0.937784
      9          1           0        0.000000    0.000000   -2.914051
     10          1           0        0.000000    2.144159   -1.647425
     11          1           0       -0.000000   -2.144159   -1.647425
     12          1           0       -0.876787    2.436350    1.740225
     13          1           0        0.876787    2.436350    1.740225
     14          1           0        0.000000    3.304826    0.469053
     15          1           0       -0.000000   -3.304826    0.469053
     16          1           0        0.876787   -2.436350    1.740225
     17          1           0       -0.876787   -2.436350    1.740225
 ---------------------------------------------------------------------

 SCF Done:  E(RHF) =  -325.154463339     A.U. after    2 cycles

 The electronic state is 1-A1.
 Alpha  occ. eigenvalues --  -15.48785 -11.28073 -11.28069 -11.25942 -11.23442
 Alpha  occ. eigenvalues --  -11.23437 -11.22952 -11.22948  -1.25529  -1.08459
 Alpha  occ. eigenvalues --   -1.07290  -0.98683  -0.93764  -0.84196  -0.83390
 Alpha  occ. eigenvalues --   -0.69964  -0.69295  -0.63096  -0.60420  -0.59403
 Alpha  occ. eigenvalues --   -0.58394  -0.57580  -0.54632  -0.54412  -0.51839
 Alpha  occ. eigenvalues --   -0.51325  -0.43908  -0.39675  -0.33710
 Alpha virt. eigenvalues --    0.03386   0.03842   0.03923   0.04650   0.05271
 Alpha virt. eigenvalues --    0.05629   0.06565   0.07510   0.08428   0.08677
 Alpha virt. eigenvalues --    0.10848   0.11503   0.11939   0.13042   0.13473

 Mulliken charges:
               1
     1  C   -0.152658
     2  C    0.463637
     3  C    0.463637
     4  C   -0.880090
     5  C   -0.880090
     6  C   -0.443113
     7  C   -0.443113
     8  N    1.378145
     9  H   -0.196468
    10  H   -0.258509
    11  H   -0.258509
    12  H    0.244622
    13  H    0.244622
    14  H    0.114321
    15  H    0.114321
    16  H    0.244622
    17  H    0.244622
 Sum of Mulliken charges =  -0.00000

 Dipole moment (field-independent basis, Debye):
    X=              0.0000    Y=             -0.0000    Z=             -1.8538  Tot=              1.8538

 Test job not archived.
 1\1\GINC-SE145\SP\RHF\Aug-CC-pVDZ\C7H9N1\OHZDE\05-Apr-2025\0\\#t hf au
 g-cc-pvdz iop(5/13=1,5/36=2,99/5=2) pseudo=read geom=check guess=(read
 ,tcheck) scf=(maxcycle=1)\\title\\0,1\C,0,0.,0.,-1.831849\C,0,0.,1.195
 324,-1.129066\C,0,0.,-1.195324,-1.129066\C,0,0.,1.155404,0.265392\C,0,
 0.,-1.155404,0.265392\C,0,0.,2.411589,1.091716\C,0,0.,-2.411589,1.0917
 16\N,0,0.,0.,0.937784\H,0,0.,0.,-2.914051\H,0,0.,2.144159,-1.647425\H,
 0,0.,-2.144159,-1.647425\H,0,-0.876787,2.43635,1.740225\H,0,0.876787,2
 .43635,1.740225\H,0,0.,3.304826,0.469053\H,0,0.,-3.304826,0.469053\H,0

 Normal termination of Gaussian 16 at Sat Apr  5 22:38:37 2025.
