 Gaussian 16, Revision C.01,

 ----------------------------------------------------------------------
 #t hf aug-cc-pvdz symm=none int=(grid=ultrafine) guess=(read,tcheck) s
 table=(opt,rrhf)
 ----------------------------------------------------------------------
 -----
 title
 -----
 Symbolic Z-matrix:
 Charge =  0 Multiplicity = 1

 SCF Done:  E(RHF) =  -383.682180020     A.U. after   15 cycles

 1\1\GINC-SE145\Stability\RHF\Aug-CC-pVDZ\C8H10O1\OHZDE\05-Apr-2025\0\\
 #t hf aug-cc-pvdz symm=none int=(grid=ultrafine) guess=(read,tcheck) s
 table=(opt,rrhf)\\title\\0,1\C,0,0.029432,-2.115963,0.\C,0,-1.177779,-
 1.432184,0.\C,0,1.221499,-1.401498,0.\C,0,-1.215878,-0.038978,0.\C,0,1
 .232186,-0.009912,0.\C,0,0.,0.652782,0.\C,0,-2.522797,0.709811,0.\C,0,
 2.513155,0.776894,0.\O,0,0.045187,2.025498,0.\H,0,0.042486,-3.19709,0.
 \H,0,-2.110575,-1.981915,0.\H,0,2.16631,-1.93024,0.\H,0,-2.631669,1.34
 7832,0.882868\H,0,-2.631669,1.347832,-0.882868\H,0,-3.362725,0.017813,

 Normal termination of Gaussian 16 at Sat Apr  5 22:37:31 2025.
 Gaussian 16:  ES64L-G16RevC.01  3-Jul-2019

 ----------------------------------------------------------------------
 #t hf aug-cc-pvdz iop(5/13=1,5/36=2,99/5=2) pseudo=read geom=check gue
 ss=(read,tcheck) scf=(maxcycle=1)
 ----------------------------------------------------------------------
 -----
 title
 -----
 Structure from the checkpoint file:  "2-6-dimethylphenol.chk"
 Charge =  0 Multiplicity = 1

                         Standard orientation:
 ---------------------------------------------------------------------
 Center     Atomic      Atomic             Coordinates (Angstroms)
 Number     Number       Type             X           Y           Z
 ---------------------------------------------------------------------
      1          6           0        0.029432   -2.115963    0.000000
      2          6           0       -1.177779   -1.432184    0.000000
      3          6           0        1.221499   -1.401498    0.000000
      4          6           0       -1.215878   -0.038978    0.000000
      5          6           0        1.232186   -0.009912    0.000000
      6          6           0        0.000000    0.652782    0.000000
      7          6           0       -2.522797    0.709811    0.000000
      8          6           0        2.513155    0.776894    0.000000
      9          8           0        0.045187    2.025498    0.000000
     10          1           0        0.042486   -3.197090    0.000000
     11          1           0       -2.110575   -1.981915    0.000000
     12          1           0        2.166310   -1.930240    0.000000
     13          1           0       -2.631669    1.347832    0.882868
     14          1           0       -2.631669    1.347832   -0.882868
     15          1           0       -3.362725    0.017813    0.000000
     16          1           0        2.580324    1.426517   -0.874653
     17          1           0        2.580324    1.426517    0.874653
     18          1           0        3.374227    0.110457    0.000000
     19          1           0       -0.847434    2.382583    0.000000
 ---------------------------------------------------------------------

 SCF Done:  E(RHF) =  -384.082099512     A.U. after    2 cycles

 The electronic state is 1-A'.
 Alpha  occ. eigenvalues --  -20.57537 -11.29638 -11.24636 -11.24293 -11.23759
 Alpha  occ. eigenvalues --  -11.23651 -11.23401 -11.22900 -11.22523  -1.48805
 Alpha  occ. eigenvalues --   -1.15406  -1.06491  -1.02205  -0.94949  -0.93027
 Alpha  occ. eigenvalues --   -0.82708  -0.80784  -0.73256  -0.68583  -0.64818
 Alpha  occ. eigenvalues --   -0.61327  -0.60300  -0.58134  -0.57744  -0.57318
 Alpha  occ. eigenvalues --   -0.56500  -0.54506  -0.53808  -0.50474  -0.49103
 Alpha  occ. eigenvalues --   -0.47587  -0.33364  -0.31240
 Alpha virt. eigenvalues --    0.03137   0.03555   0.03952   0.04800   0.04890
 Alpha virt. eigenvalues --    0.05068   0.06835   0.07662   0.07934   0.08362
 Alpha virt. eigenvalues --    0.11406   0.11773   0.12259   0.12625   0.12821

 Mulliken charges:
               1
     1  C   -0.466733
     2  C    0.483938
     3  C    0.510050
     4  C    0.366522
     5  C    0.105478
     6  C    1.844127
     7  C   -0.876503
     8  C   -0.724739
     9  O   -1.946679
    10  H   -0.251977
    11  H   -0.284599
    12  H   -0.287547
    13  H    0.295129
    14  H    0.295129
    15  H   -0.017675
    16  H    0.256479
    17  H    0.256479
    18  H    0.019021
    19  H    0.424100
 Sum of Mulliken charges =  -0.00000

 Dipole moment (field-independent basis, Debye):
    X=             -1.4224    Y=              0.2135    Z=              0.0000  Tot=              1.4383

 Test job not archived.
 1\1\GINC-SE145\SP\RHF\Aug-CC-pVDZ\C8H10O1\OHZDE\05-Apr-2025\0\\#t hf a
 ug-cc-pvdz iop(5/13=1,5/36=2,99/5=2) pseudo=read geom=check guess=(rea
 d,tcheck) scf=(maxcycle=1)\\title\\0,1\C,0,0.029432,-2.115963,0.\C,0,-
 1.177779,-1.432184,0.\C,0,1.221499,-1.401498,0.\C,0,-1.215878,-0.03897
 8,0.\C,0,1.232186,-0.009912,0.\C,0,0.,0.652782,0.\C,0,-2.522797,0.7098
 11,0.\C,0,2.513155,0.776894,0.\O,0,0.045187,2.025498,0.\H,0,0.042486,-
 3.19709,0.\H,0,-2.110575,-1.981915,0.\H,0,2.16631,-1.93024,0.\H,0,-2.6
 31669,1.347832,0.882868\H,0,-2.631669,1.347832,-0.882868\H,0,-3.362725

 Normal termination of Gaussian 16 at Sat Apr  5 22:37:42 2025.
