 Gaussian 16, Revision C.01,

 ----------------------------------------------------------------------
 #t hf aug-cc-pvdz symm=none int=(grid=ultrafine) guess=(read,tcheck) s
 table=(opt,rrhf)
 ----------------------------------------------------------------------
 -----
 title
 -----
 Symbolic Z-matrix:
 Charge =  0 Multiplicity = 1

 SCF Done:  E(RHF) =  -491.533262251     A.U. after   14 cycles
 Normal termination of Gaussian 16 at Sat Apr  5 22:36:44 2025.
 Gaussian 16:  ES64L-G16RevC.01  3-Jul-2019

 ----------------------------------------------------------------------
 #t hf aug-cc-pvdz iop(5/13=1,5/36=2,99/5=2) pseudo=read geom=check gue
 ss=(read,tcheck) scf=(maxcycle=1)
 ----------------------------------------------------------------------
 -----
 title
 -----
 Structure from the checkpoint file:  "2-amino-4-hydroxy-5-fluoropyrimidine.chk"
 Charge =  0 Multiplicity = 1

                         Standard orientation:
 ---------------------------------------------------------------------
 Center     Atomic      Atomic             Coordinates (Angstroms)
 Number     Number       Type             X           Y           Z
 ---------------------------------------------------------------------
      1          9           0       -2.432062   -0.840581   -0.001430
      2          8           0       -1.549974    1.772119    0.004185
      3          7           0        0.623463    1.045644   -0.000115
      4          7           0        1.145451   -1.283249    0.004540
      5          7           0        2.809376    0.312221   -0.053279
      6          6           0       -0.665617    0.765530   -0.000417
      7          6           0       -1.116639   -0.556241   -0.001881
      8          6           0        1.480636    0.009952   -0.004752
      9          6           0       -0.163020   -1.546056    0.003960
     10          1           0       -1.037104    2.592592    0.000511
     11          1           0        3.451036   -0.430928    0.156545
     12          1           0        3.081893    1.251498    0.171878
     13          1           0       -0.467661   -2.586310    0.010977
 ---------------------------------------------------------------------

 SCF Done:  E(RHF) =  -492.014947745     A.U. after    2 cycles

 The electronic state is 1-A.
 Alpha  occ. eigenvalues --  -26.48014 -20.61030 -15.52670 -15.51295 -15.50327
 Alpha  occ. eigenvalues --  -11.38025 -11.36849 -11.32501 -11.31265  -1.60965
 Alpha  occ. eigenvalues --   -1.53668  -1.33630  -1.22152  -1.21044  -1.06382
 Alpha  occ. eigenvalues --   -0.94237  -0.91581  -0.82796  -0.78965  -0.74605
 Alpha  occ. eigenvalues --   -0.72290  -0.71900  -0.69285  -0.64603  -0.64258
 Alpha  occ. eigenvalues --   -0.62028  -0.60072  -0.59338  -0.55794  -0.50025
 Alpha  occ. eigenvalues --   -0.46505  -0.45749  -0.35462
 Alpha virt. eigenvalues --    0.02967   0.04367   0.04696   0.05564   0.07569
 Alpha virt. eigenvalues --    0.08206   0.09630   0.10350   0.11746   0.12511
 Alpha virt. eigenvalues --    0.12638   0.13138   0.13455   0.13768   0.14060

 Mulliken charges:
               1
     1  F   -1.001329
     2  O   -1.491221
     3  N    0.682600
     4  N    0.622545
     5  N    0.581956
     6  C    0.324712
     7  C    1.664870
     8  C   -1.604325
     9  C   -0.354672
    10  H    0.382058
    11  H    0.152137
    12  H    0.137014
    13  H   -0.096345
 Sum of Mulliken charges =   0.00000

 Dipole moment (field-independent basis, Debye):
    X=              1.6777    Y=              1.2339    Z=              0.6732  Tot=              2.1887

 Test job not archived.
 1\1\GINC-SE225\SP\RHF\Aug-CC-pVDZ\C4H4F1N3O1\OHZDE\05-Apr-2025\0\\#t h
 f aug-cc-pvdz iop(5/13=1,5/36=2,99/5=2) pseudo=read geom=check guess=(
 read,tcheck) scf=(maxcycle=1)\\title\\0,1\F,0,-2.432062,-0.840581,-0.0
 0143\O,0,-1.549974,1.772119,0.004185\N,0,0.623463,1.045644,-0.000115\N
 ,0,1.145451,-1.283249,0.00454\N,0,2.809376,0.312221,-0.053279\C,0,-0.6
 65617,0.76553,-0.000417\C,0,-1.116639,-0.556241,-0.001881\C,0,1.480636
 ,0.009952,-0.004752\C,0,-0.16302,-1.546056,0.00396\H,0,-1.037104,2.592
 592,0.000511\H,0,3.451036,-0.430928,0.156545\H,0,3.081893,1.251498,0.1

 Normal termination of Gaussian 16 at Sat Apr  5 22:37:36 2025.
