 Gaussian 16, Revision C.01,

 ----------------------------------------------------------------------
 #t hf aug-cc-pvdz symm=none int=(grid=ultrafine) guess=(read,tcheck) s
 table=(opt,rrhf)
 ----------------------------------------------------------------------
 -----
 title
 -----
 Symbolic Z-matrix:
 Charge =  0 Multiplicity = 1

 SCF Done:  E(RHF) =  -639.571467602     A.U. after   15 cycles
 Normal termination of Gaussian 16 at Sat Apr  5 22:37:43 2025.
 Gaussian 16:  ES64L-G16RevC.01  3-Jul-2019

 ----------------------------------------------------------------------
 #t hf aug-cc-pvdz iop(5/13=1,5/36=2,99/5=2) pseudo=read geom=check gue
 ss=(read,tcheck) scf=(maxcycle=1)
 ----------------------------------------------------------------------
 -----
 title
 -----
 Structure from the checkpoint file:  "2-amino-2-iminoethanethioamide.chk"
 Charge =  0 Multiplicity = 1

                         Standard orientation:
 ---------------------------------------------------------------------
 Center     Atomic      Atomic             Coordinates (Angstroms)
 Number     Number       Type             X           Y           Z
 ---------------------------------------------------------------------
      1         16           0       -1.746638   -0.491801   -0.024174
      2          7           0        1.069100   -1.539005    0.070067
      3          7           0       -0.321863    1.747667    0.040754
      4          7           0        2.022193    0.634247   -0.054121
      5          6           0        1.041264   -0.187875   -0.000463
      6          6           0       -0.357714    0.420697    0.009753
      7          1           0        0.188021   -2.026997    0.000787
      8          1           0        1.927591   -2.037227   -0.074943
      9          1           0        0.590765    2.186653    0.033004
     10          1           0       -1.174968    2.277579    0.029518
     11          1           0        2.927486    0.171511   -0.054209
 ---------------------------------------------------------------------

 SCF Done:  E(RHF) =  -639.878475554     A.U. after    2 cycles

 The electronic state is 1-A.
 Alpha  occ. eigenvalues --  -93.90938 -15.55341 -15.53261 -15.49252 -11.36759
 Alpha  occ. eigenvalues --  -11.35300  -8.19234  -6.17092  -6.16791  -6.16685
 Alpha  occ. eigenvalues --   -1.30716  -1.25823  -1.17259  -1.04207  -0.91622
 Alpha  occ. eigenvalues --   -0.83193  -0.79673  -0.76376  -0.73606  -0.65569
 Alpha  occ. eigenvalues --   -0.61472  -0.55076  -0.53499  -0.50691  -0.42998
 Alpha  occ. eigenvalues --   -0.36285  -0.35347
 Alpha virt. eigenvalues --    0.02684   0.04040   0.04174   0.05088   0.06361
 Alpha virt. eigenvalues --    0.07238   0.09836   0.11599   0.12170   0.12947
 Alpha virt. eigenvalues --    0.13583   0.14002   0.15333   0.15371   0.16408

 Mulliken charges:
               1
     1  S    0.124830
     2  N    0.680941
     3  N    0.881688
     4  N    0.897510
     5  C   -1.728607
     6  C   -1.207347
     7  H    0.166990
     8  H    0.013745
     9  H    0.109996
    10  H    0.037767
    11  H    0.022486
 Sum of Mulliken charges =  -0.00000

 Dipole moment (field-independent basis, Debye):
    X=              2.2582    Y=             -0.1829    Z=             -0.1881  Tot=              2.2734

 Test job not archived.
 1\1\GINC-SE040\SP\RHF\Aug-CC-pVDZ\C2H5N3S1\OHZDE\05-Apr-2025\0\\#t hf
 aug-cc-pvdz iop(5/13=1,5/36=2,99/5=2) pseudo=read geom=check guess=(re
 ad,tcheck) scf=(maxcycle=1)\\title\\0,1\S,0,-1.746638,-0.491801,-0.024
 174\N,0,1.0691,-1.539005,0.070067\N,0,-0.321863,1.747667,0.040754\N,0,
 2.022193,0.634247,-0.054121\C,0,1.041264,-0.187875,-0.000463\C,0,-0.35
 7714,0.420697,0.009753\H,0,0.188021,-2.026997,0.000787\H,0,1.927591,-2
 .037227,-0.074943\H,0,0.590765,2.186653,0.033004\H,0,-1.174968,2.27757
 9,0.029518\H,0,2.927486,0.171511,-0.054209\\Version=ES64L-G16RevC.01\S

 Normal termination of Gaussian 16 at Sat Apr  5 22:37:48 2025.
