 Gaussian 16, Revision C.01,

 ----------------------------------------------------------------------
 #t hf aug-cc-pvdz symm=none int=(grid=ultrafine) guess=(read,tcheck) s
 table=(opt,rrhf)
 ----------------------------------------------------------------------
 -----
 title
 -----
 Symbolic Z-matrix:
 Charge =  0 Multiplicity = 1

 SCF Done:  E(RHF) =  -677.423827996     A.U. after   16 cycles
 Normal termination of Gaussian 16 at Sat Apr  5 22:37:48 2025.
 Gaussian 16:  ES64L-G16RevC.01  3-Jul-2019

 ----------------------------------------------------------------------
 #t hf aug-cc-pvdz iop(5/13=1,5/36=2,99/5=2) pseudo=read geom=check gue
 ss=(read,tcheck) scf=(maxcycle=1)
 ----------------------------------------------------------------------
 -----
 title
 -----
 Structure from the checkpoint file:  "2-amino-2-cyanoethanethioamide.chk"
 Charge =  0 Multiplicity = 1

                         Standard orientation:
 ---------------------------------------------------------------------
 Center     Atomic      Atomic             Coordinates (Angstroms)
 Number     Number       Type             X           Y           Z
 ---------------------------------------------------------------------
      1         16           0       -1.950591   -0.686147   -0.303940
      2          7           0        1.432922    1.428952   -0.545421
      3          7           0       -0.711841    1.245188    1.046284
      4          7           0        2.117170   -1.659656    0.627854
      5          6           0        0.684478    0.164121   -0.583266
      6          6           0       -0.693718    0.297052    0.111210
      7          6           0        1.467167   -0.871492    0.100755
      8          1           0        0.479303   -0.201586   -1.591769
      9          1           0        1.137544    2.029439   -1.305751
     10          1           0        2.426777    1.267897   -0.644579
     11          1           0       -1.552470    1.410472    1.572884
     12          1           0        0.102983    1.832653    1.159037
 ---------------------------------------------------------------------

 SCF Done:  E(RHF) =  -677.764973375     A.U. after    2 cycles

 The electronic state is 1-A.
 Alpha  occ. eigenvalues --  -93.91291 -15.56656 -15.54781 -15.53316 -11.37790
 Alpha  occ. eigenvalues --  -11.35506 -11.29857  -8.19576  -6.17441  -6.17138
 Alpha  occ. eigenvalues --   -6.17011  -1.30452  -1.25749  -1.23003  -1.07576
 Alpha  occ. eigenvalues --   -0.99752  -0.86707  -0.80620  -0.77731  -0.72038
 Alpha  occ. eigenvalues --   -0.68822  -0.67524  -0.62028  -0.57804  -0.54549
 Alpha  occ. eigenvalues --   -0.53069  -0.51752  -0.49302  -0.36897  -0.35315
 Alpha virt. eigenvalues --    0.01754   0.03559   0.04676   0.05097   0.06007
 Alpha virt. eigenvalues --    0.06328   0.08296   0.09074   0.09903   0.12018
 Alpha virt. eigenvalues --    0.12434   0.13087   0.13566   0.14822   0.15042

 Mulliken charges:
               1
     1  S    0.171804
     2  N    0.276298
     3  N    0.833195
     4  N    0.916052
     5  C   -0.809752
     6  C   -0.968471
     7  C   -1.278038
     8  H    0.229062
     9  H    0.205550
    10  H    0.223660
    11  H    0.072307
    12  H    0.128334
 Sum of Mulliken charges =  -0.00000

 Dipole moment (field-independent basis, Debye):
    X=              0.8850    Y=              5.7134    Z=             -1.5185  Tot=              5.9776

 Test job not archived.
 1\1\GINC-SE196\SP\RHF\Aug-CC-pVDZ\C3H5N3S1\OHZDE\05-Apr-2025\0\\#t hf
 aug-cc-pvdz iop(5/13=1,5/36=2,99/5=2) pseudo=read geom=check guess=(re
 ad,tcheck) scf=(maxcycle=1)\\title\\0,1\S,0,-1.950591,-0.686147,-0.303
 94\N,0,1.432922,1.428952,-0.545421\N,0,-0.711841,1.245188,1.046284\N,0
 ,2.11717,-1.659656,0.627854\C,0,0.684478,0.164121,-0.583266\C,0,-0.693
 718,0.297052,0.11121\C,0,1.467167,-0.871492,0.100755\H,0,0.479303,-0.2
 01586,-1.591769\H,0,1.137544,2.029439,-1.305751\H,0,2.426777,1.267897,
 -0.644579\H,0,-1.55247,1.410472,1.572884\H,0,0.102983,1.832653,1.15903

 Normal termination of Gaussian 16 at Sat Apr  5 22:37:54 2025.
