 Gaussian 16, Revision C.01,

 ----------------------------------------------------------------------
 #t hf aug-cc-pvdz symm=none int=(grid=ultrafine) guess=(read,tcheck) s
 table=(opt,rrhf)
 ----------------------------------------------------------------------
 -----
 title
 -----
 Symbolic Z-matrix:
 Charge =  0 Multiplicity = 1

 SCF Done:  E(RHF) =  -848.109559877     A.U. after   17 cycles
 Normal termination of Gaussian 16 at Sat Apr  5 22:38:34 2025.
 Gaussian 16:  ES64L-G16RevC.01  3-Jul-2019

 ----------------------------------------------------------------------
 #t hf aug-cc-pvdz iop(5/13=1,5/36=2,99/5=2) pseudo=read geom=check gue
 ss=(read,tcheck) scf=(maxcycle=1)
 ----------------------------------------------------------------------
 -----
 title
 -----
 Structure from the checkpoint file:  "2-amino-2-nitroso-3-sulfanylpropanoic_acid.chk"
 Charge =  0 Multiplicity = 1

                         Standard orientation:
 ---------------------------------------------------------------------
 Center     Atomic      Atomic             Coordinates (Angstroms)
 Number     Number       Type             X           Y           Z
 ---------------------------------------------------------------------
      1         16           0        2.590627   -0.398383    0.022037
      2          8           0       -1.809480   -1.599735   -0.671452
      3          8           0       -2.549580    0.115934    0.577774
      4          8           0       -0.025063    2.199939   -0.680860
      5          7           0       -0.181727    1.093324   -1.068444
      6          7           0       -0.043483    0.595039    1.433653
      7          6           0       -0.211472    0.021895    0.148750
      8          6           0       -1.585305   -0.610668   -0.028144
      9          6           0        0.874555   -0.989357   -0.229063
     10          1           0        2.628680   -0.584070    1.353771
     11          1           0       -3.394862   -0.321472    0.396688
     12          1           0       -0.824033    1.185978    1.685952
     13          1           0        0.803667    1.150378    1.462821
     14          1           0        0.792491   -1.224457   -1.287032
     15          1           0        0.726816   -1.911112    0.325783
 ---------------------------------------------------------------------

 SCF Done:  E(RHF) =  -848.608818226     A.U. after    2 cycles

 The electronic state is 1-A.
 Alpha  occ. eigenvalues --  -93.96694 -20.64267 -20.62813 -20.56900 -15.66107
 Alpha  occ. eigenvalues --  -15.52099 -11.42377 -11.34612 -11.29485  -8.24746
 Alpha  occ. eigenvalues --   -6.22591  -6.22449  -6.22227  -1.63271  -1.57743
 Alpha  occ. eigenvalues --   -1.48428  -1.24852  -1.10470  -1.04526  -0.95070
 Alpha  occ. eigenvalues --   -0.90846  -0.81557  -0.76636  -0.76228  -0.74208
 Alpha  occ. eigenvalues --   -0.71045  -0.69056  -0.66072  -0.63932  -0.61997
 Alpha  occ. eigenvalues --   -0.61564  -0.59084  -0.54809  -0.51158  -0.50571
 Alpha  occ. eigenvalues --   -0.48536  -0.47669  -0.40994  -0.38401
 Alpha virt. eigenvalues --    0.03177   0.04076   0.04809   0.05105   0.05767
 Alpha virt. eigenvalues --    0.05954   0.07224   0.08953   0.10342   0.10956
 Alpha virt. eigenvalues --    0.11368   0.12899   0.13430   0.13763   0.14022

 Mulliken charges:
               1
     1  S    0.103162
     2  O   -1.235264
     3  O   -1.355572
     4  O   -1.071832
     5  N    1.330193
     6  N    0.804689
     7  C   -2.073337
     8  C    2.468406
     9  C   -0.653553
    10  H    0.355124
    11  H    0.389318
    12  H    0.241902
    13  H    0.280277
    14  H    0.284786
    15  H    0.131702
 Sum of Mulliken charges =  -0.00000

 Dipole moment (field-independent basis, Debye):
    X=             -1.2585    Y=              0.1530    Z=              2.4450  Tot=              2.7542

 Test job not archived.
 1\1\GINC-SE188\SP\RHF\Aug-CC-pVDZ\C3H6N2O3S1\OHZDE\05-Apr-2025\0\\#t h
 f aug-cc-pvdz iop(5/13=1,5/36=2,99/5=2) pseudo=read geom=check guess=(
 read,tcheck) scf=(maxcycle=1)\\title\\0,1\S,0,2.590627,-0.398383,0.022
 037\O,0,-1.80948,-1.599735,-0.671452\O,0,-2.54958,0.115934,0.577774\O,
 0,-0.025063,2.199939,-0.68086\N,0,-0.181727,1.093324,-1.068444\N,0,-0.
 043483,0.595039,1.433653\C,0,-0.211472,0.021895,0.14875\C,0,-1.585305,
 -0.610668,-0.028144\C,0,0.874555,-0.989357,-0.229063\H,0,2.62868,-0.58
 407,1.353771\H,0,-3.394862,-0.321472,0.396688\H,0,-0.824033,1.185978,1

 Normal termination of Gaussian 16 at Sat Apr  5 22:39:14 2025.
