 Gaussian 16, Revision C.01,

 ----------------------------------------------------------------------
 #t hf aug-cc-pvdz symm=none int=(grid=ultrafine) guess=(read,tcheck) s
 table=(opt,rrhf)
 ----------------------------------------------------------------------
 -----
 title
 -----
 Symbolic Z-matrix:
 Charge =  0 Multiplicity = 1

 SCF Done:  E(RHF) =  -519.656105747     A.U. after   14 cycles
 Normal termination of Gaussian 16 at Sat Apr  5 22:36:36 2025.
 Gaussian 16:  ES64L-G16RevC.01  3-Jul-2019

 ----------------------------------------------------------------------
 #t hf aug-cc-pvdz iop(5/13=1,5/36=2,99/5=2) pseudo=read geom=check gue
 ss=(read,tcheck) scf=(maxcycle=1)
 ----------------------------------------------------------------------
 -----
 title
 -----
 Structure from the checkpoint file:  "2-amino-3-3-difluoropropanoic_acid.chk"
 Charge =  0 Multiplicity = 1

                         Standard orientation:
 ---------------------------------------------------------------------
 Center     Atomic      Atomic             Coordinates (Angstroms)
 Number     Number       Type             X           Y           Z
 ---------------------------------------------------------------------
      1          9           0       -1.745208   -0.927739   -0.493927
      2          9           0       -1.346524    0.380082    1.235265
      3          8           0        2.196225   -0.085244    0.474269
      4          8           0        0.848450   -1.764507   -0.054074
      5          7           0        0.475358    1.931411   -0.401493
      6          6           0        0.139589    0.538365   -0.608811
      7          6           0       -1.288396    0.325650   -0.123236
      8          6           0        1.157136   -0.455672    0.009476
      9          1           0       -0.057623   -1.892498   -0.368997
     10          1           0        1.337386    2.150616   -0.884107
     11          1           0        0.664237    2.091296    0.582030
     12          1           0        0.119355    0.341464   -1.684857
     13          1           0       -1.972645    1.066109   -0.531789
 ---------------------------------------------------------------------

 SCF Done:  E(RHF) =  -520.158335858     A.U. after    2 cycles

 The electronic state is 1-A.
 Alpha  occ. eigenvalues --  -26.51294 -26.50442 -20.60988 -20.54969 -15.52175
 Alpha  occ. eigenvalues --  -11.44889 -11.40883 -11.32534  -1.67243  -1.60603
 Alpha  occ. eigenvalues --   -1.55680  -1.47045  -1.23427  -1.05145  -0.93717
 Alpha  occ. eigenvalues --   -0.85143  -0.81128  -0.78668  -0.77139  -0.74721
 Alpha  occ. eigenvalues --   -0.71451  -0.68008  -0.67268  -0.64723  -0.63219
 Alpha  occ. eigenvalues --   -0.63072  -0.60950  -0.58754  -0.55021  -0.49415
 Alpha  occ. eigenvalues --   -0.48499  -0.44983
 Alpha virt. eigenvalues --    0.02957   0.04229   0.04547   0.05575   0.06908
 Alpha virt. eigenvalues --    0.08908   0.10065   0.10694   0.10928   0.13385
 Alpha virt. eigenvalues --    0.13677   0.13995   0.14757   0.15291   0.16456

 Mulliken charges:
               1
     1  F   -0.784212
     2  F   -0.737114
     3  O   -1.219616
     4  O   -1.372181
     5  N    0.554921
     6  C   -2.150060
     7  C    1.930900
     8  C    2.525598
     9  H    0.480035
    10  H    0.219390
    11  H    0.228421
    12  H    0.245480
    13  H    0.078438
 Sum of Mulliken charges =  -0.00000

 Dipole moment (field-independent basis, Debye):
    X=             -2.1518    Y=              1.1227    Z=             -2.5066  Tot=              3.4891

 Test job not archived.
 1\1\GINC-SE187\SP\RHF\Aug-CC-pVDZ\C3H5F2N1O2\OHZDE\05-Apr-2025\0\\#t h
 f aug-cc-pvdz iop(5/13=1,5/36=2,99/5=2) pseudo=read geom=check guess=(
 read,tcheck) scf=(maxcycle=1)\\title\\0,1\F,0,-1.745208,-0.927739,-0.4
 93927\F,0,-1.346524,0.380082,1.235265\O,0,2.196225,-0.085244,0.474269\
 O,0,0.84845,-1.764507,-0.054074\N,0,0.475358,1.931411,-0.401493\C,0,0.
 139589,0.538365,-0.608811\C,0,-1.288396,0.32565,-0.123236\C,0,1.157136
 ,-0.455672,0.009476\H,0,-0.057623,-1.892498,-0.368997\H,0,1.337386,2.1
 50616,-0.884107\H,0,0.664237,2.091296,0.58203\H,0,0.119355,0.341464,-1

 Normal termination of Gaussian 16 at Sat Apr  5 22:37:35 2025.
