 Gaussian 16, Revision C.01,

 ----------------------------------------------------------------------
 #t hf aug-cc-pvdz symm=none int=(grid=ultrafine) guess=(read,tcheck) s
 table=(opt,rrhf)
 ----------------------------------------------------------------------
 -----
 title
 -----
 Symbolic Z-matrix:
 Charge =  0 Multiplicity = 1

 SCF Done:  E(RHF) =  -398.096540600     A.U. after   15 cycles

 1\1\GINC-SE045\Stability\RHF\Aug-CC-pVDZ\C6H13N3\OHZDE\05-Apr-2025\0\\
 #t hf aug-cc-pvdz symm=none int=(grid=ultrafine) guess=(read,tcheck) s
 table=(opt,rrhf)\\title\\0,1\N,0,0.859731,-0.762092,-0.40339\N,0,2.049
 387,-0.946307,-0.188347\N,0,3.137721,-1.220267,-0.036056\C,0,0.291648,
 0.571345,0.01207\C,0,-1.196524,0.509338,-0.367515\C,0,0.982348,1.68295
 ,-0.785949\C,0,0.502842,0.782356,1.515246\C,0,-2.032716,-0.571619,0.31
 84\C,0,-3.460252,-0.628326,-0.225082\H,0,-1.25303,0.365417,-1.449882\H
 ,0,-1.630745,1.492153,-0.162114\H,0,0.564501,2.654726,-0.520022\H,0,2.

 Normal termination of Gaussian 16 at Sat Apr  5 22:38:10 2025.
 Gaussian 16:  ES64L-G16RevC.01  3-Jul-2019

 ----------------------------------------------------------------------
 #t hf aug-cc-pvdz iop(5/13=1,5/36=2,99/5=2) pseudo=read geom=check gue
 ss=(read,tcheck) scf=(maxcycle=1)
 ----------------------------------------------------------------------
 -----
 title
 -----
 Structure from the checkpoint file:  "2-azido-2-methylpentane.chk"
 Charge =  0 Multiplicity = 1

                         Standard orientation:
 ---------------------------------------------------------------------
 Center     Atomic      Atomic             Coordinates (Angstroms)
 Number     Number       Type             X           Y           Z
 ---------------------------------------------------------------------
      1          7           0        0.859731   -0.762092   -0.403390
      2          7           0        2.049387   -0.946307   -0.188347
      3          7           0        3.137721   -1.220267   -0.036056
      4          6           0        0.291648    0.571345    0.012070
      5          6           0       -1.196524    0.509338   -0.367515
      6          6           0        0.982348    1.682950   -0.785949
      7          6           0        0.502842    0.782356    1.515246
      8          6           0       -2.032716   -0.571619    0.318400
      9          6           0       -3.460252   -0.628326   -0.225082
     10          1           0       -1.253030    0.365417   -1.449882
     11          1           0       -1.630745    1.492153   -0.162114
     12          1           0        0.564501    2.654726   -0.520022
     13          1           0        2.052937    1.712880   -0.577082
     14          1           0        0.845343    1.530789   -1.856315
     15          1           0        0.024062    1.708878    1.835252
     16          1           0        1.564949    0.858780    1.752680
     17          1           0        0.084771   -0.038464    2.094828
     18          1           0       -1.547898   -1.539559    0.179221
     19          1           0       -2.067572   -0.392248    1.395396
     20          1           0       -3.978282    0.323071   -0.084883
     21          1           0       -3.466515   -0.852334   -1.293656
     22          1           0       -4.044468   -1.399694    0.278104
 ---------------------------------------------------------------------

 SCF Done:  E(RHF) =  -398.517595361     A.U. after    2 cycles

 The electronic state is 1-A.
 Alpha  occ. eigenvalues --  -15.71490 -15.59460 -15.53630 -11.29520 -11.23488
 Alpha  occ. eigenvalues --  -11.23456 -11.23240 -11.22574 -11.22282  -1.50503
 Alpha  occ. eigenvalues --   -1.32182  -1.12071  -1.04284  -0.95599  -0.93752
 Alpha  occ. eigenvalues --   -0.87393  -0.81538  -0.75319  -0.75051  -0.72024
 Alpha  occ. eigenvalues --   -0.69412  -0.63642  -0.62599  -0.60723  -0.58499
 Alpha  occ. eigenvalues --   -0.56948  -0.56014  -0.54337  -0.53144  -0.51741
 Alpha  occ. eigenvalues --   -0.48717  -0.48125  -0.47347  -0.45682  -0.41851
 Alpha virt. eigenvalues --    0.03415   0.03584   0.03738   0.04043   0.04930
 Alpha virt. eigenvalues --    0.05078   0.06649   0.07018   0.07374   0.08399
 Alpha virt. eigenvalues --    0.08539   0.09157   0.09725   0.11144   0.11255

 Mulliken charges:
               1
     1  N    0.607300
     2  N   -1.193634
     3  N    1.009748
     4  C   -3.439385
     5  C    0.285830
     6  C    0.443026
     7  C    0.294303
     8  C   -0.088163
     9  C   -0.504627
    10  H    0.176702
    11  H    0.145730
    12  H    0.313058
    13  H    0.211732
    14  H    0.254776
    15  H    0.284039
    16  H    0.236656
    17  H    0.224067
    18  H    0.189366
    19  H    0.092572
    20  H    0.170586
    21  H    0.168778
    22  H    0.117542
 Sum of Mulliken charges =  -0.00000

 Dipole moment (field-independent basis, Debye):
    X=             -1.4979    Y=              2.1072    Z=              0.6116  Tot=              2.6567

 Test job not archived.
 1\1\GINC-SE045\SP\RHF\Aug-CC-pVDZ\C6H13N3\OHZDE\05-Apr-2025\0\\#t hf a
 ug-cc-pvdz iop(5/13=1,5/36=2,99/5=2) pseudo=read geom=check guess=(rea
 d,tcheck) scf=(maxcycle=1)\\title\\0,1\N,0,0.859731,-0.762092,-0.40339
 \N,0,2.049387,-0.946307,-0.188347\N,0,3.137721,-1.220267,-0.036056\C,0
 ,0.291648,0.571345,0.01207\C,0,-1.196524,0.509338,-0.367515\C,0,0.9823
 48,1.68295,-0.785949\C,0,0.502842,0.782356,1.515246\C,0,-2.032716,-0.5
 71619,0.3184\C,0,-3.460252,-0.628326,-0.225082\H,0,-1.25303,0.365417,-
 1.449882\H,0,-1.630745,1.492153,-0.162114\H,0,0.564501,2.654726,-0.520

 Normal termination of Gaussian 16 at Sat Apr  5 22:38:43 2025.
