 Gaussian 16, Revision C.01,

 ----------------------------------------------------------------------
 #t hf aug-cc-pvdz symm=none int=(grid=ultrafine) guess=(read,tcheck) s
 table=(opt,rrhf)
 ----------------------------------------------------------------------
 -----
 title
 -----
 Symbolic Z-matrix:
 Charge =  0 Multiplicity = 1

 SCF Done:  E(RHF) =  -714.027947301     A.U. after   18 cycles
 Normal termination of Gaussian 16 at Sat Apr  5 22:36:30 2025.
 Gaussian 16:  ES64L-G16RevC.01  3-Jul-2019

 ----------------------------------------------------------------------
 #t hf aug-cc-pvdz iop(5/13=1,5/36=2,99/5=2) pseudo=read geom=check gue
 ss=(read,tcheck) scf=(maxcycle=1)
 ----------------------------------------------------------------------
 -----
 title
 -----
 Structure from the checkpoint file:  "2-azidothiophene.chk"
 Charge =  0 Multiplicity = 1

                         Standard orientation:
 ---------------------------------------------------------------------
 Center     Atomic      Atomic             Coordinates (Angstroms)
 Number     Number       Type             X           Y           Z
 ---------------------------------------------------------------------
      1         16           0       -1.312415   -1.115521   -0.000006
      2          7           0        1.348922   -0.797364    0.000029
      3          7           0        2.371560   -0.112910   -0.000008
      4          7           0        3.375724    0.402319   -0.000020
      5          6           0        0.117911   -0.130110    0.000011
      6          6           0       -0.182896    1.205002    0.000013
      7          6           0       -2.320123    0.290783   -0.000010
      8          6           0       -1.585097    1.436766    0.000000
      9          1           0        0.562508    1.986411    0.000024
     10          1           0       -3.390599    0.180287   -0.000019
     11          1           0       -2.025487    2.422671    0.000000
 ---------------------------------------------------------------------

 SCF Done:  E(RHF) =  -714.398665285     A.U. after    2 cycles

 The electronic state is 1-A.
 Alpha  occ. eigenvalues --  -93.98760 -15.74350 -15.63425 -15.57544 -11.32801
 Alpha  occ. eigenvalues --  -11.27440 -11.25649 -11.25145  -8.26952  -6.24717
 Alpha  occ. eigenvalues --   -6.24624  -6.24399  -1.53850  -1.36021  -1.19982
 Alpha  occ. eigenvalues --   -1.03853  -1.01928  -0.90280  -0.80509  -0.78189
 Alpha  occ. eigenvalues --   -0.76326  -0.74947  -0.73213  -0.65071  -0.58697
 Alpha  occ. eigenvalues --   -0.56989  -0.56834  -0.51755  -0.49611  -0.48357
 Alpha  occ. eigenvalues --   -0.36792  -0.32516
 Alpha virt. eigenvalues --    0.03544   0.03835   0.04530   0.05614   0.05795
 Alpha virt. eigenvalues --    0.08393   0.08827   0.10552   0.10896   0.12009
 Alpha virt. eigenvalues --    0.12294   0.12683   0.13026   0.14178   0.14209

 Mulliken charges:
               1
     1  S    0.855553
     2  N    0.591634
     3  N   -1.598325
     4  N    1.150837
     5  C   -1.490809
     6  C    1.158230
     7  C   -0.412589
     8  C    0.194110
     9  H   -0.155149
    10  H   -0.158661
    11  H   -0.134830
 Sum of Mulliken charges =  -0.00000

 Dipole moment (field-independent basis, Debye):
    X=             -1.3042    Y=              1.5798    Z=             -0.0000  Tot=              2.0486

 Test job not archived.
 1\1\GINC-SE177\SP\RHF\Aug-CC-pVDZ\C4H3N3S1\OHZDE\05-Apr-2025\0\\#t hf
 aug-cc-pvdz iop(5/13=1,5/36=2,99/5=2) pseudo=read geom=check guess=(re
 ad,tcheck) scf=(maxcycle=1)\\title\\0,1\S,0,-1.312415,-1.115521,-0.000
 006\N,0,1.348922,-0.797364,0.000029\N,0,2.37156,-0.11291,-0.000008\N,0
 ,3.375724,0.402319,-0.00002\C,0,0.117911,-0.13011,0.000011\C,0,-0.1828
 96,1.205002,0.000013\C,0,-2.320123,0.290783,-0.00001\C,0,-1.585097,1.4
 36766,0.\H,0,0.562508,1.986411,0.000024\H,0,-3.390599,0.180287,-0.0000
 19\H,0,-2.025487,2.422671,0.\\Version=ES64L-G16RevC.01\State=1-A\HF=-7

 Normal termination of Gaussian 16 at Sat Apr  5 22:37:39 2025.
