 Gaussian 16, Revision C.01,

 ----------------------------------------------------------------------
 #t hf aug-cc-pvdz symm=none int=(grid=ultrafine) guess=(read,tcheck) s
 table=(opt,rrhf)
 ----------------------------------------------------------------------
 -----
 title
 -----
 Symbolic Z-matrix:
 Charge =  0 Multiplicity = 1

 SCF Done:  E(RHF) =  -469.455911468     A.U. after   17 cycles
 Normal termination of Gaussian 16 at Sat Apr  5 22:37:43 2025.
 Gaussian 16:  ES64L-G16RevC.01  3-Jul-2019

 ----------------------------------------------------------------------
 #t hf aug-cc-pvdz iop(5/13=1,5/36=2,99/5=2) pseudo=read geom=check gue
 ss=(read,tcheck) scf=(maxcycle=1)
 ----------------------------------------------------------------------
 -----
 title
 -----
 Structure from the checkpoint file:  "2-azidocyclopentene-1-carbaldehyde.chk"
 Charge =  0 Multiplicity = 1

                         Standard orientation:
 ---------------------------------------------------------------------
 Center     Atomic      Atomic             Coordinates (Angstroms)
 Number     Number       Type             X           Y           Z
 ---------------------------------------------------------------------
      1          8           0       -2.841359   -1.632448   -0.003270
      2          7           0        1.285402   -0.975322   -0.019771
      3          7           0        2.484031   -0.680505   -0.010863
      4          7           0        3.605627   -0.567935   -0.006143
      5          6           0        0.339502    0.047766    0.013908
      6          6           0       -0.993794   -0.172117    0.008810
      7          6           0        0.682021    1.512322    0.110918
      8          6           0       -1.750128    1.127746    0.107057
      9          6           0       -0.671031    2.199116   -0.176680
     10          6           0       -1.636105   -1.476759   -0.036351
     11          1           0        1.467801    1.806010   -0.588127
     12          1           0        1.055913    1.737532    1.115662
     13          1           0       -2.583844    1.169965   -0.593065
     14          1           0       -2.183781    1.237766    1.105376
     15          1           0       -0.710080    2.486415   -1.227487
     16          1           0       -0.808422    3.103763    0.412368
     17          1           0       -0.954916   -2.343981   -0.107093
 ---------------------------------------------------------------------

 SCF Done:  E(RHF) =  -469.927026095     A.U. after    2 cycles

 The electronic state is 1-A.
 Alpha  occ. eigenvalues --  -20.53340 -15.75480 -15.64462 -15.58182 -11.33226
 Alpha  occ. eigenvalues --  -11.32165 -11.26669 -11.25043 -11.24415 -11.24288
 Alpha  occ. eigenvalues --   -1.54935  -1.45987  -1.36767  -1.17402  -1.04174
 Alpha  occ. eigenvalues --   -1.00905  -0.90788  -0.86338  -0.81868  -0.79145
 Alpha  occ. eigenvalues --   -0.78437  -0.75098  -0.72029  -0.67341  -0.65007
 Alpha  occ. eigenvalues --   -0.61523  -0.59038  -0.58584  -0.55669  -0.53890
 Alpha  occ. eigenvalues --   -0.51370  -0.51069  -0.50321  -0.49521  -0.41378
 Alpha  occ. eigenvalues --   -0.35035
 Alpha virt. eigenvalues --    0.02884   0.03618   0.03667   0.04264   0.04571
 Alpha virt. eigenvalues --    0.05458   0.05977   0.06294   0.07254   0.08477
 Alpha virt. eigenvalues --    0.09841   0.10780   0.10800   0.12048   0.12228

 Mulliken charges:
               1
     1  O   -1.338231
     2  N    0.278423
     3  N   -1.123029
     4  N    1.028382
     5  C   -1.434181
     6  C    1.050123
     7  C   -0.161515
     8  C   -0.738826
     9  C   -0.122090
    10  C    1.345292
    11  H    0.213145
    12  H    0.260690
    13  H    0.179565
    14  H    0.238855
    15  H    0.112100
    16  H    0.116372
    17  H    0.094925
 Sum of Mulliken charges =  -0.00000

 Dipole moment (field-independent basis, Debye):
    X=              2.8337    Y=              3.0780    Z=              0.0731  Tot=              4.1845

 Test job not archived.
 1\1\GINC-SE046\SP\RHF\Aug-CC-pVDZ\C6H7N3O1\OHZDE\05-Apr-2025\0\\#t hf
 aug-cc-pvdz iop(5/13=1,5/36=2,99/5=2) pseudo=read geom=check guess=(re
 ad,tcheck) scf=(maxcycle=1)\\title\\0,1\O,0,-2.841359,-1.632448,-0.003
 27\N,0,1.285402,-0.975322,-0.019771\N,0,2.484031,-0.680505,-0.010863\N
 ,0,3.605627,-0.567935,-0.006143\C,0,0.339502,0.047766,0.013908\C,0,-0.
 993794,-0.172117,0.00881\C,0,0.682021,1.512322,0.110918\C,0,-1.750128,
 1.127746,0.107057\C,0,-0.671031,2.199116,-0.17668\C,0,-1.636105,-1.476
 759,-0.036351\H,0,1.467801,1.80601,-0.588127\H,0,1.055913,1.737532,1.1

 Normal termination of Gaussian 16 at Sat Apr  5 22:37:51 2025.
