 Gaussian 16, Revision C.01,

 ----------------------------------------------------------------------
 #t hf aug-cc-pvdz symm=none int=(grid=ultrafine) guess=(read,tcheck) s
 table=(opt,rrhf)
 ----------------------------------------------------------------------
 -----
 title
 -----
 Symbolic Z-matrix:
 Charge =  0 Multiplicity = 1

 SCF Done:  E(RHF) =  -385.122281437     A.U. after   12 cycles

 1\1\GINC-SE106\Stability\RHF\Aug-CC-pVDZ\C6H14O2\OHZDE\05-Apr-2025\0\\
 #t hf aug-cc-pvdz symm=none int=(grid=ultrafine) guess=(read,tcheck) s
 table=(opt,rrhf)\\title\\0,1\C,0,4.089165,0.588477,0.122469\C,0,2.9239
 03,-0.328181,-0.246075\C,0,1.567017,0.231891,0.182347\C,0,0.411798,-0.
 680523,-0.186833\C,0,-3.172463,-0.05612,0.344075\C,0,-1.956993,-0.8596
 46,-0.067429\O,0,-3.273599,1.167332,-0.370804\O,0,-0.806302,-0.090619,
 0.241637\H,0,3.988063,1.565495,-0.353995\H,0,4.136511,0.751152,1.20092
 4\H,0,5.043295,0.163461,-0.191317\H,0,2.923021,-0.497172,-1.326931\H,0

 Normal termination of Gaussian 16 at Sat Apr  5 22:37:34 2025.
 Gaussian 16:  ES64L-G16RevC.01  3-Jul-2019

 ----------------------------------------------------------------------
 #t hf aug-cc-pvdz iop(5/13=1,5/36=2,99/5=2) pseudo=read geom=check gue
 ss=(read,tcheck) scf=(maxcycle=1)
 ----------------------------------------------------------------------
 -----
 title
 -----
 Structure from the checkpoint file:  "2-butoxyethanol.chk"
 Charge =  0 Multiplicity = 1

                         Standard orientation:
 ---------------------------------------------------------------------
 Center     Atomic      Atomic             Coordinates (Angstroms)
 Number     Number       Type             X           Y           Z
 ---------------------------------------------------------------------
      1          6           0        4.089165    0.588477    0.122469
      2          6           0        2.923903   -0.328181   -0.246075
      3          6           0        1.567017    0.231891    0.182347
      4          6           0        0.411798   -0.680523   -0.186833
      5          6           0       -3.172463   -0.056120    0.344075
      6          6           0       -1.956993   -0.859646   -0.067429
      7          8           0       -3.273599    1.167332   -0.370804
      8          8           0       -0.806302   -0.090619    0.241637
      9          1           0        3.988063    1.565495   -0.353995
     10          1           0        4.136511    0.751152    1.200924
     11          1           0        5.043295    0.163461   -0.191317
     12          1           0        2.923021   -0.497172   -1.326931
     13          1           0        3.074567   -1.308953    0.214777
     14          1           0        1.555650    0.393751    1.263323
     15          1           0        1.405218    1.208369   -0.282062
     16          1           0        0.381813   -0.843154   -1.272776
     17          1           0        0.532797   -1.663858    0.288024
     18          1           0       -3.138051    0.127329    1.424009
     19          1           0       -4.077395   -0.622897    0.124143
     20          1           0       -1.992298   -1.069512   -1.143946
     21          1           0       -1.937954   -1.816743    0.471425
     22          1           0       -2.430595    1.623640   -0.273584
 ---------------------------------------------------------------------

 SCF Done:  E(RHF) =  -385.534843545     A.U. after    2 cycles

 The electronic state is 1-A.
 Alpha  occ. eigenvalues --  -20.54840 -20.53910 -11.28553 -11.28489 -11.28091
 Alpha  occ. eigenvalues --  -11.23305 -11.22880 -11.22578  -1.46889  -1.43532
 Alpha  occ. eigenvalues --   -1.08414  -1.02090  -0.96670  -0.86665  -0.83715
 Alpha  occ. eigenvalues --   -0.80466  -0.69985  -0.68847  -0.66283  -0.64847
 Alpha  occ. eigenvalues --   -0.62112  -0.59515  -0.58829  -0.56497  -0.55574
 Alpha  occ. eigenvalues --   -0.52327  -0.51132  -0.49247  -0.48444  -0.47811
 Alpha  occ. eigenvalues --   -0.47327  -0.43433  -0.42330
 Alpha virt. eigenvalues --    0.03352   0.03518   0.03682   0.04223   0.04946
 Alpha virt. eigenvalues --    0.05489   0.05946   0.06617   0.07434   0.08131
 Alpha virt. eigenvalues --    0.08574   0.09216   0.10400   0.10860   0.11831

 Mulliken charges:
               1
     1  C   -0.405611
     2  C   -0.137396
     3  C   -0.407332
     4  C    0.820959
     5  C    0.498396
     6  C    0.141533
     7  O   -1.150741
     8  O   -1.443911
     9  H    0.162524
    10  H    0.163386
    11  H    0.111666
    12  H    0.113934
    13  H    0.115596
    14  H    0.107104
    15  H    0.115876
    16  H    0.126176
    17  H    0.129585
    18  H    0.142554
    19  H    0.074685
    20  H    0.190765
    21  H    0.166778
    22  H    0.363475
 Sum of Mulliken charges =  -0.00000

 Dipole moment (field-independent basis, Debye):
    X=              1.8359    Y=             -1.7474    Z=              0.2433  Tot=              2.5462

 Test job not archived.
 1\1\GINC-SE106\SP\RHF\Aug-CC-pVDZ\C6H14O2\OHZDE\05-Apr-2025\0\\#t hf a
 ug-cc-pvdz iop(5/13=1,5/36=2,99/5=2) pseudo=read geom=check guess=(rea
 d,tcheck) scf=(maxcycle=1)\\title\\0,1\C,0,4.089165,0.588477,0.122469\
 C,0,2.923903,-0.328181,-0.246075\C,0,1.567017,0.231891,0.182347\C,0,0.
 411798,-0.680523,-0.186833\C,0,-3.172463,-0.05612,0.344075\C,0,-1.9569
 93,-0.859646,-0.067429\O,0,-3.273599,1.167332,-0.370804\O,0,-0.806302,
 -0.090619,0.241637\H,0,3.988063,1.565495,-0.353995\H,0,4.136511,0.7511
 52,1.200924\H,0,5.043295,0.163461,-0.191317\H,0,2.923021,-0.497172,-1.

 Normal termination of Gaussian 16 at Sat Apr  5 22:37:44 2025.
