 Gaussian 16, Revision C.01,

 ----------------------------------------------------------------------
 #t hf aug-cc-pvdz symm=none int=(grid=ultrafine) guess=(read,tcheck) s
 table=(opt,rrhf)
 ----------------------------------------------------------------------
 -----
 title
 -----
 Symbolic Z-matrix:
 Charge =  0 Multiplicity = 1

 SCF Done:  E(RHF) =  -453.345984396     A.U. after   13 cycles
 Normal termination of Gaussian 16 at Sat Apr  5 22:37:52 2025.
 Gaussian 16:  ES64L-G16RevC.01  3-Jul-2019

 ----------------------------------------------------------------------
 #t hf aug-cc-pvdz iop(5/13=1,5/36=2,99/5=2) pseudo=read geom=check gue
 ss=(read,tcheck) scf=(maxcycle=1)
 ----------------------------------------------------------------------
 -----
 title
 -----
 Structure from the checkpoint file:  "2-butenedioic_acid.chk"
 Charge =  0 Multiplicity = 1

                         Standard orientation:
 ---------------------------------------------------------------------
 Center     Atomic      Atomic             Coordinates (Angstroms)
 Number     Number       Type             X           Y           Z
 ---------------------------------------------------------------------
      1          6           0        0.031152    1.911320    0.000000
      2          6           0        0.450591    0.488912    0.000000
      3          6           0       -0.450591   -0.488912    0.000000
      4          6           0       -0.031152   -1.911320    0.000000
      5          8           0        1.105518   -2.312587    0.000000
      6          8           0       -1.105518    2.312587    0.000000
      7          8           0        1.105518    2.733674    0.000000
      8          8           0       -1.105518   -2.733674    0.000000
      9          1           0        1.509349    0.269845    0.000000
     10          1           0       -1.509349   -0.269845    0.000000
     11          1           0        0.771942    3.643174    0.000000
     12          1           0       -0.771942   -3.643174    0.000000
 ---------------------------------------------------------------------

 SCF Done:  E(RHF) =  -453.788701166     A.U. after    2 cycles

 The electronic state is 1-AG.
 Alpha  occ. eigenvalues --  -20.61813 -20.61812 -20.55582 -20.55582 -11.41728
 Alpha  occ. eigenvalues --  -11.41727 -11.29239 -11.29113  -1.56562  -1.56410
 Alpha  occ. eigenvalues --   -1.47041  -1.46987  -1.12490  -0.97773  -0.87270
 Alpha  occ. eigenvalues --   -0.77633  -0.76195  -0.73006  -0.71404  -0.68913
 Alpha  occ. eigenvalues --   -0.65277  -0.64310  -0.61889  -0.61594  -0.58325
 Alpha  occ. eigenvalues --   -0.50278  -0.49452  -0.46951  -0.46786  -0.42448
 Alpha virt. eigenvalues --    0.02995   0.03390   0.03631   0.05471   0.05475
 Alpha virt. eigenvalues --    0.08852   0.10157   0.10844   0.11298   0.12517
 Alpha virt. eigenvalues --    0.13454   0.14139   0.14428   0.15337   0.16273

 Mulliken charges:
               1
     1  C    1.892507
     2  C    0.483856
     3  C    0.483856
     4  C    1.892507
     5  O   -1.312768
     6  O   -1.312768
     7  O   -1.409903
     8  O   -1.409903
     9  H   -0.152957
    10  H   -0.152957
    11  H    0.499265
    12  H    0.499265
 Sum of Mulliken charges =  -0.00000

 Dipole moment (field-independent basis, Debye):
    X=             -0.0000    Y=              0.0000    Z=              0.0000  Tot=              0.0000

 Test job not archived.
 1\1\GINC-SE011\SP\RHF\Aug-CC-pVDZ\C4H4O4\OHZDE\05-Apr-2025\0\\#t hf au
 g-cc-pvdz iop(5/13=1,5/36=2,99/5=2) pseudo=read geom=check guess=(read
 ,tcheck) scf=(maxcycle=1)\\title\\0,1\C,0,0.031152,1.91132,0.\C,0,0.45
 0591,0.488912,0.\C,0,-0.450591,-0.488912,0.\C,0,-0.031152,-1.91132,0.\
 O,0,1.105518,-2.312587,0.\O,0,-1.105518,2.312587,0.\O,0,1.105518,2.733
 674,0.\O,0,-1.105518,-2.733674,0.\H,0,1.509349,0.269845,0.\H,0,-1.5093
 49,-0.269845,0.\H,0,0.771942,3.643174,0.\H,0,-0.771942,-3.643174,0.\\V
 ersion=ES64L-G16RevC.01\State=1-AG\HF=-453.7887012\RMSD=2.935e-02\Dipo

 Normal termination of Gaussian 16 at Sat Apr  5 22:37:56 2025.
