 Gaussian 16, Revision C.01,

 ----------------------------------------------------------------------
 #t hf aug-cc-pvdz symm=none int=(grid=ultrafine) guess=(read,tcheck) s
 table=(opt,rrhf)
 ----------------------------------------------------------------------
 -----
 title
 -----
 Symbolic Z-matrix:
 Charge =  0 Multiplicity = 1

 SCF Done:  E(RHF) =  -260.296243528     A.U. after   11 cycles
 Normal termination of Gaussian 16 at Sat Apr  5 22:37:37 2025.
 Gaussian 16:  ES64L-G16RevC.01  3-Jul-2019

 ----------------------------------------------------------------------
 #t hf aug-cc-pvdz iop(5/13=1,5/36=2,99/5=2) pseudo=read geom=check gue
 ss=(read,tcheck) scf=(maxcycle=1)
 ----------------------------------------------------------------------
 -----
 title
 -----
 Structure from the checkpoint file:  "2-butynedinitrile.chk"
 Charge =  0 Multiplicity = 1

                         Standard orientation:
 ---------------------------------------------------------------------
 Center     Atomic      Atomic             Coordinates (Angstroms)
 Number     Number       Type             X           Y           Z
 ---------------------------------------------------------------------
      1          6           0        0.000000    0.000000    0.603507
      2          6           0        0.000000    0.000000   -0.603507
      3          6           0        0.000000    0.000000    1.966164
      4          6           0        0.000000    0.000000   -1.966164
      5          7           0        0.000000    0.000000    3.122257
      6          7           0        0.000000    0.000000   -3.122257
 ---------------------------------------------------------------------

 SCF Done:  E(RHF) =  -260.541737576     A.U. after    2 cycles

 The electronic state is 1-SGG.
 Alpha  occ. eigenvalues --  -15.58262 -15.58212 -11.36182 -11.35838 -11.34700
 Alpha  occ. eigenvalues --  -11.34692  -1.29237  -1.29001  -1.15353  -1.00206
 Alpha  occ. eigenvalues --   -0.90539  -0.66705  -0.66479  -0.62249  -0.62249
 Alpha  occ. eigenvalues --   -0.57917  -0.57917  -0.46874  -0.46874
 Alpha virt. eigenvalues --   -0.00625  -0.00625   0.04377   0.05393   0.08604
 Alpha virt. eigenvalues --    0.08604   0.09821   0.10244   0.10244   0.12789
 Alpha virt. eigenvalues --    0.15690   0.15690   0.18604   0.19160   0.19160

 Mulliken charges:
               1
     1  C    1.432033
     2  C    1.432033
     3  C   -2.301651
     4  C   -2.301651
     5  N    0.869618
     6  N    0.869618
 Sum of Mulliken charges =   0.00000

 Dipole moment (field-independent basis, Debye):
    X=             -0.0000    Y=             -0.0000    Z=              0.0000  Tot=              0.0000

 Test job not archived.
 1\1\GINC-SE107\SP\RHF\Aug-CC-pVDZ\C4N2\OHZDE\05-Apr-2025\0\\#t hf aug-
 cc-pvdz iop(5/13=1,5/36=2,99/5=2) pseudo=read geom=check guess=(read,t
 check) scf=(maxcycle=1)\\title\\0,1\C,0,0.,0.,0.603507\C,0,0.,0.,-0.60
 3507\C,0,0.,0.,1.966164\C,0,0.,0.,-1.966164\N,0,0.,0.,3.122257\N,0,0.,
 0.,-3.122257\\Version=ES64L-G16RevC.01\State=1-SGG\HF=-260.5417376\RMS
 D=1.577e-01\Dipole=0.,0.,0.\Quadrupole=6.0603842,6.0603842,-12.1207684
 ,0.,0.,0.\PG=D*H [C*(N1C1C1.C1C1N1)]\\@

 Normal termination of Gaussian 16 at Sat Apr  5 22:37:39 2025.
