 Gaussian 16, Revision C.01,

 ----------------------------------------------------------------------
 #t hf aug-cc-pvdz symm=none int=(grid=ultrafine) guess=(read,tcheck) s
 table=(opt,rrhf)
 ----------------------------------------------------------------------
 -----
 title
 -----
 Symbolic Z-matrix:
 Charge =  0 Multiplicity = 1

 SCF Done:  E(RHF) =  -452.099600394     A.U. after   15 cycles
 Normal termination of Gaussian 16 at Sat Apr  5 22:37:46 2025.
 Gaussian 16:  ES64L-G16RevC.01  3-Jul-2019

 ----------------------------------------------------------------------
 #t hf aug-cc-pvdz iop(5/13=1,5/36=2,99/5=2) pseudo=read geom=check gue
 ss=(read,tcheck) scf=(maxcycle=1)
 ----------------------------------------------------------------------
 -----
 title
 -----
 Structure from the checkpoint file:  "2-butynedioic_acid.chk"
 Charge =  0 Multiplicity = 1

                         Standard orientation:
 ---------------------------------------------------------------------
 Center     Atomic      Atomic             Coordinates (Angstroms)
 Number     Number       Type             X           Y           Z
 ---------------------------------------------------------------------
      1          8           0        0.456164    2.811298    0.519791
      2          8           0       -0.456164   -2.811298    0.519791
      3          8           0       -1.460125    2.429632   -0.552434
      4          8           0        1.460125   -2.429632   -0.552434
      5          6           0       -0.456164    2.004868   -0.060552
      6          6           0        0.456164   -2.004868   -0.060552
      7          6           0       -0.123481    0.588917   -0.035196
      8          6           0        0.123481   -0.588917   -0.035196
      9          1           0        1.213127    2.300420    0.835627
     10          1           0       -1.213127   -2.300420    0.835627
 ---------------------------------------------------------------------

 SCF Done:  E(RHF) =  -452.534876702     A.U. after    2 cycles

 The electronic state is 1-A.
 Alpha  occ. eigenvalues --  -20.64067 -20.64067 -20.57980 -20.57976 -11.45621
 Alpha  occ. eigenvalues --  -11.45606 -11.32658 -11.32293  -1.58600  -1.58537
 Alpha  occ. eigenvalues --   -1.49921  -1.49912  -1.12924  -0.98437  -0.91719
 Alpha  occ. eigenvalues --   -0.85321  -0.83777  -0.70943  -0.70641  -0.67613
 Alpha  occ. eigenvalues --   -0.67074  -0.64007  -0.63197  -0.52441  -0.52262
 Alpha  occ. eigenvalues --   -0.51048  -0.49967  -0.46959  -0.46907
 Alpha virt. eigenvalues --    0.02179   0.03168   0.03974   0.07375   0.08089
 Alpha virt. eigenvalues --    0.08138   0.08301   0.09875   0.10143   0.11644
 Alpha virt. eigenvalues --    0.12071   0.12833   0.14761   0.15525   0.16898

 Mulliken charges:
               1
     1  O   -1.178683
     2  O   -1.178683
     3  O   -1.121937
     4  O   -1.121937
     5  C    1.796226
     6  C    1.796226
     7  C    0.058371
     8  C    0.058371
     9  H    0.446023
    10  H    0.446023
 Sum of Mulliken charges =  -0.00000

 Dipole moment (field-independent basis, Debye):
    X=              0.0000    Y=             -0.0000    Z=              2.5639  Tot=              2.5639

 Test job not archived.
 1\1\GINC-SE108\SP\RHF\Aug-CC-pVDZ\C4H2O4\OHZDE\05-Apr-2025\0\\#t hf au
 g-cc-pvdz iop(5/13=1,5/36=2,99/5=2) pseudo=read geom=check guess=(read
 ,tcheck) scf=(maxcycle=1)\\title\\0,1\O,0,0.456164,2.811298,0.519791\O
 ,0,-0.456164,-2.811298,0.519791\O,0,-1.460125,2.429632,-0.552434\O,0,1
 .460125,-2.429632,-0.552434\C,0,-0.456164,2.004868,-0.060552\C,0,0.456
 164,-2.004868,-0.060552\C,0,-0.123481,0.588917,-0.035196\C,0,0.123481,
 -0.588917,-0.035196\H,0,1.213127,2.30042,0.835627\H,0,-1.213127,-2.300
 42,0.835627\\Version=ES64L-G16RevC.01\State=1-A\HF=-452.5348767\RMSD=2

 Normal termination of Gaussian 16 at Sat Apr  5 22:37:50 2025.
