 Gaussian 16, Revision C.01,

 ----------------------------------------------------------------------
 #t hf aug-cc-pvdz symm=none int=(grid=ultrafine) guess=(read,tcheck) s
 table=(opt,rrhf)
 ----------------------------------------------------------------------
 -----
 title
 -----
 Symbolic Z-matrix:
 Charge =  0 Multiplicity = 1

 SCF Done:  E(RHF) =  -231.028150930     A.U. after   14 cycles
 Normal termination of Gaussian 16 at Sat Apr  5 22:37:48 2025.
 Gaussian 16:  ES64L-G16RevC.01  3-Jul-2019

 ----------------------------------------------------------------------
 #t hf aug-cc-pvdz iop(5/13=1,5/36=2,99/5=2) pseudo=read geom=check gue
 ss=(read,tcheck) scf=(maxcycle=1)
 ----------------------------------------------------------------------
 -----
 title
 -----
 Structure from the checkpoint file:  "2-butanone.chk"
 Charge =  0 Multiplicity = 1

                         Standard orientation:
 ---------------------------------------------------------------------
 Center     Atomic      Atomic             Coordinates (Angstroms)
 Number     Number       Type             X           Y           Z
 ---------------------------------------------------------------------
      1          6           0       -1.883170   -0.506701    0.017217
      2          1           0       -2.671790    0.234445   -0.081330
      3          1           0       -2.008340   -1.043418    0.960588
      4          1           0       -1.965083   -1.246251   -0.781367
      5          6           0        2.019993   -0.020927    0.024676
      6          1           0        2.107093    0.570058    0.935544
      7          1           0        2.127700    0.662992   -0.815819
      8          6           0        0.683365   -0.747236   -0.030294
      9          1           0        0.608044   -1.363355   -0.932946
     10          1           0        0.580955   -1.453175    0.800501
     11          6           0       -0.528385    0.169660   -0.010123
     12          8           0       -0.421739    1.375414   -0.011414
     13          1           0        2.844518   -0.733384   -0.002718
 ---------------------------------------------------------------------

 SCF Done:  E(RHF) =  -231.273475162     A.U. after    2 cycles

 The electronic state is 1-A.
 Alpha  occ. eigenvalues --  -20.53211 -11.33638 -11.24727 -11.24375 -11.22685
 Alpha  occ. eigenvalues --   -1.46707  -1.06928  -1.00459  -0.88192  -0.73996
 Alpha  occ. eigenvalues --   -0.66447  -0.64578  -0.62912  -0.58834  -0.57528
 Alpha  occ. eigenvalues --   -0.52734  -0.52231  -0.51207  -0.48465  -0.40673
 Alpha virt. eigenvalues --    0.03252   0.03806   0.04134   0.05008   0.06417
 Alpha virt. eigenvalues --    0.06631   0.07211   0.08524   0.10870   0.12243
 Alpha virt. eigenvalues --    0.13548   0.13815   0.14735   0.15566   0.15765

 Mulliken charges:
               1
     1  C   -0.545631
     2  H    0.123090
     3  H    0.252110
     4  H    0.239864
     5  C   -0.252277
     6  H    0.163684
     7  H    0.172301
     8  C   -0.517292
     9  H    0.229434
    10  H    0.226864
    11  C    1.120940
    12  O   -1.342776
    13  H    0.129690
 Sum of Mulliken charges =  -0.00000

 Dipole moment (field-independent basis, Debye):
    X=             -0.1940    Y=             -3.0767    Z=              0.0120  Tot=              3.0829

 Test job not archived.
 1\1\GINC-SE232\SP\RHF\Aug-CC-pVDZ\C4H8O1\OHZDE\05-Apr-2025\0\\#t hf au
 g-cc-pvdz iop(5/13=1,5/36=2,99/5=2) pseudo=read geom=check guess=(read
 ,tcheck) scf=(maxcycle=1)\\title\\0,1\C,0,-1.88317,-0.506701,0.017217\
 H,0,-2.67179,0.234445,-0.08133\H,0,-2.00834,-1.043418,0.960588\H,0,-1.
 965083,-1.246251,-0.781367\C,0,2.019993,-0.020927,0.024676\H,0,2.10709
 3,0.570058,0.935544\H,0,2.1277,0.662992,-0.815819\C,0,0.683365,-0.7472
 36,-0.030294\H,0,0.608044,-1.363355,-0.932946\H,0,0.580955,-1.453175,0
 .800501\C,0,-0.528385,0.16966,-0.010123\O,0,-0.421739,1.375414,-0.0114

 Normal termination of Gaussian 16 at Sat Apr  5 22:37:52 2025.
