 Gaussian 16, Revision C.01,

 ----------------------------------------------------------------------
 #t hf aug-cc-pvdz symm=none int=(grid=ultrafine) guess=(read,tcheck) s
 table=(opt,rrhf)
 ----------------------------------------------------------------------
 -----
 title
 -----
 Symbolic Z-matrix:
 Charge =  0 Multiplicity = 1

 SCF Done:  E(RHF) =  -212.352041316     A.U. after   12 cycles

 1\1\GINC-SE176\Stability\RHF\Aug-CC-pVDZ\C4H11N1\OHZDE\05-Apr-2025\0\\
 #t hf aug-cc-pvdz symm=none int=(grid=ultrafine) guess=(read,tcheck) s
 table=(opt,rrhf)\\title\\0,1\N,0,0.585676,1.381629,-0.230174\H,0,-0.20
 1181,1.952915,0.050435\H,0,1.420699,1.84486,0.107244\C,0,1.770975,-0.7
 32575,-0.00248\H,0,1.91481,-0.792002,-1.082494\H,0,2.64162,-0.231533,0
 .426249\H,0,1.738854,-1.745293,0.401057\C,0,0.486227,0.022813,0.322074
 \H,0,0.37019,0.037096,1.417614\C,0,-0.738648,-0.689705,-0.258545\H,0,-
 0.627441,-0.732,-1.345347\H,0,-0.732698,-1.721265,0.103456\C,0,-2.0758

 Normal termination of Gaussian 16 at Sat Apr  5 22:37:54 2025.
 Gaussian 16:  ES64L-G16RevC.01  3-Jul-2019

 ----------------------------------------------------------------------
 #t hf aug-cc-pvdz iop(5/13=1,5/36=2,99/5=2) pseudo=read geom=check gue
 ss=(read,tcheck) scf=(maxcycle=1)
 ----------------------------------------------------------------------
 -----
 title
 -----
 Structure from the checkpoint file:  "2-butanamine.chk"
 Charge =  0 Multiplicity = 1

                         Standard orientation:
 ---------------------------------------------------------------------
 Center     Atomic      Atomic             Coordinates (Angstroms)
 Number     Number       Type             X           Y           Z
 ---------------------------------------------------------------------
      1          7           0        0.585676    1.381629   -0.230174
      2          1           0       -0.201181    1.952915    0.050435
      3          1           0        1.420699    1.844860    0.107244
      4          6           0        1.770975   -0.732575   -0.002480
      5          1           0        1.914810   -0.792002   -1.082494
      6          1           0        2.641620   -0.231533    0.426249
      7          1           0        1.738854   -1.745293    0.401057
      8          6           0        0.486227    0.022813    0.322074
      9          1           0        0.370190    0.037096    1.417614
     10          6           0       -0.738648   -0.689705   -0.258545
     11          1           0       -0.627441   -0.732000   -1.345347
     12          1           0       -0.732698   -1.721265    0.103456
     13          6           0       -2.075899   -0.042076    0.099323
     14          1           0       -2.909692   -0.633466   -0.280918
     15          1           0       -2.171947    0.956485   -0.330085
     16          1           0       -2.198874    0.042059    1.181772
 ---------------------------------------------------------------------

 SCF Done:  E(RHF) =  -212.591023036     A.U. after    2 cycles

 The electronic state is 1-A.
 Alpha  occ. eigenvalues --  -15.47756 -11.25536 -11.22161 -11.22114 -11.21844
 Alpha  occ. eigenvalues --   -1.18181  -1.04066  -0.98017  -0.86574  -0.78084
 Alpha  occ. eigenvalues --   -0.68685  -0.67449  -0.59488  -0.58597  -0.57642
 Alpha  occ. eigenvalues --   -0.53106  -0.52341  -0.49262  -0.48767  -0.47095
 Alpha  occ. eigenvalues --   -0.41666
 Alpha virt. eigenvalues --    0.03720   0.04068   0.04280   0.04542   0.05980
 Alpha virt. eigenvalues --    0.06074   0.06670   0.06856   0.09457   0.09817
 Alpha virt. eigenvalues --    0.10037   0.12677   0.13724   0.14499   0.15027

 Mulliken charges:
               1
     1  N    0.436896
     2  H    0.145906
     3  H    0.167918
     4  C   -0.010852
     5  H    0.252663
     6  H    0.096126
     7  H    0.165093
     8  C   -1.664273
     9  H    0.070642
    10  C    0.027241
    11  H    0.147805
    12  H    0.134363
    13  C   -0.386294
    14  H    0.101041
    15  H    0.148330
    16  H    0.167395
 Sum of Mulliken charges =  -0.00000

 Dipole moment (field-independent basis, Debye):
    X=             -0.0763    Y=             -0.0505    Z=              1.3046  Tot=              1.3078

 Test job not archived.
 1\1\GINC-SE176\SP\RHF\Aug-CC-pVDZ\C4H11N1\OHZDE\05-Apr-2025\0\\#t hf a
 ug-cc-pvdz iop(5/13=1,5/36=2,99/5=2) pseudo=read geom=check guess=(rea
 d,tcheck) scf=(maxcycle=1)\\title\\0,1\N,0,0.585676,1.381629,-0.230174
 \H,0,-0.201181,1.952915,0.050435\H,0,1.420699,1.84486,0.107244\C,0,1.7
 70975,-0.732575,-0.00248\H,0,1.91481,-0.792002,-1.082494\H,0,2.64162,-
 0.231533,0.426249\H,0,1.738854,-1.745293,0.401057\C,0,0.486227,0.02281
 3,0.322074\H,0,0.37019,0.037096,1.417614\C,0,-0.738648,-0.689705,-0.25
 8545\H,0,-0.627441,-0.732,-1.345347\H,0,-0.732698,-1.721265,0.103456\C

 Normal termination of Gaussian 16 at Sat Apr  5 22:37:59 2025.
