 Gaussian 16, Revision C.01,

 ----------------------------------------------------------------------
 #t hf aug-cc-pvdz symm=none int=(grid=ultrafine) guess=(read,tcheck) s
 table=(opt,rrhf)
 ----------------------------------------------------------------------
 -----
 title
 -----
 Symbolic Z-matrix:
 Charge =  0 Multiplicity = 1

 SCF Done:  E(RHF) =  -154.925695307     A.U. after   10 cycles
 Normal termination of Gaussian 16 at Sat Apr  5 22:36:08 2025.
 Gaussian 16:  ES64L-G16RevC.01  3-Jul-2019

 ----------------------------------------------------------------------
 #t hf aug-cc-pvdz iop(5/13=1,5/36=2,99/5=2) pseudo=read geom=check gue
 ss=(read,tcheck) scf=(maxcycle=1)
 ----------------------------------------------------------------------
 -----
 title
 -----
 Structure from the checkpoint file:  "2-butyne.chk"
 Charge =  0 Multiplicity = 1

                         Standard orientation:
 ---------------------------------------------------------------------
 Center     Atomic      Atomic             Coordinates (Angstroms)
 Number     Number       Type             X           Y           Z
 ---------------------------------------------------------------------
      1          6           0        0.000000    0.600514    0.000000
      2          6           0       -0.000000   -0.600514    0.000000
      3          6           0        0.000000    2.057156    0.000000
      4          6           0       -0.000000   -2.057156    0.000000
      5          1           0       -0.037656    2.451360    1.017156
      6          1           0        0.899710    2.451360   -0.475967
      7          1           0       -0.862055    2.451360   -0.541189
      8          1           0       -0.899710   -2.451360   -0.475967
      9          1           0        0.037656   -2.451360    1.017156
     10          1           0        0.862055   -2.451360   -0.541189
 ---------------------------------------------------------------------

 SCF Done:  E(RHF) =  -155.095317139     A.U. after    2 cycles

 The electronic state is 1-A.
 Alpha  occ. eigenvalues --  -11.25217 -11.25185 -11.22561 -11.22195  -1.06412
 Alpha  occ. eigenvalues --   -1.00452  -0.92365  -0.66276  -0.61206  -0.59724
 Alpha  occ. eigenvalues --   -0.59724  -0.57948  -0.57948  -0.37215  -0.37215
 Alpha virt. eigenvalues --    0.03638   0.03672   0.05305   0.05305   0.06802
 Alpha virt. eigenvalues --    0.06802   0.08288   0.12354   0.13653   0.15095
 Alpha virt. eigenvalues --    0.15095   0.15953   0.16412   0.16412   0.17607

 Mulliken charges:
               1
     1  C   -0.046606
     2  C   -0.046606
     3  C   -0.739096
     4  C   -0.739096
     5  H    0.261901
     6  H    0.261900
     7  H    0.261901
     8  H    0.261900
     9  H    0.261901
    10  H    0.261901
 Sum of Mulliken charges =  -0.00000

 Dipole moment (field-independent basis, Debye):
    X=             -0.0000    Y=              0.0000    Z=             -0.0000  Tot=              0.0000

 Test job not archived.
 1\1\GINC-SE106\SP\RHF\Aug-CC-pVDZ\C4H6\OHZDE\05-Apr-2025\0\\#t hf aug-
 cc-pvdz iop(5/13=1,5/36=2,99/5=2) pseudo=read geom=check guess=(read,t
 check) scf=(maxcycle=1)\\title\\0,1\C,0,0.,0.,0.600514\C,0,0.,0.,-0.60
 0514\C,0,0.,0.,2.057156\C,0,0.,0.,-2.057156\H,0,0.037656,1.017156,2.45
 136\H,0,-0.89971,-0.475967,2.45136\H,0,0.862055,-0.541189,2.45136\H,0,
 0.89971,-0.475967,-2.45136\H,0,-0.037656,1.017156,-2.45136\H,0,-0.8620
 55,-0.541189,-2.45136\\Version=ES64L-G16RevC.01\State=1-A\HF=-155.0953
 171\RMSD=2.582e-02\Dipole=0.,-0.0000002,0.\Quadrupole=-1.8054152,-1.80

 Normal termination of Gaussian 16 at Sat Apr  5 22:37:33 2025.
