 Gaussian 16, Revision C.01,

 ----------------------------------------------------------------------
 #t hf aug-cc-pvdz symm=none int=(grid=ultrafine) guess=(read,tcheck) s
 table=(opt,rrhf)
 ----------------------------------------------------------------------
 -----
 title
 -----
 Symbolic Z-matrix:
 Charge =  0 Multiplicity = 1

 SCF Done:  E(RHF) =  -554.847909018     A.U. after   13 cycles

 1\1\GINC-SE199\Stability\RHF\Aug-CC-pVDZ\C4H10S1\OHZDE\05-Apr-2025\0\\
 #t hf aug-cc-pvdz symm=none int=(grid=ultrafine) guess=(read,tcheck) s
 table=(opt,rrhf)\\title\\0,1\S,0,1.003766,-1.20112,-0.007299\H,0,1.244
 543,-0.995639,1.301926\C,0,1.183258,1.587414,-0.017139\H,0,1.384325,1.
 633112,1.054995\H,0,0.747685,2.54429,-0.314961\C,0,0.224532,0.446006,-
 0.34219\H,0,0.071406,0.407063,-1.423635\C,0,-1.135558,0.616531,0.34221
 5\H,0,-1.467515,1.642836,0.153798\H,0,-0.998475,0.536154,1.424474\C,0,
 -2.218912,-0.353099,-0.12037\H,0,-2.402233,-0.253586,-1.192432\H,0,-1.

 Normal termination of Gaussian 16 at Sat Apr  5 22:37:56 2025.
 Gaussian 16:  ES64L-G16RevC.01  3-Jul-2019

 ----------------------------------------------------------------------
 #t hf aug-cc-pvdz iop(5/13=1,5/36=2,99/5=2) pseudo=read geom=check gue
 ss=(read,tcheck) scf=(maxcycle=1)
 ----------------------------------------------------------------------
 -----
 title
 -----
 Structure from the checkpoint file:  "2-butanethiol.chk"
 Charge =  0 Multiplicity = 1

                         Standard orientation:
 ---------------------------------------------------------------------
 Center     Atomic      Atomic             Coordinates (Angstroms)
 Number     Number       Type             X           Y           Z
 ---------------------------------------------------------------------
      1         16           0        1.003765   -1.201121   -0.007299
      2          1           0        1.244542   -0.995640    1.301926
      3          6           0        1.183259    1.587413   -0.017139
      4          1           0        1.384326    1.633111    1.054995
      5          1           0        0.747686    2.544289   -0.314961
      6          6           0        0.224532    0.446006   -0.342190
      7          1           0        0.071406    0.407063   -1.423635
      8          6           0       -1.135558    0.616532    0.342215
      9          1           0       -1.467514    1.642837    0.153798
     10          1           0       -0.998475    0.536154    1.424474
     11          6           0       -2.218912   -0.353098   -0.120370
     12          1           0       -2.402233   -0.253585   -1.192432
     13          1           0       -1.934409   -1.386198    0.075183
     14          1           0       -3.159570   -0.156546    0.395174
     15          1           0        2.134069    1.465331   -0.532831
 ---------------------------------------------------------------------

 SCF Done:  E(RHF) =  -555.085992282     A.U. after    2 cycles

 The electronic state is 1-A.
 Alpha  occ. eigenvalues --  -93.94088 -11.27510 -11.23700 -11.23363 -11.22235
 Alpha  occ. eigenvalues --   -8.22163  -6.20013  -6.19863  -6.19650  -1.11261
 Alpha  occ. eigenvalues --   -1.00827  -0.96212  -0.86894  -0.78838  -0.64140
 Alpha  occ. eigenvalues --   -0.61336  -0.60556  -0.58007  -0.54755  -0.52003
 Alpha  occ. eigenvalues --   -0.50770  -0.49250  -0.48119  -0.43871  -0.36073
 Alpha virt. eigenvalues --    0.03709   0.03737   0.03928   0.04653   0.06339
 Alpha virt. eigenvalues --    0.06498   0.06762   0.07006   0.08930   0.09528
 Alpha virt. eigenvalues --    0.10551   0.12868   0.14028   0.14379   0.15089

 Mulliken charges:
               1
     1  S   -0.022547
     2  H    0.350916
     3  C   -0.229386
     4  H    0.171462
     5  H    0.160214
     6  C   -0.957678
     7  H    0.208238
     8  C   -0.254140
     9  H    0.150300
    10  H    0.101867
    11  C   -0.326893
    12  H    0.159912
    13  H    0.220214
    14  H    0.120066
    15  H    0.147456
 Sum of Mulliken charges =  -0.00000

 Dipole moment (field-independent basis, Debye):
    X=             -0.6735    Y=              1.6820    Z=              0.4684  Tot=              1.8714

 Test job not archived.
 1\1\GINC-SE199\SP\RHF\Aug-CC-pVDZ\C4H10S1\OHZDE\05-Apr-2025\0\\#t hf a
 ug-cc-pvdz iop(5/13=1,5/36=2,99/5=2) pseudo=read geom=check guess=(rea
 d,tcheck) scf=(maxcycle=1)\\title\\0,1\S,0,1.003766,-1.20112,-0.007299
 \H,0,1.244543,-0.995639,1.301926\C,0,1.183258,1.587414,-0.017139\H,0,1
 .384325,1.633112,1.054995\H,0,0.747685,2.54429,-0.314961\C,0,0.224532,
 0.446006,-0.34219\H,0,0.071406,0.407063,-1.423635\C,0,-1.135558,0.6165
 31,0.342215\H,0,-1.467515,1.642836,0.153798\H,0,-0.998475,0.536154,1.4
 24474\C,0,-2.218912,-0.353099,-0.12037\H,0,-2.402233,-0.253586,-1.1924

 Normal termination of Gaussian 16 at Sat Apr  5 22:38:00 2025.
