 Gaussian 16, Revision C.01,

 ----------------------------------------------------------------------
 #t hf aug-cc-pvdz symm=none int=(grid=ultrafine) guess=(read,tcheck) s
 table=(opt,rrhf)
 ----------------------------------------------------------------------
 -----
 title
 -----
 Symbolic Z-matrix:
 Charge =  0 Multiplicity = 1

 SCF Done:  E(RHF) =  -232.187606553     A.U. after   12 cycles

 1\1\GINC-SE231\Stability\RHF\Aug-CC-pVDZ\C4H10O1\OHZDE\05-Apr-2025\0\\
 #t hf aug-cc-pvdz symm=none int=(grid=ultrafine) guess=(read,tcheck) s
 table=(opt,rrhf)\\title\\0,1\C,0,2.068952,-0.02959,0.114749\C,0,-1.781
 327,-0.695111,0.003653\C,0,0.738327,-0.671951,-0.270753\C,0,-0.478716,
 0.030019,0.319827\O,0,-0.490635,1.363576,-0.211065\H,0,2.209786,-0.036
 654,1.197896\H,0,2.114065,1.005156,-0.221346\H,0,2.905645,-0.56879,-0.
 331134\H,0,-1.921866,-0.773729,-1.0754\H,0,-1.779793,-1.700291,0.42868
 1\H,0,-2.637934,-0.160756,0.420748\H,0,0.719889,-1.714419,0.057213\H,0

 Normal termination of Gaussian 16 at Sat Apr  5 22:36:25 2025.
 Gaussian 16:  ES64L-G16RevC.01  3-Jul-2019

 ----------------------------------------------------------------------
 #t hf aug-cc-pvdz iop(5/13=1,5/36=2,99/5=2) pseudo=read geom=check gue
 ss=(read,tcheck) scf=(maxcycle=1)
 ----------------------------------------------------------------------
 -----
 title
 -----
 Structure from the checkpoint file:  "2-butanol.chk"
 Charge =  0 Multiplicity = 1

                         Standard orientation:
 ---------------------------------------------------------------------
 Center     Atomic      Atomic             Coordinates (Angstroms)
 Number     Number       Type             X           Y           Z
 ---------------------------------------------------------------------
      1          6           0        2.068952   -0.029590    0.114749
      2          6           0       -1.781327   -0.695111    0.003653
      3          6           0        0.738327   -0.671951   -0.270753
      4          6           0       -0.478716    0.030019    0.319827
      5          8           0       -0.490635    1.363576   -0.211065
      6          1           0        2.209786   -0.036654    1.197896
      7          1           0        2.114065    1.005156   -0.221346
      8          1           0        2.905645   -0.568790   -0.331134
      9          1           0       -1.921866   -0.773729   -1.075400
     10          1           0       -1.779793   -1.700291    0.428681
     11          1           0       -2.637934   -0.160756    0.420748
     12          1           0        0.719889   -1.714419    0.057213
     13          1           0        0.628666   -0.681241   -1.358792
     14          1           0       -0.354839    0.083409    1.410162
     15          1           0       -1.241958    1.838511    0.155634
 ---------------------------------------------------------------------

 SCF Done:  E(RHF) =  -232.441321628     A.U. after    2 cycles

 The electronic state is 1-A.
 Alpha  occ. eigenvalues --  -20.54099 -11.28371 -11.22649 -11.22352 -11.21455
 Alpha  occ. eigenvalues --   -1.43981  -1.06500  -0.98629  -0.87080  -0.79000
 Alpha  occ. eigenvalues --   -0.70041  -0.62853  -0.60588  -0.58630  -0.56801
 Alpha  occ. eigenvalues --   -0.54139  -0.51142  -0.50192  -0.48612  -0.46418
 Alpha  occ. eigenvalues --   -0.43283
 Alpha virt. eigenvalues --    0.03475   0.04075   0.04136   0.04554   0.06406
 Alpha virt. eigenvalues --    0.06439   0.06957   0.07081   0.09475   0.10126
 Alpha virt. eigenvalues --    0.11867   0.12988   0.14538   0.16025   0.16376

 Mulliken charges:
               1
     1  C   -0.366329
     2  C   -0.312975
     3  C   -0.289600
     4  C    0.614145
     5  O   -1.306272
     6  H    0.149684
     7  H    0.200200
     8  H    0.123805
     9  H    0.220750
    10  H    0.180370
    11  H    0.090866
    12  H    0.146293
    13  H    0.138564
    14  H    0.123649
    15  H    0.286850
 Sum of Mulliken charges =  -0.00000

 Dipole moment (field-independent basis, Debye):
    X=             -1.0864    Y=             -0.6864    Z=              0.9901  Tot=              1.6222

 Test job not archived.
 1\1\GINC-SE231\SP\RHF\Aug-CC-pVDZ\C4H10O1\OHZDE\05-Apr-2025\0\\#t hf a
 ug-cc-pvdz iop(5/13=1,5/36=2,99/5=2) pseudo=read geom=check guess=(rea
 d,tcheck) scf=(maxcycle=1)\\title\\0,1\C,0,2.068952,-0.02959,0.114749\
 C,0,-1.781327,-0.695111,0.003653\C,0,0.738327,-0.671951,-0.270753\C,0,
 -0.478716,0.030019,0.319827\O,0,-0.490635,1.363576,-0.211065\H,0,2.209
 786,-0.036654,1.197896\H,0,2.114065,1.005156,-0.221346\H,0,2.905645,-0
 .56879,-0.331134\H,0,-1.921866,-0.773729,-1.0754\H,0,-1.779793,-1.7002
 91,0.428681\H,0,-2.637934,-0.160756,0.420748\H,0,0.719889,-1.714419,0.

 Normal termination of Gaussian 16 at Sat Apr  5 22:37:35 2025.
