 Gaussian 16, Revision C.01,

 ----------------------------------------------------------------------
 #t hf aug-cc-pvdz symm=none int=(grid=ultrafine) guess=(read,tcheck) s
 table=(opt,rrhf)
 ----------------------------------------------------------------------
 -----
 title
 -----
 Symbolic Z-matrix:
 Charge =  0 Multiplicity = 1

 SCF Done:  E(RHF) =  -879.860407365     A.U. after   12 cycles
 Normal termination of Gaussian 16 at Sat Apr  5 22:39:01 2025.
 Gaussian 16:  ES64L-G16RevC.01  3-Jul-2019

 ----------------------------------------------------------------------
 #t hf aug-cc-pvdz iop(5/13=1,5/36=2,99/5=2) pseudo=read geom=check gue
 ss=(read,tcheck) scf=(maxcycle=1)
 ----------------------------------------------------------------------
 -----
 title
 -----
 Structure from the checkpoint file:  "2-chloro-1-1-1-trimethoxyethane.chk"
 Charge =  0 Multiplicity = 1

                         Standard orientation:
 ---------------------------------------------------------------------
 Center     Atomic      Atomic             Coordinates (Angstroms)
 Number     Number       Type             X           Y           Z
 ---------------------------------------------------------------------
      1          6           0        0.266244   -2.381801   -0.314834
      2          6           0        2.705992    0.000051    0.290476
      3          6           0        0.265909    2.381868   -0.314817
      4          6           0       -0.892239   -0.000056    0.940151
      5          6           0        0.318956    0.000034   -0.011152
      6          8           0        0.356269   -1.082293   -0.886845
      7          8           0        1.407928    0.000118    0.889584
      8          8           0        0.356106    1.082375   -0.886837
      9         17           0       -2.460390   -0.000139    0.062875
     10          1           0        0.547177   -3.074651   -1.104011
     11          1           0       -0.754233   -2.608050    0.002453
     12          1           0        0.948512   -2.502078    0.529039
     13          1           0        2.859400   -0.886861   -0.324693
     14          1           0        3.413060    0.000865    1.115990
     15          1           0        2.858879    0.886126   -0.326020
     16          1           0        0.948186    2.502235    0.529035
     17          1           0       -0.754593    2.607970    0.002494
     18          1           0        0.546723    3.074761   -1.104000
     19          1           0       -0.869091    0.879866    1.572354
     20          1           0       -0.868985   -0.879996    1.572325
 ---------------------------------------------------------------------

 SCF Done:  E(RHF) =  -880.369429519     A.U. after    2 cycles

 The electronic state is 1-A.
 Alpha  occ. eigenvalues -- -105.55748 -20.56257 -20.55785 -20.55781 -11.41152
 Alpha  occ. eigenvalues --  -11.30673 -11.28860 -11.28855 -11.28707 -10.60526
 Alpha  occ. eigenvalues --   -7.77480  -7.77098  -7.77097  -1.54893  -1.45070
 Alpha  occ. eigenvalues --   -1.44880  -1.11153  -1.00966  -0.97090  -0.92658
 Alpha  occ. eigenvalues --   -0.90852  -0.79872  -0.73309  -0.72361  -0.70350
 Alpha  occ. eigenvalues --   -0.66594  -0.62552  -0.61690  -0.61095  -0.59696
 Alpha  occ. eigenvalues --   -0.59616  -0.57559  -0.54665  -0.54102  -0.51988
 Alpha  occ. eigenvalues --   -0.48172  -0.45692  -0.45085  -0.44708  -0.44406
 Alpha  occ. eigenvalues --   -0.43094
 Alpha virt. eigenvalues --    0.03425   0.03901   0.03939   0.04503   0.05726
 Alpha virt. eigenvalues --    0.06122   0.06186   0.07065   0.07973   0.09304
 Alpha virt. eigenvalues --    0.10026   0.10313   0.11475   0.13350   0.14211

 Mulliken charges:
               1
     1  C    0.083876
     2  C    0.063157
     3  C    0.083939
     4  C   -0.733925
     5  C    3.935984
     6  O   -1.645483
     7  O   -1.572264
     8  O   -1.645724
     9  Cl  -0.078838
    10  H   -0.043321
    11  H    0.168347
    12  H    0.196793
    13  H    0.190620
    14  H   -0.002613
    15  H    0.190850
    16  H    0.196909
    17  H    0.168339
    18  H   -0.043301
    19  H    0.243309
    20  H    0.243346
 Sum of Mulliken charges =  -0.00000

 Dipole moment (field-independent basis, Debye):
    X=              2.1458    Y=              0.0000    Z=              1.9321  Tot=              2.8875

 Test job not archived.
 1\1\GINC-SE222\SP\RHF\Aug-CC-pVDZ\C5H11Cl1O3\OHZDE\05-Apr-2025\0\\#t h
 f aug-cc-pvdz iop(5/13=1,5/36=2,99/5=2) pseudo=read geom=check guess=(
 read,tcheck) scf=(maxcycle=1)\\title\\0,1\C,0,0.266243,-2.381801,-0.31
 4834\C,0,2.705992,0.00005,0.290476\C,0,0.26591,2.381868,-0.314817\C,0,
 -0.892239,-0.000056,0.940151\C,0,0.318956,0.000034,-0.011152\O,0,0.356
 269,-1.082293,-0.886845\O,0,1.407928,0.000118,0.889584\O,0,0.356106,1.
 082375,-0.886837\Cl,0,-2.46039,-0.000138,0.062875\H,0,0.547176,-3.0746
 51,-1.104011\H,0,-0.754234,-2.60805,0.002453\H,0,0.948511,-2.502078,0.

 Normal termination of Gaussian 16 at Sat Apr  5 22:39:18 2025.
