 Gaussian 16, Revision C.01,

 ----------------------------------------------------------------------
 #t hf aug-cc-pvdz symm=none int=(grid=ultrafine) guess=(read,tcheck) s
 table=(opt,rrhf)
 ----------------------------------------------------------------------
 -----
 title
 -----
 Symbolic Z-matrix:
 Charge =  0 Multiplicity = 1

 SCF Done:  E(RHF) =  -616.248448456     A.U. after   12 cycles

 1\1\GINC-SE053\Stability\RHF\Aug-CC-pVDZ\C4H9Cl1\OHZDE\05-Apr-2025\0\\
 #t hf aug-cc-pvdz symm=none int=(grid=ultrafine) guess=(read,tcheck) s
 table=(opt,rrhf)\\title\\0,1\C,0,0.,1.45652,-0.815071\C,0,1.261383,-0.
 72826,-0.815071\C,0,-1.261383,-0.72826,-0.815071\C,0,0.,0.,-0.370596\C
 l,0,0.,0.,1.489306\H,0,-0.8836,1.977898,-0.450456\H,0,0.8836,1.977898,
 -0.450456\H,0,0.,1.501962,-1.906872\H,0,2.15471,-0.223729,-0.450456\H,
 0,1.27111,-1.754169,-0.450456\H,0,1.300737,-0.750981,-1.906872\H,0,-2.
 15471,-0.223729,-0.450456\H,0,-1.27111,-1.754169,-0.450456\H,0,-1.3007

 Normal termination of Gaussian 16 at Sat Apr  5 22:37:54 2025.
 Gaussian 16:  ES64L-G16RevC.01  3-Jul-2019

 ----------------------------------------------------------------------
 #t hf aug-cc-pvdz iop(5/13=1,5/36=2,99/5=2) pseudo=read geom=check gue
 ss=(read,tcheck) scf=(maxcycle=1)
 ----------------------------------------------------------------------
 -----
 title
 -----
 Structure from the checkpoint file:  "2-chloro-2-methylpropane.chk"
 Charge =  0 Multiplicity = 1

                         Standard orientation:
 ---------------------------------------------------------------------
 Center     Atomic      Atomic             Coordinates (Angstroms)
 Number     Number       Type             X           Y           Z
 ---------------------------------------------------------------------
      1          6           0        0.815071    1.456520    0.000000
      2          6           0        0.815071   -0.728260    1.261383
      3          6           0        0.815071   -0.728260   -1.261383
      4          6           0        0.370596    0.000000    0.000000
      5         17           0       -1.489306    0.000000   -0.000000
      6          1           0        0.450456    1.977898   -0.883600
      7          1           0        0.450456    1.977898    0.883600
      8          1           0        1.906872    1.501962    0.000000
      9          1           0        0.450456   -0.223729    2.154710
     10          1           0        0.450456   -1.754169    1.271110
     11          1           0        1.906872   -0.750981    1.300737
     12          1           0        0.450456   -0.223729   -2.154710
     13          1           0        0.450456   -1.754169   -1.271110
     14          1           0        1.906872   -0.750981   -1.300737
 ---------------------------------------------------------------------

 SCF Done:  E(RHF) =  -616.501740653     A.U. after    2 cycles

 The electronic state is 1-A'.
 Alpha  occ. eigenvalues -- -105.53847 -11.31522 -11.23904 -11.23904 -11.23867
 Alpha  occ. eigenvalues --  -10.58660  -7.75577  -7.75244  -7.75244  -1.14143
 Alpha  occ. eigenvalues --   -0.99293  -0.95707  -0.95707  -0.75866  -0.64020
 Alpha  occ. eigenvalues --   -0.63126  -0.63126  -0.56883  -0.56883  -0.53765
 Alpha  occ. eigenvalues --   -0.50951  -0.50951  -0.48284  -0.43320  -0.43320
 Alpha virt. eigenvalues --    0.03506   0.04180   0.04180   0.04953   0.06568
 Alpha virt. eigenvalues --    0.06568   0.07338   0.07338   0.09734   0.09939
 Alpha virt. eigenvalues --    0.12295   0.14629   0.14629   0.15083   0.16302

 Mulliken charges:
               1
     1  C    0.150505
     2  C    0.150505
     3  C    0.150505
     4  C   -2.025504
     5  Cl  -0.172855
     6  H    0.172251
     7  H    0.172251
     8  H    0.237779
     9  H    0.172252
    10  H    0.172251
    11  H    0.237779
    12  H    0.172252
    13  H    0.172251
    14  H    0.237779
 Sum of Mulliken charges =  -0.00000

 Dipole moment (field-independent basis, Debye):
    X=              2.6572    Y=             -0.0000    Z=              0.0000  Tot=              2.6572

 Test job not archived.
 1\1\GINC-SE053\SP\RHF\Aug-CC-pVDZ\C4H9Cl1\OHZDE\05-Apr-2025\0\\#t hf a
 ug-cc-pvdz iop(5/13=1,5/36=2,99/5=2) pseudo=read geom=check guess=(rea
 d,tcheck) scf=(maxcycle=1)\\title\\0,1\C,0,0.,1.45652,-0.815071\C,0,1.
 261383,-0.72826,-0.815071\C,0,-1.261383,-0.72826,-0.815071\C,0,0.,0.,-
 0.370596\Cl,0,0.,0.,1.489306\H,0,-0.8836,1.977898,-0.450456\H,0,0.8836
 ,1.977898,-0.450456\H,0,0.,1.501962,-1.906872\H,0,2.15471,-0.223729,-0
 .450456\H,0,1.27111,-1.754169,-0.450456\H,0,1.300737,-0.750981,-1.9068
 72\H,0,-2.15471,-0.223729,-0.450456\H,0,-1.27111,-1.754169,-0.450456\H

 Normal termination of Gaussian 16 at Sat Apr  5 22:37:57 2025.
