 Gaussian 16, Revision C.01,

 ----------------------------------------------------------------------
 #t hf aug-cc-pvdz symm=none int=(grid=ultrafine) guess=(read,tcheck) s
 table=(opt,rrhf)
 ----------------------------------------------------------------------
 -----
 title
 -----
 Symbolic Z-matrix:
 Charge =  0 Multiplicity = 1

 SCF Done:  E(RHF) =  -834.780766241     A.U. after   12 cycles
 Normal termination of Gaussian 16 at Sat Apr  5 22:36:12 2025.
 Gaussian 16:  ES64L-G16RevC.01  3-Jul-2019

 ----------------------------------------------------------------------
 #t hf aug-cc-pvdz iop(5/13=1,5/36=2,99/5=2) pseudo=read geom=check gue
 ss=(read,tcheck) scf=(maxcycle=1)
 ----------------------------------------------------------------------
 -----
 title
 -----
 Structure from the checkpoint file:  "2-chloro-1-1-1-trifluoroethane.chk"
 Charge =  0 Multiplicity = 1

                         Standard orientation:
 ---------------------------------------------------------------------
 Center     Atomic      Atomic             Coordinates (Angstroms)
 Number     Number       Type             X           Y           Z
 ---------------------------------------------------------------------
      1          6           0       -0.858750    0.493126    0.000000
      2          6           0        0.656851    0.425801    0.000000
      3          9           0        1.143435   -0.195496    1.084579
      4          9           0        1.143435    1.687623    0.000000
      5          9           0        1.143435   -0.195496   -1.084579
      6         17           0       -1.605455   -1.130914    0.000000
      7          1           0       -1.184311    1.021148    0.890634
      8          1           0       -1.184311    1.021148   -0.890634
 ---------------------------------------------------------------------

 SCF Done:  E(RHF) =  -835.205446536     A.U. after    2 cycles

 The electronic state is 1-A'.
 Alpha  occ. eigenvalues -- -105.58817 -26.51814 -26.51633 -26.51629 -11.53674
 Alpha  occ. eigenvalues --  -11.34742 -10.63619  -7.80570  -7.80162  -7.80147
 Alpha  occ. eigenvalues --   -1.72612  -1.62503  -1.62416  -1.15344  -1.01487
 Alpha  occ. eigenvalues --   -0.91373  -0.82546  -0.82234  -0.78824  -0.70499
 Alpha  occ. eigenvalues --   -0.69836  -0.66578  -0.64967  -0.63557  -0.63019
 Alpha  occ. eigenvalues --   -0.60481  -0.58143  -0.47861  -0.47490
 Alpha virt. eigenvalues --    0.03475   0.04884   0.07269   0.08096   0.10979
 Alpha virt. eigenvalues --    0.11243   0.12421   0.13438   0.15011   0.15632
 Alpha virt. eigenvalues --    0.17375   0.17762   0.19281   0.20286   0.24686

 Mulliken charges:
               1
     1  C   -0.880182
     2  C    2.512498
     3  F   -0.709100
     4  F   -0.727813
     5  F   -0.709100
     6  Cl  -0.036193
     7  H    0.274945
     8  H    0.274945
 Sum of Mulliken charges =  -0.00000

 Dipole moment (field-independent basis, Debye):
    X=             -1.3590    Y=              1.5395    Z=              0.0000  Tot=              2.0535

 Test job not archived.
 1\1\GINC-SE220\SP\RHF\Aug-CC-pVDZ\C2H2Cl1F3\OHZDE\05-Apr-2025\0\\#t hf
  aug-cc-pvdz iop(5/13=1,5/36=2,99/5=2) pseudo=read geom=check guess=(r
 ead,tcheck) scf=(maxcycle=1)\\title\\0,1\C,0,-0.85875,0.493126,0.\C,0,
 0.656851,0.425801,0.\F,0,1.143435,-0.195496,1.084579\F,0,1.143435,1.68
 7623,0.\F,0,1.143435,-0.195496,-1.084579\Cl,0,-1.605455,-1.130914,0.\H
 ,0,-1.184311,1.021148,0.890634\H,0,-1.184311,1.021148,-0.890634\\Versi
 on=ES64L-G16RevC.01\State=1-A'\HF=-835.2054465\RMSD=5.428e-03\Dipole=-
 0.5346848,0.6056722,0.\Quadrupole=-0.6497617,0.3023655,0.3473962,-2.05

 Normal termination of Gaussian 16 at Sat Apr  5 22:37:33 2025.
