 Gaussian 16, Revision C.01,

 ----------------------------------------------------------------------
 #t hf aug-cc-pvdz symm=none int=(grid=ultrafine) guess=(read,tcheck) s
 table=(opt,rrhf)
 ----------------------------------------------------------------------
 -----
 title
 -----
 Symbolic Z-matrix:
 Charge =  0 Multiplicity = 1

 SCF Done:  E(RHF) =  -1101.98231688     A.U. after   16 cycles
 Normal termination of Gaussian 16 at Sat Apr  5 22:38:06 2025.
 Gaussian 16:  ES64L-G16RevC.01  3-Jul-2019

 ----------------------------------------------------------------------
 #t hf aug-cc-pvdz iop(5/13=1,5/36=2,99/5=2) pseudo=read geom=check gue
 ss=(read,tcheck) scf=(maxcycle=1)
 ----------------------------------------------------------------------
 -----
 title
 -----
 Structure from the checkpoint file:  "2-chloro-5-cyanothiophene.chk"
 Charge =  0 Multiplicity = 1

                         Standard orientation:
 ---------------------------------------------------------------------
 Center     Atomic      Atomic             Coordinates (Angstroms)
 Number     Number       Type             X           Y           Z
 ---------------------------------------------------------------------
      1         17           0        2.782522   -0.268531    0.000000
      2         16           0       -0.110760   -1.024111   -0.000001
      3          7           0       -3.828995   -0.415531   -0.000002
      4          6           0       -0.790124    1.468188    0.000000
      5          6           0        0.622911    1.455790    0.000000
      6          6           0       -1.342826    0.212106    0.000000
      7          6           0        1.123743    0.185775    0.000000
      8          6           0       -2.711030   -0.129258   -0.000001
      9          1           0       -1.387679    2.366653    0.000000
     10          1           0        1.243873    2.337262    0.000002
 ---------------------------------------------------------------------

 SCF Done:  E(RHF) =  -1102.35481924     A.U. after    2 cycles

 The electronic state is 1-A.
 Alpha  occ. eigenvalues -- -105.61428 -94.02643 -15.53056 -11.36795 -11.32856
 Alpha  occ. eigenvalues --  -11.30125 -11.30077 -11.28607 -10.66204  -8.30748
 Alpha  occ. eigenvalues --   -7.83190  -7.82747  -7.82734  -6.28503  -6.28408
 Alpha  occ. eigenvalues --   -6.28173  -1.25913  -1.23887  -1.14037  -1.05954
 Alpha  occ. eigenvalues --   -1.02374  -0.88005  -0.79424  -0.75812  -0.66858
 Alpha  occ. eigenvalues --   -0.62466  -0.61778  -0.61161  -0.61097  -0.55595
 Alpha  occ. eigenvalues --   -0.54464  -0.50827  -0.50110  -0.49419  -0.39990
 Alpha  occ. eigenvalues --   -0.36451
 Alpha virt. eigenvalues --    0.02759   0.03271   0.04214   0.06067   0.07204
 Alpha virt. eigenvalues --    0.08367   0.09155   0.09403   0.10628   0.10739
 Alpha virt. eigenvalues --    0.12146   0.12474   0.13110   0.13579   0.13933

 Mulliken charges:
               1
     1  Cl  -0.224585
     2  S    0.647675
     3  N    0.979060
     4  C    0.282050
     5  C    0.633169
     6  C    1.437907
     7  C   -0.698811
     8  C   -2.806075
     9  H   -0.176879
    10  H   -0.073511
 Sum of Mulliken charges =  -0.00000

 Dipole moment (field-independent basis, Debye):
    X=              4.0925    Y=              2.4305    Z=              0.0000  Tot=              4.7599

 Test job not archived.
 1\1\GINC-SE028\SP\RHF\Aug-CC-pVDZ\C5H2Cl1N1S1\OHZDE\05-Apr-2025\0\\#t
 hf aug-cc-pvdz iop(5/13=1,5/36=2,99/5=2) pseudo=read geom=check guess=
 (read,tcheck) scf=(maxcycle=1)\\title\\0,1\Cl,0,2.782522,-0.268531,0.\
 S,0,-0.11076,-1.024111,-0.000001\N,0,-3.828995,-0.415531,-0.000002\C,0
 ,-0.790124,1.468188,0.\C,0,0.622911,1.45579,0.\C,0,-1.342826,0.212106,
 0.\C,0,1.123743,0.185775,0.\C,0,-2.71103,-0.129258,-0.000001\H,0,-1.38
 7679,2.366653,0.\H,0,1.243873,2.337262,0.000002\\Version=ES64L-G16RevC
 .01\State=1-A\HF=-1102.3548192\RMSD=3.682e-02\Dipole=1.6101264,0.95623

 Normal termination of Gaussian 16 at Sat Apr  5 22:38:11 2025.
