 Gaussian 16, Revision C.01,

 ----------------------------------------------------------------------
 #t hf aug-cc-pvdz symm=none int=(grid=ultrafine) guess=(read,tcheck) s
 table=(opt,rrhf)
 ----------------------------------------------------------------------
 -----
 title
 -----
 Symbolic Z-matrix:
 Charge =  0 Multiplicity = 1

 SCF Done:  E(RHF) =  -1371.07640986     A.U. after   14 cycles
 Normal termination of Gaussian 16 at Sat Apr  5 22:37:45 2025.
 Gaussian 16:  ES64L-G16RevC.01  3-Jul-2019

 ----------------------------------------------------------------------
 #t hf aug-cc-pvdz iop(5/13=1,5/36=2,99/5=2) pseudo=read geom=check gue
 ss=(read,tcheck) scf=(maxcycle=1)
 ----------------------------------------------------------------------
 -----
 title
 -----
 Structure from the checkpoint file:  "2-chloro-3-propenedisulfide.chk"
 Charge =  0 Multiplicity = 1

                         Standard orientation:
 ---------------------------------------------------------------------
 Center     Atomic      Atomic             Coordinates (Angstroms)
 Number     Number       Type             X           Y           Z
 ---------------------------------------------------------------------
      1         17           0       -2.213770   -1.116422    0.019613
      2         16           0        1.043133    0.085348   -0.719629
      3         16           0        2.876136   -0.099112    0.233234
      4          6           0       -1.513151    0.487919    0.204363
      5          6           0       -0.101760    0.501799    0.686458
      6          6           0       -2.230617    1.563308   -0.088361
      7          1           0        2.830146   -1.417869    0.524098
      8          1           0        0.054997   -0.235049    1.469729
      9          1           0        0.155816    1.491757    1.054508
     10          1           0       -3.249590    1.496805   -0.437101
     11          1           0       -1.792416    2.545606    0.022903
 ---------------------------------------------------------------------

 SCF Done:  E(RHF) =  -1371.39573005     A.U. after    2 cycles

 The electronic state is 1-A.
 Alpha  occ. eigenvalues -- -105.57639 -93.98618 -93.98369 -11.32776 -11.29757
 Alpha  occ. eigenvalues --  -11.26515 -10.62463  -8.26566  -8.26262  -7.79421
 Alpha  occ. eigenvalues --   -7.79025  -7.79013  -6.24390  -6.24211  -6.24057
 Alpha  occ. eigenvalues --   -6.23975  -6.23850  -6.23604  -1.16810  -1.10205
 Alpha  occ. eigenvalues --   -1.02422  -0.98825  -0.87244  -0.76209  -0.67579
 Alpha  occ. eigenvalues --   -0.66260  -0.60621  -0.59294  -0.54749  -0.54207
 Alpha  occ. eigenvalues --   -0.50579  -0.47495  -0.46831  -0.39976  -0.37870
 Alpha  occ. eigenvalues --   -0.37182
 Alpha virt. eigenvalues --    0.03493   0.03943   0.04681   0.05206   0.06675
 Alpha virt. eigenvalues --    0.07300   0.08033   0.09409   0.10043   0.11526
 Alpha virt. eigenvalues --    0.12130   0.12687   0.13429   0.13939   0.15589

 Mulliken charges:
               1
     1  Cl  -0.225853
     2  S    0.090897
     3  S   -0.348999
     4  C    0.322784
     5  C   -0.606154
     6  C    0.196468
     7  H    0.397793
     8  H    0.179667
     9  H    0.118677
    10  H   -0.065861
    11  H   -0.059420
 Sum of Mulliken charges =   0.00000

 Dipole moment (field-independent basis, Debye):
    X=             -0.4343    Y=              1.0209    Z=              1.4486  Tot=              1.8246

 Test job not archived.
 1\1\GINC-SE194\SP\RHF\Aug-CC-pVDZ\C3H5Cl1S2\OHZDE\05-Apr-2025\0\\#t hf
  aug-cc-pvdz iop(5/13=1,5/36=2,99/5=2) pseudo=read geom=check guess=(r
 ead,tcheck) scf=(maxcycle=1)\\title\\0,1\Cl,0,-2.21377,-1.116422,0.019
 613\S,0,1.043133,0.085348,-0.719629\S,0,2.876136,-0.099112,0.233234\C,
 0,-1.513151,0.487919,0.204363\C,0,-0.10176,0.501799,0.686458\C,0,-2.23
 0617,1.563308,-0.088361\H,0,2.830146,-1.417869,0.524098\H,0,0.054997,-
 0.235049,1.469729\H,0,0.155816,1.491757,1.054508\H,0,-3.24959,1.496805
 ,-0.437101\H,0,-1.792416,2.545606,0.022903\\Version=ES64L-G16RevC.01\S

 Normal termination of Gaussian 16 at Sat Apr  5 22:37:50 2025.
