 Gaussian 16, Revision C.01,

 ----------------------------------------------------------------------
 #t hf aug-cc-pvdz symm=none int=(grid=ultrafine) guess=(read,tcheck) s
 table=(opt,rrhf)
 ----------------------------------------------------------------------
 -----
 title
 -----
 Symbolic Z-matrix:
 Charge =  0 Multiplicity = 1

 SCF Done:  E(RHF) =  -764.524693315     A.U. after   16 cycles
 Normal termination of Gaussian 16 at Sat Apr  5 22:38:25 2025.
 Gaussian 16:  ES64L-G16RevC.01  3-Jul-2019

 ----------------------------------------------------------------------
 #t hf aug-cc-pvdz iop(5/13=1,5/36=2,99/5=2) pseudo=read geom=check gue
 ss=(read,tcheck) scf=(maxcycle=1)
 ----------------------------------------------------------------------
 -----
 title
 -----
 Structure from the checkpoint file:  "2-chlorophenol.chk"
 Charge =  0 Multiplicity = 1

                         Standard orientation:
 ---------------------------------------------------------------------
 Center     Atomic      Atomic             Coordinates (Angstroms)
 Number     Number       Type             X           Y           Z
 ---------------------------------------------------------------------
      1          6           0        1.592286   -1.728677   -0.000000
      2          6           0        2.181509   -0.467693   -0.000000
      3          6           0        0.212578   -1.863151   -0.000000
      4          6           0        1.379088    0.665360   -0.000000
      5          6           0       -0.604239   -0.733979   -0.000000
      6          6           0        0.000000    0.525088    0.000000
      7          8           0       -1.948598   -0.906903    0.000000
      8         17           0       -1.036509    1.945558    0.000000
      9          1           0        2.211530   -2.615032   -0.000000
     10          1           0        3.256995   -0.363392   -0.000000
     11          1           0       -0.258879   -2.835831   -0.000000
     12          1           0        1.812238    1.655014    0.000000
     13          1           0       -2.379775   -0.041703    0.000000
 ---------------------------------------------------------------------

 SCF Done:  E(RHF) =  -764.910230418     A.U. after    2 cycles

 The electronic state is 1-A'.
 Alpha  occ. eigenvalues -- -105.58754 -20.58954 -11.32783 -11.31082 -11.26626
 Alpha  occ. eigenvalues --  -11.25952 -11.25062 -11.25007 -10.63552  -7.80510
 Alpha  occ. eigenvalues --   -7.80145  -7.80096  -1.50793  -1.18584  -1.10856
 Alpha  occ. eigenvalues --   -1.03240  -0.99620  -0.86226  -0.84802  -0.75443
 Alpha  occ. eigenvalues --   -0.71214  -0.67326  -0.63649  -0.61190  -0.61031
 Alpha  occ. eigenvalues --   -0.58961  -0.54993  -0.52867  -0.52145  -0.48509
 Alpha  occ. eigenvalues --   -0.48399  -0.35993  -0.33429
 Alpha virt. eigenvalues --    0.03416   0.03798   0.04282   0.05553   0.06071
 Alpha virt. eigenvalues --    0.08674   0.09853   0.10917   0.11365   0.11449
 Alpha virt. eigenvalues --    0.12926   0.13585   0.13811   0.14007   0.14206

 Mulliken charges:
               1
     1  C    0.141187
     2  C    0.413271
     3  C    0.616618
     4  C    0.253882
     5  C    1.411641
     6  C   -0.256894
     7  O   -1.745290
     8  Cl  -0.430756
     9  H   -0.204723
    10  H   -0.215655
    11  H   -0.261373
    12  H   -0.156400
    13  H    0.434492
 Sum of Mulliken charges =   0.00000

 Dipole moment (field-independent basis, Debye):
    X=              1.2364    Y=             -0.1792    Z=             -0.0000  Tot=              1.2493

 Test job not archived.
 1\1\GINC-SE185\SP\RHF\Aug-CC-pVDZ\C6H5Cl1O1\OHZDE\05-Apr-2025\0\\#t hf
  aug-cc-pvdz iop(5/13=1,5/36=2,99/5=2) pseudo=read geom=check guess=(r
 ead,tcheck) scf=(maxcycle=1)\\title\\0,1\C,0,1.592286,-1.728677,0.\C,0
 ,2.181509,-0.467693,0.\C,0,0.212578,-1.863151,0.\C,0,1.379088,0.66536,
 0.\C,0,-0.604239,-0.733979,0.\C,0,0.,0.525088,0.\O,0,-1.948598,-0.9069
 03,0.\Cl,0,-1.036509,1.945558,0.\H,0,2.21153,-2.615032,0.\H,0,3.256995
 ,-0.363392,0.\H,0,-0.258879,-2.835831,0.\H,0,1.812238,1.655014,0.\H,0,
 -2.379775,-0.041703,0.\\Version=ES64L-G16RevC.01\State=1-A'\HF=-764.91

 Normal termination of Gaussian 16 at Sat Apr  5 22:38:36 2025.
