 Gaussian 16, Revision C.01,

 ----------------------------------------------------------------------
 #t hf aug-cc-pvdz symm=none int=(grid=ultrafine) guess=(read,tcheck) s
 table=(opt,rrhf)
 ----------------------------------------------------------------------
 -----
 title
 -----
 Symbolic Z-matrix:
 Charge =  0 Multiplicity = 1

 SCF Done:  E(RHF) =  -816.230834464     A.U. after   15 cycles
 Normal termination of Gaussian 16 at Sat Apr  5 22:37:52 2025.
 Gaussian 16:  ES64L-G16RevC.01  3-Jul-2019

 ----------------------------------------------------------------------
 #t hf aug-cc-pvdz iop(5/13=1,5/36=2,99/5=2) pseudo=read geom=check gue
 ss=(read,tcheck) scf=(maxcycle=1)
 ----------------------------------------------------------------------
 -----
 title
 -----
 Structure from the checkpoint file:  "2-chloro-3-nitrosofuran.chk"
 Charge =  0 Multiplicity = 1

                         Standard orientation:
 ---------------------------------------------------------------------
 Center     Atomic      Atomic             Coordinates (Angstroms)
 Number     Number       Type             X           Y           Z
 ---------------------------------------------------------------------
      1         17           0        1.926269   -1.029667    0.000000
      2          8           0        1.000529    1.396322    0.000001
      3          8           0       -2.545474   -1.255419   -0.000001
      4          7           0       -1.326289   -1.296988   -0.000001
      5          6           0       -0.699105   -0.046948    0.000000
      6          6           0        0.667284    0.101086    0.000000
      7          6           0       -1.242421    1.285636    0.000000
      8          6           0       -0.184456    2.114819    0.000001
      9          1           0       -2.285347    1.546278    0.000000
     10          1           0       -0.065451    3.182198    0.000001
 ---------------------------------------------------------------------

 SCF Done:  E(RHF) =  -816.650506561     A.U. after    2 cycles

 The electronic state is 1-A.
 Alpha  occ. eigenvalues -- -105.61987 -20.65859 -20.61227 -15.65153 -11.40735
 Alpha  occ. eigenvalues --  -11.33283 -11.29562 -11.27680 -10.66794  -7.83789
 Alpha  occ. eigenvalues --   -7.83315  -7.83315  -1.59956  -1.58402  -1.18808
 Alpha  occ. eigenvalues --   -1.15076  -1.06568  -0.98414  -0.85622  -0.81097
 Alpha  occ. eigenvalues --   -0.76984  -0.69980  -0.69654  -0.68890  -0.64577
 Alpha  occ. eigenvalues --   -0.62088  -0.61935  -0.58544  -0.53607  -0.50896
 Alpha  occ. eigenvalues --   -0.43849  -0.43402  -0.35895
 Alpha virt. eigenvalues --    0.03059   0.03073   0.04434   0.06344   0.08560
 Alpha virt. eigenvalues --    0.09156   0.09855   0.10906   0.11954   0.12535
 Alpha virt. eigenvalues --    0.13268   0.14251   0.14888   0.15182   0.15220

 Mulliken charges:
               1
     1  Cl  -0.069666
     2  O   -1.371711
     3  O   -1.120107
     4  N    1.555699
     5  C   -0.552134
     6  C    0.469406
     7  C    0.737045
     8  C    0.553710
     9  H   -0.103653
    10  H   -0.098588
 Sum of Mulliken charges =  -0.00000

 Dipole moment (field-independent basis, Debye):
    X=              0.8308    Y=              3.1683    Z=              0.0000  Tot=              3.2755

 Test job not archived.
 1\1\GINC-SE179\SP\RHF\Aug-CC-pVDZ\C4H2Cl1N1O2\OHZDE\05-Apr-2025\0\\#t
 hf aug-cc-pvdz iop(5/13=1,5/36=2,99/5=2) pseudo=read geom=check guess=
 (read,tcheck) scf=(maxcycle=1)\\title\\0,1\Cl,0,1.926269,-1.029667,0.\
 O,0,1.000529,1.396322,0.000001\O,0,-2.545474,-1.255419,-0.000001\N,0,-
 1.326289,-1.296988,-0.000001\C,0,-0.699105,-0.046948,0.\C,0,0.667284,0
 .101086,0.\C,0,-1.242421,1.285636,0.\C,0,-0.184456,2.114819,0.000001\H
 ,0,-2.285347,1.546278,0.\H,0,-0.065452,3.182198,0.000001\\Version=ES64
 L-G16RevC.01\State=1-A\HF=-816.6505066\RMSD=2.931e-02\Dipole=0.3268678

 Normal termination of Gaussian 16 at Sat Apr  5 22:37:58 2025.
