 Gaussian 16, Revision C.01,

 ----------------------------------------------------------------------
 #t hf aug-cc-pvdz symm=none int=(grid=ultrafine) guess=(read,tcheck) s
 table=(opt,rrhf)
 ----------------------------------------------------------------------
 -----
 title
 -----
 Symbolic Z-matrix:
 Charge =  0 Multiplicity = 1

 SCF Done:  E(RHF) =  -1221.37262675     A.U. after   16 cycles
 Normal termination of Gaussian 16 at Sat Apr  5 22:38:05 2025.
 Gaussian 16:  ES64L-G16RevC.01  3-Jul-2019

 ----------------------------------------------------------------------
 #t hf aug-cc-pvdz iop(5/13=1,5/36=2,99/5=2) pseudo=read geom=check gue
 ss=(read,tcheck) scf=(maxcycle=1)
 ----------------------------------------------------------------------
 -----
 title
 -----
 Structure from the checkpoint file:  "2-chloro-4-oxo-3-butenoyl_chloride.chk"
 Charge =  0 Multiplicity = 1

                         Standard orientation:
 ---------------------------------------------------------------------
 Center     Atomic      Atomic             Coordinates (Angstroms)
 Number     Number       Type             X           Y           Z
 ---------------------------------------------------------------------
      1         17           0        1.196823   -1.594183   -0.748571
      2         17           0       -0.018486    1.607823   -0.809981
      3          8           0        1.639323    1.360354    1.198885
      4          8           0       -2.947869   -0.058569   -0.171301
      5          6           0        0.488767   -0.684550    0.702596
      6          6           0        0.860125    0.779604    0.528686
      7          6           0       -0.940974   -0.958589    0.955829
      8          6           0       -1.982431   -0.450326    0.322211
      9          1           0        1.078223   -1.040999    1.539221
     10          1           0       -1.194498   -1.722002    1.679561
 ---------------------------------------------------------------------

 SCF Done:  E(RHF) =  -1221.81298489     A.U. after    2 cycles

 The electronic state is 1-A.
 Alpha  occ. eigenvalues -- -105.59936-105.58487 -20.65219 -20.60833 -11.44517
 Alpha  occ. eigenvalues --  -11.43119 -11.37784 -11.28885 -10.64800 -10.63242
 Alpha  occ. eigenvalues --   -7.81725  -7.81352  -7.81329  -7.80171  -7.79789
 Alpha  occ. eigenvalues --   -7.79776  -1.59456  -1.55747  -1.18616  -1.10300
 Alpha  occ. eigenvalues --   -1.07527  -0.97589  -0.83579  -0.78005  -0.74235
 Alpha  occ. eigenvalues --   -0.72542  -0.68557  -0.67935  -0.65940  -0.62889
 Alpha  occ. eigenvalues --   -0.61081  -0.57098  -0.50846  -0.49710  -0.49204
 Alpha  occ. eigenvalues --   -0.47518  -0.46098  -0.39177
 Alpha virt. eigenvalues --    0.02544   0.04588   0.06253   0.06690   0.08111
 Alpha virt. eigenvalues --    0.08519   0.09071   0.09297   0.11227   0.11412
 Alpha virt. eigenvalues --    0.12736   0.13441   0.13686   0.14123   0.14291

 Mulliken charges:
               1
     1  Cl  -0.019141
     2  Cl  -0.053614
     3  O   -1.094918
     4  O   -0.808657
     5  C   -0.439697
     6  C    1.069450
     7  C    0.986757
     8  C    0.254902
     9  H    0.214826
    10  H   -0.109907
 Sum of Mulliken charges =  -0.00000

 Dipole moment (field-independent basis, Debye):
    X=             -1.1307    Y=             -1.8392    Z=              1.7201  Tot=              2.7604

 Test job not archived.
 1\1\GINC-SE009\SP\RHF\Aug-CC-pVDZ\C4H2Cl2O2\OHZDE\05-Apr-2025\0\\#t hf
  aug-cc-pvdz iop(5/13=1,5/36=2,99/5=2) pseudo=read geom=check guess=(r
 ead,tcheck) scf=(maxcycle=1)\\title\\0,1\Cl,0,1.196824,-1.594182,-0.74
 8571\Cl,0,-0.018487,1.607823,-0.809981\O,0,1.639322,1.360355,1.198885\
 O,0,-2.947869,-0.05857,-0.171301\C,0,0.488767,-0.68455,0.702596\C,0,0.
 860125,0.779605,0.528686\C,0,-0.940974,-0.958589,0.955829\C,0,-1.98243
 1,-0.450327,0.322211\H,0,1.078224,-1.040998,1.539221\H,0,-1.194497,-1.
 722002,1.679561\\Version=ES64L-G16RevC.01\State=1-A\HF=-1221.8129849\R

 Normal termination of Gaussian 16 at Sat Apr  5 22:38:20 2025.
