 Gaussian 16, Revision C.01,

 ----------------------------------------------------------------------
 #t hf aug-cc-pvdz symm=none int=(grid=ultrafine) guess=(read,tcheck) s
 table=(opt,rrhf)
 ----------------------------------------------------------------------
 -----
 title
 -----
 Symbolic Z-matrix:
 Charge =  0 Multiplicity = 1

 SCF Done:  E(RHF) =  -1027.42909566     A.U. after   15 cycles
 Normal termination of Gaussian 16 at Sat Apr  5 22:37:58 2025.
 Gaussian 16:  ES64L-G16RevC.01  3-Jul-2019

 ----------------------------------------------------------------------
 #t hf aug-cc-pvdz iop(5/13=1,5/36=2,99/5=2) pseudo=read geom=check gue
 ss=(read,tcheck) scf=(maxcycle=1)
 ----------------------------------------------------------------------
 -----
 title
 -----
 Structure from the checkpoint file:  "2-chloroethylisothiocyanate.chk"
 Charge =  0 Multiplicity = 1

                         Standard orientation:
 ---------------------------------------------------------------------
 Center     Atomic      Atomic             Coordinates (Angstroms)
 Number     Number       Type             X           Y           Z
 ---------------------------------------------------------------------
      1         17           0       -2.404059   -0.918678    0.064286
      2         16           0        3.086866   -0.390320    0.010773
      3          7           0        0.477949    0.509740   -0.210547
      4          6           0       -0.645305    1.190578    0.353524
      5          6           0       -1.953863    0.791832   -0.301178
      6          6           0        1.598040    0.139991   -0.071736
      7          1           0       -0.688979    1.001710    1.427947
      8          1           0       -0.514156    2.267281    0.204283
      9          1           0       -1.896342    0.876305   -1.382173
     10          1           0       -2.760260    1.414766    0.074888
 ---------------------------------------------------------------------

 SCF Done:  E(RHF) =  -1027.73590804     A.U. after    2 cycles

 The electronic state is 1-A.
 Alpha  occ. eigenvalues -- -105.56930 -93.94713 -15.55346 -11.38756 -11.33366
 Alpha  occ. eigenvalues --  -11.32896 -10.61736  -8.22992  -7.78677  -7.78300
 Alpha  occ. eigenvalues --   -7.78289  -6.20893  -6.20462  -6.20429  -1.30942
 Alpha  occ. eigenvalues --   -1.14428  -1.07932  -1.02963  -0.90287  -0.77989
 Alpha  occ. eigenvalues --   -0.69868  -0.66803  -0.63411  -0.60989  -0.58487
 Alpha  occ. eigenvalues --   -0.56048  -0.53426  -0.46117  -0.45867  -0.38642
 Alpha  occ. eigenvalues --   -0.37728
 Alpha virt. eigenvalues --    0.02445   0.04172   0.04404   0.04972   0.07278
 Alpha virt. eigenvalues --    0.08188   0.08463   0.10268   0.10678   0.11025
 Alpha virt. eigenvalues --    0.11578   0.12628   0.14216   0.14320   0.15320

 Mulliken charges:
               1
     1  Cl  -0.051621
     2  S    0.271752
     3  N    0.801479
     4  C   -0.212323
     5  C   -0.447009
     6  C   -1.077327
     7  H    0.097765
     8  H    0.128236
     9  H    0.251348
    10  H    0.237701
 Sum of Mulliken charges =   0.00000

 Dipole moment (field-independent basis, Debye):
    X=             -1.9636    Y=              3.2634    Z=              0.4195  Tot=              3.8316

 Test job not archived.
 1\1\GINC-SE164\SP\RHF\Aug-CC-pVDZ\C3H4Cl1N1S1\OHZDE\05-Apr-2025\0\\#t
 hf aug-cc-pvdz iop(5/13=1,5/36=2,99/5=2) pseudo=read geom=check guess=
 (read,tcheck) scf=(maxcycle=1)\\title\\0,1\Cl,0,-2.404059,-0.918678,0.
 064286\S,0,3.086866,-0.39032,0.010773\N,0,0.477949,0.50974,-0.210547\C
 ,0,-0.645305,1.190578,0.353524\C,0,-1.953863,0.791832,-0.301178\C,0,1.
 59804,0.139991,-0.071736\H,0,-0.688979,1.00171,1.427947\H,0,-0.514156,
 2.267281,0.204283\H,0,-1.896342,0.876305,-1.382173\H,0,-2.76026,1.4147
 66,0.074888\\Version=ES64L-G16RevC.01\State=1-A\HF=-1027.735908\RMSD=1

 Normal termination of Gaussian 16 at Sat Apr  5 22:38:02 2025.
