 Gaussian 16, Revision C.01,

 ----------------------------------------------------------------------
 #t hf aug-cc-pvdz symm=none int=(grid=ultrafine) guess=(read,tcheck) s
 table=(opt,rrhf)
 ----------------------------------------------------------------------
 -----
 title
 -----
 Symbolic Z-matrix:
 Charge =  0 Multiplicity = 1

 SCF Done:  E(RHF) =  -1109.09501655     A.U. after   16 cycles
 Normal termination of Gaussian 16 at Sat Apr  5 22:38:02 2025.
 Gaussian 16:  ES64L-G16RevC.01  3-Jul-2019

 ----------------------------------------------------------------------
 #t hf aug-cc-pvdz iop(5/13=1,5/36=2,99/5=2) pseudo=read geom=check gue
 ss=(read,tcheck) scf=(maxcycle=1)
 ----------------------------------------------------------------------
 -----
 title
 -----
 Structure from the checkpoint file:  "2-chloro-5-fluorothiophene.chk"
 Charge =  0 Multiplicity = 1

                         Standard orientation:
 ---------------------------------------------------------------------
 Center     Atomic      Atomic             Coordinates (Angstroms)
 Number     Number       Type             X           Y           Z
 ---------------------------------------------------------------------
      1         17           0       -2.515817   -0.128816    0.000007
      2         16           0        0.326747   -1.096199   -0.000007
      3          9           0        2.880120   -0.361130   -0.000011
      4          6           0       -0.231182    1.433389    0.000009
      5          6           0        1.195500    1.353571    0.000004
      6          6           0       -0.825108    0.213609    0.000004
      7          6           0        1.617947    0.069156   -0.000005
      8          1           0       -0.784651    2.359095    0.000016
      9          1           0        1.861563    2.201781    0.000006
 ---------------------------------------------------------------------

 SCF Done:  E(RHF) =  -1109.47160453     A.U. after    2 cycles

 The electronic state is 1-A.
 Alpha  occ. eigenvalues -- -105.59690 -94.00935 -26.50900 -11.37771 -11.34117
 Alpha  occ. eigenvalues --  -11.27414 -11.26666 -10.64457  -8.29102  -7.81441
 Alpha  occ. eigenvalues --   -7.81011  -7.80989  -6.26857  -6.26777  -6.26521
 Alpha  occ. eigenvalues --   -1.64031  -1.22587  -1.11521  -1.04197  -0.97995
 Alpha  occ. eigenvalues --   -0.82248  -0.79220  -0.74125  -0.70489  -0.68130
 Alpha  occ. eigenvalues --   -0.65081  -0.60864  -0.57824  -0.55902  -0.52136
 Alpha  occ. eigenvalues --   -0.49579  -0.47939  -0.38675  -0.34216
 Alpha virt. eigenvalues --    0.03408   0.04558   0.06793   0.07619   0.07780
 Alpha virt. eigenvalues --    0.08621   0.10801   0.12158   0.12630   0.12959
 Alpha virt. eigenvalues --    0.13313   0.14185   0.14631   0.15025   0.15533

 Mulliken charges:
               1
     1  Cl  -0.245440
     2  S    0.717992
     3  F   -0.869555
     4  C    0.478703
     5  C    0.009072
     6  C   -0.409974
     7  C    0.473703
     8  H   -0.055958
     9  H   -0.098542
 Sum of Mulliken charges =  -0.00000

 Dipole moment (field-independent basis, Debye):
    X=              0.2088    Y=              1.4591    Z=              0.0000  Tot=              1.4739

 Test job not archived.
 1\1\GINC-SE177\SP\RHF\Aug-CC-pVDZ\C4H2Cl1F1S1\OHZDE\05-Apr-2025\0\\#t
 hf aug-cc-pvdz iop(5/13=1,5/36=2,99/5=2) pseudo=read geom=check guess=
 (read,tcheck) scf=(maxcycle=1)\\title\\0,1\Cl,0,-2.515817,-0.128816,0.
 000007\S,0,0.326747,-1.096199,-0.000007\F,0,2.88012,-0.36113,-0.000011
 \C,0,-0.231182,1.433389,0.000009\C,0,1.1955,1.353571,0.000004\C,0,-0.8
 25108,0.213609,0.000004\C,0,1.617947,0.069156,-0.000005\H,0,-0.784651,
 2.359095,0.000016\H,0,1.861563,2.201781,0.000006\\Version=ES64L-G16Rev
 C.01\State=1-A\HF=-1109.4716045\RMSD=1.981e-02\Dipole=0.0821615,0.5740

 Normal termination of Gaussian 16 at Sat Apr  5 22:38:08 2025.
