 Gaussian 16, Revision C.01,

 ----------------------------------------------------------------------
 #t hf aug-cc-pvdz symm=none int=(grid=ultrafine) guess=(read,tcheck) s
 table=(opt,rrhf)
 ----------------------------------------------------------------------
 -----
 title
 -----
 Symbolic Z-matrix:
 Charge =  0 Multiplicity = 1

 SCF Done:  E(RHF) =  -820.503329927     A.U. after   14 cycles
 Normal termination of Gaussian 16 at Sat Apr  5 22:38:01 2025.
 Gaussian 16:  ES64L-G16RevC.01  3-Jul-2019

 ----------------------------------------------------------------------
 #t hf aug-cc-pvdz iop(5/13=1,5/36=2,99/5=2) pseudo=read geom=check gue
 ss=(read,tcheck) scf=(maxcycle=1)
 ----------------------------------------------------------------------
 -----
 title
 -----
 Structure from the checkpoint file:  "2-chloro-5-fluoropyrimidine.chk"
 Charge =  0 Multiplicity = 1

                         Standard orientation:
 ---------------------------------------------------------------------
 Center     Atomic      Atomic             Coordinates (Angstroms)
 Number     Number       Type             X           Y           Z
 ---------------------------------------------------------------------
      1         17           0        0.000000   -0.000000    2.618722
      2          9           0        0.000000    0.000000   -3.087327
      3          7           0        0.000000    1.187499    0.290904
      4          7           0       -0.000000   -1.187499    0.290904
      5          6           0        0.000000   -0.000000    0.875246
      6          6           0        0.000000    0.000000   -1.745780
      7          6           0        0.000000    1.189332   -1.040282
      8          6           0       -0.000000   -1.189332   -1.040282
      9          1           0        0.000000    2.145496   -1.549203
     10          1           0       -0.000000   -2.145496   -1.549203
 ---------------------------------------------------------------------

 SCF Done:  E(RHF) =  -820.929377603     A.U. after    2 cycles

 The electronic state is 1-A1.
 Alpha  occ. eigenvalues -- -105.58420 -26.51098 -15.54851 -15.54791 -11.39674
 Alpha  occ. eigenvalues --  -11.36493 -11.33605 -11.33591 -10.63289  -7.80248
 Alpha  occ. eigenvalues --   -7.79818  -7.79807  -1.64217  -1.35932  -1.24297
 Alpha  occ. eigenvalues --   -1.14284  -1.05939  -0.97170  -0.91948  -0.81565
 Alpha  occ. eigenvalues --   -0.78522  -0.73453  -0.71338  -0.67276  -0.64639
 Alpha  occ. eigenvalues --   -0.64003  -0.63130  -0.55684  -0.50377  -0.49376
 Alpha  occ. eigenvalues --   -0.49367  -0.47548  -0.39571
 Alpha virt. eigenvalues --    0.03336   0.03424   0.03809   0.07181   0.07639
 Alpha virt. eigenvalues --    0.08143   0.09241   0.09602   0.10709   0.12372
 Alpha virt. eigenvalues --    0.12486   0.13124   0.13229   0.14436   0.14776

 Mulliken charges:
               1
     1  Cl   0.115285
     2  F   -0.917555
     3  N    0.929241
     4  N    0.929241
     5  C   -1.416357
     6  C    1.372841
     7  C   -0.418631
     8  C   -0.418631
     9  H   -0.087716
    10  H   -0.087716
 Sum of Mulliken charges =  -0.00000

 Dipole moment (field-independent basis, Debye):
    X=             -0.0000    Y=              0.0000    Z=             -2.7649  Tot=              2.7649

 Test job not archived.
 1\1\GINC-SE055\SP\RHF\Aug-CC-pVDZ\C4H2Cl1F1N2\OHZDE\05-Apr-2025\0\\#t
 hf aug-cc-pvdz iop(5/13=1,5/36=2,99/5=2) pseudo=read geom=check guess=
 (read,tcheck) scf=(maxcycle=1)\\title\\0,1\Cl,0,0.,0.,2.618722\F,0,0.,
 0.,-3.087327\N,0,0.,1.187499,0.290904\N,0,0.,-1.187499,0.290904\C,0,0.
 ,0.,0.875246\C,0,0.,0.,-1.74578\C,0,0.,1.189332,-1.040282\C,0,0.,-1.18
 9332,-1.040282\H,0,0.,2.145496,-1.549203\H,0,0.,-2.145496,-1.549203\\V
 ersion=ES64L-G16RevC.01\State=1-A1\HF=-820.9293776\RMSD=2.240e-02\Dipo
 le=0.,0.,-1.0877972\Quadrupole=-0.1187659,1.0891003,-0.9703344,0.,0.,0

 Normal termination of Gaussian 16 at Sat Apr  5 22:38:04 2025.
