 Gaussian 16, Revision C.01,

 ----------------------------------------------------------------------
 #t hf aug-cc-pvdz symm=none int=(grid=ultrafine) guess=(read,tcheck) s
 table=(opt,rrhf)
 ----------------------------------------------------------------------
 -----
 title
 -----
 Symbolic Z-matrix:
 Charge =  0 Multiplicity = 1

 SCF Done:  E(RHF) =  -896.241175660     A.U. after   16 cycles
 Normal termination of Gaussian 16 at Sat Apr  5 22:38:11 2025.
 Gaussian 16:  ES64L-G16RevC.01  3-Jul-2019

 ----------------------------------------------------------------------
 #t hf aug-cc-pvdz iop(5/13=1,5/36=2,99/5=2) pseudo=read geom=check gue
 ss=(read,tcheck) scf=(maxcycle=1)
 ----------------------------------------------------------------------
 -----
 title
 -----
 Structure from the checkpoint file:  "2-chloro-3-cyano-5-fluoropyridine.chk"
 Charge =  0 Multiplicity = 1

                         Standard orientation:
 ---------------------------------------------------------------------
 Center     Atomic      Atomic             Coordinates (Angstroms)
 Number     Number       Type             X           Y           Z
 ---------------------------------------------------------------------
      1         17           0       -2.197577   -1.227671   -0.000015
      2          9           0        3.325479    0.455112    0.000010
      3          7           0        0.390768   -1.596694   -0.000015
      4          7           0       -2.115599    2.508502    0.000021
      5          6           0       -0.276396    0.703136    0.000006
      6          6           0       -0.547172   -0.677505   -0.000008
      7          6           0        2.027709    0.116243    0.000004
      8          6           0        1.061483    1.100236    0.000013
      9          6           0        1.668300   -1.221079   -0.000009
     10          6           0       -1.309558    1.686129    0.000014
     11          1           0        1.333645    2.145419    0.000023
     12          1           0        2.423474   -1.996630   -0.000016
 ---------------------------------------------------------------------

 SCF Done:  E(RHF) =  -896.736625656     A.U. after    2 cycles

 The electronic state is 1-A.
 Alpha  occ. eigenvalues -- -105.60071 -26.51831 -15.56163 -15.53951 -11.39168
 Alpha  occ. eigenvalues --  -11.38008 -11.33848 -11.33487 -11.32561 -11.30583
 Alpha  occ. eigenvalues --  -10.64902  -7.81871  -7.81435  -7.81433  -1.65015
 Alpha  occ. eigenvalues --   -1.33549  -1.25901  -1.16529  -1.15140  -1.05690
 Alpha  occ. eigenvalues --   -0.97641  -0.91673  -0.83120  -0.80064  -0.75025
 Alpha  occ. eigenvalues --   -0.72652  -0.71905  -0.67110  -0.64770  -0.64173
 Alpha  occ. eigenvalues --   -0.63044  -0.61189  -0.55594  -0.53593  -0.51631
 Alpha  occ. eigenvalues --   -0.50934  -0.49482  -0.45210  -0.38964
 Alpha virt. eigenvalues --    0.01608   0.02975   0.03557   0.05526   0.06564
 Alpha virt. eigenvalues --    0.07694   0.07926   0.08482   0.08999   0.11196
 Alpha virt. eigenvalues --    0.11556   0.12172   0.12388   0.13083   0.13877

 Mulliken charges:
               1
     1  Cl  -0.079295
     2  F   -0.956402
     3  N    1.150740
     4  N    1.120308
     5  C    2.577037
     6  C   -1.733530
     7  C    1.184267
     8  C    0.330356
     9  C   -0.434387
    10  C   -2.847983
    11  H   -0.199091
    12  H   -0.112018
 Sum of Mulliken charges =  -0.00000

 Dipole moment (field-independent basis, Debye):
    X=              4.1095    Y=             -1.0891    Z=             -0.0000  Tot=              4.2514

 Test job not archived.
 1\1\GINC-SE146\SP\RHF\Aug-CC-pVDZ\C6H2Cl1F1N2\OHZDE\05-Apr-2025\0\\#t
 hf aug-cc-pvdz iop(5/13=1,5/36=2,99/5=2) pseudo=read geom=check guess=
 (read,tcheck) scf=(maxcycle=1)\\title\\0,1\Cl,0,-2.197577,-1.227671,-0
 .000015\F,0,3.325479,0.455112,0.00001\N,0,0.390768,-1.596694,-0.000015
 \N,0,-2.115599,2.508502,0.000021\C,0,-0.276396,0.703136,0.000006\C,0,-
 0.547172,-0.677505,-0.000008\C,0,2.027709,0.116243,0.000004\C,0,1.0614
 83,1.100236,0.000013\C,0,1.6683,-1.221079,-0.000009\C,0,-1.309558,1.68
 6129,0.000014\H,0,1.333645,2.145419,0.000023\H,0,2.423474,-1.99663,-0.

 Normal termination of Gaussian 16 at Sat Apr  5 22:38:39 2025.
