 Gaussian 16, Revision C.01,

 ----------------------------------------------------------------------
 #t hf aug-cc-pvdz symm=none int=(grid=ultrafine) guess=(read,tcheck) s
 table=(opt,rrhf)
 ----------------------------------------------------------------------
 -----
 title
 -----
 Symbolic Z-matrix:
 Charge =  0 Multiplicity = 1

 SCF Done:  E(RHF) =  -705.648625508     A.U. after   15 cycles
 Normal termination of Gaussian 16 at Sat Apr  5 22:38:02 2025.
 Gaussian 16:  ES64L-G16RevC.01  3-Jul-2019

 ----------------------------------------------------------------------
 #t hf aug-cc-pvdz iop(5/13=1,5/36=2,99/5=2) pseudo=read geom=check gue
 ss=(read,tcheck) scf=(maxcycle=1)
 ----------------------------------------------------------------------
 -----
 title
 -----
 Structure from the checkpoint file:  "2-chloropyridine.chk"
 Charge =  0 Multiplicity = 1

                         Standard orientation:
 ---------------------------------------------------------------------
 Center     Atomic      Atomic             Coordinates (Angstroms)
 Number     Number       Type             X           Y           Z
 ---------------------------------------------------------------------
      1          6           0        1.117725   -1.621803   -0.000000
      2          6           0       -0.134069   -2.228093   -0.000000
      3          6           0        1.198783   -0.239009   -0.000000
      4          6           0       -1.256434   -1.414618   -0.000000
      5          6           0       -0.000000    0.468958    0.000000
      6          7           0       -1.193392   -0.079210    0.000000
      7         17           0        0.066000    2.226123    0.000000
      8          1           0        2.020759   -2.217276   -0.000000
      9          1           0       -0.237805   -3.303639   -0.000000
     10          1           0        2.145204    0.279331   -0.000000
     11          1           0       -2.252451   -1.840653    0.000000
 ---------------------------------------------------------------------

 SCF Done:  E(RHF) =  -705.975681715     A.U. after    2 cycles

 The electronic state is 1-A'.
 Alpha  occ. eigenvalues -- -105.57266 -15.52264 -11.35173 -11.29875 -11.28289
 Alpha  occ. eigenvalues --  -11.26727 -11.26181 -10.62101  -7.79059  -7.78649
 Alpha  occ. eigenvalues --   -7.78646  -1.29451  -1.11391  -1.11304  -1.01681
 Alpha  occ. eigenvalues --   -0.90275  -0.86792  -0.74084  -0.71537  -0.66940
 Alpha  occ. eigenvalues --   -0.62067  -0.61082  -0.60274  -0.55349  -0.49001
 Alpha  occ. eigenvalues --   -0.47452  -0.46985  -0.42237  -0.36309
 Alpha virt. eigenvalues --    0.02895   0.03608   0.04225   0.06021   0.06750
 Alpha virt. eigenvalues --    0.08512   0.08665   0.10637   0.10764   0.11999
 Alpha virt. eigenvalues --    0.12322   0.13366   0.13798   0.14215   0.14432

 Mulliken charges:
               1
     1  C   -0.007495
     2  C    0.723232
     3  C    1.168920
     4  C   -0.683260
     5  C   -1.609730
     6  N    1.200274
     7  Cl  -0.138326
     8  H   -0.156057
     9  H   -0.177503
    10  H   -0.143824
    11  H   -0.176231
 Sum of Mulliken charges =   0.00000

 Dipole moment (field-independent basis, Debye):
    X=              2.0874    Y=             -3.3698    Z=             -0.0000  Tot=              3.9640

 Test job not archived.
 1\1\GINC-SE231\SP\RHF\Aug-CC-pVDZ\C5H4Cl1N1\OHZDE\05-Apr-2025\0\\#t hf
  aug-cc-pvdz iop(5/13=1,5/36=2,99/5=2) pseudo=read geom=check guess=(r
 ead,tcheck) scf=(maxcycle=1)\\title\\0,1\C,0,1.117724,-1.621803,0.\C,0
 ,-0.13407,-2.228093,0.\C,0,1.198783,-0.239009,0.\C,0,-1.256435,-1.4146
 17,0.\C,0,0.,0.468958,0.\N,0,-1.193392,-0.079209,0.\Cl,0,0.066001,2.22
 6123,0.\H,0,2.020758,-2.217277,0.\H,0,-0.237807,-3.303639,0.\H,0,2.145
 204,0.27933,0.\H,0,-2.252452,-1.840652,0.\\Version=ES64L-G16RevC.01\St
 ate=1-A'\HF=-705.9756817\RMSD=3.107e-02\Dipole=0.8212575,-1.3257856,0.

 Normal termination of Gaussian 16 at Sat Apr  5 22:38:09 2025.
