 Gaussian 16, Revision C.01,

 ----------------------------------------------------------------------
 #t hf aug-cc-pvdz symm=none int=(grid=ultrafine) guess=(read,tcheck) s
 table=(opt,rrhf)
 ----------------------------------------------------------------------
 -----
 title
 -----
 Symbolic Z-matrix:
 Charge =  0 Multiplicity = 1

 SCF Done:  E(RHF) =  -615.051403028     A.U. after   13 cycles

 1\1\GINC-SE223\Stability\RHF\Aug-CC-pVDZ\C4H7Cl1\OHZDE\05-Apr-2025\0\\
 #t hf aug-cc-pvdz symm=none int=(grid=ultrafine) guess=(read,tcheck) s
 table=(opt,rrhf)\\title\\0,1\C,0,2.147973,-1.066945,0.\H,0,2.507268,-2
 .095782,0.\H,0,2.554206,-0.572788,0.882885\H,0,2.554206,-0.572788,-0.8
 82885\C,0,0.621595,-1.051458,0.\H,0,0.241625,-1.595107,-0.869387\H,0,0
 .241625,-1.595107,0.869387\C,0,0.604486,1.49013,0.\H,0,1.683307,1.5465
 61,0.\C,0,0.,0.312724,0.\Cl,0,-1.769241,0.256602,0.\H,0,0.050536,2.416
 069,0.\\Version=ES64L-G16RevC.01\HF=-615.051403\RMSD=4.522e-09\Dipole=

 Normal termination of Gaussian 16 at Sat Apr  5 22:37:44 2025.
 Gaussian 16:  ES64L-G16RevC.01  3-Jul-2019

 ----------------------------------------------------------------------
 #t hf aug-cc-pvdz iop(5/13=1,5/36=2,99/5=2) pseudo=read geom=check gue
 ss=(read,tcheck) scf=(maxcycle=1)
 ----------------------------------------------------------------------
 -----
 title
 -----
 Structure from the checkpoint file:  "2-chloro-1-butene.chk"
 Charge =  0 Multiplicity = 1

                         Standard orientation:
 ---------------------------------------------------------------------
 Center     Atomic      Atomic             Coordinates (Angstroms)
 Number     Number       Type             X           Y           Z
 ---------------------------------------------------------------------
      1          6           0        2.147973   -1.066945    0.000000
      2          1           0        2.507268   -2.095782    0.000000
      3          1           0        2.554206   -0.572788    0.882885
      4          1           0        2.554206   -0.572788   -0.882885
      5          6           0        0.621595   -1.051458    0.000000
      6          1           0        0.241625   -1.595107   -0.869387
      7          1           0        0.241625   -1.595107    0.869387
      8          6           0        0.604486    1.490130    0.000000
      9          1           0        1.683307    1.546561    0.000000
     10          6           0        0.000000    0.312724    0.000000
     11         17           0       -1.769241    0.256602    0.000000
     12          1           0        0.050536    2.416069    0.000000
 ---------------------------------------------------------------------

 SCF Done:  E(RHF) =  -615.298211888     A.U. after    2 cycles

 The electronic state is 1-A'.
 Alpha  occ. eigenvalues -- -105.56363 -11.31153 -11.25383 -11.24433 -11.23836
 Alpha  occ. eigenvalues --  -10.61188  -7.78139  -7.77757  -7.77744  -1.14617
 Alpha  occ. eigenvalues --   -1.04109  -0.98832  -0.88930  -0.73934  -0.66384
 Alpha  occ. eigenvalues --   -0.63939  -0.62344  -0.57177  -0.53492  -0.52336
 Alpha  occ. eigenvalues --   -0.51098  -0.48559  -0.45523  -0.37177
 Alpha virt. eigenvalues --    0.03543   0.03824   0.04530   0.04659   0.06520
 Alpha virt. eigenvalues --    0.07581   0.07612   0.09756   0.10662   0.12130
 Alpha virt. eigenvalues --    0.13520   0.13896   0.15297   0.15613   0.16166

 Mulliken charges:
               1
     1  C   -0.245474
     2  H    0.056695
     3  H    0.212143
     4  H    0.212143
     5  C   -0.521953
     6  H    0.249888
     7  H    0.249888
     8  C    0.278193
     9  H   -0.084670
    10  C   -0.009445
    11  Cl  -0.290635
    12  H   -0.106771
 Sum of Mulliken charges =  -0.00000

 Dipole moment (field-independent basis, Debye):
    X=              2.0506    Y=             -0.3839    Z=             -0.0000  Tot=              2.0863

 Test job not archived.
 1\1\GINC-SE223\SP\RHF\Aug-CC-pVDZ\C4H7Cl1\OHZDE\05-Apr-2025\0\\#t hf a
 ug-cc-pvdz iop(5/13=1,5/36=2,99/5=2) pseudo=read geom=check guess=(rea
 d,tcheck) scf=(maxcycle=1)\\title\\0,1\C,0,2.147973,-1.066945,0.\H,0,2
 .507268,-2.095782,0.\H,0,2.554206,-0.572788,0.882885\H,0,2.554206,-0.5
 72788,-0.882885\C,0,0.621595,-1.051458,0.\H,0,0.241625,-1.595107,-0.86
 9387\H,0,0.241625,-1.595107,0.869387\C,0,0.604486,1.49013,0.\H,0,1.683
 307,1.546561,0.\C,0,0.,0.312724,0.\Cl,0,-1.769241,0.256602,0.\H,0,0.05
 0536,2.416069,0.\\Version=ES64L-G16RevC.01\State=1-A'\HF=-615.2982119\

 Normal termination of Gaussian 16 at Sat Apr  5 22:37:49 2025.
