 Gaussian 16, Revision C.01,

 ----------------------------------------------------------------------
 #t hf aug-cc-pvdz symm=none int=(grid=ultrafine) guess=(read,tcheck) s
 table=(opt,rrhf)
 ----------------------------------------------------------------------
 -----
 title
 -----
 Symbolic Z-matrix:
 Charge =  0 Multiplicity = 1

 SCF Done:  E(RHF) =  -616.245582640     A.U. after   12 cycles

 1\1\GINC-SE115\Stability\RHF\Aug-CC-pVDZ\C4H9Cl1\OHZDE\05-Apr-2025\0\\
 #t hf aug-cc-pvdz symm=none int=(grid=ultrafine) guess=(read,tcheck) s
 table=(opt,rrhf)\\title\\0,1\C,0,-2.206969,-0.247941,0.120536\C,0,1.30
 8098,1.482588,-0.007133\C,0,-1.084035,0.682292,-0.327997\C,0,0.25625,0
 .451574,0.355516\Cl,0,0.901845,-1.220351,-0.068863\H,0,-3.140782,0.008
 425,-0.380359\H,0,-2.375597,-0.171892,1.196607\H,0,-1.974733,-1.286618
 ,-0.109767\H,0,0.96773,2.473657,0.301639\H,0,2.253331,1.27419,0.490384
 \H,0,1.481667,1.499431,-1.08311\H,0,-1.364879,1.71938,-0.116341\H,0,-0

 Normal termination of Gaussian 16 at Sat Apr  5 22:38:05 2025.
 Gaussian 16:  ES64L-G16RevC.01  3-Jul-2019

 ----------------------------------------------------------------------
 #t hf aug-cc-pvdz iop(5/13=1,5/36=2,99/5=2) pseudo=read geom=check gue
 ss=(read,tcheck) scf=(maxcycle=1)
 ----------------------------------------------------------------------
 -----
 title
 -----
 Structure from the checkpoint file:  "2-chlorobutane.chk"
 Charge =  0 Multiplicity = 1

                         Standard orientation:
 ---------------------------------------------------------------------
 Center     Atomic      Atomic             Coordinates (Angstroms)
 Number     Number       Type             X           Y           Z
 ---------------------------------------------------------------------
      1          6           0       -2.206969   -0.247941    0.120536
      2          6           0        1.308098    1.482588   -0.007133
      3          6           0       -1.084035    0.682292   -0.327997
      4          6           0        0.256250    0.451574    0.355516
      5         17           0        0.901845   -1.220351   -0.068863
      6          1           0       -3.140782    0.008426   -0.380359
      7          1           0       -2.375597   -0.171892    1.196607
      8          1           0       -1.974733   -1.286618   -0.109767
      9          1           0        0.967731    2.473657    0.301639
     10          1           0        2.253331    1.274190    0.490384
     11          1           0        1.481667    1.499431   -1.083110
     12          1           0       -1.364879    1.719380   -0.116341
     13          1           0       -0.943092    0.614242   -1.409190
     14          1           0        0.124917    0.404075    1.435284
 ---------------------------------------------------------------------

 SCF Done:  E(RHF) =  -616.499318566     A.U. after    2 cycles

 The electronic state is 1-A.
 Alpha  occ. eigenvalues -- -105.54266 -11.30710 -11.24445 -11.24067 -11.22792
 Alpha  occ. eigenvalues --  -10.59082  -7.76006  -7.75667  -7.75658  -1.13135
 Alpha  occ. eigenvalues --   -1.02158  -0.98273  -0.87935  -0.79437  -0.65797
 Alpha  occ. eigenvalues --   -0.62189  -0.61460  -0.59111  -0.54728  -0.52179
 Alpha  occ. eigenvalues --   -0.50998  -0.50218  -0.48510  -0.43555  -0.43391
 Alpha virt. eigenvalues --    0.03517   0.03814   0.04052   0.04939   0.06379
 Alpha virt. eigenvalues --    0.06453   0.06834   0.08043   0.09620   0.11135
 Alpha virt. eigenvalues --    0.11977   0.13120   0.14558   0.15887   0.16027

 Mulliken charges:
               1
     1  C   -0.343869
     2  C   -0.160965
     3  C   -0.204232
     4  C   -0.656277
     5  Cl  -0.149484
     6  H    0.126365
     7  H    0.160317
     8  H    0.201751
     9  H    0.193856
    10  H    0.130928
    11  H    0.221849
    12  H    0.169872
    13  H    0.141034
    14  H    0.168855
 Sum of Mulliken charges =  -0.00000

 Dipole moment (field-independent basis, Debye):
    X=             -0.9812    Y=              2.3178    Z=              0.4249  Tot=              2.5526

 Test job not archived.
 1\1\GINC-SE115\SP\RHF\Aug-CC-pVDZ\C4H9Cl1\OHZDE\05-Apr-2025\0\\#t hf a
 ug-cc-pvdz iop(5/13=1,5/36=2,99/5=2) pseudo=read geom=check guess=(rea
 d,tcheck) scf=(maxcycle=1)\\title\\0,1\C,0,-2.206969,-0.247941,0.12053
 6\C,0,1.308098,1.482588,-0.007133\C,0,-1.084035,0.682292,-0.327997\C,0
 ,0.25625,0.451574,0.355516\Cl,0,0.901845,-1.220351,-0.068863\H,0,-3.14
 0782,0.008425,-0.380359\H,0,-2.375597,-0.171892,1.196607\H,0,-1.974733
 ,-1.286618,-0.109767\H,0,0.96773,2.473657,0.301639\H,0,2.253331,1.2741
 9,0.490384\H,0,1.481667,1.499431,-1.08311\H,0,-1.364879,1.71938,-0.116

 Normal termination of Gaussian 16 at Sat Apr  5 22:38:11 2025.
