 Gaussian 16, Revision C.01,

 ----------------------------------------------------------------------
 #t hf aug-cc-pvdz symm=none int=(grid=ultrafine) guess=(read,tcheck) s
 table=(opt,rrhf)
 ----------------------------------------------------------------------
 -----
 title
 -----
 Symbolic Z-matrix:
 Charge =  0 Multiplicity = 1

 SCF Done:  E(RHF) =  -1176.86343745     A.U. after   16 cycles
 Normal termination of Gaussian 16 at Sat Apr  5 22:38:14 2025.
 Gaussian 16:  ES64L-G16RevC.01  3-Jul-2019

 ----------------------------------------------------------------------
 #t hf aug-cc-pvdz iop(5/13=1,5/36=2,99/5=2) pseudo=read geom=check gue
 ss=(read,tcheck) scf=(maxcycle=1)
 ----------------------------------------------------------------------
 -----
 title
 -----
 Structure from the checkpoint file:  "2-chloro-5-isocyanatothiophene.chk"
 Charge =  0 Multiplicity = 1

                         Standard orientation:
 ---------------------------------------------------------------------
 Center     Atomic      Atomic             Coordinates (Angstroms)
 Number     Number       Type             X           Y           Z
 ---------------------------------------------------------------------
      1         17           0        3.117903   -0.625315   -0.000000
      2         16           0        0.125551   -0.848541   -0.000000
      3          8           0       -4.150489   -0.844343   -0.000002
      4          7           0       -2.237269    0.548089    0.000001
      5          6           0       -0.101979    1.727519    0.000002
      6          6           0       -0.867078    0.598532    0.000001
      7          6           0        1.293679    1.456131    0.000001
      8          6           0        1.565665    0.124962   -0.000000
      9          6           0       -3.170305   -0.208471   -0.000000
     10          1           0       -0.528661    2.718444    0.000002
     11          1           0        2.060415    2.214641    0.000002
 ---------------------------------------------------------------------

 SCF Done:  E(RHF) =  -1177.30876360     A.U. after    2 cycles

 The electronic state is 1-A.
 Alpha  occ. eigenvalues -- -105.59908 -94.00898 -20.61838 -15.56345 -11.43877
 Alpha  occ. eigenvalues --  -11.35051 -11.34427 -11.27331 -11.26957 -10.64675
 Alpha  occ. eigenvalues --   -8.29063  -7.81660  -7.81227  -7.81207  -6.26823
 Alpha  occ. eigenvalues --   -6.26733  -6.26487  -1.56296  -1.32530  -1.22408
 Alpha  occ. eigenvalues --   -1.12187  -1.04059  -1.02205  -0.89711  -0.78409
 Alpha  occ. eigenvalues --   -0.75837  -0.74304  -0.69436  -0.68340  -0.66007
 Alpha  occ. eigenvalues --   -0.60776  -0.59407  -0.59255  -0.53987  -0.53504
 Alpha  occ. eigenvalues --   -0.49027  -0.47717  -0.47706  -0.38696  -0.33458
 Alpha virt. eigenvalues --    0.03073   0.04326   0.06022   0.06060   0.07048
 Alpha virt. eigenvalues --    0.07891   0.09238   0.09244   0.10020   0.11485
 Alpha virt. eigenvalues --    0.11717   0.12211   0.13240   0.13695   0.13763

 Mulliken charges:
               1
     1  Cl  -0.252600
     2  S    0.708564
     3  O   -0.984847
     4  N    0.989697
     5  C    1.001980
     6  C   -1.779193
     7  C    0.341028
     8  C   -0.411226
     9  C    0.592422
    10  H   -0.132114
    11  H   -0.073709
 Sum of Mulliken charges =  -0.00000

 Dipole moment (field-independent basis, Debye):
    X=              0.8243    Y=              1.4884    Z=              0.0000  Tot=              1.7014

 Test job not archived.
 1\1\GINC-SE183\SP\RHF\Aug-CC-pVDZ\C5H2Cl1N1O1S1\OHZDE\05-Apr-2025\0\\#
 t hf aug-cc-pvdz iop(5/13=1,5/36=2,99/5=2) pseudo=read geom=check gues
 s=(read,tcheck) scf=(maxcycle=1)\\title\\0,1\Cl,0,3.117903,-0.625315,0
 .\S,0,0.125551,-0.848541,0.\O,0,-4.150489,-0.844343,-0.000002\N,0,-2.2
 37269,0.548089,0.000001\C,0,-0.101979,1.727519,0.000002\C,0,-0.867078,
 0.598532,0.000001\C,0,1.293679,1.456131,0.000001\C,0,1.565665,0.124962
 ,0.\C,0,-3.170305,-0.208471,0.\H,0,-0.528661,2.718444,0.000002\H,0,2.0
 60415,2.214641,0.000002\\Version=ES64L-G16RevC.01\State=1-A\HF=-1177.3

 Normal termination of Gaussian 16 at Sat Apr  5 22:38:37 2025.
