 Gaussian 16, Revision C.01,

 ----------------------------------------------------------------------
 #t hf aug-cc-pvdz symm=none int=(grid=ultrafine) guess=(read,tcheck) s
 table=(opt,rrhf)
 ----------------------------------------------------------------------
 -----
 title
 -----
 Symbolic Z-matrix:
 Charge =  0 Multiplicity = 1

 SCF Done:  E(RHF) =  -744.693456776     A.U. after   17 cycles
 Normal termination of Gaussian 16 at Sat Apr  5 22:38:35 2025.
 Gaussian 16:  ES64L-G16RevC.01  3-Jul-2019

 ----------------------------------------------------------------------
 #t hf aug-cc-pvdz iop(5/13=1,5/36=2,99/5=2) pseudo=read geom=check gue
 ss=(read,tcheck) scf=(maxcycle=1)
 ----------------------------------------------------------------------
 -----
 title
 -----
 Structure from the checkpoint file:  "2-chloroaniline.chk"
 Charge =  0 Multiplicity = 1

                         Standard orientation:
 ---------------------------------------------------------------------
 Center     Atomic      Atomic             Coordinates (Angstroms)
 Number     Number       Type             X           Y           Z
 ---------------------------------------------------------------------
      1          6           0        2.353096    0.002149    0.005068
      2          6           0        1.834314   -1.289002    0.004046
      3          6           0        1.509217    1.100037   -0.001011
      4          6           0        0.457168   -1.465035    0.000236
      5          6           0        0.115237    0.948254   -0.007408
      6          6           0       -0.381938   -0.362325   -0.004647
      7          7           0       -0.722435    2.046777   -0.068656
      8         17           0       -2.123824   -0.611728    0.002158
      9          1           0        3.423493    0.156594    0.009813
     10          1           0        2.488998   -2.148476    0.007665
     11          1           0        1.921614    2.101235   -0.007590
     12          1           0        0.024889   -2.455106    0.003520
     13          1           0       -0.338872    2.918571    0.253707
     14          1           0       -1.680635    1.894647    0.199077
 ---------------------------------------------------------------------

 SCF Done:  E(RHF) =  -745.064180710     A.U. after    2 cycles

 The electronic state is 1-A.
 Alpha  occ. eigenvalues -- -105.57212 -15.51658 -11.30155 -11.29829 -11.25704
 Alpha  occ. eigenvalues --  -11.25246 -11.24376 -11.23921 -10.62017  -7.78975
 Alpha  occ. eigenvalues --   -7.78604  -7.78566  -1.24394  -1.15575  -1.09602
 Alpha  occ. eigenvalues --   -1.01461  -0.98257  -0.85839  -0.83328  -0.74043
 Alpha  occ. eigenvalues --   -0.73592  -0.67707  -0.63876  -0.62707  -0.59951
 Alpha  occ. eigenvalues --   -0.58338  -0.54344  -0.51725  -0.50352  -0.47255
 Alpha  occ. eigenvalues --   -0.46806  -0.35136  -0.31958
 Alpha virt. eigenvalues --    0.03125   0.03709   0.04050   0.05476   0.06019
 Alpha virt. eigenvalues --    0.08157   0.09289   0.10432   0.10930   0.11334
 Alpha virt. eigenvalues --    0.11992   0.13113   0.13735   0.13806   0.14301

 Mulliken charges:
               1
     1  C   -0.158937
     2  C    0.444480
     3  C    1.174399
     4  C    0.120193
     5  C   -1.833589
     6  C    0.726244
     7  N    0.836708
     8  Cl  -0.446854
     9  H   -0.222700
    10  H   -0.221200
    11  H   -0.307982
    12  H   -0.170249
    13  H    0.005292
    14  H    0.054194
 Sum of Mulliken charges =  -0.00000

 Dipole moment (field-independent basis, Debye):
    X=              1.3601    Y=              1.1076    Z=              0.8623  Tot=              1.9545

 Test job not archived.
 1\1\GINC-SE052\SP\RHF\Aug-CC-pVDZ\C6H6Cl1N1\OHZDE\05-Apr-2025\0\\#t hf
  aug-cc-pvdz iop(5/13=1,5/36=2,99/5=2) pseudo=read geom=check guess=(r
 ead,tcheck) scf=(maxcycle=1)\\title\\0,1\C,0,2.353096,0.002148,0.00506
 8\C,0,1.834314,-1.289002,0.004046\C,0,1.509217,1.100037,-0.001011\C,0,
 0.457168,-1.465035,0.000236\C,0,0.115237,0.948254,-0.007408\C,0,-0.381
 938,-0.362325,-0.004647\N,0,-0.722435,2.046777,-0.068656\Cl,0,-2.12382
 4,-0.611727,0.002158\H,0,3.423493,0.156593,0.009813\H,0,2.488997,-2.14
 8477,0.007665\H,0,1.921615,2.101235,-0.00759\H,0,0.024888,-2.455106,0.

 Normal termination of Gaussian 16 at Sat Apr  5 22:39:12 2025.
