 Gaussian 16, Revision C.01,

 ----------------------------------------------------------------------
 #t hf aug-cc-pvdz symm=none int=(grid=ultrafine) guess=(read,tcheck) s
 table=(opt,rrhf)
 ----------------------------------------------------------------------
 -----
 title
 -----
 Symbolic Z-matrix:
 Charge =  0 Multiplicity = 1

 SCF Done:  E(RHF) =  -577.207474259     A.U. after   12 cycles

 1\1\GINC-SE190\Stability\RHF\Aug-CC-pVDZ\C3H7Cl1\OHZDE\05-Apr-2025\0\\
 #t hf aug-cc-pvdz symm=none int=(grid=ultrafine) guess=(read,tcheck) s
 table=(opt,rrhf)\\title\\0,1\C,0,-0.574621,-0.905235,1.27048\C,0,-0.57
 4621,-0.905235,-1.27048\C,0,-0.574621,-0.076502,0.\Cl,0,0.896612,1.024
 877,0.\H,0,-0.565593,-0.272482,2.155996\H,0,-1.473445,-1.525794,1.2994
 65\H,0,0.295393,-1.561,1.305554\H,0,-0.565593,-0.272482,-2.155996\H,0,
 -1.473445,-1.525794,-1.299465\H,0,0.295393,-1.561,-1.305554\H,0,-1.411
 924,0.61747,0.\\Version=ES64L-G16RevC.01\HF=-577.2074743\RMSD=2.967e-0

 Normal termination of Gaussian 16 at Sat Apr  5 22:37:52 2025.
 Gaussian 16:  ES64L-G16RevC.01  3-Jul-2019

 ----------------------------------------------------------------------
 #t hf aug-cc-pvdz iop(5/13=1,5/36=2,99/5=2) pseudo=read geom=check gue
 ss=(read,tcheck) scf=(maxcycle=1)
 ----------------------------------------------------------------------
 -----
 title
 -----
 Structure from the checkpoint file:  "2-chloropropane.chk"
 Charge =  0 Multiplicity = 1

                         Standard orientation:
 ---------------------------------------------------------------------
 Center     Atomic      Atomic             Coordinates (Angstroms)
 Number     Number       Type             X           Y           Z
 ---------------------------------------------------------------------
      1          6           0       -0.574621   -0.905235    1.270480
      2          6           0       -0.574621   -0.905235   -1.270480
      3          6           0       -0.574621   -0.076502    0.000000
      4         17           0        0.896612    1.024877   -0.000000
      5          1           0       -0.565593   -0.272482    2.155996
      6          1           0       -1.473445   -1.525794    1.299465
      7          1           0        0.295393   -1.561000    1.305554
      8          1           0       -0.565593   -0.272482   -2.155996
      9          1           0       -1.473445   -1.525794   -1.299465
     10          1           0        0.295393   -1.561000   -1.305554
     11          1           0       -1.411924    0.617470    0.000000
 ---------------------------------------------------------------------

 SCF Done:  E(RHF) =  -577.417755560     A.U. after    2 cycles

 The electronic state is 1-A'.
 Alpha  occ. eigenvalues -- -105.54394 -11.30996 -11.24181 -11.24167 -10.59211
 Alpha  occ. eigenvalues --   -7.76135  -7.75789  -7.75783  -1.12654  -0.99219
 Alpha  occ. eigenvalues --   -0.95726  -0.80348  -0.65799  -0.62273  -0.60080
 Alpha  occ. eigenvalues --   -0.56360  -0.52657  -0.52288  -0.49542  -0.43693
 Alpha  occ. eigenvalues --   -0.43604
 Alpha virt. eigenvalues --    0.03492   0.04265   0.04277   0.05220   0.07031
 Alpha virt. eigenvalues --    0.07238   0.07560   0.09860   0.12780   0.13392
 Alpha virt. eigenvalues --    0.14963   0.15248   0.16122   0.16599   0.17349

 Mulliken charges:
               1
     1  C   -0.104214
     2  C   -0.104214
     3  C   -0.921625
     4  Cl  -0.124319
     5  H    0.132909
     6  H    0.198738
     7  H    0.209209
     8  H    0.132909
     9  H    0.198738
    10  H    0.209209
    11  H    0.172659
 Sum of Mulliken charges =   0.00000

 Dipole moment (field-independent basis, Debye):
    X=             -1.9915    Y=             -1.6508    Z=             -0.0000  Tot=              2.5867

 Test job not archived.
 1\1\GINC-SE190\SP\RHF\Aug-CC-pVDZ\C3H7Cl1\OHZDE\05-Apr-2025\0\\#t hf a
 ug-cc-pvdz iop(5/13=1,5/36=2,99/5=2) pseudo=read geom=check guess=(rea
 d,tcheck) scf=(maxcycle=1)\\title\\0,1\C,0,-0.574621,-0.905235,1.27048
 \C,0,-0.574621,-0.905235,-1.27048\C,0,-0.574621,-0.076502,0.\Cl,0,0.89
 6612,1.024877,0.\H,0,-0.565593,-0.272482,2.155996\H,0,-1.473445,-1.525
 794,1.299465\H,0,0.295393,-1.561,1.305554\H,0,-0.565593,-0.272482,-2.1
 55996\H,0,-1.473445,-1.525794,-1.299465\H,0,0.295393,-1.561,-1.305554\
 H,0,-1.411924,0.61747,0.\\Version=ES64L-G16RevC.01\State=1-A'\HF=-577.

 Normal termination of Gaussian 16 at Sat Apr  5 22:37:55 2025.
