 Gaussian 16, Revision C.01,

 ----------------------------------------------------------------------
 #t hf aug-cc-pvdz symm=none int=(grid=ultrafine) guess=(read,tcheck) s
 table=(opt,rrhf)
 ----------------------------------------------------------------------
 -----
 title
 -----
 Symbolic Z-matrix:
 Charge =  0 Multiplicity = 1

 SCF Done:  E(RHF) =  -1065.27415674     A.U. after   15 cycles
 Normal termination of Gaussian 16 at Sat Apr  5 22:38:06 2025.
 Gaussian 16:  ES64L-G16RevC.01  3-Jul-2019

 ----------------------------------------------------------------------
 #t hf aug-cc-pvdz iop(5/13=1,5/36=2,99/5=2) pseudo=read geom=check gue
 ss=(read,tcheck) scf=(maxcycle=1)
 ----------------------------------------------------------------------
 -----
 title
 -----
 Structure from the checkpoint file:  "2-chloroallylisothiocyanate.chk"
 Charge =  0 Multiplicity = 1

                         Standard orientation:
 ---------------------------------------------------------------------
 Center     Atomic      Atomic             Coordinates (Angstroms)
 Number     Number       Type             X           Y           Z
 ---------------------------------------------------------------------
      1         17           0       -1.347415    1.412561    0.204092
      2         16           0        2.973465    0.301056   -0.225140
      3          7           0        0.624438   -1.122322    0.123077
      4          6           0       -1.679642   -0.291748   -0.037658
      5          6           0       -0.706921   -1.216488    0.644751
      6          6           0        1.609055   -0.467672   -0.001390
      7          6           0       -2.720952   -0.690146   -0.750013
      8          1           0       -0.681309   -1.001003    1.716381
      9          1           0       -1.057855   -2.239216    0.515322
     10          1           0       -2.900921   -1.746442   -0.895230
     11          1           0       -3.409606    0.008805   -1.199480
 ---------------------------------------------------------------------

 SCF Done:  E(RHF) =  -1065.61753340     A.U. after    2 cycles

 The electronic state is 1-A.
 Alpha  occ. eigenvalues -- -105.58498 -93.94415 -15.55140 -11.38594 -11.33613
 Alpha  occ. eigenvalues --  -11.33425 -11.27383 -10.63323  -8.22698  -7.80282
 Alpha  occ. eigenvalues --   -7.79883  -7.79869  -6.20598  -6.20165  -6.20136
 Alpha  occ. eigenvalues --   -1.30737  -1.16822  -1.08235  -1.04112  -1.00840
 Alpha  occ. eigenvalues --   -0.82051  -0.75137  -0.70283  -0.68883  -0.63444
 Alpha  occ. eigenvalues --   -0.61272  -0.59358  -0.55696  -0.54060  -0.52346
 Alpha  occ. eigenvalues --   -0.47964  -0.40178  -0.38107  -0.37516
 Alpha virt. eigenvalues --    0.02780   0.03771   0.04395   0.06123   0.06995
 Alpha virt. eigenvalues --    0.07458   0.08569   0.09078   0.09634   0.10661
 Alpha virt. eigenvalues --    0.11259   0.12829   0.13263   0.13885   0.13995

 Mulliken charges:
               1
     1  Cl  -0.171922
     2  S    0.281797
     3  N    0.812703
     4  C    0.212241
     5  C   -0.534555
     6  C   -1.051677
     7  C    0.260781
     8  H    0.191830
     9  H    0.109319
    10  H   -0.055323
    11  H   -0.055195
 Sum of Mulliken charges =   0.00000

 Dipole moment (field-independent basis, Debye):
    X=             -3.2765    Y=             -1.9121    Z=              0.5179  Tot=              3.8288

 Test job not archived.
 1\1\GINC-SE052\SP\RHF\Aug-CC-pVDZ\C4H4Cl1N1S1\OHZDE\05-Apr-2025\0\\#t
 hf aug-cc-pvdz iop(5/13=1,5/36=2,99/5=2) pseudo=read geom=check guess=
 (read,tcheck) scf=(maxcycle=1)\\title\\0,1\Cl,0,-1.347415,1.412561,0.2
 04092\S,0,2.973465,0.301056,-0.22514\N,0,0.624438,-1.122322,0.123077\C
 ,0,-1.679642,-0.291748,-0.037658\C,0,-0.706921,-1.216488,0.644751\C,0,
 1.609055,-0.467672,-0.00139\C,0,-2.720952,-0.690146,-0.750013\H,0,-0.6
 81309,-1.001003,1.716381\H,0,-1.057855,-2.239216,0.515322\H,0,-2.90092
 1,-1.746442,-0.89523\H,0,-3.409606,0.008805,-1.19948\\Version=ES64L-G1

 Normal termination of Gaussian 16 at Sat Apr  5 22:38:12 2025.
