 Gaussian 16, Revision C.01,

 ----------------------------------------------------------------------
 #t hf aug-cc-pvdz symm=none int=(grid=ultrafine) guess=(read,tcheck) s
 table=(opt,rrhf)
 ----------------------------------------------------------------------
 -----
 title
 -----
 Symbolic Z-matrix:
 Charge =  0 Multiplicity = 1

 SCF Done:  E(RHF) =  -391.444875885     A.U. after   15 cycles
 Normal termination of Gaussian 16 at Sat Apr  5 22:38:04 2025.
 Gaussian 16:  ES64L-G16RevC.01  3-Jul-2019

 ----------------------------------------------------------------------
 #t hf aug-cc-pvdz iop(5/13=1,5/36=2,99/5=2) pseudo=read geom=check gue
 ss=(read,tcheck) scf=(maxcycle=1)
 ----------------------------------------------------------------------
 -----
 title
 -----
 Structure from the checkpoint file:  "2-cyano-3-iminoacrylamide.chk"
 Charge =  0 Multiplicity = 1

                         Standard orientation:
 ---------------------------------------------------------------------
 Center     Atomic      Atomic             Coordinates (Angstroms)
 Number     Number       Type             X           Y           Z
 ---------------------------------------------------------------------
      1          8           0        1.200691   -1.750569    0.240229
      2          7           0        2.095133    0.298364   -0.157996
      3          7           0       -2.390615   -1.479393   -0.111412
      4          7           0       -0.628942    2.555407   -0.003648
      5          6           0       -0.321090    0.047447   -0.017924
      6          6           0        1.054679   -0.568999    0.024318
      7          6           0       -1.457345   -0.805303   -0.066056
      8          6           0       -0.506479    1.358874    0.056891
      9          1           0        1.962632    1.187331   -0.607887
     10          1           0        3.009679   -0.117167   -0.220990
     11          1           0       -0.725456    3.121624    0.835062
 ---------------------------------------------------------------------

 SCF Done:  E(RHF) =  -391.828076271     A.U. after    2 cycles

 The electronic state is 1-A.
 Alpha  occ. eigenvalues --  -20.53753 -15.59681 -15.55286 -15.52019 -11.40281
 Alpha  occ. eigenvalues --  -11.40180 -11.31866 -11.29473  -1.49069  -1.32927
 Alpha  occ. eigenvalues --   -1.25306  -1.24077  -1.12579  -0.90548  -0.88095
 Alpha  occ. eigenvalues --   -0.82383  -0.80543  -0.72453  -0.66628  -0.64911
 Alpha  occ. eigenvalues --   -0.62125  -0.61395  -0.58663  -0.54614  -0.51115
 Alpha  occ. eigenvalues --   -0.46962  -0.45792  -0.41213
 Alpha virt. eigenvalues --    0.01259   0.03036   0.05443   0.06030   0.06468
 Alpha virt. eigenvalues --    0.07963   0.08522   0.09331   0.09708   0.10858
 Alpha virt. eigenvalues --    0.11361   0.12395   0.12885   0.14151   0.14697

 Mulliken charges:
               1
     1  O   -1.328211
     2  N    0.578847
     3  N    0.900933
     4  N    0.931813
     5  C    2.269375
     6  C    0.308374
     7  C   -2.216745
     8  C   -1.871605
     9  H    0.068753
    10  H    0.133435
    11  H    0.225031
 Sum of Mulliken charges =  -0.00000

 Dipole moment (field-independent basis, Debye):
    X=              3.7253    Y=              6.6448    Z=              0.5314  Tot=              7.6363

 Test job not archived.
 1\1\GINC-SE045\SP\RHF\Aug-CC-pVDZ\C4H3N3O1\OHZDE\05-Apr-2025\0\\#t hf
 aug-cc-pvdz iop(5/13=1,5/36=2,99/5=2) pseudo=read geom=check guess=(re
 ad,tcheck) scf=(maxcycle=1)\\title\\0,1\O,0,1.200695,-1.750566,0.24022
 9\N,0,2.095132,0.298369,-0.157996\N,0,-2.390612,-1.479398,-0.111412\N,
 0,-0.628948,2.555406,-0.003648\C,0,-0.32109,0.047446,-0.017924\C,0,1.0
 5468,-0.568996,0.024318\C,0,-1.457343,-0.805306,-0.066056\C,0,-0.50648
 2,1.358873,0.056891\H,0,1.962629,1.187336,-0.607887\H,0,3.009679,-0.11
 716,-0.22099\H,0,-0.725463,3.121623,0.835062\\Version=ES64L-G16RevC.01

 Normal termination of Gaussian 16 at Sat Apr  5 22:38:12 2025.
