 Gaussian 16, Revision C.01,

 ----------------------------------------------------------------------
 #t hf aug-cc-pvdz symm=none int=(grid=ultrafine) guess=(read,tcheck) s
 table=(opt,rrhf)
 ----------------------------------------------------------------------
 -----
 title
 -----
 Symbolic Z-matrix:
 Charge =  0 Multiplicity = 1

 SCF Done:  E(RHF) =  -494.666043686     A.U. after   13 cycles

 1\1\GINC-SE046\Stability\RHF\Aug-CC-pVDZ\C5H10O4\OHZDE\05-Apr-2025\0\\
 #t hf aug-cc-pvdz symm=none int=(grid=ultrafine) guess=(read,tcheck) s
 table=(opt,rrhf)\\title\\0,1\C,0,-1.668271,0.461239,-0.765783\C,0,-0.3
 6744,1.210024,-0.479394\C,0,0.689515,0.089265,-0.593294\C,0,-1.400343,
 -0.953458,-0.265482\C,0,1.856173,0.212999,0.364984\O,0,-0.004904,-1.15
 5032,-0.396645\O,0,-0.459865,1.805275,0.814836\O,0,-1.823763,-1.057773
 ,1.077424\O,0,2.87964,-0.684977,-0.054645\H,0,-2.518456,0.921796,-0.27
 0321\H,0,-1.851125,0.435667,-1.839895\H,0,-0.178406,1.985616,-1.225571

 Normal termination of Gaussian 16 at Sat Apr  5 22:39:07 2025.
 Gaussian 16:  ES64L-G16RevC.01  3-Jul-2019

 ----------------------------------------------------------------------
 #t hf aug-cc-pvdz iop(5/13=1,5/36=2,99/5=2) pseudo=read geom=check gue
 ss=(read,tcheck) scf=(maxcycle=1)
 ----------------------------------------------------------------------
 -----
 title
 -----
 Structure from the checkpoint file:  "2-deoxypentofuranose.chk"
 Charge =  0 Multiplicity = 1

                         Standard orientation:
 ---------------------------------------------------------------------
 Center     Atomic      Atomic             Coordinates (Angstroms)
 Number     Number       Type             X           Y           Z
 ---------------------------------------------------------------------
      1          6           0       -1.668271    0.461239   -0.765783
      2          6           0       -0.367440    1.210024   -0.479394
      3          6           0        0.689515    0.089265   -0.593294
      4          6           0       -1.400343   -0.953458   -0.265482
      5          6           0        1.856173    0.212999    0.364984
      6          8           0       -0.004904   -1.155032   -0.396645
      7          8           0       -0.459865    1.805275    0.814836
      8          8           0       -1.823763   -1.057773    1.077424
      9          8           0        2.879640   -0.684977   -0.054645
     10          1           0       -2.518456    0.921796   -0.270321
     11          1           0       -1.851125    0.435667   -1.839895
     12          1           0       -0.178406    1.985616   -1.225571
     13          1           0        1.093392    0.077484   -1.611423
     14          1           0       -1.886026   -1.728437   -0.864473
     15          1           0        1.515337   -0.010936    1.377193
     16          1           0        2.231369    1.245733    0.342390
     17          1           0        0.267278    2.422971    0.931773
     18          1           0       -1.567425   -1.926770    1.403733
     19          1           0        3.507392   -0.803481    0.662654
 ---------------------------------------------------------------------

 SCF Done:  E(RHF) =  -495.170182716     A.U. after    2 cycles

 The electronic state is 1-A.
 Alpha  occ. eigenvalues --  -20.55396 -20.54974 -20.54530 -20.54216 -11.33691
 Alpha  occ. eigenvalues --  -11.29952 -11.28948 -11.28919 -11.23521  -1.49307
 Alpha  occ. eigenvalues --   -1.45417  -1.44840  -1.42240  -1.06637  -1.03046
 Alpha  occ. eigenvalues --   -0.91129  -0.81813  -0.80357  -0.74658  -0.72004
 Alpha  occ. eigenvalues --   -0.68719  -0.67953  -0.64696  -0.63489  -0.60352
 Alpha  occ. eigenvalues --   -0.57562  -0.55992  -0.55166  -0.54267  -0.51417
 Alpha  occ. eigenvalues --   -0.49931  -0.48356  -0.45764  -0.44602  -0.43750
 Alpha  occ. eigenvalues --   -0.41891
 Alpha virt. eigenvalues --    0.03099   0.03521   0.03995   0.04544   0.05541
 Alpha virt. eigenvalues --    0.05757   0.06456   0.07057   0.07573   0.09262
 Alpha virt. eigenvalues --    0.12004   0.12542   0.13296   0.14043   0.14172

 Mulliken charges:
               1
     1  C   -0.517016
     2  C    0.761357
     3  C    0.242913
     4  C    2.185751
     5  C    1.138916
     6  O   -1.663067
     7  O   -1.378353
     8  O   -1.296985
     9  O   -1.265702
    10  H    0.167278
    11  H    0.151089
    12  H    0.191821
    13  H    0.089021
    14  H    0.023730
    15  H    0.168572
    16  H    0.117825
    17  H    0.299177
    18  H    0.259305
    19  H    0.324366
 Sum of Mulliken charges =  -0.00000

 Dipole moment (field-independent basis, Debye):
    X=              1.0980    Y=              1.3665    Z=             -0.3570  Tot=              1.7890

 Test job not archived.
 1\1\GINC-SE046\SP\RHF\Aug-CC-pVDZ\C5H10O4\OHZDE\05-Apr-2025\0\\#t hf a
 ug-cc-pvdz iop(5/13=1,5/36=2,99/5=2) pseudo=read geom=check guess=(rea
 d,tcheck) scf=(maxcycle=1)\\title\\0,1\C,0,-1.668271,0.461239,-0.76578
 3\C,0,-0.36744,1.210024,-0.479394\C,0,0.689515,0.089265,-0.593294\C,0,
 -1.400343,-0.953458,-0.265482\C,0,1.856173,0.212999,0.364984\O,0,-0.00
 4904,-1.155032,-0.396645\O,0,-0.459865,1.805275,0.814836\O,0,-1.823763
 ,-1.057773,1.077424\O,0,2.87964,-0.684977,-0.054645\H,0,-2.518456,0.92
 1796,-0.270321\H,0,-1.851125,0.435667,-1.839895\H,0,-0.178406,1.985616

 Normal termination of Gaussian 16 at Sat Apr  5 22:39:16 2025.
