 Gaussian 16, Revision C.01,

 ----------------------------------------------------------------------
 #t hf aug-cc-pvdz symm=none int=(grid=ultrafine) guess=(read,tcheck) s
 table=(opt,rrhf)
 ----------------------------------------------------------------------
 -----
 title
 -----
 Symbolic Z-matrix:
 Charge =  0 Multiplicity = 1

 SCF Done:  E(RHF) =  -449.112718190     A.U. after   16 cycles
 Normal termination of Gaussian 16 at Sat Apr  5 22:38:19 2025.
 Gaussian 16:  ES64L-G16RevC.01  3-Jul-2019

 ----------------------------------------------------------------------
 #t hf aug-cc-pvdz iop(5/13=1,5/36=2,99/5=2) pseudo=read geom=check gue
 ss=(read,tcheck) scf=(maxcycle=1)
 ----------------------------------------------------------------------
 -----
 title
 -----
 Structure from the checkpoint file:  "2-diazo-4-cyclopentene-1-3-dione.chk"
 Charge =  0 Multiplicity = 1

                         Standard orientation:
 ---------------------------------------------------------------------
 Center     Atomic      Atomic             Coordinates (Angstroms)
 Number     Number       Type             X           Y           Z
 ---------------------------------------------------------------------
      1          8           0       -2.366456   -0.102241    0.000000
      2          8           0        2.366456   -0.102242    0.000000
      3          7           0        0.000000    1.711499    0.000000
      4          7           0        0.000000    2.831814    0.000000
      5          6           0        0.000000    0.410913    0.000000
      6          6           0       -1.204476   -0.433611    0.000000
      7          6           0        1.204475   -0.433612    0.000000
      8          6           0       -0.666466   -1.837920    0.000000
      9          6           0        0.666466   -1.837921    0.000000
     10          1           0       -1.332425   -2.687206    0.000000
     11          1           0        1.332424   -2.687207    0.000000
 ---------------------------------------------------------------------

 SCF Done:  E(RHF) =  -449.543071389     A.U. after    2 cycles

 The electronic state is 1-A'.
 Alpha  occ. eigenvalues --  -20.56115 -20.56113 -15.73332 -15.67325 -11.37956
 Alpha  occ. eigenvalues --  -11.37945 -11.30624 -11.29655 -11.29535  -1.54794
 Alpha  occ. eigenvalues --   -1.49624  -1.49549  -1.23134  -1.15617  -0.94487
 Alpha  occ. eigenvalues --   -0.93575  -0.82802  -0.78115  -0.77383  -0.73458
 Alpha  occ. eigenvalues --   -0.72710  -0.69585  -0.64894  -0.64362  -0.62134
 Alpha  occ. eigenvalues --   -0.61103  -0.55556  -0.47224  -0.43069  -0.42908
 Alpha  occ. eigenvalues --   -0.39222
 Alpha virt. eigenvalues --    0.02871   0.03024   0.03177   0.03544   0.04386
 Alpha virt. eigenvalues --    0.05643   0.08635   0.09859   0.09956   0.11126
 Alpha virt. eigenvalues --    0.12290   0.12444   0.12776   0.13489   0.14123

 Mulliken charges:
               1
     1  O   -1.445893
     2  O   -1.445895
     3  N   -1.017245
     4  N    1.099748
     5  C   -0.385563
     6  C    1.155324
     7  C    1.155329
     8  C    0.569797
     9  C    0.569793
    10  H   -0.127698
    11  H   -0.127698
 Sum of Mulliken charges =  -0.00000

 Dipole moment (field-independent basis, Debye):
    X=             -0.0000    Y=             -2.4230    Z=              0.0000  Tot=              2.4230

 Test job not archived.
 1\1\GINC-SE047\SP\RHF\Aug-CC-pVDZ\C5H2N2O2\OHZDE\05-Apr-2025\0\\#t hf
 aug-cc-pvdz iop(5/13=1,5/36=2,99/5=2) pseudo=read geom=check guess=(re
 ad,tcheck) scf=(maxcycle=1)\\title\\0,1\O,0,-2.366456,-0.102241,0.\O,0
 ,2.366456,-0.102242,0.\N,0,0.,1.711499,0.\N,0,0.,2.831814,0.\C,0,0.,0.
 410913,0.\C,0,-1.204476,-0.433611,0.\C,0,1.204475,-0.433612,0.\C,0,-0.
 666466,-1.83792,0.\C,0,0.666466,-1.837921,0.\H,0,-1.332425,-2.687206,0
 .\H,0,1.332424,-2.687207,0.\\Version=ES64L-G16RevC.01\State=1-A'\HF=-4
 49.5430714\RMSD=6.855e-02\Dipole=-0.000003,-0.9532663,0.\Quadrupole=-9

 Normal termination of Gaussian 16 at Sat Apr  5 22:38:38 2025.
