 Gaussian 16, Revision C.01,

 ----------------------------------------------------------------------
 #t hf aug-cc-pvdz symm=none int=(grid=ultrafine) guess=(read,tcheck) s
 table=(opt,rrhf)
 ----------------------------------------------------------------------
 -----
 title
 -----
 Symbolic Z-matrix:
 Charge =  0 Multiplicity = 1

 SCF Done:  E(RHF) =  -1126.89398119     A.U. after   14 cycles
 Normal termination of Gaussian 16 at Sat Apr  5 22:38:46 2025.
 Gaussian 16:  ES64L-G16RevC.01  3-Jul-2019

 ----------------------------------------------------------------------
 #t hf aug-cc-pvdz iop(5/13=1,5/36=2,99/5=2) pseudo=read geom=check gue
 ss=(read,tcheck) scf=(maxcycle=1)
 ----------------------------------------------------------------------
 -----
 title
 -----
 Structure from the checkpoint file:  "2-dichloroaminoethanol.chk"
 Charge =  0 Multiplicity = 1

                         Standard orientation:
 ---------------------------------------------------------------------
 Center     Atomic      Atomic             Coordinates (Angstroms)
 Number     Number       Type             X           Y           Z
 ---------------------------------------------------------------------
      1         17           0       -1.849785   -1.123139   -0.022675
      2         17           0       -0.868753    1.577128   -0.107884
      3          8           0        3.067182   -0.524320   -0.216469
      4          7           0       -0.501598   -0.072327    0.461280
      5          6           0        0.718626   -0.556060   -0.215103
      6          6           0        1.945213    0.179416    0.310336
      7          1           0        0.651673   -0.480227   -1.301963
      8          1           0        0.800148   -1.607945    0.057284
      9          1           0        1.941056    0.161427    1.404237
     10          1           0        1.942057    1.219714   -0.021165
     11          1           0        3.870903   -0.050056    0.012492
 ---------------------------------------------------------------------

 SCF Done:  E(RHF) =  -1127.25503258     A.U. after    2 cycles

 The electronic state is 1-A.
 Alpha  occ. eigenvalues -- -105.60497-105.60440 -20.56616 -15.64311 -11.30491
 Alpha  occ. eigenvalues --  -11.29381 -10.65037 -10.64995  -7.81982  -7.81937
 Alpha  occ. eigenvalues --   -7.81511  -7.81482  -7.81479  -7.81446  -1.46491
 Alpha  occ. eigenvalues --   -1.28410  -1.06407  -1.05726  -0.94555  -0.84571
 Alpha  occ. eigenvalues --   -0.72724  -0.70343  -0.66162  -0.64176  -0.63082
 Alpha  occ. eigenvalues --   -0.57553  -0.54327  -0.52610  -0.49068  -0.48497
 Alpha  occ. eigenvalues --   -0.46590  -0.45732  -0.43497
 Alpha virt. eigenvalues --    0.03211   0.04331   0.05036   0.05261   0.05504
 Alpha virt. eigenvalues --    0.06990   0.08216   0.09906   0.11441   0.12709
 Alpha virt. eigenvalues --    0.14052   0.14189   0.15185   0.16677   0.16943

 Mulliken charges:
               1
     1  Cl   0.054163
     2  Cl   0.040540
     3  O   -1.146682
     4  N    0.015515
     5  C   -0.527144
     6  C    0.752356
     7  H    0.080063
     8  H    0.140457
     9  H    0.156831
    10  H    0.106298
    11  H    0.327602
 Sum of Mulliken charges =   0.00000

 Dipole moment (field-independent basis, Debye):
    X=              1.9177    Y=              0.7584    Z=             -0.0347  Tot=              2.0625

 Test job not archived.
 1\1\GINC-SE028\SP\RHF\Aug-CC-pVDZ\C2H5Cl2N1O1\OHZDE\05-Apr-2025\0\\#t
 hf aug-cc-pvdz iop(5/13=1,5/36=2,99/5=2) pseudo=read geom=check guess=
 (read,tcheck) scf=(maxcycle=1)\\title\\0,1\Cl,0,-1.849785,-1.123139,-0
 .022675\Cl,0,-0.868753,1.577128,-0.107884\O,0,3.067182,-0.52432,-0.216
 469\N,0,-0.501598,-0.072327,0.46128\C,0,0.718626,-0.55606,-0.215103\C,
 0,1.945213,0.179416,0.310336\H,0,0.651673,-0.480227,-1.301963\H,0,0.80
 0148,-1.607945,0.057284\H,0,1.941056,0.161427,1.404237\H,0,1.942057,1.
 219714,-0.021165\H,0,3.870903,-0.050056,0.012492\\Version=ES64L-G16Rev

 Normal termination of Gaussian 16 at Sat Apr  5 22:39:11 2025.
