 Gaussian 16, Revision C.01,

 ----------------------------------------------------------------------
 #t hf aug-cc-pvdz symm=none int=(grid=ultrafine) guess=(read,tcheck) s
 table=(opt,rrhf)
 ----------------------------------------------------------------------
 -----
 title
 -----
 Symbolic Z-matrix:
 Charge =  0 Multiplicity = 1

 SCF Done:  E(RHF) =  -461.453284354     A.U. after   15 cycles
 Normal termination of Gaussian 16 at Sat Apr  5 22:38:54 2025.
 Gaussian 16:  ES64L-G16RevC.01  3-Jul-2019

 ----------------------------------------------------------------------
 #t hf aug-cc-pvdz iop(5/13=1,5/36=2,99/5=2) pseudo=read geom=check gue
 ss=(read,tcheck) scf=(maxcycle=1)
 ----------------------------------------------------------------------
 -----
 title
 -----
 Structure from the checkpoint file:  "2-difluoroaminomethylacrylonitrile.chk"
 Charge =  0 Multiplicity = 1

                         Standard orientation:
 ---------------------------------------------------------------------
 Center     Atomic      Atomic             Coordinates (Angstroms)
 Number     Number       Type             X           Y           Z
 ---------------------------------------------------------------------
      1          9           0       -1.560515    0.669193    1.027935
      2          9           0       -2.395956   -0.758181   -0.402751
      3          7           0       -1.190368   -0.448376    0.254141
      4          7           0        2.540504   -1.531236    0.370739
      5          6           0       -0.339313    0.108786   -0.819505
      6          6           0        1.022612    0.458263   -0.274893
      7          6           0        1.448448    1.716095   -0.160431
      8          6           0        1.869720   -0.636358    0.095191
      9          1           0       -0.826459    0.978775   -1.258076
     10          1           0       -0.271637   -0.689646   -1.557439
     11          1           0        0.810176    2.542787   -0.438338
     12          1           0        2.436402    1.945546    0.210865
 ---------------------------------------------------------------------

 SCF Done:  E(RHF) =  -461.892802689     A.U. after    2 cycles

 The electronic state is 1-A.
 Alpha  occ. eigenvalues --  -26.51427 -26.51272 -15.72967 -15.53227 -11.33140
 Alpha  occ. eigenvalues --  -11.32236 -11.30711 -11.29768  -1.67425  -1.58677
 Alpha  occ. eigenvalues --   -1.25433  -1.20644  -1.12049  -0.96811  -0.90183
 Alpha  occ. eigenvalues --   -0.78991  -0.77882  -0.77537  -0.72378  -0.68194
 Alpha  occ. eigenvalues --   -0.66176  -0.65014  -0.62526  -0.61979  -0.60646
 Alpha  occ. eigenvalues --   -0.58579  -0.55482  -0.52497  -0.51902  -0.43098
 Alpha virt. eigenvalues --    0.02614   0.03665   0.04085   0.04348   0.06536
 Alpha virt. eigenvalues --    0.08228   0.08820   0.10750   0.11604   0.12129
 Alpha virt. eigenvalues --    0.13296   0.14071   0.14315   0.14475   0.15635

 Mulliken charges:
               1
     1  F   -0.648740
     2  F   -0.648605
     3  N    1.395083
     4  N    1.070941
     5  C   -0.447023
     6  C    1.664147
     7  C    0.181457
     8  C   -2.628017
     9  H    0.157562
    10  H    0.117506
    11  H   -0.108275
    12  H   -0.106037
 Sum of Mulliken charges =   0.00000

 Dipole moment (field-independent basis, Debye):
    X=             -0.4850    Y=              4.7988    Z=             -2.6833  Tot=              5.5194

 Test job not archived.
 1\1\GINC-SE050\SP\RHF\Aug-CC-pVDZ\C4H4F2N2\OHZDE\05-Apr-2025\0\\#t hf
 aug-cc-pvdz iop(5/13=1,5/36=2,99/5=2) pseudo=read geom=check guess=(re
 ad,tcheck) scf=(maxcycle=1)\\title\\0,1\F,0,-1.560515,0.669193,1.02793
 5\F,0,-2.395956,-0.758181,-0.402751\N,0,-1.190368,-0.448376,0.254141\N
 ,0,2.540504,-1.531236,0.370739\C,0,-0.339313,0.108786,-0.819505\C,0,1.
 022612,0.458263,-0.274893\C,0,1.448448,1.716095,-0.160431\C,0,1.86972,
 -0.636358,0.095191\H,0,-0.826459,0.978775,-1.258076\H,0,-0.271637,-0.6
 89646,-1.557439\H,0,0.810176,2.542787,-0.438338\H,0,2.436402,1.945546,

 Normal termination of Gaussian 16 at Sat Apr  5 22:39:12 2025.
