 Gaussian 16, Revision C.01,

 ----------------------------------------------------------------------
 #t hf aug-cc-pvdz symm=none int=(grid=ultrafine) guess=(read,tcheck) s
 table=(opt,rrhf)
 ----------------------------------------------------------------------
 -----
 title
 -----
 Symbolic Z-matrix:
 Charge =  0 Multiplicity = 1

 SCF Done:  E(RHF) =  -268.871810812     A.U. after   14 cycles
 Normal termination of Gaussian 16 at Sat Apr  5 22:38:54 2025.
 Gaussian 16:  ES64L-G16RevC.01  3-Jul-2019

 ----------------------------------------------------------------------
 #t hf aug-cc-pvdz iop(5/13=1,5/36=2,99/5=2) pseudo=read geom=check gue
 ss=(read,tcheck) scf=(maxcycle=1)
 ----------------------------------------------------------------------
 -----
 title
 -----
 Structure from the checkpoint file:  "2-ethylacrolein.chk"
 Charge =  0 Multiplicity = 1

                         Standard orientation:
 ---------------------------------------------------------------------
 Center     Atomic      Atomic             Coordinates (Angstroms)
 Number     Number       Type             X           Y           Z
 ---------------------------------------------------------------------
      1          6           0        2.315360   -0.488362    0.000127
      2          6           0        1.228339    0.539082    0.000162
      3          6           0       -0.105961    0.377961    0.000037
      4          6           0       -1.055394    1.543354    0.000099
      5          6           0       -0.727198   -0.958438   -0.000171
      6          8           0       -1.927501   -1.139157   -0.000289
      7          1           0        2.957003   -0.350601    0.874410
      8          1           0        1.962408   -1.515125   -0.000023
      9          1           0        2.957142   -0.350394   -0.874021
     10          1           0        1.592453    1.563287    0.000311
     11          1           0       -1.709375    1.509936    0.872664
     12          1           0       -1.709240    1.510139   -0.872576
     13          1           0       -0.516480    2.489320    0.000251
     14          1           0       -0.044780   -1.824879   -0.000220
 ---------------------------------------------------------------------

 SCF Done:  E(RHF) =  -269.152851109     A.U. after    2 cycles

 The electronic state is 1-A.
 Alpha  occ. eigenvalues --  -20.53901 -11.33500 -11.27170 -11.25350 -11.25209
 Alpha  occ. eigenvalues --  -11.23171  -1.46648  -1.11793  -1.01223  -0.92072
 Alpha  occ. eigenvalues --   -0.86969  -0.74013  -0.68852  -0.64475  -0.60816
 Alpha  occ. eigenvalues --   -0.60229  -0.57764  -0.55517  -0.54600  -0.53069
 Alpha  occ. eigenvalues --   -0.52001  -0.41479  -0.37200
 Alpha virt. eigenvalues --    0.02941   0.03714   0.04432   0.04506   0.05896
 Alpha virt. eigenvalues --    0.06469   0.06615   0.07741   0.09259   0.10621
 Alpha virt. eigenvalues --    0.12091   0.12638   0.13875   0.14072   0.14267

 Mulliken charges:
               1
     1  C   -0.716859
     2  C    0.314170
     3  C    0.551205
     4  C   -0.668445
     5  C    0.844070
     6  O   -1.276827
     7  H    0.268837
     8  H    0.097162
     9  H    0.268836
    10  H   -0.235466
    11  H    0.235808
    12  H    0.235809
    13  H    0.059615
    14  H    0.022084
 Sum of Mulliken charges =  -0.00000

 Dipole moment (field-independent basis, Debye):
    X=              3.6732    Y=              1.1196    Z=              0.0004  Tot=              3.8401

 Test job not archived.
 1\1\GINC-SE158\SP\RHF\Aug-CC-pVDZ\C5H8O1\OHZDE\05-Apr-2025\0\\#t hf au
 g-cc-pvdz iop(5/13=1,5/36=2,99/5=2) pseudo=read geom=check guess=(read
 ,tcheck) scf=(maxcycle=1)\\title\\0,1\C,0,2.31536,-0.488363,0.000127\C
 ,0,1.228339,0.539082,0.000162\C,0,-0.105961,0.377961,0.000037\C,0,-1.0
 55394,1.543354,0.000099\C,0,-0.727198,-0.958438,-0.000171\O,0,-1.92750
 1,-1.139157,-0.000289\H,0,2.957003,-0.350602,0.87441\H,0,1.962408,-1.5
 15125,-0.000023\H,0,2.957142,-0.350395,-0.874021\H,0,1.592453,1.563287
 ,0.000311\H,0,-1.709375,1.509936,0.872664\H,0,-1.70924,1.510139,-0.872

 Normal termination of Gaussian 16 at Sat Apr  5 22:39:11 2025.
