 Gaussian 16, Revision C.01,

 ----------------------------------------------------------------------
 #t hf aug-cc-pvdz symm=none int=(grid=ultrafine) guess=(read,tcheck) s
 table=(opt,rrhf)
 ----------------------------------------------------------------------
 -----
 title
 -----
 Symbolic Z-matrix:
 Charge =  0 Multiplicity = 1

 SCF Done:  E(RHF) =  -830.504046385     A.U. after   18 cycles
 Normal termination of Gaussian 16 at Sat Apr  5 22:40:25 2025.
 Gaussian 16:  ES64L-G16RevC.01  3-Jul-2019

 ----------------------------------------------------------------------
 #t hf aug-cc-pvdz iop(5/13=1,5/36=2,99/5=2) pseudo=read geom=check gue
 ss=(read,tcheck) scf=(maxcycle=1)
 ----------------------------------------------------------------------
 -----
 title
 -----
 Structure from the checkpoint file:  "2-ethynyl-5-nitrothiophene.chk"
 Charge =  0 Multiplicity = 1

                         Standard orientation:
 ---------------------------------------------------------------------
 Center     Atomic      Atomic             Coordinates (Angstroms)
 Number     Number       Type             X           Y           Z
 ---------------------------------------------------------------------
      1         16           0       -0.341510   -0.991986   -0.000006
      2          8           0        2.519011   -1.365713   -0.000008
      3          8           0        3.108200    0.731357    0.000007
      4          7           0        2.272192   -0.162941    0.000001
      5          6           0        0.889034    0.218887    0.000002
      6          6           0        0.400378    1.497039    0.000009
      7          6           0       -1.005032    1.513710    0.000008
      8          6           0       -1.562355    0.249687    0.000001
      9          6           0       -2.927020   -0.091395   -0.000003
     10          6           0       -4.090699   -0.393484   -0.000005
     11          1           0        1.038617    2.365715    0.000015
     12          1           0       -1.603763    2.410935    0.000014
     13          1           0       -5.119557   -0.656096   -0.000007
 ---------------------------------------------------------------------

 SCF Done:  E(RHF) =  -830.982551873     A.U. after    2 cycles

 The electronic state is 1-A.
 Alpha  occ. eigenvalues --  -94.02606 -20.59841 -20.59782 -15.80683 -11.34298
 Alpha  occ. eigenvalues --  -11.33804 -11.30172 -11.28929 -11.28224 -11.27826
 Alpha  occ. eigenvalues --   -8.30644  -6.28388  -6.28296  -6.28069  -1.67843
 Alpha  occ. eigenvalues --   -1.51498  -1.24996  -1.13782  -1.07653  -1.05390
 Alpha  occ. eigenvalues --   -0.98146  -0.86570  -0.83384  -0.78165  -0.75922
 Alpha  occ. eigenvalues --   -0.75917  -0.74650  -0.69723  -0.64514  -0.60520
 Alpha  occ. eigenvalues --   -0.58688  -0.54114  -0.50836  -0.49537  -0.47579
 Alpha  occ. eigenvalues --   -0.45983  -0.43940  -0.39747  -0.35786
 Alpha virt. eigenvalues --   -0.00473   0.02664   0.03082   0.04790   0.07121
 Alpha virt. eigenvalues --    0.07285   0.07981   0.09046   0.09673   0.09850
 Alpha virt. eigenvalues --    0.11148   0.11458   0.13000   0.13266   0.13412

 Mulliken charges:
               1
     1  S    0.578977
     2  O   -1.388766
     3  O   -1.452475
     4  N    2.747529
     5  C   -1.255564
     6  C    0.319901
     7  C    0.397521
     8  C   -0.057223
     9  C    0.976566
    10  C   -0.075841
    11  H   -0.100754
    12  H   -0.238785
    13  H   -0.451086
 Sum of Mulliken charges =  -0.00000

 Dipole moment (field-independent basis, Debye):
    X=             -4.7970    Y=              1.9930    Z=              0.0000  Tot=              5.1945

 Test job not archived.
 1\1\GINC-SE040\SP\RHF\Aug-CC-pVDZ\C6H3N1O2S1\OHZDE\05-Apr-2025\0\\#t h
 f aug-cc-pvdz iop(5/13=1,5/36=2,99/5=2) pseudo=read geom=check guess=(
 read,tcheck) scf=(maxcycle=1)\\title\\0,1\S,0,-0.34151,-0.991986,-0.00
 0006\O,0,2.519011,-1.365713,-0.000008\O,0,3.1082,0.731357,0.000007\N,0
 ,2.272192,-0.162941,0.000001\C,0,0.889034,0.218887,0.000002\C,0,0.4003
 78,1.497039,0.000009\C,0,-1.005032,1.51371,0.000008\C,0,-1.562355,0.24
 9687,0.000001\C,0,-2.92702,-0.091395,-0.000003\C,0,-4.090699,-0.393484
 ,-0.000005\H,0,1.038617,2.365715,0.000015\H,0,-1.603763,2.410935,0.000

 Normal termination of Gaussian 16 at Sat Apr  5 22:41:08 2025.
