 Gaussian 16, Revision C.01,

 ----------------------------------------------------------------------
 #t hf aug-cc-pvdz symm=none int=(grid=ultrafine) guess=(read,tcheck) s
 table=(opt,rrhf)
 ----------------------------------------------------------------------
 -----
 title
 -----
 Symbolic Z-matrix:
 Charge =  0 Multiplicity = 1

 SCF Done:  E(RHF) =  -233.018677596     A.U. after   13 cycles
 Normal termination of Gaussian 16 at Sat Apr  5 22:39:01 2025.
 Gaussian 16:  ES64L-G16RevC.01  3-Jul-2019

 ----------------------------------------------------------------------
 #t hf aug-cc-pvdz iop(5/13=1,5/36=2,99/5=2) pseudo=read geom=check gue
 ss=(read,tcheck) scf=(maxcycle=1)
 ----------------------------------------------------------------------
 -----
 title
 -----
 Structure from the checkpoint file:  "2-ethyl-1-3-butadiene.chk"
 Charge =  0 Multiplicity = 1

                         Standard orientation:
 ---------------------------------------------------------------------
 Center     Atomic      Atomic             Coordinates (Angstroms)
 Number     Number       Type             X           Y           Z
 ---------------------------------------------------------------------
      1          6           0       -0.431809    1.690207   -0.000125
      2          6           0        0.097948    0.460822   -0.000034
      3          6           0        1.557665    0.319248   -0.000030
      4          6           0        2.248973   -0.821807    0.000057
      5          6           0       -0.736939   -0.798581    0.000064
      6          1           0        0.202753    2.566781   -0.000196
      7          1           0       -1.497262    1.864489   -0.000133
      8          1           0        2.107527    1.255021   -0.000107
      9          1           0        1.772778   -1.792680    0.000137
     10          1           0        3.330020   -0.814825    0.000051
     11          6           0       -2.250834   -0.611254    0.000050
     12          1           0       -0.448920   -1.398382   -0.868916
     13          1           0       -0.448919   -1.398250    0.869134
     14          1           0       -2.589661   -0.066300    0.881969
     15          1           0       -2.748682   -1.581216    0.000132
     16          1           0       -2.589661   -0.066449   -0.881960
 ---------------------------------------------------------------------

 SCF Done:  E(RHF) =  -233.272729345     A.U. after    2 cycles

 The electronic state is 1-A.
 Alpha  occ. eigenvalues --  -11.24731 -11.24265 -11.23537 -11.23419 -11.22946
 Alpha  occ. eigenvalues --  -11.22555  -1.11693  -1.02921  -0.98624  -0.87617
 Alpha  occ. eigenvalues --   -0.81524  -0.71694  -0.65915  -0.65121  -0.62223
 Alpha  occ. eigenvalues --   -0.57708  -0.54741  -0.54715  -0.51238  -0.50510
 Alpha  occ. eigenvalues --   -0.47929  -0.42857  -0.32915
 Alpha virt. eigenvalues --    0.03584   0.03638   0.03941   0.04606   0.05501
 Alpha virt. eigenvalues --    0.05672   0.07373   0.07753   0.08817   0.09251
 Alpha virt. eigenvalues --    0.09369   0.11997   0.12067   0.14070   0.14275

 Mulliken charges:
               1
     1  C    0.197304
     2  C    0.529029
     3  C    0.368961
     4  C   -0.122396
     5  C   -0.705577
     6  H   -0.203320
     7  H   -0.210999
     8  H   -0.306375
     9  H   -0.147341
    10  H   -0.152227
    11  C   -0.401438
    12  H    0.312528
    13  H    0.312525
    14  H    0.237692
    15  H    0.053943
    16  H    0.237691
 Sum of Mulliken charges =  -0.00000

 Dipole moment (field-independent basis, Debye):
    X=             -0.2351    Y=             -0.2759    Z=              0.0000  Tot=              0.3625

 Test job not archived.
 1\1\GINC-SE145\SP\RHF\Aug-CC-pVDZ\C6H10\OHZDE\05-Apr-2025\0\\#t hf aug
 -cc-pvdz iop(5/13=1,5/36=2,99/5=2) pseudo=read geom=check guess=(read,
 tcheck) scf=(maxcycle=1)\\title\\0,1\C,0,-0.431809,1.690207,-0.000125\
 C,0,0.097948,0.460822,-0.000034\C,0,1.557665,0.319248,-0.00003\C,0,2.2
 48973,-0.821807,0.000057\C,0,-0.736939,-0.798581,0.000064\H,0,0.202753
 ,2.566781,-0.000196\H,0,-1.497262,1.864489,-0.000133\H,0,2.107527,1.25
 5021,-0.000107\H,0,1.772778,-1.79268,0.000137\H,0,3.33002,-0.814825,0.
 000051\C,0,-2.250834,-0.611254,0.00005\H,0,-0.44892,-1.398382,-0.86891

 Normal termination of Gaussian 16 at Sat Apr  5 22:39:12 2025.
