 Gaussian 16, Revision C.01,

 ----------------------------------------------------------------------
 #t hf aug-cc-pvdz symm=none int=(grid=ultrafine) guess=(read,tcheck) s
 table=(opt,rrhf)
 ----------------------------------------------------------------------
 -----
 title
 -----
 Symbolic Z-matrix:
 Charge =  0 Multiplicity = 1

 SCF Done:  E(RHF) =  -782.594792500     A.U. after   13 cycles
 Normal termination of Gaussian 16 at Sat Apr  5 22:40:45 2025.
 Gaussian 16:  ES64L-G16RevC.01  3-Jul-2019

 ----------------------------------------------------------------------
 #t hf aug-cc-pvdz iop(5/13=1,5/36=2,99/5=2) pseudo=read geom=check gue
 ss=(read,tcheck) scf=(maxcycle=1)
 ----------------------------------------------------------------------
 -----
 title
 -----
 Structure from the checkpoint file:  "2-ethylsulphonyl-2-methylpropane.chk"
 Charge =  0 Multiplicity = 1

                         Standard orientation:
 ---------------------------------------------------------------------
 Center     Atomic      Atomic             Coordinates (Angstroms)
 Number     Number       Type             X           Y           Z
 ---------------------------------------------------------------------
      1          6           0        2.997773    0.483515    0.000057
      2          6           0        1.557720    0.984322    0.000121
      3         16           0        0.416742   -0.436191   -0.000065
      4          8           0        0.613609   -1.153289    1.261894
      5          8           0        0.613589   -1.152943   -1.262224
      6          6           0       -1.319656    0.252037    0.000043
      7          6           0       -1.530669    1.078796   -1.268848
      8          6           0       -2.218473   -0.990363   -0.000134
      9          6           0       -1.530653    1.078424    1.269179
     10          1           0        3.200853   -0.118000    0.883955
     11          1           0        3.200858   -0.117760   -0.884004
     12          1           0        3.675634    1.337082    0.000174
     13          1           0        1.333115    1.569196   -0.889556
     14          1           0        1.333115    1.568964    0.889950
     15          1           0       -1.294421    0.500665   -2.160245
     16          1           0       -2.578720    1.378917   -1.323741
     17          1           0       -0.931778    1.989640   -1.272598
     18          1           0       -2.047743   -1.601398    0.884308
     19          1           0       -3.260021   -0.665474   -0.000085
     20          1           0       -2.047745   -1.601141   -0.884754
     21          1           0       -0.931790    1.989286    1.273173
     22          1           0       -2.578712    1.378497    1.324194
     23          1           0       -1.294359    0.500043    2.160402
 ---------------------------------------------------------------------

 SCF Done:  E(RHF) =  -783.066880053     A.U. after    2 cycles

 The electronic state is 1-A.
 Alpha  occ. eigenvalues --  -94.16625 -20.51933 -20.51929 -11.29629 -11.28411
 Alpha  occ. eigenvalues --  -11.24861 -11.24847 -11.24516 -11.23937  -8.42092
 Alpha  occ. eigenvalues --   -6.40174  -6.39962  -6.39896  -1.52776  -1.41146
 Alpha  occ. eigenvalues --   -1.13682  -1.08283  -0.96531  -0.95977  -0.94243
 Alpha  occ. eigenvalues --   -0.85117  -0.76210  -0.70018  -0.66762  -0.66201
 Alpha  occ. eigenvalues --   -0.64024  -0.63266  -0.60855  -0.58853  -0.57317
 Alpha  occ. eigenvalues --   -0.56935  -0.55398  -0.54688  -0.54646  -0.52903
 Alpha  occ. eigenvalues --   -0.50822  -0.50783  -0.47286  -0.46176  -0.44144
 Alpha  occ. eigenvalues --   -0.40592
 Alpha virt. eigenvalues --    0.02669   0.03068   0.03667   0.04330   0.05424
 Alpha virt. eigenvalues --    0.05620   0.05838   0.06620   0.07013   0.08158
 Alpha virt. eigenvalues --    0.08724   0.09387   0.09645   0.10353   0.12207

 Mulliken charges:
               1
     1  C   -0.392176
     2  C   -0.787021
     3  S    3.872783
     4  O   -1.676807
     5  O   -1.676807
     6  C   -2.561594
     7  C    0.068310
     8  C    0.276808
     9  C    0.068302
    10  H    0.207569
    11  H    0.207569
    12  H    0.146666
    13  H    0.196518
    14  H    0.196514
    15  H    0.234270
    16  H    0.210497
    17  H    0.149899
    18  H    0.236875
    19  H    0.190283
    20  H    0.236874
    21  H    0.149907
    22  H    0.210489
    23  H    0.234271
 Sum of Mulliken charges =  -0.00000

 Dipole moment (field-independent basis, Debye):
    X=             -1.5262    Y=              4.7339    Z=              0.0007  Tot=              4.9739

 Test job not archived.
 1\1\GINC-SE040\SP\RHF\Aug-CC-pVDZ\C6H14O2S1\OHZDE\05-Apr-2025\0\\#t hf
  aug-cc-pvdz iop(5/13=1,5/36=2,99/5=2) pseudo=read geom=check guess=(r
 ead,tcheck) scf=(maxcycle=1)\\title\\0,1\C,0,2.997773,0.483515,0.00005
 7\C,0,1.55772,0.984322,0.000121\S,0,0.416742,-0.436191,-0.000065\O,0,0
 .613609,-1.153289,1.261894\O,0,0.613589,-1.152943,-1.262224\C,0,-1.319
 656,0.252037,0.000043\C,0,-1.530669,1.078796,-1.268848\C,0,-2.218473,-
 0.990363,-0.000134\C,0,-1.530653,1.078424,1.269179\H,0,3.200853,-0.118
 ,0.883955\H,0,3.200858,-0.11776,-0.884004\H,0,3.675634,1.337082,0.0001

 Normal termination of Gaussian 16 at Sat Apr  5 22:41:14 2025.
