 Gaussian 16, Revision C.01,

 ----------------------------------------------------------------------
 #t hf aug-cc-pvdz symm=none int=(grid=ultrafine) guess=(read,tcheck) s
 table=(opt,rrhf)
 ----------------------------------------------------------------------
 -----
 title
 -----
 Symbolic Z-matrix:
 Charge =  0 Multiplicity = 1

 SCF Done:  E(RHF) =  -593.881109352     A.U. after   12 cycles

 1\1\GINC-SE190\Stability\RHF\Aug-CC-pVDZ\C5H12S1\OHZDE\05-Apr-2025\0\\
 #t hf aug-cc-pvdz symm=none int=(grid=ultrafine) guess=(read,tcheck) s
 table=(opt,rrhf)\\title\\0,1\C,0,2.666741,0.979974,0.\C,0,1.486493,0.0
 14956,0.\C,0,-1.390067,-1.170055,1.269098\C,0,-1.390067,-1.170055,-1.2
 69098\S,0,-0.07432,0.976753,0.\C,0,-1.390067,-0.320258,0.\H,0,3.605889
 ,0.424701,0.\H,0,-2.287687,0.301951,0.\H,0,-1.434533,-0.547568,2.16140
 9\H,0,-1.434533,-0.547568,-2.161409\H,0,2.652471,1.620505,0.882058\H,0
 ,2.652471,1.620505,-0.882058\H,0,1.518737,-0.621415,-0.883489\H,0,1.51

 Normal termination of Gaussian 16 at Sat Apr  5 22:39:09 2025.
 Gaussian 16:  ES64L-G16RevC.01  3-Jul-2019

 ----------------------------------------------------------------------
 #t hf aug-cc-pvdz iop(5/13=1,5/36=2,99/5=2) pseudo=read geom=check gue
 ss=(read,tcheck) scf=(maxcycle=1)
 ----------------------------------------------------------------------
 -----
 title
 -----
 Structure from the checkpoint file:  "2-ethylsulfanylpropane.chk"
 Charge =  0 Multiplicity = 1

                         Standard orientation:
 ---------------------------------------------------------------------
 Center     Atomic      Atomic             Coordinates (Angstroms)
 Number     Number       Type             X           Y           Z
 ---------------------------------------------------------------------
      1          6           0        2.666741    0.979974   -0.000000
      2          6           0        1.486493    0.014956   -0.000000
      3          6           0       -1.390067   -1.170055    1.269098
      4          6           0       -1.390067   -1.170055   -1.269098
      5         16           0       -0.074320    0.976753   -0.000000
      6          6           0       -1.390067   -0.320258    0.000000
      7          1           0        3.605889    0.424701   -0.000000
      8          1           0       -2.287687    0.301951    0.000000
      9          1           0       -1.434533   -0.547568    2.161409
     10          1           0       -1.434533   -0.547568   -2.161409
     11          1           0        2.652471    1.620505    0.882058
     12          1           0        2.652471    1.620505   -0.882058
     13          1           0        1.518737   -0.621415   -0.883489
     14          1           0        1.518737   -0.621415    0.883489
     15          1           0       -2.253602   -1.839615    1.272426
     16          1           0       -2.253602   -1.839615   -1.272426
     17          1           0       -0.496721   -1.792940    1.332175
     18          1           0       -0.496721   -1.792940   -1.332175
 ---------------------------------------------------------------------

 SCF Done:  E(RHF) =  -594.163905890     A.U. after    2 cycles

 The electronic state is 1-A'.
 Alpha  occ. eigenvalues --  -93.92725 -11.26879 -11.26086 -11.23123 -11.22948
 Alpha  occ. eigenvalues --  -11.22940  -8.20816  -6.18641  -6.18474  -6.18272
 Alpha  occ. eigenvalues --   -1.10873  -1.05031  -0.94079  -0.94047  -0.83919
 Alpha  occ. eigenvalues --   -0.76430  -0.63724  -0.63276  -0.62034  -0.58029
 Alpha  occ. eigenvalues --   -0.57275  -0.55014  -0.53480  -0.51151  -0.51117
 Alpha  occ. eigenvalues --   -0.50068  -0.45493  -0.41908  -0.33856
 Alpha virt. eigenvalues --    0.03446   0.03613   0.04016   0.04326   0.05774
 Alpha virt. eigenvalues --    0.05988   0.06031   0.07167   0.07522   0.08870
 Alpha virt. eigenvalues --    0.09050   0.10804   0.11368   0.12928   0.13762

 Mulliken charges:
               1
     1  C   -0.371583
     2  C   -0.682096
     3  C   -0.189337
     4  C   -0.189337
     5  S    0.416187
     6  C   -0.887077
     7  H    0.138265
     8  H    0.186338
     9  H    0.143513
    10  H    0.143513
    11  H    0.181978
    12  H    0.181978
    13  H    0.142538
    14  H    0.142538
    15  H    0.143218
    16  H    0.143218
    17  H    0.178074
    18  H    0.178074
 Sum of Mulliken charges =  -0.00000

 Dipole moment (field-independent basis, Debye):
    X=              0.1599    Y=             -1.8393    Z=              0.0000  Tot=              1.8462

 Test job not archived.
 1\1\GINC-SE190\SP\RHF\Aug-CC-pVDZ\C5H12S1\OHZDE\05-Apr-2025\0\\#t hf a
 ug-cc-pvdz iop(5/13=1,5/36=2,99/5=2) pseudo=read geom=check guess=(rea
 d,tcheck) scf=(maxcycle=1)\\title\\0,1\C,0,2.666741,0.979974,0.\C,0,1.
 486493,0.014956,0.\C,0,-1.390067,-1.170055,1.269098\C,0,-1.390067,-1.1
 70055,-1.269098\S,0,-0.07432,0.976753,0.\C,0,-1.390067,-0.320258,0.\H,
 0,3.605889,0.424701,0.\H,0,-2.287687,0.301951,0.\H,0,-1.434533,-0.5475
 68,2.161409\H,0,-1.434533,-0.547568,-2.161409\H,0,2.652471,1.620505,0.
 882058\H,0,2.652471,1.620505,-0.882058\H,0,1.518737,-0.621415,-0.88348

 Normal termination of Gaussian 16 at Sat Apr  5 22:39:50 2025.
