 Gaussian 16, Revision C.01,

 ----------------------------------------------------------------------
 #t hf aug-cc-pvdz symm=none int=(grid=ultrafine) guess=(read,tcheck) s
 table=(opt,rrhf)
 ----------------------------------------------------------------------
 -----
 title
 -----
 Symbolic Z-matrix:
 Charge =  0 Multiplicity = 1

 SCF Done:  E(RHF) =  -340.799122177     A.U. after   15 cycles
 Normal termination of Gaussian 16 at Sat Apr  5 22:39:18 2025.
 Gaussian 16:  ES64L-G16RevC.01  3-Jul-2019

 ----------------------------------------------------------------------
 #t hf aug-cc-pvdz iop(5/13=1,5/36=2,99/5=2) pseudo=read geom=check gue
 ss=(read,tcheck) scf=(maxcycle=1)
 ----------------------------------------------------------------------
 -----
 title
 -----
 Structure from the checkpoint file:  "2-ethylpyrazine.chk"
 Charge =  0 Multiplicity = 1

                         Standard orientation:
 ---------------------------------------------------------------------
 Center     Atomic      Atomic             Coordinates (Angstroms)
 Number     Number       Type             X           Y           Z
 ---------------------------------------------------------------------
      1          6           0        2.233334   -0.116230    0.218263
      2          6           0        1.430378   -1.225938   -0.017669
      3          6           0        0.433277    1.226506   -0.053715
      4          6           0       -0.386763    0.119094   -0.289925
      5          6           0       -2.716909   -0.220171    0.627717
      6          6           0       -1.861257    0.258329   -0.552378
      7          7           0        1.734306    1.117813    0.199732
      8          7           0        0.129285   -1.113947   -0.269666
      9          1           0        3.291804   -0.223926    0.422137
     10          1           0        1.847245   -2.226480   -0.005825
     11          1           0        0.020691    2.228991   -0.073988
     12          1           0       -2.497551   -1.261629    0.860291
     13          1           0       -3.777994   -0.138114    0.391141
     14          1           0       -2.522970    0.375105    1.521205
     15          1           0       -2.091480    1.300250   -0.781301
     16          1           0       -2.107242   -0.330802   -1.437880
 ---------------------------------------------------------------------

 SCF Done:  E(RHF) =  -341.151299230     A.U. after    2 cycles

 The electronic state is 1-A.
 Alpha  occ. eigenvalues --  -15.52807 -15.52314 -11.28853 -11.28624 -11.28180
 Alpha  occ. eigenvalues --  -11.28150 -11.24412 -11.23108  -1.30594  -1.22103
 Alpha  occ. eigenvalues --   -1.08918  -1.02168  -0.91864  -0.91646  -0.84150
 Alpha  occ. eigenvalues --   -0.75065  -0.73179  -0.67137  -0.62674  -0.61441
 Alpha  occ. eigenvalues --   -0.60005  -0.58066  -0.54015  -0.53914  -0.51847
 Alpha  occ. eigenvalues --   -0.50818  -0.46575  -0.43694  -0.35937
 Alpha virt. eigenvalues --    0.03457   0.03898   0.04276   0.04401   0.04959
 Alpha virt. eigenvalues --    0.05251   0.05842   0.06888   0.07931   0.09987
 Alpha virt. eigenvalues --    0.10337   0.10858   0.11448   0.12303   0.13544

 Mulliken charges:
               1
     1  C   -0.457484
     2  C   -0.248480
     3  C   -0.914623
     4  C   -0.406027
     5  C   -0.343579
     6  C   -0.466645
     7  N    1.110552
     8  N    1.315031
     9  H   -0.112872
    10  H   -0.143532
    11  H   -0.140293
    12  H    0.206580
    13  H    0.105340
    14  H    0.157275
    15  H    0.127196
    16  H    0.211562
 Sum of Mulliken charges =   0.00000

 Dipole moment (field-independent basis, Debye):
    X=             -0.7033    Y=             -0.1468    Z=             -0.0683  Tot=              0.7217

 Test job not archived.
 1\1\GINC-SE183\SP\RHF\Aug-CC-pVDZ\C6H8N2\OHZDE\05-Apr-2025\0\\#t hf au
 g-cc-pvdz iop(5/13=1,5/36=2,99/5=2) pseudo=read geom=check guess=(read
 ,tcheck) scf=(maxcycle=1)\\title\\0,1\C,0,2.233334,-0.11623,0.218263\C
 ,0,1.430378,-1.225938,-0.017669\C,0,0.433277,1.226506,-0.053715\C,0,-0
 .386763,0.119094,-0.289925\C,0,-2.716909,-0.220171,0.627717\C,0,-1.861
 257,0.258329,-0.552378\N,0,1.734306,1.117813,0.199732\N,0,0.129285,-1.
 113947,-0.269666\H,0,3.291804,-0.223926,0.422137\H,0,1.847245,-2.22648
 ,-0.005825\H,0,0.020691,2.228991,-0.073988\H,0,-2.497551,-1.261629,0.8

 Normal termination of Gaussian 16 at Sat Apr  5 22:39:51 2025.
