 Gaussian 16, Revision C.01,

 ----------------------------------------------------------------------
 #t hf aug-cc-pvdz symm=none int=(grid=ultrafine) guess=(read,tcheck) s
 table=(opt,rrhf)
 ----------------------------------------------------------------------
 -----
 title
 -----
 Symbolic Z-matrix:
 Charge =  0 Multiplicity = 1

 SCF Done:  E(RHF) =  -307.039810707     A.U. after   12 cycles

 1\1\GINC-SE115\Stability\RHF\Aug-CC-pVDZ\C4H10O2\OHZDE\05-Apr-2025\0\\
 #t hf aug-cc-pvdz symm=none int=(grid=ultrafine) guess=(read,tcheck) s
 table=(opt,rrhf)\\title\\0,1\C,0,-2.749765,-0.583904,-0.153459\C,0,-1.
 683862,0.394741,0.292969\C,0,1.943584,0.269479,-0.404816\C,0,0.63875,0
 .818274,0.137976\O,0,2.3662,-0.943905,0.203717\O,0,-0.429726,-0.030575
 ,-0.21494\H,0,-3.725084,-0.279288,0.228236\H,0,-2.80247,-0.625322,-1.2
 41261\H,0,-2.530599,-1.585069,0.21698\H,0,-1.640996,0.446136,1.389514\
 H,0,-1.909147,1.406285,-0.072242\H,0,2.712674,1.045372,-0.307406\H,0,1

 Normal termination of Gaussian 16 at Sat Apr  5 22:38:59 2025.
 Gaussian 16:  ES64L-G16RevC.01  3-Jul-2019

 ----------------------------------------------------------------------
 #t hf aug-cc-pvdz iop(5/13=1,5/36=2,99/5=2) pseudo=read geom=check gue
 ss=(read,tcheck) scf=(maxcycle=1)
 ----------------------------------------------------------------------
 -----
 title
 -----
 Structure from the checkpoint file:  "2-ethoxyethanol.chk"
 Charge =  0 Multiplicity = 1

                         Standard orientation:
 ---------------------------------------------------------------------
 Center     Atomic      Atomic             Coordinates (Angstroms)
 Number     Number       Type             X           Y           Z
 ---------------------------------------------------------------------
      1          6           0       -2.749765   -0.583904   -0.153459
      2          6           0       -1.683862    0.394741    0.292969
      3          6           0        1.943584    0.269479   -0.404816
      4          6           0        0.638750    0.818274    0.137976
      5          8           0        2.366200   -0.943905    0.203717
      6          8           0       -0.429726   -0.030575   -0.214940
      7          1           0       -3.725084   -0.279288    0.228236
      8          1           0       -2.802470   -0.625322   -1.241261
      9          1           0       -2.530599   -1.585069    0.216980
     10          1           0       -1.640996    0.446136    1.389514
     11          1           0       -1.909147    1.406285   -0.072242
     12          1           0        2.712674    1.045372   -0.307406
     13          1           0        1.826768    0.042599   -1.464123
     14          1           0        0.481049    1.826798   -0.273000
     15          1           0        0.701134    0.920416    1.233025
     16          1           0        2.502636   -0.793628    1.144037
 ---------------------------------------------------------------------

 SCF Done:  E(RHF) =  -307.364473520     A.U. after    2 cycles

 The electronic state is 1-A.
 Alpha  occ. eigenvalues --  -20.54440 -20.54124 -11.28667 -11.28386 -11.28361
 Alpha  occ. eigenvalues --  -11.22361  -1.46377  -1.43982  -1.04448  -0.98365
 Alpha  occ. eigenvalues --   -0.84953  -0.83809  -0.69839  -0.68519  -0.65644
 Alpha  occ. eigenvalues --   -0.62831  -0.61934  -0.56319  -0.55382  -0.53542
 Alpha  occ. eigenvalues --   -0.50735  -0.50106  -0.47233  -0.43901  -0.41629
 Alpha virt. eigenvalues --    0.03418   0.03923   0.03947   0.04629   0.05932
 Alpha virt. eigenvalues --    0.06214   0.06512   0.07413   0.08708   0.09380
 Alpha virt. eigenvalues --    0.12258   0.13031   0.14033   0.15264   0.15728

 Mulliken charges:
               1
     1  C   -0.516341
     2  C    0.397441
     3  C    0.603457
     4  C    0.452707
     5  O   -1.104533
     6  O   -1.321442
     7  H    0.146725
     8  H    0.166949
     9  H    0.175159
    10  H    0.135689
    11  H    0.144124
    12  H    0.117481
    13  H    0.080341
    14  H    0.140053
    15  H    0.095503
    16  H    0.286688
 Sum of Mulliken charges =  -0.00000

 Dipole moment (field-independent basis, Debye):
    X=             -0.6036    Y=              2.4195    Z=              1.4216  Tot=              2.8704

 Test job not archived.
 1\1\GINC-SE115\SP\RHF\Aug-CC-pVDZ\C4H10O2\OHZDE\05-Apr-2025\0\\#t hf a
 ug-cc-pvdz iop(5/13=1,5/36=2,99/5=2) pseudo=read geom=check guess=(rea
 d,tcheck) scf=(maxcycle=1)\\title\\0,1\C,0,-2.749765,-0.583904,-0.1534
 59\C,0,-1.683862,0.394741,0.292969\C,0,1.943584,0.269479,-0.404816\C,0
 ,0.63875,0.818274,0.137976\O,0,2.3662,-0.943905,0.203717\O,0,-0.429726
 ,-0.030575,-0.21494\H,0,-3.725084,-0.279288,0.228236\H,0,-2.80247,-0.6
 25322,-1.241261\H,0,-2.530599,-1.585069,0.21698\H,0,-1.640996,0.446136
 ,1.389514\H,0,-1.909147,1.406285,-0.072242\H,0,2.712674,1.045372,-0.30

 Normal termination of Gaussian 16 at Sat Apr  5 22:39:11 2025.
