 Gaussian 16, Revision C.01,

 ----------------------------------------------------------------------
 #t hf aug-cc-pvdz symm=none int=(grid=ultrafine) guess=(read,tcheck) s
 table=(opt,rrhf)
 ----------------------------------------------------------------------
 -----
 title
 -----
 Symbolic Z-matrix:
 Charge =  0 Multiplicity = 1

 SCF Done:  E(RHF) =  -430.140907278     A.U. after   16 cycles
 Normal termination of Gaussian 16 at Sat Apr  5 22:39:26 2025.
 Gaussian 16:  ES64L-G16RevC.01  3-Jul-2019

 ----------------------------------------------------------------------
 #t hf aug-cc-pvdz iop(5/13=1,5/36=2,99/5=2) pseudo=read geom=check gue
 ss=(read,tcheck) scf=(maxcycle=1)
 ----------------------------------------------------------------------
 -----
 title
 -----
 Structure from the checkpoint file:  "2-ethynylpyrimidine-5-carbonitrile.chk"
 Charge =  0 Multiplicity = 1

                         Standard orientation:
 ---------------------------------------------------------------------
 Center     Atomic      Atomic             Coordinates (Angstroms)
 Number     Number       Type             X           Y           Z
 ---------------------------------------------------------------------
      1          6           0        0.000000   -0.000000   -3.930784
      2          6           0        0.000000   -0.000000   -2.731540
      3          6           0        0.000000    0.000000    2.793427
      4          6           0        0.000000    1.188249    0.632112
      5          6           0       -0.000000   -1.188249    0.632112
      6          6           0        0.000000   -0.000000   -1.302335
      7          6           0        0.000000    0.000000    1.369921
      8          7           0        0.000000    0.000000    3.945700
      9          7           0        0.000000    1.194481   -0.690626
     10          7           0       -0.000000   -1.194481   -0.690626
     11          1           0        0.000000   -0.000000   -4.992828
     12          1           0        0.000000    2.149383    1.132106
     13          1           0       -0.000000   -2.149383    1.132106
 ---------------------------------------------------------------------

 SCF Done:  E(RHF) =  -430.563059619     A.U. after    2 cycles

 The electronic state is 1-A1.
 Alpha  occ. eigenvalues --  -15.54994 -15.54927 -15.53665 -11.38187 -11.34769
 Alpha  occ. eigenvalues --  -11.34758 -11.31515 -11.30417 -11.27747 -11.26974
 Alpha  occ. eigenvalues --   -1.35666  -1.25658  -1.24344  -1.14698  -1.07136
 Alpha  occ. eigenvalues --   -0.98412  -0.96205  -0.82987  -0.81511  -0.79617
 Alpha  occ. eigenvalues --   -0.74302  -0.67218  -0.65883  -0.65431  -0.62914
 Alpha  occ. eigenvalues --   -0.56892  -0.56141  -0.53607  -0.49750  -0.48341
 Alpha  occ. eigenvalues --   -0.47070  -0.44137  -0.39517
 Alpha virt. eigenvalues --    0.01078   0.02893   0.03462   0.03626   0.04358
 Alpha virt. eigenvalues --    0.06515   0.07844   0.08250   0.08904   0.09831
 Alpha virt. eigenvalues --    0.10292   0.10550   0.12157   0.12422   0.12778

 Mulliken charges:
               1
     1  C    0.495421
     2  C    1.334299
     3  C   -2.650366
     4  C   -0.675879
     5  C   -0.675879
     6  C   -2.983350
     7  C    2.304572
     8  N    1.124449
     9  N    1.247299
    10  N    1.247299
    11  H   -0.432262
    12  H   -0.167801
    13  H   -0.167801
 Sum of Mulliken charges =   0.00000

 Dipole moment (field-independent basis, Debye):
    X=              0.0000    Y=             -0.0000    Z=             -3.2688  Tot=              3.2688

 Test job not archived.
 1\1\GINC-SE053\SP\RHF\Aug-CC-pVDZ\C7H3N3\OHZDE\05-Apr-2025\0\\#t hf au
 g-cc-pvdz iop(5/13=1,5/36=2,99/5=2) pseudo=read geom=check guess=(read
 ,tcheck) scf=(maxcycle=1)\\title\\0,1\C,0,0.,0.,-3.930784\C,0,0.,0.,-2
 .73154\C,0,0.,0.,2.793427\C,0,0.,1.188249,0.632112\C,0,0.,-1.188249,0.
 632112\C,0,0.,0.,-1.302335\C,0,0.,0.,1.369921\N,0,0.,0.,3.9457\N,0,0.,
 1.194481,-0.690626\N,0,0.,-1.194481,-0.690626\H,0,0.,0.,-4.992828\H,0,
 0.,2.149383,1.132106\H,0,0.,-2.149383,1.132106\\Version=ES64L-G16RevC.
 01\State=1-A1\HF=-430.5630596\RMSD=6.887e-02\Dipole=0.,0.,-1.2860458\Q

 Normal termination of Gaussian 16 at Sat Apr  5 22:39:50 2025.
