 Gaussian 16, Revision C.01,

 ----------------------------------------------------------------------
 #t hf aug-cc-pvdz symm=none int=(grid=ultrafine) guess=(read,tcheck) s
 table=(opt,rrhf)
 ----------------------------------------------------------------------
 -----
 title
 -----
 Symbolic Z-matrix:
 Charge =  0 Multiplicity = 1

 SCF Done:  E(RHF) =  -324.807542536     A.U. after   14 cycles
 Normal termination of Gaussian 16 at Sat Apr  5 22:39:24 2025.
 Gaussian 16:  ES64L-G16RevC.01  3-Jul-2019

 ----------------------------------------------------------------------
 #t hf aug-cc-pvdz iop(5/13=1,5/36=2,99/5=2) pseudo=read geom=check gue
 ss=(read,tcheck) scf=(maxcycle=1)
 ----------------------------------------------------------------------
 -----
 title
 -----
 Structure from the checkpoint file:  "2-ethylpyridine.chk"
 Charge =  0 Multiplicity = 1

                         Standard orientation:
 ---------------------------------------------------------------------
 Center     Atomic      Atomic             Coordinates (Angstroms)
 Number     Number       Type             X           Y           Z
 ---------------------------------------------------------------------
      1          6           0        1.751556    1.082901    0.182606
      2          6           0        2.271460   -0.203318    0.214278
      3          6           0        0.398740    1.250753   -0.075620
      4          6           0        1.403367   -1.263547   -0.016890
      5          6           0       -0.401322    0.128061   -0.295305
      6          6           0       -2.726106   -0.194903    0.645780
      7          6           0       -1.881035    0.248415   -0.555272
      8          7           0        0.103790   -1.111829   -0.264838
      9          1           0        2.388226    1.940873    0.354047
     10          1           0        3.319053   -0.385161    0.408951
     11          1           0       -0.037426    2.240056   -0.109962
     12          1           0        1.770415   -2.283998   -0.005475
     13          1           0       -2.495860   -1.225772    0.912489
     14          1           0       -3.789953   -0.129702    0.414763
     15          1           0       -2.530642    0.432256    1.517119
     16          1           0       -2.122699    1.279481   -0.819168
     17          1           0       -2.127609   -0.375408   -1.416356
 ---------------------------------------------------------------------

 SCF Done:  E(RHF) =  -325.148625454     A.U. after    2 cycles

 The electronic state is 1-A.
 Alpha  occ. eigenvalues --  -15.49622 -11.27964 -11.27712 -11.26252 -11.24169
 Alpha  occ. eigenvalues --  -11.24095 -11.23338 -11.22307  -1.25773  -1.08905
 Alpha  occ. eigenvalues --   -1.07341  -1.00189  -0.88681  -0.87351  -0.82023
 Alpha  occ. eigenvalues --   -0.71707  -0.69247  -0.65128  -0.61311  -0.60779
 Alpha  occ. eigenvalues --   -0.58803  -0.57190  -0.54865  -0.51667  -0.50307
 Alpha  occ. eigenvalues --   -0.49669  -0.44309  -0.40077  -0.34682
 Alpha virt. eigenvalues --    0.03274   0.03743   0.03980   0.04758   0.04818
 Alpha virt. eigenvalues --    0.05356   0.06945   0.07854   0.08388   0.08585
 Alpha virt. eigenvalues --    0.10556   0.10820   0.11264   0.12572   0.13936

 Mulliken charges:
               1
     1  C   -0.022393
     2  C    0.645010
     3  C    0.693476
     4  C   -0.796735
     5  C   -0.982910
     6  C   -0.345644
     7  C   -0.380366
     8  N    1.271432
     9  H   -0.187064
    10  H   -0.198063
    11  H   -0.259920
    12  H   -0.213482
    13  H    0.211580
    14  H    0.106498
    15  H    0.151083
    16  H    0.115025
    17  H    0.192472
 Sum of Mulliken charges =  -0.00000

 Dipole moment (field-independent basis, Debye):
    X=              1.0111    Y=              1.9358    Z=              0.3591  Tot=              2.2133

 Test job not archived.
 1\1\GINC-SE185\SP\RHF\Aug-CC-pVDZ\C7H9N1\OHZDE\05-Apr-2025\0\\#t hf au
 g-cc-pvdz iop(5/13=1,5/36=2,99/5=2) pseudo=read geom=check guess=(read
 ,tcheck) scf=(maxcycle=1)\\title\\0,1\C,0,1.751556,1.082901,0.182606\C
 ,0,2.27146,-0.203318,0.214278\C,0,0.39874,1.250753,-0.07562\C,0,1.4033
 67,-1.263547,-0.01689\C,0,-0.401322,0.128061,-0.295305\C,0,-2.726106,-
 0.194903,0.64578\C,0,-1.881035,0.248415,-0.555272\N,0,0.10379,-1.11182
 9,-0.264838\H,0,2.388226,1.940873,0.354047\H,0,3.319053,-0.385161,0.40
 8951\H,0,-0.037426,2.240056,-0.109962\H,0,1.770415,-2.283998,-0.005475

 Normal termination of Gaussian 16 at Sat Apr  5 22:39:52 2025.
