 Gaussian 16, Revision C.01,

 ----------------------------------------------------------------------
 #t hf aug-cc-pvdz symm=none int=(grid=ultrafine) guess=(read,tcheck) s
 table=(opt,rrhf)
 ----------------------------------------------------------------------
 -----
 title
 -----
 Symbolic Z-matrix:
 Charge =  0 Multiplicity = 1

 SCF Done:  E(RHF) =  -345.597348721     A.U. after   14 cycles
 Normal termination of Gaussian 16 at Sat Apr  5 22:39:19 2025.
 Gaussian 16:  ES64L-G16RevC.01  3-Jul-2019

 ----------------------------------------------------------------------
 #t hf aug-cc-pvdz iop(5/13=1,5/36=2,99/5=2) pseudo=read geom=check gue
 ss=(read,tcheck) scf=(maxcycle=1)
 ----------------------------------------------------------------------
 -----
 title
 -----
 Structure from the checkpoint file:  "2-fluoropyridine.chk"
 Charge =  0 Multiplicity = 1

                         Standard orientation:
 ---------------------------------------------------------------------
 Center     Atomic      Atomic             Coordinates (Angstroms)
 Number     Number       Type             X           Y           Z
 ---------------------------------------------------------------------
      1          6           0       -0.000000    0.890610   -0.000000
      2          6           0        1.213082    0.212929    0.000000
      3          6           0        1.150826   -1.170346    0.000000
      4          6           0       -0.094041   -1.795003    0.000000
      5          6           0       -1.228714   -0.999639   -0.000000
      6          7           0       -1.183800    0.338362   -0.000000
      7          9           0        0.025740    2.234588   -0.000000
      8          1           0        2.146052    0.755943    0.000000
      9          1           0        2.060970   -1.754404    0.000000
     10          1           0       -0.181364   -2.871685    0.000000
     11          1           0       -2.217635   -1.440986   -0.000000
 ---------------------------------------------------------------------

 SCF Done:  E(RHF) =  -345.939056325     A.U. after    2 cycles

 The electronic state is 1-A'.
 Alpha  occ. eigenvalues --  -26.48085 -15.51810 -11.37671 -11.29955 -11.28367
 Alpha  occ. eigenvalues --  -11.26327 -11.25720  -1.61607  -1.28480  -1.11440
 Alpha  occ. eigenvalues --   -1.05148  -0.91082  -0.88401  -0.76976  -0.73846
 Alpha  occ. eigenvalues --   -0.70150  -0.68661  -0.64969  -0.63097  -0.59385
 Alpha  occ. eigenvalues --   -0.57003  -0.56651  -0.48055  -0.42368  -0.36600
 Alpha virt. eigenvalues --    0.02943   0.03661   0.04185   0.05904   0.06962
 Alpha virt. eigenvalues --    0.08989   0.09912   0.10645   0.11160   0.12602
 Alpha virt. eigenvalues --    0.12613   0.12870   0.13320   0.14024   0.14497

 Mulliken charges:
               1
     1  C    0.057281
     2  C    0.411930
     3  C    0.121849
     4  C    0.713655
     5  C   -0.709625
     6  N    0.948066
     7  F   -0.859889
     8  H   -0.192151
     9  H   -0.142497
    10  H   -0.183660
    11  H   -0.164960
 Sum of Mulliken charges =  -0.00000

 Dipole moment (field-independent basis, Debye):
    X=              2.2215    Y=             -3.1413    Z=              0.0000  Tot=              3.8474

 Test job not archived.
 1\1\GINC-SE046\SP\RHF\Aug-CC-pVDZ\C5H4F1N1\OHZDE\05-Apr-2025\0\\#t hf
 aug-cc-pvdz iop(5/13=1,5/36=2,99/5=2) pseudo=read geom=check guess=(re
 ad,tcheck) scf=(maxcycle=1)\\title\\0,1\C,0,0.,0.89061,0.\C,0,1.213082
 ,0.212929,0.\C,0,1.150826,-1.170346,0.\C,0,-0.094041,-1.795003,0.\C,0,
 -1.228714,-0.999639,0.\N,0,-1.1838,0.338362,0.\F,0,0.02574,2.234588,0.
 \H,0,2.146052,0.755943,0.\H,0,2.06097,-1.754404,0.\H,0,-0.181364,-2.87
 1685,0.\H,0,-2.217635,-1.440986,0.\\Version=ES64L-G16RevC.01\State=1-A
 '\HF=-345.9390563\RMSD=2.862e-02\Dipole=0.874019,-1.2358695,0.\Quadrup

 Normal termination of Gaussian 16 at Sat Apr  5 22:39:50 2025.
