 Gaussian 16, Revision C.01,

 ----------------------------------------------------------------------
 #t hf aug-cc-pvdz symm=none int=(grid=ultrafine) guess=(read,tcheck) s
 table=(opt,rrhf)
 ----------------------------------------------------------------------
 -----
 title
 -----
 Symbolic Z-matrix:
 Charge =  0 Multiplicity = 1

 SCF Done:  E(RHF) =  -378.584281918     A.U. after   16 cycles
 Normal termination of Gaussian 16 at Sat Apr  5 22:38:48 2025.
 Gaussian 16:  ES64L-G16RevC.01  3-Jul-2019

 ----------------------------------------------------------------------
 #t hf aug-cc-pvdz iop(5/13=1,5/36=2,99/5=2) pseudo=read geom=check gue
 ss=(read,tcheck) scf=(maxcycle=1)
 ----------------------------------------------------------------------
 -----
 title
 -----
 Structure from the checkpoint file:  "2-fluoro-1H-triazine.chk"
 Charge =  0 Multiplicity = 1

                         Standard orientation:
 ---------------------------------------------------------------------
 Center     Atomic      Atomic             Coordinates (Angstroms)
 Number     Number       Type             X           Y           Z
 ---------------------------------------------------------------------
      1          9           0       -2.150096   -0.001054    0.020213
      2          7           0       -0.814685    0.069525   -0.443341
      3          7           0       -0.277930    1.215684    0.168577
      4          7           0       -0.249750   -1.157396    0.094708
      5          6           0        1.005130    1.204416    0.110976
      6          6           0        1.127688   -1.139416    0.040064
      7          6           0        1.779078    0.018424   -0.196713
      8          1           0       -0.688110   -1.456788    0.966414
      9          1           0        1.504722    2.099325    0.462256
     10          1           0        1.610500   -2.086619    0.240445
     11          1           0        2.848926    0.058330   -0.316594
 ---------------------------------------------------------------------

 SCF Done:  E(RHF) =  -378.957862936     A.U. after    2 cycles

 The electronic state is 1-A.
 Alpha  occ. eigenvalues --  -26.47809 -15.67031 -15.57465 -15.54325 -11.32684
 Alpha  occ. eigenvalues --  -11.31081 -11.25779  -1.60269  -1.35838  -1.24306
 Alpha  occ. eigenvalues --   -1.12288  -1.00510  -0.92833  -0.81541  -0.78159
 Alpha  occ. eigenvalues --   -0.76425  -0.70024  -0.68433  -0.65707  -0.62126
 Alpha  occ. eigenvalues --   -0.60110  -0.59160  -0.54456  -0.48047  -0.47253
 Alpha  occ. eigenvalues --   -0.36885
 Alpha virt. eigenvalues --    0.02856   0.03601   0.04038   0.05227   0.06409
 Alpha virt. eigenvalues --    0.09690   0.10230   0.11757   0.11956   0.12529
 Alpha virt. eigenvalues --    0.13274   0.13806   0.14062   0.15545   0.15783

 Mulliken charges:
               1
     1  F   -0.637315
     2  N   -0.003498
     3  N    0.536980
     4  N    0.485696
     5  C   -0.605841
     6  C   -0.499799
     7  C    0.876174
     8  H    0.212184
     9  H   -0.095506
    10  H   -0.154890
    11  H   -0.114186
 Sum of Mulliken charges =  -0.00000

 Dipole moment (field-independent basis, Debye):
    X=              4.3562    Y=             -1.8447    Z=              1.7508  Tot=              5.0443

 Test job not archived.
 1\1\GINC-SE164\SP\RHF\Aug-CC-pVDZ\C3H4F1N3\OHZDE\05-Apr-2025\0\\#t hf
 aug-cc-pvdz iop(5/13=1,5/36=2,99/5=2) pseudo=read geom=check guess=(re
 ad,tcheck) scf=(maxcycle=1)\\title\\0,1\F,0,-2.150096,-0.001053,0.0202
 13\N,0,-0.814685,0.069525,-0.443341\N,0,-0.27793,1.215684,0.168577\N,0
 ,-0.24975,-1.157396,0.094708\C,0,1.00513,1.204416,0.110976\C,0,1.12768
 8,-1.139416,0.040064\C,0,1.779078,0.018424,-0.196713\H,0,-0.68811,-1.4
 56788,0.966414\H,0,1.504722,2.099325,0.462256\H,0,1.610499,-2.086619,0
 .240445\H,0,2.848926,0.058329,-0.316594\\Version=ES64L-G16RevC.01\Stat

 Normal termination of Gaussian 16 at Sat Apr  5 22:39:11 2025.
