 Gaussian 16, Revision C.01,

 ----------------------------------------------------------------------
 #t hf aug-cc-pvdz symm=none int=(grid=ultrafine) guess=(read,tcheck) s
 table=(opt,rrhf)
 ----------------------------------------------------------------------
 -----
 title
 -----
 Symbolic Z-matrix:
 Charge =  0 Multiplicity = 1

 SCF Done:  E(RHF) =  -532.195667128     A.U. after   16 cycles
 Normal termination of Gaussian 16 at Sat Apr  5 22:39:16 2025.
 Gaussian 16:  ES64L-G16RevC.01  3-Jul-2019

 ----------------------------------------------------------------------
 #t hf aug-cc-pvdz iop(5/13=1,5/36=2,99/5=2) pseudo=read geom=check gue
 ss=(read,tcheck) scf=(maxcycle=1)
 ----------------------------------------------------------------------
 -----
 title
 -----
 Structure from the checkpoint file:  "2-fluoro-2-nitro-3H-furan.chk"
 Charge =  0 Multiplicity = 1

                         Standard orientation:
 ---------------------------------------------------------------------
 Center     Atomic      Atomic             Coordinates (Angstroms)
 Number     Number       Type             X           Y           Z
 ---------------------------------------------------------------------
      1          9           0       -0.375818    1.697446    0.222764
      2          8           0        0.626983    0.220870   -1.127340
      3          8           0       -2.388585    0.216606   -0.155235
      4          8           0       -1.228699   -1.610380    0.030610
      5          7           0       -1.359931   -0.402241   -0.018206
      6          6           0       -0.021614    0.404745    0.085285
      7          6           0        0.896960   -0.092476    1.209348
      8          6           0        1.920548   -0.209156   -0.846755
      9          6           0        2.155262   -0.394312    0.440990
     10          1           0        0.482254   -0.975565    1.692874
     11          1           0        1.010076    0.694126    1.955231
     12          1           0        2.540130   -0.330936   -1.718095
     13          1           0        3.084893   -0.718520    0.875072
 ---------------------------------------------------------------------

 SCF Done:  E(RHF) =  -532.707969860     A.U. after    2 cycles

 The electronic state is 1-A.
 Alpha  occ. eigenvalues --  -26.50927 -20.62487 -20.61021 -20.60256 -15.79875
 Alpha  occ. eigenvalues --  -11.47707 -11.33635 -11.29118 -11.27122  -1.69514
 Alpha  occ. eigenvalues --   -1.65425  -1.55538  -1.52813  -1.13611  -1.10461
 Alpha  occ. eigenvalues --   -0.98377  -0.87878  -0.85081  -0.82725  -0.78784
 Alpha  occ. eigenvalues --   -0.75596  -0.75052  -0.70796  -0.69297  -0.66712
 Alpha  occ. eigenvalues --   -0.63712  -0.61366  -0.59296  -0.57932  -0.56172
 Alpha  occ. eigenvalues --   -0.50382  -0.49558  -0.46177  -0.38724
 Alpha virt. eigenvalues --    0.02697   0.03520   0.04451   0.04938   0.05743
 Alpha virt. eigenvalues --    0.08306   0.09525   0.10068   0.10833   0.11756
 Alpha virt. eigenvalues --    0.12830   0.13349   0.13724   0.14385   0.15267

 Mulliken charges:
               1
     1  F   -0.881187
     2  O   -1.535377
     3  O   -1.296738
     4  O   -1.454329
     5  N    2.540624
     6  C    1.955668
     7  C   -0.724729
     8  C    0.627922
     9  C    0.573333
    10  H    0.220553
    11  H    0.199519
    12  H   -0.122393
    13  H   -0.102868
 Sum of Mulliken charges =  -0.00000

 Dipole moment (field-independent basis, Debye):
    X=              4.5212    Y=             -0.0122    Z=              1.4339  Tot=              4.7431

 Test job not archived.
 1\1\GINC-SE187\SP\RHF\Aug-CC-pVDZ\C4H4F1N1O3\OHZDE\05-Apr-2025\0\\#t h
 f aug-cc-pvdz iop(5/13=1,5/36=2,99/5=2) pseudo=read geom=check guess=(
 read,tcheck) scf=(maxcycle=1)\\title\\0,1\F,0,-0.375818,1.697446,0.222
 764\O,0,0.626983,0.22087,-1.12734\O,0,-2.388585,0.216606,-0.155235\O,0
 ,-1.228699,-1.61038,0.03061\N,0,-1.359931,-0.402241,-0.018206\C,0,-0.0
 21614,0.404745,0.085285\C,0,0.89696,-0.092476,1.209348\C,0,1.920548,-0
 .209156,-0.846755\C,0,2.155262,-0.394312,0.44099\H,0,0.482254,-0.97556
 5,1.692874\H,0,1.010076,0.694126,1.955231\H,0,2.54013,-0.330936,-1.718

 Normal termination of Gaussian 16 at Sat Apr  5 22:39:50 2025.
