 Gaussian 16, Revision C.01,

 ----------------------------------------------------------------------
 #t hf aug-cc-pvdz symm=none int=(grid=ultrafine) guess=(read,tcheck) s
 table=(opt,rrhf)
 ----------------------------------------------------------------------
 -----
 title
 -----
 Symbolic Z-matrix:
 Charge =  0 Multiplicity = 1

 SCF Done:  E(RHF) =  -230.736857228     A.U. after   14 cycles
 Normal termination of Gaussian 16 at Sat Apr  5 22:38:35 2025.
 Gaussian 16:  ES64L-G16RevC.01  3-Jul-2019

 ----------------------------------------------------------------------
 #t hf aug-cc-pvdz iop(5/13=1,5/36=2,99/5=2) pseudo=read geom=check gue
 ss=(read,tcheck) scf=(maxcycle=1)
 ----------------------------------------------------------------------
 -----
 title
 -----
 Structure from the checkpoint file:  "2-fluoroethenimine.chk"
 Charge =  0 Multiplicity = 1

                         Standard orientation:
 ---------------------------------------------------------------------
 Center     Atomic      Atomic             Coordinates (Angstroms)
 Number     Number       Type             X           Y           Z
 ---------------------------------------------------------------------
      1          9           0        1.606461   -0.410727    0.002376
      2          7           0       -1.822683   -0.186473   -0.129924
      3          6           0        0.603795    0.505949    0.008579
      4          6           0       -0.650353    0.130122    0.010605
      5          1           0       -2.343052   -0.348985    0.733356
      6          1           0        0.923032    1.534412    0.039623
 ---------------------------------------------------------------------

 SCF Done:  E(RHF) =  -230.960132759     A.U. after    2 cycles

 The electronic state is 1-A.
 Alpha  occ. eigenvalues --  -26.48135 -15.55171 -11.34107 -11.33658  -1.60387
 Alpha  occ. eigenvalues --   -1.27084  -1.03853  -0.82349  -0.76803  -0.72041
 Alpha  occ. eigenvalues --   -0.67685  -0.60952  -0.59134  -0.53127  -0.37847
 Alpha virt. eigenvalues --    0.02907   0.04640   0.07385   0.09403   0.10635
 Alpha virt. eigenvalues --    0.11543   0.12344   0.13000   0.14268   0.16524
 Alpha virt. eigenvalues --    0.16790   0.20136   0.21587   0.23210   0.25313

 Mulliken charges:
               1
     1  F   -0.702483
     2  N    0.626261
     3  C    1.379604
     4  C   -1.498065
     5  H    0.148336
     6  H    0.046346
 Sum of Mulliken charges =  -0.00000

 Dipole moment (field-independent basis, Debye):
    X=             -0.3740    Y=              1.2155    Z=              1.5973  Tot=              2.0417

 Test job not archived.
 1\1\GINC-SE187\SP\RHF\Aug-CC-pVDZ\C2H2F1N1\OHZDE\05-Apr-2025\0\\#t hf
 aug-cc-pvdz iop(5/13=1,5/36=2,99/5=2) pseudo=read geom=check guess=(re
 ad,tcheck) scf=(maxcycle=1)\\title\\0,1\F,0,1.606461,-0.410727,0.00237
 6\N,0,-1.822683,-0.186473,-0.129924\C,0,0.603795,0.505949,0.008579\C,0
 ,-0.650353,0.130122,0.010605\H,0,-2.343052,-0.348985,0.733356\H,0,0.92
 3032,1.534412,0.039623\\Version=ES64L-G16RevC.01\State=1-A\HF=-230.960
 1328\RMSD=1.908e-02\Dipole=-0.1471486,0.4781974,0.6284137\Quadrupole=-
 0.7659516,1.1412899,-0.3753384,1.6123194,-3.0173184,-0.4430117\PG=C01

 Normal termination of Gaussian 16 at Sat Apr  5 22:39:08 2025.
