 Gaussian 16, Revision C.01,

 ----------------------------------------------------------------------
 #t hf aug-cc-pvdz symm=none int=(grid=ultrafine) guess=(read,tcheck) s
 table=(opt,rrhf)
 ----------------------------------------------------------------------
 -----
 title
 -----
 Symbolic Z-matrix:
 Charge =  0 Multiplicity = 1

 SCF Done:  E(RHF) =  -404.464725817     A.U. after   16 cycles
 Normal termination of Gaussian 16 at Sat Apr  5 22:39:07 2025.
 Gaussian 16:  ES64L-G16RevC.01  3-Jul-2019

 ----------------------------------------------------------------------
 #t hf aug-cc-pvdz iop(5/13=1,5/36=2,99/5=2) pseudo=read geom=check gue
 ss=(read,tcheck) scf=(maxcycle=1)
 ----------------------------------------------------------------------
 -----
 title
 -----
 Structure from the checkpoint file:  "2-fluorophenol.chk"
 Charge =  0 Multiplicity = 1

                         Standard orientation:
 ---------------------------------------------------------------------
 Center     Atomic      Atomic             Coordinates (Angstroms)
 Number     Number       Type             X           Y           Z
 ---------------------------------------------------------------------
      1          6           0       -1.104968   -1.663429   -0.000000
      2          6           0       -1.932817   -0.545821   -0.000000
      3          6           0        0.277669   -1.523878    0.000000
      4          6           0       -1.373010    0.728438   -0.000000
      5          6           0        0.848168   -0.256096    0.000000
      6          6           0        0.000000    0.846928   -0.000000
      7          8           0        2.201785   -0.118858    0.000000
      8          9           0        0.585079    2.077027    0.000000
      9          1           0       -1.536548   -2.654610   -0.000000
     10          1           0       -3.007204   -0.659939   -0.000000
     11          1           0        0.930968   -2.385091    0.000000
     12          1           0       -1.982396    1.621014   -0.000000
     13          1           0        2.424943    0.819401    0.000000
 ---------------------------------------------------------------------

 SCF Done:  E(RHF) =  -404.865399427     A.U. after    2 cycles

 The electronic state is 1-A'.
 Alpha  occ. eigenvalues --  -26.48822 -20.58934 -11.33487 -11.32077 -11.26070
 Alpha  occ. eigenvalues --  -11.25468 -11.25093 -11.25079  -1.61462  -1.50292
 Alpha  occ. eigenvalues --   -1.16860  -1.03669  -1.02325  -0.87424  -0.85671
 Alpha  occ. eigenvalues --   -0.77339  -0.73528  -0.70656  -0.68641  -0.65934
 Alpha  occ. eigenvalues --   -0.63173  -0.61768  -0.59216  -0.58902  -0.54903
 Alpha  occ. eigenvalues --   -0.52374  -0.50006  -0.36081  -0.33398
 Alpha virt. eigenvalues --    0.03483   0.03815   0.04122   0.05392   0.05895
 Alpha virt. eigenvalues --    0.09579   0.10547   0.11374   0.11801   0.11921
 Alpha virt. eigenvalues --    0.13661   0.13779   0.14155   0.14188   0.14811

 Mulliken charges:
               1
     1  C    0.290638
     2  C    0.449250
     3  C    0.442164
     4  C   -0.111388
     5  C    0.992095
     6  C    1.159998
     7  O   -1.754822
     8  F   -1.032405
     9  H   -0.210029
    10  H   -0.206691
    11  H   -0.226775
    12  H   -0.190761
    13  H    0.398726
 Sum of Mulliken charges =   0.00000

 Dipole moment (field-independent basis, Debye):
    X=             -1.0213    Y=             -0.1596    Z=             -0.0000  Tot=              1.0337

 Test job not archived.
 1\1\GINC-SE045\SP\RHF\Aug-CC-pVDZ\C6H5F1O1\OHZDE\05-Apr-2025\0\\#t hf
 aug-cc-pvdz iop(5/13=1,5/36=2,99/5=2) pseudo=read geom=check guess=(re
 ad,tcheck) scf=(maxcycle=1)\\title\\0,1\C,0,-1.104968,-1.663429,0.\C,0
 ,-1.932817,-0.545821,0.\C,0,0.277669,-1.523878,0.\C,0,-1.37301,0.72843
 8,0.\C,0,0.848168,-0.256096,0.\C,0,0.,0.846928,0.\O,0,2.201785,-0.1188
 58,0.\F,0,0.585079,2.077027,0.\H,0,-1.536548,-2.65461,0.\H,0,-3.007204
 ,-0.659939,0.\H,0,0.930968,-2.385091,0.\H,0,-1.982396,1.621014,0.\H,0,
 2.424943,0.819401,0.\\Version=ES64L-G16RevC.01\State=1-A'\HF=-404.8653

 Normal termination of Gaussian 16 at Sat Apr  5 22:39:12 2025.
