 Gaussian 16, Revision C.01,

 ----------------------------------------------------------------------
 #t hf aug-cc-pvdz symm=none int=(grid=ultrafine) guess=(read,tcheck) s
 table=(opt,rrhf)
 ----------------------------------------------------------------------
 -----
 title
 -----
 Symbolic Z-matrix:
 Charge =  0 Multiplicity = 1

 SCF Done:  E(RHF) =  -356.230091578     A.U. after   16 cycles
 Normal termination of Gaussian 16 at Sat Apr  5 22:38:41 2025.
 Gaussian 16:  ES64L-G16RevC.01  3-Jul-2019

 ----------------------------------------------------------------------
 #t hf aug-cc-pvdz iop(5/13=1,5/36=2,99/5=2) pseudo=read geom=check gue
 ss=(read,tcheck) scf=(maxcycle=1)
 ----------------------------------------------------------------------
 -----
 title
 -----
 Structure from the checkpoint file:  "2-formyl-3-oxoacrylonitrile.chk"
 Charge =  0 Multiplicity = 1

                         Standard orientation:
 ---------------------------------------------------------------------
 Center     Atomic      Atomic             Coordinates (Angstroms)
 Number     Number       Type             X           Y           Z
 ---------------------------------------------------------------------
      1          8           0       -1.068208    2.068569   -0.000013
      2          8           0       -1.835661   -1.349616    0.000009
      3          7           0        2.746608   -0.160913    0.000000
      4          6           0        0.178758   -0.075978    0.000000
      5          6           0       -0.472690    1.094157   -0.000007
      6          6           0       -0.632050   -1.322264    0.000009
      7          6           0        1.595368   -0.094455    0.000000
      8          1           0       -0.011615   -2.233995    0.000017
 ---------------------------------------------------------------------

 SCF Done:  E(RHF) =  -356.567460469     A.U. after    2 cycles

 The electronic state is 1-A.
 Alpha  occ. eigenvalues --  -20.70495 -20.58103 -15.54460 -11.48079 -11.39745
 Alpha  occ. eigenvalues --  -11.33220 -11.32016  -1.64730  -1.51717  -1.26700
 Alpha  occ. eigenvalues --   -1.16597  -0.93574  -0.86803  -0.81438  -0.74447
 Alpha  occ. eigenvalues --   -0.72091  -0.68319  -0.66619  -0.63202  -0.60007
 Alpha  occ. eigenvalues --   -0.55809  -0.54002  -0.46757  -0.41914
 Alpha virt. eigenvalues --    0.03316   0.04695   0.05295   0.05991   0.07213
 Alpha virt. eigenvalues --    0.07215   0.08995   0.10144   0.11088   0.11295
 Alpha virt. eigenvalues --    0.13074   0.13725   0.13735   0.14767   0.15909

 Mulliken charges:
               1
     1  O   -0.784050
     2  O   -1.164115
     3  N    0.920836
     4  C    2.063836
     5  C    0.260541
     6  C    0.927605
     7  C   -2.340156
     8  H    0.115503
 Sum of Mulliken charges =  -0.00000

 Dipole moment (field-independent basis, Debye):
    X=             -1.6238    Y=              0.7409    Z=             -0.0000  Tot=              1.7849

 Test job not archived.
 1\1\GINC-SE047\SP\RHF\Aug-CC-pVDZ\C4H1N1O2\OHZDE\05-Apr-2025\0\\#t hf
 aug-cc-pvdz iop(5/13=1,5/36=2,99/5=2) pseudo=read geom=check guess=(re
 ad,tcheck) scf=(maxcycle=1)\\title\\0,1\O,0,-1.068209,2.068569,-0.0000
 13\O,0,-1.835661,-1.349617,0.000009\N,0,2.746608,-0.160912,0.\C,0,0.17
 8758,-0.075978,0.\C,0,-0.472691,1.094157,-0.000007\C,0,-0.63205,-1.322
 264,0.000009\C,0,1.595368,-0.094455,0.\H,0,-0.011614,-2.233995,0.00001
 7\\Version=ES64L-G16RevC.01\State=1-A\HF=-356.5674605\RMSD=2.260e-02\D
 ipole=-0.6388573,0.2915117,-0.0000007\Quadrupole=-10.3053684,5.7282291

 Normal termination of Gaussian 16 at Sat Apr  5 22:39:09 2025.
