 Gaussian 16, Revision C.01,

 ----------------------------------------------------------------------
 #t hf aug-cc-pvdz symm=none int=(grid=ultrafine) guess=(read,tcheck) s
 table=(opt,rrhf)
 ----------------------------------------------------------------------
 -----
 title
 -----
 Symbolic Z-matrix:
 Charge =  0 Multiplicity = 1

 SCF Done:  E(RHF) =  -342.563418541     A.U. after   14 cycles
 Normal termination of Gaussian 16 at Sat Apr  5 22:38:58 2025.
 Gaussian 16:  ES64L-G16RevC.01  3-Jul-2019

 ----------------------------------------------------------------------
 #t hf aug-cc-pvdz iop(5/13=1,5/36=2,99/5=2) pseudo=read geom=check gue
 ss=(read,tcheck) scf=(maxcycle=1)
 ----------------------------------------------------------------------
 -----
 title
 -----
 Structure from the checkpoint file:  "2-furylmethanol.chk"
 Charge =  0 Multiplicity = 1

                         Standard orientation:
 ---------------------------------------------------------------------
 Center     Atomic      Atomic             Coordinates (Angstroms)
 Number     Number       Type             X           Y           Z
 ---------------------------------------------------------------------
      1          8           0        2.347421   -0.187082   -0.656389
      2          6           0        1.620033    0.221901    0.509756
      3          6           0        0.166572    0.196034    0.229739
      4          6           0       -0.747500    1.169251   -0.020672
      5          6           0       -2.002371    0.514222   -0.220304
      6          6           0       -1.758701   -0.811172   -0.075955
      7          8           0       -0.446384   -1.026217    0.202246
      8          1           0        3.264764   -0.337168   -0.408291
      9          1           0        1.894901    1.240412    0.798884
     10          1           0        1.842877   -0.446236    1.347719
     11          1           0       -0.548601    2.226247   -0.064386
     12          1           0       -2.952138    0.969176   -0.441152
     13          1           0       -2.378300   -1.687460   -0.135014
 ---------------------------------------------------------------------

 SCF Done:  E(RHF) =  -342.911334178     A.U. after    2 cycles

 The electronic state is 1-A.
 Alpha  occ. eigenvalues --  -20.60501 -20.55349 -11.30294 -11.29430 -11.29327
 Alpha  occ. eigenvalues --  -11.23645 -11.23529  -1.54151  -1.44850  -1.09433
 Alpha  occ. eigenvalues --   -1.04347  -0.92608  -0.81583  -0.77250  -0.72793
 Alpha  occ. eigenvalues --   -0.70255  -0.64455  -0.62490  -0.60344  -0.58468
 Alpha  occ. eigenvalues --   -0.56698  -0.54711  -0.51647  -0.45295  -0.39955
 Alpha  occ. eigenvalues --   -0.32524
 Alpha virt. eigenvalues --    0.03392   0.03692   0.04116   0.05145   0.05537
 Alpha virt. eigenvalues --    0.06458   0.10126   0.11071   0.11529   0.12196
 Alpha virt. eigenvalues --    0.13100   0.13897   0.14638   0.15084   0.15199

 Mulliken charges:
               1
     1  O   -1.081879
     2  C    0.181358
     3  C    1.108438
     4  C    0.196860
     5  C    0.267072
     6  C    0.822248
     7  O   -1.561028
     8  H    0.305688
     9  H    0.120720
    10  H    0.096475
    11  H   -0.170558
    12  H   -0.135256
    13  H   -0.150137
 Sum of Mulliken charges =   0.00000

 Dipole moment (field-independent basis, Debye):
    X=              0.5015    Y=              0.7304    Z=              1.4131  Tot=              1.6679

 Test job not archived.
 1\1\GINC-SE175\SP\RHF\Aug-CC-pVDZ\C5H6O2\OHZDE\05-Apr-2025\0\\#t hf au
 g-cc-pvdz iop(5/13=1,5/36=2,99/5=2) pseudo=read geom=check guess=(read
 ,tcheck) scf=(maxcycle=1)\\title\\0,1\O,0,2.347421,-0.187082,-0.656389
 \C,0,1.620033,0.221901,0.509756\C,0,0.166572,0.196034,0.229739\C,0,-0.
 7475,1.169251,-0.020672\C,0,-2.002371,0.514222,-0.220304\C,0,-1.758701
 ,-0.811172,-0.075955\O,0,-0.446384,-1.026217,0.202246\H,0,3.264764,-0.
 337168,-0.408291\H,0,1.894901,1.240412,0.798884\H,0,1.842877,-0.446236
 ,1.347719\H,0,-0.548601,2.226247,-0.064386\H,0,-2.952138,0.969176,-0.4

 Normal termination of Gaussian 16 at Sat Apr  5 22:39:11 2025.
