 Gaussian 16, Revision C.01,

 ----------------------------------------------------------------------
 #t hf aug-cc-pvdz symm=none int=(grid=ultrafine) guess=(read,tcheck) s
 table=(opt,rrhf)
 ----------------------------------------------------------------------
 -----
 title
 -----
 Symbolic Z-matrix:
 Charge =  0 Multiplicity = 1

 SCF Done:  E(RHF) =  -309.105550925     A.U. after   13 cycles

 1\1\GINC-SE176\Stability\RHF\Aug-CC-pVDZ\C6H12O1\OHZDE\05-Apr-2025\0\\
 #t hf aug-cc-pvdz symm=none int=(grid=ultrafine) guess=(read,tcheck) s
 table=(opt,rrhf)\\title\\0,1\C,0,1.713767,0.184314,-0.006094\C,0,2.992
 613,-0.627337,0.018624\C,0,-3.398174,0.257813,0.014447\C,0,0.415711,-0
 .605242,-0.018955\C,0,-2.129427,-0.592675,-0.013892\C,0,-0.849467,0.24
 3536,0.010725\O,0,1.732799,1.394734,-0.012565\H,0,3.048893,-1.205545,0
 .943733\H,0,3.010172,-1.344276,-0.804455\H,0,3.853628,0.032351,-0.0479
 22\H,0,-3.440169,0.930013,-0.844742\H,0,-4.294888,-0.362918,-0.005028\

 Normal termination of Gaussian 16 at Sat Apr  5 22:40:11 2025.
 Gaussian 16:  ES64L-G16RevC.01  3-Jul-2019

 ----------------------------------------------------------------------
 #t hf aug-cc-pvdz iop(5/13=1,5/36=2,99/5=2) pseudo=read geom=check gue
 ss=(read,tcheck) scf=(maxcycle=1)
 ----------------------------------------------------------------------
 -----
 title
 -----
 Structure from the checkpoint file:  "2-hexanone.chk"
 Charge =  0 Multiplicity = 1

                         Standard orientation:
 ---------------------------------------------------------------------
 Center     Atomic      Atomic             Coordinates (Angstroms)
 Number     Number       Type             X           Y           Z
 ---------------------------------------------------------------------
      1          6           0        1.713767    0.184314   -0.006094
      2          6           0        2.992613   -0.627337    0.018624
      3          6           0       -3.398174    0.257813    0.014447
      4          6           0        0.415711   -0.605242   -0.018955
      5          6           0       -2.129427   -0.592675   -0.013892
      6          6           0       -0.849467    0.243536    0.010725
      7          8           0        1.732799    1.394734   -0.012565
      8          1           0        3.048893   -1.205545    0.943733
      9          1           0        3.010172   -1.344276   -0.804455
     10          1           0        3.853628    0.032351   -0.047922
     11          1           0       -3.440169    0.930013   -0.844742
     12          1           0       -4.294888   -0.362918   -0.005028
     13          1           0       -3.439164    0.873178    0.915292
     14          1           0        0.440487   -1.300663    0.827754
     15          1           0        0.432242   -1.246871   -0.907744
     16          1           0       -2.134229   -1.223254   -0.908517
     17          1           0       -2.132488   -1.278680    0.838933
     18          1           0       -0.837342    0.875293    0.901856
     19          1           0       -0.839678    0.931040   -0.837776
 ---------------------------------------------------------------------

 SCF Done:  E(RHF) =  -309.438089351     A.U. after    2 cycles

 The electronic state is 1-A.
 Alpha  occ. eigenvalues --  -20.53135 -11.33602 -11.24395 -11.24306 -11.22945
 Alpha  occ. eigenvalues --  -11.22685 -11.22225  -1.46625  -1.09149  -1.03571
 Alpha  occ. eigenvalues --   -0.98569  -0.88942  -0.80421  -0.74122  -0.66206
 Alpha  occ. eigenvalues --   -0.65744  -0.63377  -0.61604  -0.58770  -0.57540
 Alpha  occ. eigenvalues --   -0.56234  -0.53790  -0.51591  -0.48840  -0.48491
 Alpha  occ. eigenvalues --   -0.48147  -0.47327  -0.40499
 Alpha virt. eigenvalues --    0.03074   0.03575   0.03648   0.04469   0.05322
 Alpha virt. eigenvalues --    0.05787   0.06347   0.07329   0.08234   0.08642
 Alpha virt. eigenvalues --    0.08748   0.10704   0.11156   0.12302   0.13802

 Mulliken charges:
               1
     1  C    1.316255
     2  C   -0.606573
     3  C   -0.380598
     4  C   -0.580542
     5  C   -0.201971
     6  C   -0.133093
     7  O   -1.393612
     8  H    0.256379
     9  H    0.245681
    10  H    0.137012
    11  H    0.156851
    12  H    0.112996
    13  H    0.156318
    14  H    0.226215
    15  H    0.231796
    16  H    0.108027
    17  H    0.106804
    18  H    0.117517
    19  H    0.124536
 Sum of Mulliken charges =  -0.00000

 Dipole moment (field-independent basis, Debye):
    X=             -0.2064    Y=             -3.0241    Z=              0.0216  Tot=              3.0312

 Test job not archived.
 1\1\GINC-SE176\SP\RHF\Aug-CC-pVDZ\C6H12O1\OHZDE\05-Apr-2025\0\\#t hf a
 ug-cc-pvdz iop(5/13=1,5/36=2,99/5=2) pseudo=read geom=check guess=(rea
 d,tcheck) scf=(maxcycle=1)\\title\\0,1\C,0,1.713767,0.184314,-0.006094
 \C,0,2.992613,-0.627337,0.018624\C,0,-3.398174,0.257813,0.014447\C,0,0
 .415711,-0.605242,-0.018955\C,0,-2.129427,-0.592675,-0.013892\C,0,-0.8
 49467,0.243536,0.010725\O,0,1.732799,1.394734,-0.012565\H,0,3.048893,-
 1.205545,0.943733\H,0,3.010172,-1.344276,-0.804455\H,0,3.853628,0.0323
 51,-0.047922\H,0,-3.440169,0.930013,-0.844742\H,0,-4.294888,-0.362918,

 Normal termination of Gaussian 16 at Sat Apr  5 22:40:19 2025.
