 Gaussian 16, Revision C.01,

 ----------------------------------------------------------------------
 #t hf aug-cc-pvdz symm=none int=(grid=ultrafine) guess=(read,tcheck) s
 table=(opt,rrhf)
 ----------------------------------------------------------------------
 -----
 title
 -----
 Symbolic Z-matrix:
 Charge =  0 Multiplicity = 1

 SCF Done:  E(RHF) =  -233.003604579     A.U. after   13 cycles
 Normal termination of Gaussian 16 at Sat Apr  5 22:39:03 2025.
 Gaussian 16:  ES64L-G16RevC.01  3-Jul-2019

 ----------------------------------------------------------------------
 #t hf aug-cc-pvdz iop(5/13=1,5/36=2,99/5=2) pseudo=read geom=check gue
 ss=(read,tcheck) scf=(maxcycle=1)
 ----------------------------------------------------------------------
 -----
 title
 -----
 Structure from the checkpoint file:  "2-hexyne.chk"
 Charge =  0 Multiplicity = 1

                         Standard orientation:
 ---------------------------------------------------------------------
 Center     Atomic      Atomic             Coordinates (Angstroms)
 Number     Number       Type             X           Y           Z
 ---------------------------------------------------------------------
      1          6           0        1.212934   -2.830317    0.000000
      2          6           0       -1.715980    2.860634    0.000000
      3          6           0        0.924480   -0.299270    0.000000
      4          6           0        0.000000    0.830193    0.000000
      5          6           0        0.223042   -1.668570    0.000000
      6          6           0       -0.778310    1.745812    0.000000
      7          1           0        0.694512   -3.789693    0.000000
      8          1           0       -2.748510    2.506561    0.000000
      9          1           0        1.857339   -2.802347    0.881179
     10          1           0        1.857339   -2.802347   -0.881179
     11          1           0       -0.428117   -1.730803   -0.874251
     12          1           0       -0.428117   -1.730803    0.874251
     13          1           0        1.579877   -0.230796   -0.873928
     14          1           0        1.579877   -0.230796    0.873928
     15          1           0       -1.580599    3.490066    0.881436
     16          1           0       -1.580599    3.490066   -0.881436
 ---------------------------------------------------------------------

 SCF Done:  E(RHF) =  -233.260500289     A.U. after    2 cycles

 The electronic state is 1-A'.
 Alpha  occ. eigenvalues --  -11.25146 -11.24993 -11.23230 -11.22495 -11.22355
 Alpha  occ. eigenvalues --  -11.21910  -1.08826  -1.04151  -0.97718  -0.91863
 Alpha  occ. eigenvalues --   -0.81986  -0.67032  -0.64611  -0.62288  -0.59147
 Alpha  occ. eigenvalues --   -0.58901  -0.57733  -0.55748  -0.51858  -0.49737
 Alpha  occ. eigenvalues --   -0.48530  -0.36991  -0.36982
 Alpha virt. eigenvalues --    0.03462   0.03924   0.04160   0.04352   0.05443
 Alpha virt. eigenvalues --    0.06118   0.06172   0.07136   0.08154   0.09092
 Alpha virt. eigenvalues --    0.10118   0.12056   0.13443   0.14492   0.15367

 Mulliken charges:
               1
     1  C   -0.340675
     2  C   -0.844836
     3  C   -0.855938
     4  C    0.615462
     5  C   -0.180323
     6  C   -0.342243
     7  H    0.115409
     8  H    0.261170
     9  H    0.161166
    10  H    0.161166
    11  H    0.108289
    12  H    0.108289
    13  H    0.248241
    14  H    0.248241
    15  H    0.268291
    16  H    0.268291
 Sum of Mulliken charges =  -0.00000

 Dipole moment (field-independent basis, Debye):
    X=             -0.1267    Y=             -0.1129    Z=             -0.0000  Tot=              0.1697

 Test job not archived.
 1\1\GINC-SE225\SP\RHF\Aug-CC-pVDZ\C6H10\OHZDE\05-Apr-2025\0\\#t hf aug
 -cc-pvdz iop(5/13=1,5/36=2,99/5=2) pseudo=read geom=check guess=(read,
 tcheck) scf=(maxcycle=1)\\title\\0,1\C,0,1.212934,-2.830317,0.\C,0,-1.
 71598,2.860634,0.\C,0,0.92448,-0.29927,0.\C,0,0.,0.830193,0.\C,0,0.223
 042,-1.66857,0.\C,0,-0.77831,1.745812,0.\H,0,0.694512,-3.789693,0.\H,0
 ,-2.74851,2.506561,0.\H,0,1.857339,-2.802347,0.881179\H,0,1.857339,-2.
 802347,-0.881179\H,0,-0.428117,-1.730803,-0.874251\H,0,-0.428117,-1.73
 0803,0.874251\H,0,1.579877,-0.230796,-0.873928\H,0,1.579877,-0.230796,

 Normal termination of Gaussian 16 at Sat Apr  5 22:39:10 2025.
