 Gaussian 16, Revision C.01,

 ----------------------------------------------------------------------
 #t hf aug-cc-pvdz symm=none int=(grid=ultrafine) guess=(read,tcheck) s
 table=(opt,rrhf)
 ----------------------------------------------------------------------
 -----
 title
 -----
 Symbolic Z-matrix:
 Charge =  0 Multiplicity = 1

 SCF Done:  E(RHF) =  -987.022556762     A.U. after   16 cycles
 Normal termination of Gaussian 16 at Sat Apr  5 22:38:46 2025.
 Gaussian 16:  ES64L-G16RevC.01  3-Jul-2019

 ----------------------------------------------------------------------
 #t hf aug-cc-pvdz iop(5/13=1,5/36=2,99/5=2) pseudo=read geom=check gue
 ss=(read,tcheck) scf=(maxcycle=1)
 ----------------------------------------------------------------------
 -----
 title
 -----
 Structure from the checkpoint file:  "2-hydroxy-3-sulfanylpropanethial.chk"
 Charge =  0 Multiplicity = 1

                         Standard orientation:
 ---------------------------------------------------------------------
 Center     Atomic      Atomic             Coordinates (Angstroms)
 Number     Number       Type             X           Y           Z
 ---------------------------------------------------------------------
      1          8           0       -0.433596    1.791440   -0.034122
      2          6           0        0.092369    0.494830   -0.264861
      3          6           0       -0.760877   -0.602898    0.406048
      4         16           0       -2.513763   -0.566762   -0.143480
      5         16           0        2.654148   -0.553579   -0.123783
      6          6           0        1.477017    0.465249    0.314637
      7          1           0       -1.327788    1.811360   -0.398006
      8          1           0        0.147240    0.280150   -1.336058
      9          1           0       -0.734102   -0.508767    1.489120
     10          1           0       -0.369979   -1.580613    0.134186
     11          1           0       -2.975713    0.256316    0.814023
     12          1           0        1.631903    1.192396    1.110975
 ---------------------------------------------------------------------

 SCF Done:  E(RHF) =  -987.336507215     A.U. after    2 cycles

 The electronic state is 1-A.
 Alpha  occ. eigenvalues --  -93.97221 -93.94834 -20.57261 -11.33567 -11.32593
 Alpha  occ. eigenvalues --  -11.29667  -8.25281  -8.23047  -6.23126  -6.22986
 Alpha  occ. eigenvalues --   -6.22770  -6.20849  -6.20688  -6.20430  -1.47800
 Alpha  occ. eigenvalues --   -1.13257  -1.08202  -0.98040  -0.87721  -0.79955
 Alpha  occ. eigenvalues --   -0.71381  -0.67269  -0.65546  -0.61248  -0.56192
 Alpha  occ. eigenvalues --   -0.54269  -0.53853  -0.48888  -0.47447  -0.41913
 Alpha  occ. eigenvalues --   -0.39056  -0.35987
 Alpha virt. eigenvalues --    0.03078   0.03393   0.04081   0.04706   0.04795
 Alpha virt. eigenvalues --    0.06906   0.07039   0.08273   0.09294   0.11362
 Alpha virt. eigenvalues --    0.12570   0.13224   0.14119   0.14266   0.15282

 Mulliken charges:
               1
     1  O   -1.367549
     2  C    1.241480
     3  C   -0.928258
     4  S   -0.005612
     5  S    0.106918
     6  C   -0.301212
     7  H    0.354839
     8  H    0.228047
     9  H    0.120162
    10  H    0.277549
    11  H    0.348530
    12  H   -0.074893
 Sum of Mulliken charges =  -0.00000

 Dipole moment (field-independent basis, Debye):
    X=             -1.9320    Y=              0.5148    Z=              0.9191  Tot=              2.2005

 Test job not archived.
 1\1\GINC-SE226\SP\RHF\Aug-CC-pVDZ\C3H6O1S2\OHZDE\05-Apr-2025\0\\#t hf
 aug-cc-pvdz iop(5/13=1,5/36=2,99/5=2) pseudo=read geom=check guess=(re
 ad,tcheck) scf=(maxcycle=1)\\title\\0,1\O,0,-0.433596,1.79144,-0.03412
 2\C,0,0.092369,0.49483,-0.264861\C,0,-0.760877,-0.602898,0.406048\S,0,
 -2.513763,-0.566762,-0.14348\S,0,2.654148,-0.553579,-0.123783\C,0,1.47
 7017,0.465249,0.314637\H,0,-1.327788,1.81136,-0.398006\H,0,0.14724,0.2
 8015,-1.336058\H,0,-0.734102,-0.508767,1.48912\H,0,-0.369979,-1.580613
 ,0.134186\H,0,-2.975713,0.256316,0.814023\H,0,1.631903,1.192396,1.1109

 Normal termination of Gaussian 16 at Sat Apr  5 22:39:11 2025.
