 Gaussian 16, Revision C.01,

 ----------------------------------------------------------------------
 #t hf aug-cc-pvdz symm=none int=(grid=ultrafine) guess=(read,tcheck) s
 table=(opt,rrhf)
 ----------------------------------------------------------------------
 -----
 title
 -----
 Symbolic Z-matrix:
 Charge =  0 Multiplicity = 1

 SCF Done:  E(RHF) =  -245.847516526     A.U. after   14 cycles
 Normal termination of Gaussian 16 at Sat Apr  5 22:38:39 2025.
 Gaussian 16:  ES64L-G16RevC.01  3-Jul-2019

 ----------------------------------------------------------------------
 #t hf aug-cc-pvdz iop(5/13=1,5/36=2,99/5=2) pseudo=read geom=check gue
 ss=(read,tcheck) scf=(maxcycle=1)
 ----------------------------------------------------------------------
 -----
 title
 -----
 Structure from the checkpoint file:  "2-hydroxypropanenitrile.chk"
 Charge =  0 Multiplicity = 1

                         Standard orientation:
 ---------------------------------------------------------------------
 Center     Atomic      Atomic             Coordinates (Angstroms)
 Number     Number       Type             X           Y           Z
 ---------------------------------------------------------------------
      1          6           0        1.176464   -1.121040   -0.130625
      2          6           0        0.378337    0.070180    0.381926
      3          8           0        0.913379    1.242348   -0.219964
      4          1           0        0.423642    2.014994    0.081178
      5          1           0        0.813225   -2.045334    0.315541
      6          1           0        1.091458   -1.191726   -1.213368
      7          1           0        2.223270   -0.983889    0.134284
      8          6           0       -1.060337   -0.071096    0.078798
      9          1           0        0.468455    0.125994    1.472411
     10          7           0       -2.184838   -0.161013   -0.144418
 ---------------------------------------------------------------------

 SCF Done:  E(RHF) =  -246.096590180     A.U. after    2 cycles

 The electronic state is 1-A.
 Alpha  occ. eigenvalues --  -20.58536 -15.52382 -11.35509 -11.28537 -11.25735
 Alpha  occ. eigenvalues --   -1.48749  -1.24363  -1.07533  -0.91620  -0.76531
 Alpha  occ. eigenvalues --   -0.73058  -0.63049  -0.62277  -0.57497  -0.57127
 Alpha  occ. eigenvalues --   -0.56059  -0.51477  -0.50630  -0.48431
 Alpha virt. eigenvalues --    0.02985   0.03979   0.04525   0.05145   0.06477
 Alpha virt. eigenvalues --    0.08937   0.10913   0.11563   0.12532   0.13045
 Alpha virt. eigenvalues --    0.13930   0.14584   0.15731   0.16960   0.17429

 Mulliken charges:
               1
     1  C   -0.249108
     2  C    1.042102
     3  O   -1.197509
     4  H    0.305306
     5  H    0.208278
     6  H    0.217842
     7  H    0.152385
     8  C   -1.538535
     9  H    0.195760
    10  N    0.863479
 Sum of Mulliken charges =  -0.00000

 Dipole moment (field-independent basis, Debye):
    X=              3.3409    Y=              0.2227    Z=              1.7980  Tot=              3.8005

 Test job not archived.
 1\1\GINC-SE198\SP\RHF\Aug-CC-pVDZ\C3H5N1O1\OHZDE\05-Apr-2025\0\\#t hf
 aug-cc-pvdz iop(5/13=1,5/36=2,99/5=2) pseudo=read geom=check guess=(re
 ad,tcheck) scf=(maxcycle=1)\\title\\0,1\C,0,1.176464,-1.12104,-0.13062
 5\C,0,0.378337,0.07018,0.381926\O,0,0.913379,1.242348,-0.219964\H,0,0.
 423642,2.014994,0.081178\H,0,0.813225,-2.045334,0.315541\H,0,1.091458,
 -1.191726,-1.213368\H,0,2.22327,-0.983889,0.134284\C,0,-1.060337,-0.07
 1096,0.078798\H,0,0.468455,0.125994,1.472411\N,0,-2.184838,-0.161013,-
 0.144418\\Version=ES64L-G16RevC.01\State=1-A\HF=-246.0965902\RMSD=1.81

 Normal termination of Gaussian 16 at Sat Apr  5 22:39:09 2025.
