 Gaussian 16, Revision C.01,

 ----------------------------------------------------------------------
 #t hf aug-cc-pvdz symm=none int=(grid=ultrafine) guess=(read,tcheck) s
 table=(opt,rrhf)
 ----------------------------------------------------------------------
 -----
 title
 -----
 Symbolic Z-matrix:
 Charge =  0 Multiplicity = 1

 SCF Done:  E(RHF) =  -549.242436740     A.U. after   14 cycles
 Normal termination of Gaussian 16 at Sat Apr  5 22:38:35 2025.
 Gaussian 16:  ES64L-G16RevC.01  3-Jul-2019

 ----------------------------------------------------------------------
 #t hf aug-cc-pvdz iop(5/13=1,5/36=2,99/5=2) pseudo=read geom=check gue
 ss=(read,tcheck) scf=(maxcycle=1)
 ----------------------------------------------------------------------
 -----
 title
 -----
 Structure from the checkpoint file:  "2-hydroxyethenethione.chk"
 Charge =  0 Multiplicity = 1

                         Standard orientation:
 ---------------------------------------------------------------------
 Center     Atomic      Atomic             Coordinates (Angstroms)
 Number     Number       Type             X           Y           Z
 ---------------------------------------------------------------------
      1         16           0       -1.667961   -0.117975   -0.000019
      2          8           0        2.177698   -0.373093    0.000025
      3          6           0       -0.141968    0.236010   -0.000001
      4          6           0        1.136462    0.528571    0.000012
      5          1           0        1.833657   -1.273070    0.000026
      6          1           0        1.465171    1.557929    0.000014
 ---------------------------------------------------------------------

 SCF Done:  E(RHF) =  -549.448518781     A.U. after    2 cycles

 The electronic state is 1-A.
 Alpha  occ. eigenvalues --  -93.97636 -20.60241 -11.33756 -11.33076  -8.25776
 Alpha  occ. eigenvalues --   -6.23614  -6.23378  -6.23137  -1.50506  -1.12584
 Alpha  occ. eigenvalues --   -1.00545  -0.81261  -0.67634  -0.63164  -0.60165
 Alpha  occ. eigenvalues --   -0.57536  -0.49025  -0.44533  -0.32195
 Alpha virt. eigenvalues --    0.02368   0.04175   0.04336   0.06925   0.09269
 Alpha virt. eigenvalues --    0.09400   0.12755   0.13438   0.13817   0.15237
 Alpha virt. eigenvalues --    0.16240   0.16764   0.17560   0.20164   0.20383

 Mulliken charges:
               1
     1  S    0.122756
     2  O   -1.174700
     3  C   -0.429975
     4  C    1.087844
     5  H    0.343998
     6  H    0.050078
 Sum of Mulliken charges =  -0.00000

 Dipole moment (field-independent basis, Debye):
    X=              0.6837    Y=             -0.2891    Z=              0.0000  Tot=              0.7423

 Test job not archived.
 1\1\GINC-SE231\SP\RHF\Aug-CC-pVDZ\C2H2O1S1\OHZDE\05-Apr-2025\0\\#t hf
 aug-cc-pvdz iop(5/13=1,5/36=2,99/5=2) pseudo=read geom=check guess=(re
 ad,tcheck) scf=(maxcycle=1)\\title\\0,1\S,0,-1.667961,-0.117975,-0.000
 019\O,0,2.177698,-0.373093,0.000025\C,0,-0.141968,0.23601,-0.000001\C,
 0,1.136462,0.528571,0.000012\H,0,1.833657,-1.27307,0.000026\H,0,1.4651
 71,1.557929,0.000014\\Version=ES64L-G16RevC.01\State=1-A\HF=-549.44851
 88\RMSD=1.408e-02\Dipole=0.2689857,-0.113744,0.0000051\Quadrupole=-2.0
 663671,4.0123468,-1.9459797,-0.2129769,0.0000087,-0.00002\PG=C01 [X(C2

 Normal termination of Gaussian 16 at Sat Apr  5 22:39:09 2025.
