 Gaussian 16, Revision C.01,

 ----------------------------------------------------------------------
 #t hf aug-cc-pvdz symm=none int=(grid=ultrafine) guess=(read,tcheck) s
 table=(opt,rrhf)
 ----------------------------------------------------------------------
 -----
 title
 -----
 Symbolic Z-matrix:
 Charge =  0 Multiplicity = 1

 SCF Done:  E(RHF) =  -623.573715065     A.U. after   13 cycles
 Normal termination of Gaussian 16 at Sat Apr  5 22:38:46 2025.
 Gaussian 16:  ES64L-G16RevC.01  3-Jul-2019

 ----------------------------------------------------------------------
 #t hf aug-cc-pvdz iop(5/13=1,5/36=2,99/5=2) pseudo=read geom=check gue
 ss=(read,tcheck) scf=(maxcycle=1)
 ----------------------------------------------------------------------
 -----
 title
 -----
 Structure from the checkpoint file:  "2-imidazolidinethione.chk"
 Charge =  0 Multiplicity = 1

                         Standard orientation:
 ---------------------------------------------------------------------
 Center     Atomic      Atomic             Coordinates (Angstroms)
 Number     Number       Type             X           Y           Z
 ---------------------------------------------------------------------
      1         16           0       -0.000000   -0.000000    2.086086
      2          6           0       -0.000000   -0.000000    0.422971
      3          7           0        0.000000    1.095429   -0.390077
      4          6           0       -0.231274    0.733283   -1.785169
      5          6           0        0.231274   -0.733283   -1.785169
      6          7           0       -0.000000   -1.095429   -0.390077
      7          1           0       -0.275915    1.980156   -0.001574
      8          1           0        0.347846    1.354361   -2.465670
      9          1           0       -1.290782    0.811565   -2.048808
     10          1           0        1.290782   -0.811565   -2.048808
     11          1           0       -0.347846   -1.354361   -2.465670
     12          1           0        0.275915   -1.980156   -0.001574
 ---------------------------------------------------------------------

 SCF Done:  E(RHF) =  -623.869315521     A.U. after    2 cycles

 The electronic state is 1-A.
 Alpha  occ. eigenvalues --  -93.88223 -15.54151 -15.54141 -11.37357 -11.30186
 Alpha  occ. eigenvalues --  -11.30185  -8.16507  -6.14400  -6.14041  -6.13963
 Alpha  occ. eigenvalues --   -1.34340  -1.20188  -1.07891  -0.96805  -0.89799
 Alpha  occ. eigenvalues --   -0.88001  -0.72269  -0.72262  -0.70334  -0.64666
 Alpha  occ. eigenvalues --   -0.59908  -0.56805  -0.56343  -0.52469  -0.44096
 Alpha  occ. eigenvalues --   -0.33637  -0.33024
 Alpha virt. eigenvalues --    0.02689   0.03617   0.03866   0.04306   0.05778
 Alpha virt. eigenvalues --    0.06253   0.09111   0.09191   0.10524   0.12210
 Alpha virt. eigenvalues --    0.12560   0.13021   0.14332   0.14958   0.15841

 Mulliken charges:
               1
     1  S    0.223610
     2  C   -1.388273
     3  N    0.554620
     4  C   -0.189909
     5  C   -0.189909
     6  N    0.554620
     7  H    0.104550
     8  H    0.094655
     9  H    0.018415
    10  H    0.018415
    11  H    0.094655
    12  H    0.104550
 Sum of Mulliken charges =   0.00000

 Dipole moment (field-independent basis, Debye):
    X=              0.0000    Y=             -0.0000    Z=             -6.0825  Tot=              6.0825

 Test job not archived.
 1\1\GINC-SE199\SP\RHF\Aug-CC-pVDZ\C3H6N2S1\OHZDE\05-Apr-2025\0\\#t hf
 aug-cc-pvdz iop(5/13=1,5/36=2,99/5=2) pseudo=read geom=check guess=(re
 ad,tcheck) scf=(maxcycle=1)\\title\\0,1\S,0,0.,0.,2.086086\C,0,0.,0.,0
 .422971\N,0,0.,1.095429,-0.390077\C,0,-0.231274,0.733283,-1.785169\C,0
 ,0.231274,-0.733283,-1.785169\N,0,0.,-1.095429,-0.390077\H,0,-0.275915
 ,1.980156,-0.001574\H,0,0.347846,1.354361,-2.46567\H,0,-1.290782,0.811
 565,-2.048808\H,0,1.290782,-0.811565,-2.048808\H,0,-0.347846,-1.354361
 ,-2.46567\H,0,0.275915,-1.980156,-0.001574\\Version=ES64L-G16RevC.01\S

 Normal termination of Gaussian 16 at Sat Apr  5 22:39:10 2025.
