 Gaussian 16, Revision C.01,

 ----------------------------------------------------------------------
 #t hf aug-cc-pvdz symm=none int=(grid=ultrafine) guess=(read,tcheck) s
 table=(opt,rrhf)
 ----------------------------------------------------------------------
 -----
 title
 -----
 Symbolic Z-matrix:
 Charge =  0 Multiplicity = 1

 SCF Done:  E(RHF) =  -310.256460364     A.U. after   12 cycles

 1\1\GINC-SE222\Stability\RHF\Aug-CC-pVDZ\C6H14O1\OHZDE\05-Apr-2025\0\\
 #t hf aug-cc-pvdz symm=none int=(grid=ultrafine) guess=(read,tcheck) s
 table=(opt,rrhf)\\title\\0,1\C,0,0.,2.369897,0.648656\C,0,1.795861,1.1
 49187,-0.648464\C,0,0.,-2.369897,0.648656\C,0,-1.795861,-1.149187,-0.6
 48464\C,0,0.328511,1.169473,-0.22525\C,0,-0.328511,-1.169473,-0.22525\
 O,0,0.,0.,0.530194\H,0,0.237389,3.300652,0.131809\H,0,-1.057482,2.3765
 95,0.91075\H,0,0.579665,2.331751,1.572195\H,0,2.036399,2.028649,-1.248
 423\H,0,2.027144,0.266481,-1.245332\H,0,2.440231,1.144037,0.231844\H,0

 Normal termination of Gaussian 16 at Sat Apr  5 22:39:31 2025.
 Gaussian 16:  ES64L-G16RevC.01  3-Jul-2019

 ----------------------------------------------------------------------
 #t hf aug-cc-pvdz iop(5/13=1,5/36=2,99/5=2) pseudo=read geom=check gue
 ss=(read,tcheck) scf=(maxcycle=1)
 ----------------------------------------------------------------------
 -----
 title
 -----
 Structure from the checkpoint file:  "2-isopropoxypropane.chk"
 Charge =  0 Multiplicity = 1

                         Standard orientation:
 ---------------------------------------------------------------------
 Center     Atomic      Atomic             Coordinates (Angstroms)
 Number     Number       Type             X           Y           Z
 ---------------------------------------------------------------------
      1          6           0        0.000000    2.369897    0.648656
      2          6           0        1.795861    1.149187   -0.648464
      3          6           0       -0.000000   -2.369897    0.648656
      4          6           0       -1.795861   -1.149187   -0.648464
      5          6           0        0.328511    1.169473   -0.225250
      6          6           0       -0.328511   -1.169473   -0.225250
      7          8           0        0.000000    0.000000    0.530194
      8          1           0        0.237389    3.300652    0.131809
      9          1           0       -1.057482    2.376595    0.910750
     10          1           0        0.579665    2.331751    1.572195
     11          1           0        2.036399    2.028649   -1.248423
     12          1           0        2.027144    0.266481   -1.245332
     13          1           0        2.440231    1.144037    0.231844
     14          1           0       -0.237389   -3.300652    0.131809
     15          1           0        1.057482   -2.376595    0.910750
     16          1           0       -0.579665   -2.331751    1.572195
     17          1           0       -2.036399   -2.028649   -1.248423
     18          1           0       -2.027144   -0.266481   -1.245332
     19          1           0       -2.440231   -1.144037    0.231844
     20          1           0       -0.300157    1.205375   -1.123271
     21          1           0        0.300157   -1.205375   -1.123271
 ---------------------------------------------------------------------

 SCF Done:  E(RHF) =  -310.596320705     A.U. after    2 cycles

 The electronic state is 1-A.
 Alpha  occ. eigenvalues --  -20.52804 -11.28168 -11.28115 -11.22036 -11.22035
 Alpha  occ. eigenvalues --  -11.21786 -11.21778  -1.44414  -1.07286  -1.01974
 Alpha  occ. eigenvalues --   -0.93884  -0.93401  -0.81539  -0.78441  -0.68354
 Alpha  occ. eigenvalues --   -0.63961  -0.62754  -0.58682  -0.58422  -0.56703
 Alpha  occ. eigenvalues --   -0.54345  -0.54344  -0.52056  -0.51735  -0.51175
 Alpha  occ. eigenvalues --   -0.49257  -0.48244  -0.44779  -0.40277
 Alpha virt. eigenvalues --    0.03605   0.03763   0.03953   0.04258   0.05841
 Alpha virt. eigenvalues --    0.06020   0.06022   0.06572   0.07093   0.08590
 Alpha virt. eigenvalues --    0.09270   0.09437   0.09674   0.09763   0.13734

 Mulliken charges:
               1
     1  C   -0.324490
     2  C   -0.217361
     3  C   -0.324490
     4  C   -0.217361
     5  C    0.070837
     6  C    0.070837
     7  O   -1.632598
     8  H    0.163091
     9  H    0.151997
    10  H    0.195765
    11  H    0.161590
    12  H    0.113134
    13  H    0.239612
    14  H    0.163091
    15  H    0.151997
    16  H    0.195765
    17  H    0.161590
    18  H    0.113134
    19  H    0.239612
    20  H    0.262126
    21  H    0.262126
 Sum of Mulliken charges =  -0.00000

 Dipole moment (field-independent basis, Debye):
    X=              0.0000    Y=             -0.0000    Z=             -1.3011  Tot=              1.3011

 Test job not archived.
 1\1\GINC-SE222\SP\RHF\Aug-CC-pVDZ\C6H14O1\OHZDE\05-Apr-2025\0\\#t hf a
 ug-cc-pvdz iop(5/13=1,5/36=2,99/5=2) pseudo=read geom=check guess=(rea
 d,tcheck) scf=(maxcycle=1)\\title\\0,1\C,0,0.,2.369897,0.648656\C,0,1.
 795861,1.149187,-0.648464\C,0,0.,-2.369897,0.648656\C,0,-1.795861,-1.1
 49187,-0.648464\C,0,0.328511,1.169473,-0.22525\C,0,-0.328511,-1.169473
 ,-0.22525\O,0,0.,0.,0.530194\H,0,0.237389,3.300652,0.131809\H,0,-1.057
 482,2.376595,0.91075\H,0,0.579665,2.331751,1.572195\H,0,2.036399,2.028
 649,-1.248423\H,0,2.027144,0.266481,-1.245332\H,0,2.440231,1.144037,0.

 Normal termination of Gaussian 16 at Sat Apr  5 22:39:51 2025.
