 Gaussian 16, Revision C.01,

 ----------------------------------------------------------------------
 #t hf aug-cc-pvdz symm=none int=(grid=ultrafine) guess=(read,tcheck) s
 table=(opt,rrhf)
 ----------------------------------------------------------------------
 -----
 title
 -----
 Symbolic Z-matrix:
 Charge =  0 Multiplicity = 1

 SCF Done:  E(RHF) =  -632.920927181     A.U. after   12 cycles

 1\1\GINC-SE223\Stability\RHF\Aug-CC-pVDZ\C6H14S1\OHZDE\05-Apr-2025\0\\
 #t hf aug-cc-pvdz symm=none int=(grid=ultrafine) guess=(read,tcheck) s
 table=(opt,rrhf)\\title\\0,1\C,0,1.734839,-1.077796,-1.065905\C,0,2.63
 2719,0.591958,0.605922\C,0,-1.73484,-1.077794,1.065906\C,0,-2.632718,0
 .591958,-0.605923\C,0,1.441089,-0.271419,0.195238\C,0,-1.441089,-0.271
 419,-0.195238\S,0,0.,0.866458,0.\H,0,2.591479,-1.736141,-0.899071\H,0,
 0.892872,-1.704377,-1.358644\H,0,1.969701,-0.41564,-1.900083\H,0,3.513
 715,-0.035344,0.754087\H,0,2.435115,1.129802,1.532456\H,0,2.869539,1.3

 Normal termination of Gaussian 16 at Sat Apr  5 22:40:25 2025.
 Gaussian 16:  ES64L-G16RevC.01  3-Jul-2019

 ----------------------------------------------------------------------
 #t hf aug-cc-pvdz iop(5/13=1,5/36=2,99/5=2) pseudo=read geom=check gue
 ss=(read,tcheck) scf=(maxcycle=1)
 ----------------------------------------------------------------------
 -----
 title
 -----
 Structure from the checkpoint file:  "2-isopropylsulfanylpropane.chk"
 Charge =  0 Multiplicity = 1

                         Standard orientation:
 ---------------------------------------------------------------------
 Center     Atomic      Atomic             Coordinates (Angstroms)
 Number     Number       Type             X           Y           Z
 ---------------------------------------------------------------------
      1          6           0        1.734839   -1.077796   -1.065905
      2          6           0        2.632719    0.591958    0.605922
      3          6           0       -1.734840   -1.077794    1.065906
      4          6           0       -2.632718    0.591958   -0.605923
      5          6           0        1.441089   -0.271419    0.195238
      6          6           0       -1.441089   -0.271419   -0.195238
      7         16           0       -0.000000    0.866458    0.000000
      8          1           0        2.591479   -1.736141   -0.899071
      9          1           0        0.892872   -1.704377   -1.358644
     10          1           0        1.969701   -0.415640   -1.900083
     11          1           0        3.513715   -0.035344    0.754087
     12          1           0        2.435115    1.129802    1.532456
     13          1           0        2.869539    1.323680   -0.168464
     14          1           0       -2.591478   -1.736141    0.899071
     15          1           0       -0.892872   -1.704375    1.358647
     16          1           0       -1.969704   -0.415638    1.900082
     17          1           0       -3.513714   -0.035344   -0.754090
     18          1           0       -2.435113    1.129802   -1.532458
     19          1           0       -2.869540    1.323680    0.168462
     20          1           0        1.204385   -0.950113    1.015660
     21          1           0       -1.204384   -0.950114   -1.015659
 ---------------------------------------------------------------------

 SCF Done:  E(RHF) =  -633.246837344     A.U. after    2 cycles

 The electronic state is 1-A.
 Alpha  occ. eigenvalues --  -93.92463 -11.26678 -11.26664 -11.22872 -11.22872
 Alpha  occ. eigenvalues --  -11.22863 -11.22858  -8.20565  -6.18381  -6.18222
 Alpha  occ. eigenvalues --   -6.18023  -1.11603  -1.07070  -0.94319  -0.93934
 Alpha  occ. eigenvalues --   -0.93704  -0.80566  -0.75999  -0.65121  -0.63534
 Alpha  occ. eigenvalues --   -0.61188  -0.58597  -0.57202  -0.57113  -0.54820
 Alpha  occ. eigenvalues --   -0.54809  -0.50611  -0.50317  -0.50305  -0.49312
 Alpha  occ. eigenvalues --   -0.44862  -0.41452  -0.33822
 Alpha virt. eigenvalues --    0.03468   0.03499   0.03920   0.04281   0.05707
 Alpha virt. eigenvalues --    0.05771   0.05922   0.06558   0.07085   0.08177
 Alpha virt. eigenvalues --    0.08738   0.09010   0.09909   0.10392   0.13227

 Mulliken charges:
               1
     1  C   -0.257655
     2  C   -0.090575
     3  C   -0.257655
     4  C   -0.090577
     5  C   -1.091496
     6  C   -1.091496
     7  S    0.543268
     8  H    0.165952
     9  H    0.070747
    10  H    0.214905
    11  H    0.170335
    12  H    0.150563
    13  H    0.230078
    14  H    0.165951
    15  H    0.070751
    16  H    0.214902
    17  H    0.170335
    18  H    0.150566
    19  H    0.230076
    20  H    0.165512
    21  H    0.165512
 Sum of Mulliken charges =  -0.00000

 Dipole moment (field-independent basis, Debye):
    X=             -0.0000    Y=             -1.8692    Z=              0.0000  Tot=              1.8692

 Test job not archived.
 1\1\GINC-SE223\SP\RHF\Aug-CC-pVDZ\C6H14S1\OHZDE\05-Apr-2025\0\\#t hf a
 ug-cc-pvdz iop(5/13=1,5/36=2,99/5=2) pseudo=read geom=check guess=(rea
 d,tcheck) scf=(maxcycle=1)\\title\\0,1\C,0,1.734839,-1.077796,-1.06590
 5\C,0,2.632719,0.591958,0.605922\C,0,-1.73484,-1.077794,1.065906\C,0,-
 2.632718,0.591958,-0.605923\C,0,1.441089,-0.271419,0.195238\C,0,-1.441
 089,-0.271419,-0.195238\S,0,0.,0.866458,0.\H,0,2.591479,-1.736141,-0.8
 99071\H,0,0.892872,-1.704377,-1.358644\H,0,1.969701,-0.41564,-1.900083
 \H,0,3.513715,-0.035344,0.754087\H,0,2.435115,1.129802,1.532456\H,0,2.

 Normal termination of Gaussian 16 at Sat Apr  5 22:41:11 2025.
