 Gaussian 16, Revision C.01,

 ----------------------------------------------------------------------
 #t hf aug-cc-pvdz symm=none int=(grid=ultrafine) guess=(read,tcheck) s
 table=(opt,rrhf)
 ----------------------------------------------------------------------
 -----
 title
 -----
 Symbolic Z-matrix:
 Charge =  0 Multiplicity = 1

 SCF Done:  E(RHF) =  -1056.59685262     A.U. after   16 cycles
 Normal termination of Gaussian 16 at Sat Apr  5 22:39:24 2025.
 Gaussian 16:  ES64L-G16RevC.01  3-Jul-2019

 ----------------------------------------------------------------------
 #t hf aug-cc-pvdz iop(5/13=1,5/36=2,99/5=2) pseudo=read geom=check gue
 ss=(read,tcheck) scf=(maxcycle=1)
 ----------------------------------------------------------------------
 -----
 title
 -----
 Structure from the checkpoint file:  "2-isothiocyanato-1-3-thiazole.chk"
 Charge =  0 Multiplicity = 1

                         Standard orientation:
 ---------------------------------------------------------------------
 Center     Atomic      Atomic             Coordinates (Angstroms)
 Number     Number       Type             X           Y           Z
 ---------------------------------------------------------------------
      1         16           0        1.667226    0.132752    0.000000
      2         16           0       -2.103556   -2.717686    0.000000
      3          7           0       -0.130356    1.993182    0.000000
      4          7           0       -1.046411   -0.162402    0.000000
      5          6           0       -0.000000    0.701076    0.000000
      6          6           0        2.177319    1.781734    0.000000
      7          6           0        1.092676    2.603047    0.000000
      8          6           0       -1.460327   -1.282961    0.000000
      9          1           0        3.220864    2.044973    0.000000
     10          1           0        1.139778    3.681128    0.000000
 ---------------------------------------------------------------------

 SCF Done:  E(RHF) =  -1056.96845723     A.U. after    2 cycles

 The electronic state is 1-A'.
 Alpha  occ. eigenvalues --  -94.01161 -93.97108 -15.57681 -15.53034 -11.41391
 Alpha  occ. eigenvalues --  -11.38887 -11.29415 -11.29151  -8.29344  -8.25370
 Alpha  occ. eigenvalues --   -6.27091  -6.27006  -6.26779  -6.23258  -6.22828
 Alpha  occ. eigenvalues --   -6.22806  -1.35409  -1.29565  -1.11584  -1.11258
 Alpha  occ. eigenvalues --   -1.05151  -0.93926  -0.84618  -0.75515  -0.68368
 Alpha  occ. eigenvalues --   -0.67044  -0.66532  -0.63211  -0.58508  -0.58190
 Alpha  occ. eigenvalues --   -0.53781  -0.49470  -0.43942  -0.41766  -0.40800
 Alpha  occ. eigenvalues --   -0.34763
 Alpha virt. eigenvalues --    0.03014   0.03550   0.04063   0.05765   0.06255
 Alpha virt. eigenvalues --    0.07221   0.08829   0.09851   0.09978   0.10790
 Alpha virt. eigenvalues --    0.11225   0.11448   0.11590   0.12529   0.13270

 Mulliken charges:
               1
     1  S    0.621310
     2  S    0.347890
     3  N    0.872787
     4  N    0.674561
     5  C   -1.652477
     6  C    0.066458
     7  C    0.180607
     8  C   -0.859092
     9  H   -0.156448
    10  H   -0.095596
 Sum of Mulliken charges =  -0.00000

 Dipole moment (field-independent basis, Debye):
    X=              2.9853    Y=             -0.0372    Z=              0.0000  Tot=              2.9855

 Test job not archived.
 1\1\GINC-SE223\SP\RHF\Aug-CC-pVDZ\C4H2N2S2\OHZDE\05-Apr-2025\0\\#t hf
 aug-cc-pvdz iop(5/13=1,5/36=2,99/5=2) pseudo=read geom=check guess=(re
 ad,tcheck) scf=(maxcycle=1)\\title\\0,1\S,0,-1.176502,1.188742,0.\S,0,
 3.433639,0.144524,0.\N,0,-1.439432,-1.384848,0.\N,0,0.798861,-0.695105
 ,0.\C,0,-0.535866,-0.452056,0.\C,0,-2.765808,0.515362,0.\C,0,-2.694196
 ,-0.843269,0.\C,0,1.922253,-0.288941,0.\H,0,-3.639896,1.143256,0.\H,0,
 -3.548597,-1.502417,0.\\Version=ES64L-G16RevC.01\State=1-A'\HF=-1056.9
 684572\RMSD=1.873e-02\Dipole=-0.7461424,0.9071609,0.\Quadrupole=6.3516

 Normal termination of Gaussian 16 at Sat Apr  5 22:39:51 2025.
