 Gaussian 16, Revision C.01,

 ----------------------------------------------------------------------
 #t hf aug-cc-pvdz symm=none int=(grid=ultrafine) guess=(read,tcheck) s
 table=(opt,rrhf)
 ----------------------------------------------------------------------
 -----
 title
 -----
 Symbolic Z-matrix:
 Charge =  0 Multiplicity = 1

 SCF Done:  E(RHF) =  -697.272877737     A.U. after   15 cycles
 Normal termination of Gaussian 16 at Sat Apr  5 22:39:22 2025.
 Gaussian 16:  ES64L-G16RevC.01  3-Jul-2019

 ----------------------------------------------------------------------
 #t hf aug-cc-pvdz iop(5/13=1,5/36=2,99/5=2) pseudo=read geom=check gue
 ss=(read,tcheck) scf=(maxcycle=1)
 ----------------------------------------------------------------------
 -----
 title
 -----
 Structure from the checkpoint file:  "2-isothiocyanatoacetamide.chk"
 Charge =  0 Multiplicity = 1

                         Standard orientation:
 ---------------------------------------------------------------------
 Center     Atomic      Atomic             Coordinates (Angstroms)
 Number     Number       Type             X           Y           Z
 ---------------------------------------------------------------------
      1         16           0        2.745348   -0.356309    0.000063
      2          8           0       -0.994220   -1.299184    0.000009
      3          7           0       -3.011806   -0.267700   -0.000097
      4          7           0        0.394126    1.102920   -0.000391
      5          6           0       -1.019553    1.122041    0.000287
      6          6           0       -1.651289   -0.284113    0.000026
      7          6           0        1.362947    0.407332   -0.000131
      8          1           0       -1.377130    1.669767   -0.876347
      9          1           0       -1.376320    1.668960    0.877770
     10          1           0       -3.544575    0.582927   -0.000097
     11          1           0       -3.502658   -1.145330   -0.000094
 ---------------------------------------------------------------------

 SCF Done:  E(RHF) =  -697.627474497     A.U. after    2 cycles

 The electronic state is 1-A.
 Alpha  occ. eigenvalues --  -93.93720 -20.53472 -15.55147 -15.54358 -11.38691
 Alpha  occ. eigenvalues --  -11.38194 -11.33258  -8.22016  -6.19916  -6.19486
 Alpha  occ. eigenvalues --   -6.19454  -1.48706  -1.30033  -1.24917  -1.09100
 Alpha  occ. eigenvalues --   -1.03761  -0.88527  -0.80817  -0.73551  -0.72745
 Alpha  occ. eigenvalues --   -0.69780  -0.64441  -0.60361  -0.60318  -0.56358
 Alpha  occ. eigenvalues --   -0.54443  -0.46114  -0.45549  -0.37724  -0.36782
 Alpha virt. eigenvalues --    0.01589   0.04026   0.04445   0.05109   0.07878
 Alpha virt. eigenvalues --    0.08582   0.09230   0.09941   0.10851   0.11774
 Alpha virt. eigenvalues --    0.11878   0.12604   0.13557   0.14430   0.15223

 Mulliken charges:
               1
     1  S    0.296507
     2  O   -1.225688
     3  N    0.754597
     4  N    0.850394
     5  C   -0.702343
     6  C    0.447968
     7  C   -0.891705
     8  H    0.191021
     9  H    0.191332
    10  H    0.010387
    11  H    0.077528
 Sum of Mulliken charges =  -0.00000

 Dipole moment (field-independent basis, Debye):
    X=             -5.4995    Y=              2.5938    Z=              0.0013  Tot=              6.0805

 Test job not archived.
 1\1\GINC-SE220\SP\RHF\Aug-CC-pVDZ\C3H4N2O1S1\OHZDE\05-Apr-2025\0\\#t h
 f aug-cc-pvdz iop(5/13=1,5/36=2,99/5=2) pseudo=read geom=check guess=(
 read,tcheck) scf=(maxcycle=1)\\title\\0,1\S,0,2.745348,-0.356309,0.000
 063\O,0,-0.99422,-1.299184,0.000009\N,0,-3.011806,-0.2677,-0.000097\N,
 0,0.394126,1.10292,-0.000391\C,0,-1.019553,1.122041,0.000287\C,0,-1.65
 1289,-0.284113,0.000026\C,0,1.362947,0.407332,-0.000131\H,0,-1.37713,1
 .669767,-0.876347\H,0,-1.37632,1.66896,0.87777\H,0,-3.544575,0.582927,
 -0.000097\H,0,-3.502658,-1.14533,-0.000094\\Version=ES64L-G16RevC.01\S

 Normal termination of Gaussian 16 at Sat Apr  5 22:39:49 2025.
