 Gaussian 16, Revision C.01,

 ----------------------------------------------------------------------
 #t hf aug-cc-pvdz symm=none int=(grid=ultrafine) guess=(read,tcheck) s
 table=(opt,rrhf)
 ----------------------------------------------------------------------
 -----
 title
 -----
 Symbolic Z-matrix:
 Charge =  0 Multiplicity = 1

 SCF Done:  E(RHF) =  -418.873983733     A.U. after   15 cycles

 1\1\GINC-SE108\Stability\RHF\Aug-CC-pVDZ\C8H12N2\OHZDE\05-Apr-2025\0\\
 #t hf aug-cc-pvdz symm=none int=(grid=ultrafine) guess=(read,tcheck) s
 table=(opt,rrhf)\\title\\0,1\C,0,2.780946,0.03409,-0.496412\C,0,2.0819
 79,1.196215,-0.197941\C,0,1.046417,-1.191362,0.282233\C,0,0.324882,-0.
 029326,0.5818\C,0,-2.293729,1.300701,-0.581142\C,0,-2.259009,-1.219791
 ,-0.767466\C,0,-1.051716,-0.083716,1.186804\C,0,-2.235332,-0.02209,0.1
 85648\N,0,2.262542,-1.168677,-0.252894\N,0,0.864183,1.170413,0.338964\
 H,0,3.772639,0.071644,-0.930765\H,0,2.515504,2.170975,-0.390188\H,0,0.

 Normal termination of Gaussian 16 at Sat Apr  5 22:40:45 2025.
 Gaussian 16:  ES64L-G16RevC.01  3-Jul-2019

 ----------------------------------------------------------------------
 #t hf aug-cc-pvdz iop(5/13=1,5/36=2,99/5=2) pseudo=read geom=check gue
 ss=(read,tcheck) scf=(maxcycle=1)
 ----------------------------------------------------------------------
 -----
 title
 -----
 Structure from the checkpoint file:  "2-isobutylpyrazine.chk"
 Charge =  0 Multiplicity = 1

                         Standard orientation:
 ---------------------------------------------------------------------
 Center     Atomic      Atomic             Coordinates (Angstroms)
 Number     Number       Type             X           Y           Z
 ---------------------------------------------------------------------
      1          6           0        2.780946    0.034090   -0.496412
      2          6           0        2.081979    1.196215   -0.197941
      3          6           0        1.046417   -1.191362    0.282233
      4          6           0        0.324882   -0.029326    0.581800
      5          6           0       -2.293729    1.300701   -0.581142
      6          6           0       -2.259009   -1.219791   -0.767466
      7          6           0       -1.051716   -0.083716    1.186804
      8          6           0       -2.235332   -0.022090    0.185648
      9          7           0        2.262542   -1.168677   -0.252894
     10          7           0        0.864183    1.170413    0.338964
     11          1           0        3.772639    0.071644   -0.930765
     12          1           0        2.515504    2.170975   -0.390188
     13          1           0        0.623598   -2.167465    0.490849
     14          1           0       -1.429831    1.424092   -1.234865
     15          1           0       -2.314015    2.154514    0.096934
     16          1           0       -3.190666    1.339309   -1.201754
     17          1           0       -3.158002   -1.199555   -1.385241
     18          1           0       -1.400440   -1.213979   -1.441787
     19          1           0       -2.251536   -2.166685   -0.224003
     20          1           0       -1.144990   -1.004046    1.767797
     21          1           0       -1.141864    0.752268    1.881855
     22          1           0       -3.134101   -0.081540    0.807527
 ---------------------------------------------------------------------

 SCF Done:  E(RHF) =  -419.312048707     A.U. after    2 cycles

 The electronic state is 1-A.
 Alpha  occ. eigenvalues --  -15.52721 -15.52256 -11.28774 -11.28456 -11.28109
 Alpha  occ. eigenvalues --  -11.28101 -11.24117 -11.23936 -11.22411 -11.21770
 Alpha  occ. eigenvalues --   -1.30498  -1.21983  -1.10540  -1.05493  -0.96680
 Alpha  occ. eigenvalues --   -0.93456  -0.91394  -0.88094  -0.78163  -0.74901
 Alpha  occ. eigenvalues --   -0.72682  -0.66944  -0.64656  -0.61350  -0.60407
 Alpha  occ. eigenvalues --   -0.59589  -0.58760  -0.55721  -0.54696  -0.53666
 Alpha  occ. eigenvalues --   -0.52508  -0.48960  -0.47984  -0.47811  -0.46170
 Alpha  occ. eigenvalues --   -0.43361  -0.35758
 Alpha virt. eigenvalues --    0.03398   0.03539   0.03885   0.03936   0.04863
 Alpha virt. eigenvalues --    0.05256   0.05441   0.05901   0.06137   0.07587
 Alpha virt. eigenvalues --    0.07882   0.09088   0.09605   0.10085   0.10701

 Mulliken charges:
               1
     1  C   -0.490730
     2  C   -0.086254
     3  C   -1.158202
     4  C   -0.630659
     5  C   -0.111255
     6  C   -0.101508
     7  C   -0.148326
     8  C   -1.105886
     9  N    1.270813
    10  N    1.501648
    11  H   -0.124073
    12  H   -0.166087
    13  H   -0.194158
    14  H    0.264092
    15  H    0.165360
    16  H    0.133940
    17  H    0.115258
    18  H    0.277756
    19  H    0.142322
    20  H    0.101930
    21  H    0.172334
    22  H    0.171685
 Sum of Mulliken charges =   0.00000

 Dipole moment (field-independent basis, Debye):
    X=             -0.8095    Y=              0.1728    Z=              0.1788  Tot=              0.8468

 Test job not archived.
 1\1\GINC-SE108\SP\RHF\Aug-CC-pVDZ\C8H12N2\OHZDE\05-Apr-2025\0\\#t hf a
 ug-cc-pvdz iop(5/13=1,5/36=2,99/5=2) pseudo=read geom=check guess=(rea
 d,tcheck) scf=(maxcycle=1)\\title\\0,1\C,0,2.780946,0.03409,-0.496412\
 C,0,2.081979,1.196215,-0.197941\C,0,1.046417,-1.191362,0.282233\C,0,0.
 324882,-0.029326,0.5818\C,0,-2.293729,1.300701,-0.581142\C,0,-2.259009
 ,-1.219791,-0.767466\C,0,-1.051716,-0.083716,1.186804\C,0,-2.235332,-0
 .02209,0.185648\N,0,2.262542,-1.168677,-0.252894\N,0,0.864183,1.170413
 ,0.338964\H,0,3.772639,0.071644,-0.930765\H,0,2.515504,2.170975,-0.390

 Normal termination of Gaussian 16 at Sat Apr  5 22:41:14 2025.
