 Gaussian 16, Revision C.01,

 ----------------------------------------------------------------------
 #t hf aug-cc-pvdz symm=none int=(grid=ultrafine) guess=(read,tcheck) s
 table=(opt,rrhf)
 ----------------------------------------------------------------------
 -----
 title
 -----
 Symbolic Z-matrix:
 Charge =  0 Multiplicity = 1

 SCF Done:  E(RHF) =  -1039.73958833     A.U. after   15 cycles
 Normal termination of Gaussian 16 at Sat Apr  5 22:38:46 2025.
 Gaussian 16:  ES64L-G16RevC.01  3-Jul-2019

 ----------------------------------------------------------------------
 #t hf aug-cc-pvdz iop(5/13=1,5/36=2,99/5=2) pseudo=read geom=check gue
 ss=(read,tcheck) scf=(maxcycle=1)
 ----------------------------------------------------------------------
 -----
 title
 -----
 Structure from the checkpoint file:  "2-isocyanatoethanedithioicacid.chk"
 Charge =  0 Multiplicity = 1

                         Standard orientation:
 ---------------------------------------------------------------------
 Center     Atomic      Atomic             Coordinates (Angstroms)
 Number     Number       Type             X           Y           Z
 ---------------------------------------------------------------------
      1         16           0        2.378504   -0.996830   -0.060055
      2         16           0        1.032305    1.615124   -0.000766
      3          8           0       -3.857822   -0.222967   -0.090876
      4          7           0       -1.504533   -0.005601    0.047838
      5          6           0        0.996939   -0.123544    0.017628
      6          6           0       -0.336437   -0.850557    0.141815
      7          6           0       -2.693129   -0.177700   -0.020459
      8          1           0       -0.301843    1.818938    0.055450
      9          1           0       -0.325396   -1.359868    1.107578
     10          1           0       -0.355645   -1.618027   -0.631648
 ---------------------------------------------------------------------

 SCF Done:  E(RHF) =  -1040.09465500     A.U. after    2 cycles

 The electronic state is 1-A.
 Alpha  occ. eigenvalues --  -93.99944 -93.93949 -20.62140 -15.55580 -11.43779
 Alpha  occ. eigenvalues --  -11.37970 -11.34513  -8.28113  -8.22203  -6.25930
 Alpha  occ. eigenvalues --   -6.25774  -6.25580  -6.20039  -6.19797  -6.19615
 Alpha  occ. eigenvalues --   -1.56699  -1.31441  -1.17272  -1.04528  -1.01809
 Alpha  occ. eigenvalues --   -0.81265  -0.76243  -0.74542  -0.71591  -0.70269
 Alpha  occ. eigenvalues --   -0.64552  -0.63759  -0.55097  -0.51791  -0.50196
 Alpha  occ. eigenvalues --   -0.49480  -0.46878  -0.36737  -0.36420
 Alpha virt. eigenvalues --    0.02561   0.02847   0.04786   0.05516   0.06721
 Alpha virt. eigenvalues --    0.07891   0.08481   0.09157   0.09664   0.10568
 Alpha virt. eigenvalues --    0.11436   0.11951   0.13044   0.13912   0.15192

 Mulliken charges:
               1
     1  S    0.046525
     2  S    0.172932
     3  O   -0.873253
     4  N    0.837173
     5  C   -0.538297
     6  C   -0.797865
     7  C    0.213822
     8  H    0.431237
     9  H    0.268597
    10  H    0.239128
 Sum of Mulliken charges =  -0.00000

 Dipole moment (field-independent basis, Debye):
    X=             -1.8632    Y=              0.0080    Z=              0.3635  Tot=              1.8983

 Test job not archived.
 1\1\GINC-SE107\SP\RHF\Aug-CC-pVDZ\C3H3N1O1S2\OHZDE\05-Apr-2025\0\\#t h
 f aug-cc-pvdz iop(5/13=1,5/36=2,99/5=2) pseudo=read geom=check guess=(
 read,tcheck) scf=(maxcycle=1)\\title\\0,1\S,0,2.378504,-0.99683,-0.060
 055\S,0,1.032305,1.615124,-0.000766\O,0,-3.857822,-0.222967,-0.090876\
 N,0,-1.504533,-0.005601,0.047838\C,0,0.996939,-0.123544,0.017628\C,0,-
 0.336437,-0.850557,0.141815\C,0,-2.693129,-0.1777,-0.020459\H,0,-0.301
 843,1.818938,0.05545\H,0,-0.325396,-1.359868,1.107578\H,0,-0.355645,-1
 .618027,-0.631648\\Version=ES64L-G16RevC.01\State=1-A\HF=-1040.094655\

 Normal termination of Gaussian 16 at Sat Apr  5 22:39:11 2025.
