 Gaussian 16, Revision C.01,

 ----------------------------------------------------------------------
 #t hf aug-cc-pvdz symm=none int=(grid=ultrafine) guess=(read,tcheck) s
 table=(opt,rrhf)
 ----------------------------------------------------------------------
 -----
 title
 -----
 Symbolic Z-matrix:
 Charge =  0 Multiplicity = 1

 SCF Done:  E(RHF) =  -298.553660464     A.U. after   15 cycles
 Normal termination of Gaussian 16 at Sat Apr  5 22:38:39 2025.
 Gaussian 16:  ES64L-G16RevC.01  3-Jul-2019

 ----------------------------------------------------------------------
 #t hf aug-cc-pvdz iop(5/13=1,5/36=2,99/5=2) pseudo=read geom=check gue
 ss=(read,tcheck) scf=(maxcycle=1)
 ----------------------------------------------------------------------
 -----
 title
 -----
 Structure from the checkpoint file:  "2-isocyanatoacetonitrile.chk"
 Charge =  0 Multiplicity = 1

                         Standard orientation:
 ---------------------------------------------------------------------
 Center     Atomic      Atomic             Coordinates (Angstroms)
 Number     Number       Type             X           Y           Z
 ---------------------------------------------------------------------
      1          8           0        2.314952   -0.784408    0.074091
      2          7           0        0.623911    0.847435   -0.202435
      3          7           0       -2.202485   -1.136869   -0.048234
      4          6           0       -0.767680    1.044455    0.111907
      5          6           0        1.438243   -0.023374   -0.027656
      6          6           0       -1.574416   -0.177183    0.019351
      7          1           0       -1.175339    1.782439   -0.578436
      8          1           0       -0.871142    1.455478    1.118785
 ---------------------------------------------------------------------

 SCF Done:  E(RHF) =  -298.843535956     A.U. after    2 cycles

 The electronic state is 1-A.
 Alpha  occ. eigenvalues --  -20.62088 -15.55679 -15.54014 -11.43777 -11.37152
 Alpha  occ. eigenvalues --  -11.30478  -1.56706  -1.31689  -1.25867  -1.08701
 Alpha  occ. eigenvalues --   -0.84163  -0.75483  -0.74062  -0.72375  -0.66578
 Alpha  occ. eigenvalues --   -0.64979  -0.62612  -0.53886  -0.52924  -0.50231
 Alpha  occ. eigenvalues --   -0.47588
 Alpha virt. eigenvalues --    0.02369   0.04315   0.06487   0.06706   0.09237
 Alpha virt. eigenvalues --    0.09567   0.10193   0.10493   0.11292   0.11838
 Alpha virt. eigenvalues --    0.13173   0.14903   0.15346   0.15576   0.16064

 Mulliken charges:
               1
     1  O   -0.772302
     2  N    0.588565
     3  N    0.827350
     4  C   -0.005170
     5  C    0.237724
     6  C   -1.292193
     7  H    0.181945
     8  H    0.234081
 Sum of Mulliken charges =  -0.00000

 Dipole moment (field-independent basis, Debye):
    X=              0.2732    Y=              3.7928    Z=              0.7780  Tot=              3.8814

 Test job not archived.
 1\1\GINC-SE106\SP\RHF\Aug-CC-pVDZ\C3H2N2O1\OHZDE\05-Apr-2025\0\\#t hf
 aug-cc-pvdz iop(5/13=1,5/36=2,99/5=2) pseudo=read geom=check guess=(re
 ad,tcheck) scf=(maxcycle=1)\\title\\0,1\O,0,2.314952,-0.784408,0.07409
 1\N,0,0.623911,0.847435,-0.202435\N,0,-2.202485,-1.136869,-0.048234\C,
 0,-0.76768,1.044455,0.111907\C,0,1.438243,-0.023374,-0.027656\C,0,-1.5
 74416,-0.177183,0.019351\H,0,-1.175339,1.782439,-0.578436\H,0,-0.87114
 2,1.455478,1.118785\\Version=ES64L-G16RevC.01\State=1-A\HF=-298.843536
 \RMSD=1.917e-02\Dipole=0.1075028,1.4922099,0.3060821\Quadrupole=-4.355

 Normal termination of Gaussian 16 at Sat Apr  5 22:39:09 2025.
