 Gaussian 16, Revision C.01,

 ----------------------------------------------------------------------
 #t hf aug-cc-pvdz symm=none int=(grid=ultrafine) guess=(read,tcheck) s
 table=(opt,rrhf)
 ----------------------------------------------------------------------
 -----
 title
 -----
 Symbolic Z-matrix:
 Charge =  0 Multiplicity = 1

 SCF Done:  E(RHF) =  -196.351222729     A.U. after   11 cycles
 Normal termination of Gaussian 16 at Sat Apr  5 22:40:44 2025.
 Gaussian 16:  ES64L-G16RevC.01  3-Jul-2019

 ----------------------------------------------------------------------
 #t hf aug-cc-pvdz iop(5/13=1,5/36=2,99/5=2) pseudo=read geom=check gue
 ss=(read,tcheck) scf=(maxcycle=1)
 ----------------------------------------------------------------------
 -----
 title
 -----
 Structure from the checkpoint file:  "2-methylbutane.chk"
 Charge =  0 Multiplicity = 1

                         Standard orientation:
 ---------------------------------------------------------------------
 Center     Atomic      Atomic             Coordinates (Angstroms)
 Number     Number       Type             X           Y           Z
 ---------------------------------------------------------------------
      1          6           0        0.350820   -1.850666    0.000000
      2          6           0        0.350820    1.050444    1.263414
      3          6           0        0.350820    1.050444   -1.263414
      4          6           0       -0.805408   -0.847966    0.000000
      5          6           0       -0.414139    0.642850   -0.000000
      6          1           0       -0.031506   -2.872394    0.000000
      7          1           0        0.984723   -1.741982    0.880927
      8          1           0        0.984723   -1.741982   -0.880927
      9          1           0        1.332012    0.574521    1.311117
     10          1           0       -0.197555    0.775240    2.166524
     11          1           0        0.512150    2.129575    1.288536
     12          1           0        1.332012    0.574521   -1.311117
     13          1           0        0.512150    2.129575   -1.288536
     14          1           0       -0.197555    0.775240   -2.166524
     15          1           0       -1.436172   -1.037018   -0.873465
     16          1           0       -1.436172   -1.037018    0.873465
     17          1           0       -1.356290    1.201080   -0.000000
 ---------------------------------------------------------------------

 SCF Done:  E(RHF) =  -196.576657637     A.U. after    2 cycles

 The electronic state is 1-A'.
 Alpha  occ. eigenvalues --  -11.22791 -11.22159 -11.21757 -11.21651 -11.21634
 Alpha  occ. eigenvalues --   -1.09000  -0.98951  -0.92764  -0.86494  -0.75042
 Alpha  occ. eigenvalues --   -0.64221  -0.62047  -0.59911  -0.55784  -0.54311
 Alpha  occ. eigenvalues --   -0.52996  -0.52684  -0.49584  -0.46233  -0.45650
 Alpha  occ. eigenvalues --   -0.45343
 Alpha virt. eigenvalues --    0.03713   0.03833   0.04019   0.04108   0.06273
 Alpha virt. eigenvalues --    0.06490   0.06634   0.06981   0.06986   0.09742
 Alpha virt. eigenvalues --    0.10063   0.10540   0.13289   0.14421   0.15441

 Mulliken charges:
               1
     1  C   -0.255379
     2  C   -0.040967
     3  C   -0.040967
     4  C   -0.139378
     5  C   -1.287231
     6  H    0.114749
     7  H    0.152763
     8  H    0.152763
     9  H    0.198789
    10  H    0.148091
    11  H    0.122737
    12  H    0.198789
    13  H    0.122737
    14  H    0.148091
    15  H    0.102578
    16  H    0.102578
    17  H    0.199257
 Sum of Mulliken charges =  -0.00000

 Dipole moment (field-independent basis, Debye):
    X=             -0.1492    Y=              0.0317    Z=              0.0000  Tot=              0.1525

 Test job not archived.
 1\1\GINC-SE106\SP\RHF\Aug-CC-pVDZ\C5H12\OHZDE\05-Apr-2025\0\\#t hf aug
 -cc-pvdz iop(5/13=1,5/36=2,99/5=2) pseudo=read geom=check guess=(read,
 tcheck) scf=(maxcycle=1)\\title\\0,1\C,0,0.35082,-1.850666,0.\C,0,0.35
 082,1.050444,1.263414\C,0,0.35082,1.050444,-1.263414\C,0,-0.805408,-0.
 847966,0.\C,0,-0.414139,0.64285,0.\H,0,-0.031506,-2.872394,0.\H,0,0.98
 4723,-1.741982,0.880927\H,0,0.984723,-1.741982,-0.880927\H,0,1.332012,
 0.574521,1.311117\H,0,-0.197555,0.77524,2.166524\H,0,0.51215,2.129575,
 1.288536\H,0,1.332012,0.574521,-1.311117\H,0,0.51215,2.129575,-1.28853

 Normal termination of Gaussian 16 at Sat Apr  5 22:40:55 2025.
