 Gaussian 16, Revision C.01,

 ----------------------------------------------------------------------
 #t hf aug-cc-pvdz symm=none int=(grid=ultrafine) guess=(read,tcheck) s
 table=(opt,rrhf)
 ----------------------------------------------------------------------
 -----
 title
 -----
 Symbolic Z-matrix:
 Charge =  0 Multiplicity = 1

 SCF Done:  E(RHF) =  -195.166614866     A.U. after   12 cycles
 Normal termination of Gaussian 16 at Sat Apr  5 22:40:46 2025.
 Gaussian 16:  ES64L-G16RevC.01  3-Jul-2019

 ----------------------------------------------------------------------
 #t hf aug-cc-pvdz iop(5/13=1,5/36=2,99/5=2) pseudo=read geom=check gue
 ss=(read,tcheck) scf=(maxcycle=1)
 ----------------------------------------------------------------------
 -----
 title
 -----
 Structure from the checkpoint file:  "2-methyl-1-butene.chk"
 Charge =  0 Multiplicity = 1

                         Standard orientation:
 ---------------------------------------------------------------------
 Center     Atomic      Atomic             Coordinates (Angstroms)
 Number     Number       Type             X           Y           Z
 ---------------------------------------------------------------------
      1          6           0        0.997463    1.325679    0.022163
      2          1           0        0.373584    1.884891   -0.678759
      3          1           0        2.034359    1.430874   -0.293345
      4          1           0        0.884792    1.810232    0.996291
      5          6           0       -1.914097    0.084632   -0.392799
      6          1           0       -1.882388    1.165754   -0.529981
      7          1           0       -2.902148   -0.167486   -0.005719
      8          1           0       -1.807245   -0.381100   -1.373424
      9          6           0       -0.819378   -0.403315    0.566621
     10          1           0       -0.933041   -1.477083    0.723891
     11          1           0       -0.969525    0.073773    1.541238
     12          6           0        0.586621   -0.119984    0.095100
     13          6           0        1.423162   -1.102883   -0.231347
     14          1           0        1.127074   -2.142429   -0.169432
     15          1           0        2.431914   -0.902201   -0.569192
 ---------------------------------------------------------------------

 SCF Done:  E(RHF) =  -195.384991276     A.U. after    2 cycles

 The electronic state is 1-A.
 Alpha  occ. eigenvalues --  -11.24087 -11.23139 -11.22774 -11.22492 -11.21664
 Alpha  occ. eigenvalues --   -1.10006  -1.00068  -0.93515  -0.85754  -0.72258
 Alpha  occ. eigenvalues --   -0.63626  -0.63528  -0.59232  -0.57252  -0.54960
 Alpha  occ. eigenvalues --   -0.52342  -0.52014  -0.48862  -0.47339  -0.35430
 Alpha virt. eigenvalues --    0.03752   0.03937   0.04094   0.04360   0.05931
 Alpha virt. eigenvalues --    0.06160   0.07073   0.07470   0.09455   0.09868
 Alpha virt. eigenvalues --    0.11328   0.13020   0.14190   0.14661   0.14849

 Mulliken charges:
               1
     1  C   -0.684885
     2  H    0.208968
     3  H    0.082911
     4  H    0.239015
     5  C   -0.341932
     6  H    0.138788
     7  H    0.110979
     8  H    0.146654
     9  C   -0.484071
    10  H    0.091527
    11  H    0.150328
    12  C    0.536615
    13  C    0.110921
    14  H   -0.153102
    15  H   -0.152716
 Sum of Mulliken charges =  -0.00000

 Dipole moment (field-independent basis, Debye):
    X=             -0.3892    Y=              0.3906    Z=              0.1394  Tot=              0.5688

 Test job not archived.
 1\1\GINC-SE052\SP\RHF\Aug-CC-pVDZ\C5H10\OHZDE\05-Apr-2025\0\\#t hf aug
 -cc-pvdz iop(5/13=1,5/36=2,99/5=2) pseudo=read geom=check guess=(read,
 tcheck) scf=(maxcycle=1)\\title\\0,1\C,0,0.997463,1.325679,0.022163\H,
 0,0.373584,1.884891,-0.678759\H,0,2.034359,1.430874,-0.293345\H,0,0.88
 4792,1.810232,0.996291\C,0,-1.914097,0.084632,-0.392799\H,0,-1.882388,
 1.165754,-0.529981\H,0,-2.902148,-0.167486,-0.005719\H,0,-1.807245,-0.
 3811,-1.373424\C,0,-0.819378,-0.403315,0.566621\H,0,-0.933041,-1.47708
 3,0.723891\H,0,-0.969525,0.073773,1.541238\C,0,0.586621,-0.119984,0.09

 Normal termination of Gaussian 16 at Sat Apr  5 22:40:55 2025.
