 Gaussian 16, Revision C.01,

 ----------------------------------------------------------------------
 #t hf aug-cc-pvdz symm=none int=(grid=ultrafine) guess=(read,tcheck) s
 table=(opt,rrhf)
 ----------------------------------------------------------------------
 -----
 title
 -----
 Symbolic Z-matrix:
 Charge =  0 Multiplicity = 1

 SCF Done:  E(RHF) =  -195.167457114     A.U. after   13 cycles
 Normal termination of Gaussian 16 at Sat Apr  5 22:42:05 2025.
 Gaussian 16:  ES64L-G16RevC.01  3-Jul-2019

 ----------------------------------------------------------------------
 #t hf aug-cc-pvdz iop(5/13=1,5/36=2,99/5=2) pseudo=read geom=check gue
 ss=(read,tcheck) scf=(maxcycle=1)
 ----------------------------------------------------------------------
 -----
 title
 -----
 Structure from the checkpoint file:  "2-methyl-2-butene.chk"
 Charge =  0 Multiplicity = 1

                         Standard orientation:
 ---------------------------------------------------------------------
 Center     Atomic      Atomic             Coordinates (Angstroms)
 Number     Number       Type             X           Y           Z
 ---------------------------------------------------------------------
      1          6           0       -0.735351   -0.665405    0.000000
      2          6           0        0.000000    0.449055    0.000000
      3          6           0       -0.272212   -2.090707    0.000000
      4          6           0       -0.654331    1.805181    0.000000
      5          6           0        1.503840    0.487539    0.000000
      6          1           0       -1.815046   -0.542325    0.000000
      7          1           0        0.811162   -2.190686    0.000000
      8          1           0       -0.654736   -2.622552    0.875627
      9          1           0       -0.654736   -2.622552   -0.875627
     10          1           0       -1.741078    1.730857    0.000000
     11          1           0       -0.352201    2.386480    0.876320
     12          1           0       -0.352201    2.386480   -0.876320
     13          1           0        1.872880    1.029375   -0.875759
     14          1           0        1.872880    1.029375    0.875759
     15          1           0        1.961399   -0.498430    0.000000
 ---------------------------------------------------------------------

 SCF Done:  E(RHF) =  -195.386274682     A.U. after    2 cycles

 The electronic state is 1-A'.
 Alpha  occ. eigenvalues --  -11.23364 -11.22530 -11.22467 -11.22388 -11.22146
 Alpha  occ. eigenvalues --   -1.09635  -0.99307  -0.94005  -0.87541  -0.70857
 Alpha  occ. eigenvalues --   -0.63935  -0.60528  -0.59618  -0.56072  -0.53893
 Alpha  occ. eigenvalues --   -0.53828  -0.52375  -0.51289  -0.47508  -0.33907
 Alpha virt. eigenvalues --    0.03824   0.03936   0.04227   0.04749   0.05848
 Alpha virt. eigenvalues --    0.06490   0.06503   0.07848   0.09351   0.09731
 Alpha virt. eigenvalues --    0.11198   0.13671   0.13944   0.14766   0.15385

 Mulliken charges:
               1
     1  C    0.159752
     2  C    0.293340
     3  C   -0.707965
     4  C   -0.546817
     5  C   -0.656107
     6  H   -0.252192
     7  H    0.084567
     8  H    0.257373
     9  H    0.257373
    10  H    0.053817
    11  H    0.220073
    12  H    0.220073
    13  H    0.264336
    14  H    0.264336
    15  H    0.088040
 Sum of Mulliken charges =  -0.00000

 Dipole moment (field-independent basis, Debye):
    X=              0.2064    Y=              0.0685    Z=             -0.0000  Tot=              0.2174

 Test job not archived.
 1\1\GINC-SE183\SP\RHF\Aug-CC-pVDZ\C5H10\OHZDE\05-Apr-2025\0\\#t hf aug
 -cc-pvdz iop(5/13=1,5/36=2,99/5=2) pseudo=read geom=check guess=(read,
 tcheck) scf=(maxcycle=1)\\title\\0,1\C,0,-0.735351,-0.665405,0.\C,0,0.
 ,0.449055,0.\C,0,-0.272212,-2.090707,0.\C,0,-0.654331,1.805181,0.\C,0,
 1.50384,0.487539,0.\H,0,-1.815046,-0.542325,0.\H,0,0.811162,-2.190686,
 0.\H,0,-0.654737,-2.622552,0.875627\H,0,-0.654737,-2.622552,-0.875627\
 H,0,-1.741078,1.730857,0.\H,0,-0.352201,2.38648,0.87632\H,0,-0.352201,
 2.38648,-0.87632\H,0,1.87288,1.029375,-0.875759\H,0,1.87288,1.029375,0

 Normal termination of Gaussian 16 at Sat Apr  5 22:42:22 2025.
