 Gaussian 16, Revision C.01,

 ----------------------------------------------------------------------
 #t hf aug-cc-pvdz symm=none int=(grid=ultrafine) guess=(read,tcheck) s
 table=(opt,rrhf)
 ----------------------------------------------------------------------
 -----
 title
 -----
 Symbolic Z-matrix:
 Charge =  0 Multiplicity = 1

 SCF Done:  E(RHF) =  -232.183750668     A.U. after   12 cycles

 1\1\GINC-SE115\Stability\RHF\Aug-CC-pVDZ\C4H10O1\OHZDE\05-Apr-2025\0\\
 #t hf aug-cc-pvdz symm=none int=(grid=ultrafine) guess=(read,tcheck) s
 table=(opt,rrhf)\\title\\0,1\C,0,0.590555,1.457337,0.129753\C,0,1.6947
 39,-0.815651,0.002549\C,0,-0.789368,-0.654893,0.262196\C,0,0.447978,0.
 006154,-0.333326\O,0,-1.954191,0.041487,-0.185733\H,0,1.450174,1.93317
 6,-0.344932\H,0,0.740265,1.505313,1.211861\H,0,-0.298201,2.037207,-0.1
 13238\H,0,2.583805,-0.37069,-0.44573\H,0,1.613928,-1.840373,-0.36471\H
 ,0,1.858337,-0.858604,1.082387\H,0,-0.832465,-1.704406,-0.050526\H,0,-

 Normal termination of Gaussian 16 at Sat Apr  5 22:40:38 2025.
 Gaussian 16:  ES64L-G16RevC.01  3-Jul-2019

 ----------------------------------------------------------------------
 #t hf aug-cc-pvdz iop(5/13=1,5/36=2,99/5=2) pseudo=read geom=check gue
 ss=(read,tcheck) scf=(maxcycle=1)
 ----------------------------------------------------------------------
 -----
 title
 -----
 Structure from the checkpoint file:  "2-methyl-1-propanol.chk"
 Charge =  0 Multiplicity = 1

                         Standard orientation:
 ---------------------------------------------------------------------
 Center     Atomic      Atomic             Coordinates (Angstroms)
 Number     Number       Type             X           Y           Z
 ---------------------------------------------------------------------
      1          6           0        0.590555    1.457337    0.129753
      2          6           0        1.694739   -0.815651    0.002549
      3          6           0       -0.789368   -0.654893    0.262196
      4          6           0        0.447978    0.006154   -0.333326
      5          8           0       -1.954191    0.041487   -0.185733
      6          1           0        1.450174    1.933176   -0.344932
      7          1           0        0.740265    1.505313    1.211861
      8          1           0       -0.298201    2.037207   -0.113238
      9          1           0        2.583805   -0.370690   -0.445730
     10          1           0        1.613928   -1.840373   -0.364710
     11          1           0        1.858337   -0.858604    1.082387
     12          1           0       -0.832465   -1.704406   -0.050526
     13          1           0       -0.727572   -0.631330    1.357984
     14          1           0        0.314167    0.004019   -1.419727
     15          1           0       -2.732335   -0.363889    0.205458
 ---------------------------------------------------------------------

 SCF Done:  E(RHF) =  -232.437341590     A.U. after    2 cycles

 The electronic state is 1-A.
 Alpha  occ. eigenvalues --  -20.54389 -11.27904 -11.22965 -11.22262 -11.21326
 Alpha  occ. eigenvalues --   -1.44134  -1.08081  -0.92959  -0.91665  -0.77545
 Alpha  occ. eigenvalues --   -0.69200  -0.65574  -0.61210  -0.59088  -0.54882
 Alpha  occ. eigenvalues --   -0.53708  -0.52973  -0.48372  -0.47874  -0.46335
 Alpha  occ. eigenvalues --   -0.43628
 Alpha virt. eigenvalues --    0.03525   0.03940   0.04208   0.04464   0.06487
 Alpha virt. eigenvalues --    0.06889   0.07122   0.07528   0.07645   0.09541
 Alpha virt. eigenvalues --    0.13146   0.14407   0.15133   0.15673   0.16124

 Mulliken charges:
               1
     1  C   -0.003641
     2  C   -0.017366
     3  C    1.140625
     4  C   -1.686789
     5  O   -1.200129
     6  H    0.144639
     7  H    0.207419
     8  H    0.159450
     9  H    0.134749
    10  H    0.136437
    11  H    0.220581
    12  H    0.101171
    13  H    0.153857
    14  H    0.205142
    15  H    0.303855
 Sum of Mulliken charges =  -0.00000

 Dipole moment (field-independent basis, Debye):
    X=             -0.0085    Y=             -1.2197    Z=              0.8578  Tot=              1.4912

 Test job not archived.
 1\1\GINC-SE115\SP\RHF\Aug-CC-pVDZ\C4H10O1\OHZDE\05-Apr-2025\0\\#t hf a
 ug-cc-pvdz iop(5/13=1,5/36=2,99/5=2) pseudo=read geom=check guess=(rea
 d,tcheck) scf=(maxcycle=1)\\title\\0,1\C,0,0.590555,1.457337,0.129753\
 C,0,1.694739,-0.815651,0.002549\C,0,-0.789368,-0.654893,0.262196\C,0,0
 .447978,0.006154,-0.333326\O,0,-1.954191,0.041487,-0.185733\H,0,1.4501
 74,1.933176,-0.344932\H,0,0.740265,1.505313,1.211861\H,0,-0.298201,2.0
 37207,-0.113238\H,0,2.583805,-0.37069,-0.44573\H,0,1.613928,-1.840373,
 -0.36471\H,0,1.858337,-0.858604,1.082387\H,0,-0.832465,-1.704406,-0.05

 Normal termination of Gaussian 16 at Sat Apr  5 22:40:55 2025.
