 Gaussian 16, Revision C.01,

 ----------------------------------------------------------------------
 #t hf aug-cc-pvdz symm=none int=(grid=ultrafine) guess=(read,tcheck) s
 table=(opt,rrhf)
 ----------------------------------------------------------------------
 -----
 title
 -----
 Symbolic Z-matrix:
 Charge =  0 Multiplicity = 1

 SCF Done:  E(RHF) =  -554.849194926     A.U. after   13 cycles

 1\1\GINC-SE190\Stability\RHF\Aug-CC-pVDZ\C4H10S1\OHZDE\05-Apr-2025\0\\
 #t hf aug-cc-pvdz symm=none int=(grid=ultrafine) guess=(read,tcheck) s
 table=(opt,rrhf)\\title\\0,1\C,0,0.836982,-0.734002,1.259163\C,0,0.836
 982,-0.734002,-1.259163\C,0,0.836982,1.444049,0.\C,0,0.356343,-0.01036
 6,0.\S,0,-1.509289,0.094963,0.\H,0,0.477461,-1.763198,1.286405\H,0,1.9
 29912,-0.76142,1.279568\H,0,0.489091,-0.229768,2.159568\H,0,0.489091,-
 0.229768,-2.159568\H,0,0.477461,-1.763198,-1.286405\H,0,1.929912,-0.76
 142,-1.279568\H,0,0.487296,1.977794,0.88398\H,0,1.928534,1.468659,0.\H

 Normal termination of Gaussian 16 at Sat Apr  5 22:40:44 2025.
 Gaussian 16:  ES64L-G16RevC.01  3-Jul-2019

 ----------------------------------------------------------------------
 #t hf aug-cc-pvdz iop(5/13=1,5/36=2,99/5=2) pseudo=read geom=check gue
 ss=(read,tcheck) scf=(maxcycle=1)
 ----------------------------------------------------------------------
 -----
 title
 -----
 Structure from the checkpoint file:  "2-methyl-2-propanethiol.chk"
 Charge =  0 Multiplicity = 1

                         Standard orientation:
 ---------------------------------------------------------------------
 Center     Atomic      Atomic             Coordinates (Angstroms)
 Number     Number       Type             X           Y           Z
 ---------------------------------------------------------------------
      1          6           0        0.836982   -0.734002    1.259163
      2          6           0        0.836982   -0.734002   -1.259163
      3          6           0        0.836982    1.444049    0.000000
      4          6           0        0.356343   -0.010366    0.000000
      5         16           0       -1.509289    0.094963    0.000000
      6          1           0        0.477461   -1.763198    1.286405
      7          1           0        1.929912   -0.761420    1.279568
      8          1           0        0.489091   -0.229768    2.159568
      9          1           0        0.489091   -0.229768   -2.159568
     10          1           0        0.477461   -1.763198   -1.286405
     11          1           0        1.929912   -0.761420   -1.279568
     12          1           0        0.487296    1.977794    0.883980
     13          1           0        1.928534    1.468659    0.000000
     14          1           0        0.487296    1.977794   -0.883980
     15          1           0       -1.751158   -1.228962    0.000000
 ---------------------------------------------------------------------

 SCF Done:  E(RHF) =  -555.086906308     A.U. after    2 cycles

 The electronic state is 1-A'.
 Alpha  occ. eigenvalues --  -93.93864 -11.28310 -11.23349 -11.23209 -11.23189
 Alpha  occ. eigenvalues --   -8.21941  -6.19789  -6.19636  -6.19425  -1.12479
 Alpha  occ. eigenvalues --   -0.96852  -0.94791  -0.94629  -0.75156  -0.63688
 Alpha  occ. eigenvalues --   -0.62019  -0.61949  -0.56576  -0.55838  -0.53102
 Alpha  occ. eigenvalues --   -0.51542  -0.49474  -0.48610  -0.43458  -0.35974
 Alpha virt. eigenvalues --    0.03625   0.03951   0.04243   0.04617   0.06519
 Alpha virt. eigenvalues --    0.06651   0.06779   0.07394   0.07583   0.09749
 Alpha virt. eigenvalues --    0.11242   0.12318   0.14079   0.14176   0.15422

 Mulliken charges:
               1
     1  C    0.086833
     2  C    0.086833
     3  C    0.078473
     4  C   -2.108371
     5  S   -0.051569
     6  H    0.118518
     7  H    0.215499
     8  H    0.190462
     9  H    0.190462
    10  H    0.118518
    11  H    0.215499
    12  H    0.167216
    13  H    0.220288
    14  H    0.167216
    15  H    0.304122
 Sum of Mulliken charges =  -0.00000

 Dipole moment (field-independent basis, Debye):
    X=              1.7282    Y=             -0.8186    Z=             -0.0000  Tot=              1.9123

 Test job not archived.
 1\1\GINC-SE190\SP\RHF\Aug-CC-pVDZ\C4H10S1\OHZDE\05-Apr-2025\0\\#t hf a
 ug-cc-pvdz iop(5/13=1,5/36=2,99/5=2) pseudo=read geom=check guess=(rea
 d,tcheck) scf=(maxcycle=1)\\title\\0,1\C,0,0.836982,-0.734002,1.259163
 \C,0,0.836982,-0.734002,-1.259163\C,0,0.836982,1.444049,0.\C,0,0.35634
 3,-0.010366,0.\S,0,-1.509289,0.094963,0.\H,0,0.477461,-1.763198,1.2864
 05\H,0,1.929912,-0.76142,1.279568\H,0,0.489091,-0.229768,2.159568\H,0,
 0.489091,-0.229768,-2.159568\H,0,0.477461,-1.763198,-1.286405\H,0,1.92
 9912,-0.76142,-1.279568\H,0,0.487296,1.977794,0.88398\H,0,1.928534,1.4

 Normal termination of Gaussian 16 at Sat Apr  5 22:40:55 2025.
