 Gaussian 16, Revision C.01,

 ----------------------------------------------------------------------
 #t hf aug-cc-pvdz symm=none int=(grid=ultrafine) guess=(read,tcheck) s
 table=(opt,rrhf)
 ----------------------------------------------------------------------
 -----
 title
 -----
 Symbolic Z-matrix:
 Charge =  0 Multiplicity = 1

 SCF Done:  E(RHF) =  -590.370753950     A.U. after   15 cycles
 Normal termination of Gaussian 16 at Sat Apr  5 22:40:36 2025.
 Gaussian 16:  ES64L-G16RevC.01  3-Jul-2019

 ----------------------------------------------------------------------
 #t hf aug-cc-pvdz iop(5/13=1,5/36=2,99/5=2) pseudo=read geom=check gue
 ss=(read,tcheck) scf=(maxcycle=1)
 ----------------------------------------------------------------------
 -----
 title
 -----
 Structure from the checkpoint file:  "2-methylthiophene.chk"
 Charge =  0 Multiplicity = 1

                         Standard orientation:
 ---------------------------------------------------------------------
 Center     Atomic      Atomic             Coordinates (Angstroms)
 Number     Number       Type             X           Y           Z
 ---------------------------------------------------------------------
      1          6           0       -1.431534   -1.031992    0.000000
      2          6           0       -1.295454    0.385519    0.000000
      3          6           0       -0.233038   -1.675211    0.000000
      4          6           0        0.000000    0.813659    0.000000
      5          6           0        0.515874    2.217453    0.000000
      6         16           0        1.080231   -0.550999    0.000000
      7          1           0       -2.381672   -1.545414    0.000000
      8          1           0       -2.133617    1.068000    0.000000
      9          1           0       -0.039022   -2.734092    0.000000
     10          1           0       -0.319300    2.917141    0.000000
     11          1           0        1.127412    2.426894    0.879789
     12          1           0        1.127412    2.426894   -0.879789
 ---------------------------------------------------------------------

 SCF Done:  E(RHF) =  -590.632265026     A.U. after    2 cycles

 The electronic state is 1-A'.
 Alpha  occ. eigenvalues --  -93.96988 -11.27321 -11.26429 -11.24630 -11.24213
 Alpha  occ. eigenvalues --  -11.23671  -8.25210  -6.22983  -6.22889  -6.22679
 Alpha  occ. eigenvalues --   -1.18599  -1.03702  -0.99994  -0.92740  -0.77058
 Alpha  occ. eigenvalues --   -0.73826  -0.69080  -0.59721  -0.59507  -0.57677
 Alpha  occ. eigenvalues --   -0.54694  -0.51424  -0.51350  -0.47447  -0.35166
 Alpha  occ. eigenvalues --   -0.32485
 Alpha virt. eigenvalues --    0.03600   0.03664   0.04277   0.05377   0.05529
 Alpha virt. eigenvalues --    0.06855   0.09628   0.10322   0.10559   0.12440
 Alpha virt. eigenvalues --    0.12542   0.13552   0.13881   0.14708   0.15053

 Mulliken charges:
               1
     1  C    0.229213
     2  C    0.531114
     3  C   -0.479545
     4  C   -0.271450
     5  C   -0.769362
     6  S    0.708923
     7  H   -0.131310
     8  H   -0.208182
     9  H   -0.168209
    10  H    0.098832
    11  H    0.229987
    12  H    0.229987
 Sum of Mulliken charges =  -0.00000

 Dipole moment (field-independent basis, Debye):
    X=             -0.6715    Y=              0.6085    Z=              0.0000  Tot=              0.9062

 Test job not archived.
 1\1\GINC-SE045\SP\RHF\Aug-CC-pVDZ\C5H6S1\OHZDE\05-Apr-2025\0\\#t hf au
 g-cc-pvdz iop(5/13=1,5/36=2,99/5=2) pseudo=read geom=check guess=(read
 ,tcheck) scf=(maxcycle=1)\\title\\0,1\C,0,-1.431534,-1.031992,0.\C,0,-
 1.295454,0.385519,0.\C,0,-0.233038,-1.675211,0.\C,0,0.,0.813659,0.\C,0
 ,0.515874,2.217453,0.\S,0,1.080231,-0.550999,0.\H,0,-2.381672,-1.54541
 4,0.\H,0,-2.133617,1.068,0.\H,0,-0.039022,-2.734092,0.\H,0,-0.3193,2.9
 17141,0.\H,0,1.127412,2.426894,0.879789\H,0,1.127412,2.426894,-0.87978
 9\\Version=ES64L-G16RevC.01\State=1-A'\HF=-590.632265\RMSD=2.301e-02\D

 Normal termination of Gaussian 16 at Sat Apr  5 22:40:56 2025.
