 Gaussian 16, Revision C.01,

 ----------------------------------------------------------------------
 #t hf aug-cc-pvdz symm=none int=(grid=ultrafine) guess=(read,tcheck) s
 table=(opt,rrhf)
 ----------------------------------------------------------------------
 -----
 title
 -----
 Symbolic Z-matrix:
 Charge =  0 Multiplicity = 1

 SCF Done:  E(RHF) =  -267.387155176     A.U. after   12 cycles

 1\1\GINC-SE028\Stability\RHF\Aug-CC-pVDZ\C4H12N2\OHZDE\05-Apr-2025\0\\
 #t hf aug-cc-pvdz symm=none int=(grid=ultrafine) guess=(read,tcheck) s
 table=(opt,rrhf)\\title\\0,1\C,0,-0.376341,0.22036,0.\H,0,1.502631,0.8
 16125,0.875477\H,0,1.502631,0.816125,-0.875477\N,0,1.913976,-1.014914,
 0.\H,0,1.709887,-1.574258,0.817358\H,0,1.709887,-1.574258,-0.817358\N,
 0,-0.906035,1.595947,0.\H,0,-0.583445,2.106254,-0.814987\H,0,-0.583445
 ,2.106254,0.814987\C,0,1.179166,0.245313,0.\C,0,-0.906035,-0.473601,-1
 .257115\C,0,-0.906035,-0.473601,1.257115\H,0,-0.558883,0.037001,-2.158

 Normal termination of Gaussian 16 at Sat Apr  5 22:40:26 2025.
 Gaussian 16:  ES64L-G16RevC.01  3-Jul-2019

 ----------------------------------------------------------------------
 #t hf aug-cc-pvdz iop(5/13=1,5/36=2,99/5=2) pseudo=read geom=check gue
 ss=(read,tcheck) scf=(maxcycle=1)
 ----------------------------------------------------------------------
 -----
 title
 -----
 Structure from the checkpoint file:  "2-methyl-1-2-propanediamine.chk"
 Charge =  0 Multiplicity = 1

                         Standard orientation:
 ---------------------------------------------------------------------
 Center     Atomic      Atomic             Coordinates (Angstroms)
 Number     Number       Type             X           Y           Z
 ---------------------------------------------------------------------
      1          6           0       -0.376341    0.220360   -0.000000
      2          1           0        1.502631    0.816125    0.875477
      3          1           0        1.502631    0.816125   -0.875477
      4          7           0        1.913976   -1.014914    0.000000
      5          1           0        1.709887   -1.574258    0.817358
      6          1           0        1.709887   -1.574258   -0.817358
      7          7           0       -0.906035    1.595947   -0.000000
      8          1           0       -0.583445    2.106254   -0.814987
      9          1           0       -0.583445    2.106254    0.814987
     10          6           0        1.179166    0.245313   -0.000000
     11          6           0       -0.906035   -0.473601   -1.257115
     12          6           0       -0.906035   -0.473601    1.257115
     13          1           0       -0.558883    0.037001   -2.158942
     14          1           0       -0.558883    0.037001    2.158942
     15          1           0       -0.574785   -1.511227    1.310395
     16          1           0       -0.574785   -1.511227   -1.310395
     17          1           0       -1.995459   -0.462925   -1.263115
     18          1           0       -1.995459   -0.462925    1.263115
 ---------------------------------------------------------------------

 SCF Done:  E(RHF) =  -267.682382401     A.U. after    2 cycles

 The electronic state is 1-A'.
 Alpha  occ. eigenvalues --  -15.48279 -15.48152 -11.26344 -11.25235 -11.22178
 Alpha  occ. eigenvalues --  -11.22147  -1.20258  -1.16325  -1.02345  -0.94246
 Alpha  occ. eigenvalues --   -0.91340  -0.77054  -0.70350  -0.68559  -0.66584
 Alpha  occ. eigenvalues --   -0.63509  -0.58555  -0.57462  -0.54098  -0.52697
 Alpha  occ. eigenvalues --   -0.51789  -0.50944  -0.47635  -0.47174  -0.39425
 Alpha virt. eigenvalues --    0.03656   0.03918   0.04377   0.04665   0.05479
 Alpha virt. eigenvalues --    0.05813   0.06457   0.06689   0.07400   0.09533
 Alpha virt. eigenvalues --    0.09988   0.10330   0.12669   0.13070   0.14851

 Mulliken charges:
               1
     1  C   -4.048734
     2  H    0.147325
     3  H    0.147325
     4  N    0.282666
     5  H    0.175631
     6  H    0.175631
     7  N    1.097210
     8  H    0.150749
     9  H    0.150749
    10  C   -0.215047
    11  C    0.334021
    12  C    0.334021
    13  H    0.191438
    14  H    0.191438
    15  H    0.217873
    16  H    0.217873
    17  H    0.224914
    18  H    0.224914
 Sum of Mulliken charges =  -0.00000

 Dipole moment (field-independent basis, Debye):
    X=             -0.1064    Y=             -0.3196    Z=             -0.0000  Tot=              0.3368

 Test job not archived.
 1\1\GINC-SE028\SP\RHF\Aug-CC-pVDZ\C4H12N2\OHZDE\05-Apr-2025\0\\#t hf a
 ug-cc-pvdz iop(5/13=1,5/36=2,99/5=2) pseudo=read geom=check guess=(rea
 d,tcheck) scf=(maxcycle=1)\\title\\0,1\C,0,-0.376341,0.22036,0.\H,0,1.
 502631,0.816125,0.875477\H,0,1.502631,0.816125,-0.875477\N,0,1.913976,
 -1.014914,0.\H,0,1.709887,-1.574258,0.817358\H,0,1.709887,-1.574258,-0
 .817358\N,0,-0.906035,1.595947,0.\H,0,-0.583445,2.106254,-0.814987\H,0
 ,-0.583445,2.106254,0.814987\C,0,1.179166,0.245313,0.\C,0,-0.906035,-0
 .473601,-1.257115\C,0,-0.906035,-0.473601,1.257115\H,0,-0.558883,0.037

 Normal termination of Gaussian 16 at Sat Apr  5 22:40:55 2025.
