 Gaussian 16, Revision C.01,

 ----------------------------------------------------------------------
 #t hf aug-cc-pvdz symm=none int=(grid=ultrafine) guess=(read,tcheck) s
 table=(opt,rrhf)
 ----------------------------------------------------------------------
 -----
 title
 -----
 Symbolic Z-matrix:
 Charge =  0 Multiplicity = 1

 SCF Done:  E(RHF) =  -284.888906491     A.U. after   13 cycles
 Normal termination of Gaussian 16 at Sat Apr  5 22:40:38 2025.
 Gaussian 16:  ES64L-G16RevC.01  3-Jul-2019

 ----------------------------------------------------------------------
 #t hf aug-cc-pvdz iop(5/13=1,5/36=2,99/5=2) pseudo=read geom=check gue
 ss=(read,tcheck) scf=(maxcycle=1)
 ----------------------------------------------------------------------
 -----
 title
 -----
 Structure from the checkpoint file:  "2-methyl-4-5-dihydro-1-3-oxazole.chk"
 Charge =  0 Multiplicity = 1

                         Standard orientation:
 ---------------------------------------------------------------------
 Center     Atomic      Atomic             Coordinates (Angstroms)
 Number     Number       Type             X           Y           Z
 ---------------------------------------------------------------------
      1          6           0        0.336343    2.129295    0.000000
      2          6           0        0.540978   -1.506450    0.000000
      3          6           0       -0.989729   -1.289163    0.000000
      4          7           0       -1.159293    0.170312    0.000000
      5          8           0        1.078204   -0.160300    0.000000
      6          6           0        0.000000    0.680984    0.000000
      7          1           0        0.910587   -2.017738    0.887540
      8          1           0        0.910587   -2.017738   -0.887540
      9          1           0       -1.473240   -1.716662    0.879292
     10          1           0       -1.473240   -1.716662   -0.879292
     11          1           0        0.932661    2.376888    0.879004
     12          1           0        0.932661    2.376888   -0.879004
     13          1           0       -0.576148    2.717242    0.000000
 ---------------------------------------------------------------------

 SCF Done:  E(RHF) =  -285.185385091     A.U. after    2 cycles

 The electronic state is 1-A'.
 Alpha  occ. eigenvalues --  -20.57476 -15.47865 -11.33534 -11.29641 -11.26392
 Alpha  occ. eigenvalues --  -11.24396  -1.50830  -1.21938  -1.05790  -0.96814
 Alpha  occ. eigenvalues --   -0.87181  -0.76582  -0.69412  -0.69399  -0.63828
 Alpha  occ. eigenvalues --   -0.59949  -0.56926  -0.56515  -0.55706  -0.51665
 Alpha  occ. eigenvalues --   -0.51224  -0.46483  -0.39369
 Alpha virt. eigenvalues --    0.03688   0.04402   0.04617   0.04983   0.05956
 Alpha virt. eigenvalues --    0.06332   0.07339   0.08294   0.11235   0.12348
 Alpha virt. eigenvalues --    0.13715   0.14804   0.14909   0.15802   0.16257

 Mulliken charges:
               1
     1  C   -0.346160
     2  C    0.618132
     3  C   -0.441744
     4  N    0.588674
     5  O   -1.422324
     6  C    0.128032
     7  H    0.073889
     8  H    0.073889
     9  H    0.058417
    10  H    0.058417
    11  H    0.214054
    12  H    0.214054
    13  H    0.182671
 Sum of Mulliken charges =  -0.00000

 Dipole moment (field-independent basis, Debye):
    X=              1.4231    Y=             -0.8371    Z=             -0.0000  Tot=              1.6510

 Test job not archived.
 1\1\GINC-SE085\SP\RHF\Aug-CC-pVDZ\C4H7N1O1\OHZDE\05-Apr-2025\0\\#t hf
 aug-cc-pvdz iop(5/13=1,5/36=2,99/5=2) pseudo=read geom=check guess=(re
 ad,tcheck) scf=(maxcycle=1)\\title\\0,1\C,0,0.336343,2.129295,0.\C,0,0
 .540978,-1.50645,0.\C,0,-0.989729,-1.289163,0.\N,0,-1.159293,0.170312,
 0.\O,0,1.078204,-0.1603,0.\C,0,0.,0.680984,0.\H,0,0.910587,-2.017738,0
 .88754\H,0,0.910587,-2.017738,-0.88754\H,0,-1.47324,-1.716662,0.879292
 \H,0,-1.47324,-1.716662,-0.879292\H,0,0.932661,2.376888,0.879004\H,0,0
 .932661,2.376888,-0.879004\H,0,-0.576148,2.717242,0.\\Version=ES64L-G1

 Normal termination of Gaussian 16 at Sat Apr  5 22:40:54 2025.
