 Gaussian 16, Revision C.01,

 ----------------------------------------------------------------------
 #t hf aug-cc-pvdz symm=none int=(grid=ultrafine) guess=(read,tcheck) s
 table=(opt,rrhf)
 ----------------------------------------------------------------------
 -----
 title
 -----
 Symbolic Z-matrix:
 Charge =  0 Multiplicity = 1

 SCF Done:  E(RHF) =  -593.880558901     A.U. after   13 cycles

 1\1\GINC-SE183\Stability\RHF\Aug-CC-pVDZ\C5H12S1\OHZDE\05-Apr-2025\0\\
 #t hf aug-cc-pvdz symm=none int=(grid=ultrafine) guess=(read,tcheck) s
 table=(opt,rrhf)\\title\\0,1\S,0,-0.692409,-1.055906,0.\C,0,-0.026867,
 0.686541,0.\C,0,-1.284091,1.562967,0.\C,0,0.800267,-2.097232,0.\H,0,0.
 440552,-3.124595,0.\H,0,-0.998307,2.616921,0.\C,0,0.800267,0.953171,1.
 259728\C,0,0.800267,0.953171,-1.259728\H,0,1.404795,-1.943574,0.891889
 \H,0,1.404795,-1.943574,-0.891889\H,0,0.214552,0.768111,-2.159589\H,0,
 0.214552,0.768111,2.159589\H,0,1.131617,1.995073,1.274003\H,0,1.131617

 Normal termination of Gaussian 16 at Sat Apr  5 22:41:01 2025.
 Gaussian 16:  ES64L-G16RevC.01  3-Jul-2019

 ----------------------------------------------------------------------
 #t hf aug-cc-pvdz iop(5/13=1,5/36=2,99/5=2) pseudo=read geom=check gue
 ss=(read,tcheck) scf=(maxcycle=1)
 ----------------------------------------------------------------------
 -----
 title
 -----
 Structure from the checkpoint file:  "2-methyl-2-methylsulfanylpropane.chk"
 Charge =  0 Multiplicity = 1

                         Standard orientation:
 ---------------------------------------------------------------------
 Center     Atomic      Atomic             Coordinates (Angstroms)
 Number     Number       Type             X           Y           Z
 ---------------------------------------------------------------------
      1         16           0       -0.692409   -1.055906    0.000000
      2          6           0       -0.026867    0.686541    0.000000
      3          6           0       -1.284091    1.562967    0.000000
      4          6           0        0.800267   -2.097232    0.000000
      5          1           0        0.440552   -3.124595    0.000000
      6          1           0       -0.998307    2.616921    0.000000
      7          6           0        0.800267    0.953171    1.259728
      8          6           0        0.800267    0.953171   -1.259728
      9          1           0        1.404795   -1.943574    0.891889
     10          1           0        1.404795   -1.943574   -0.891889
     11          1           0        0.214552    0.768111   -2.159589
     12          1           0        0.214552    0.768111    2.159589
     13          1           0        1.131617    1.995073    1.274003
     14          1           0        1.131617    1.995073   -1.274003
     15          1           0        1.692762    0.328379    1.299095
     16          1           0        1.692762    0.328379   -1.299095
     17          1           0       -1.895101    1.377247   -0.883681
     18          1           0       -1.895101    1.377247    0.883681
 ---------------------------------------------------------------------

 SCF Done:  E(RHF) =  -594.162745542     A.U. after    2 cycles

 The electronic state is 1-A'.
 Alpha  occ. eigenvalues --  -93.92913 -11.27526 -11.25747 -11.22847 -11.22844
 Alpha  occ. eigenvalues --  -11.22814  -8.20982  -6.18809  -6.18636  -6.18436
 Alpha  occ. eigenvalues --   -1.12329  -1.02395  -0.94353  -0.94295  -0.87273
 Alpha  occ. eigenvalues --   -0.73669  -0.63515  -0.61718  -0.61669  -0.59556
 Alpha  occ. eigenvalues --   -0.57252  -0.55591  -0.54657  -0.52672  -0.49962
 Alpha  occ. eigenvalues --   -0.48975  -0.46645  -0.41607  -0.33985
 Alpha virt. eigenvalues --    0.03633   0.03684   0.04126   0.04332   0.05947
 Alpha virt. eigenvalues --    0.06382   0.06413   0.06876   0.07178   0.09738
 Alpha virt. eigenvalues --    0.09785   0.09997   0.11102   0.13188   0.13479

 Mulliken charges:
               1
     1  S    0.341261
     2  C   -1.911910
     3  C    0.280968
     4  C   -0.725125
     5  H    0.125608
     6  H    0.220462
     7  C   -0.037197
     8  C   -0.037197
     9  H    0.188182
    10  H    0.188182
    11  H    0.181616
    12  H    0.181616
    13  H    0.204460
    14  H    0.204460
    15  H    0.110530
    16  H    0.110530
    17  H    0.186777
    18  H    0.186777
 Sum of Mulliken charges =  -0.00000

 Dipole moment (field-independent basis, Debye):
    X=              1.6615    Y=              0.7530    Z=             -0.0000  Tot=              1.8241

 Test job not archived.
 1\1\GINC-SE183\SP\RHF\Aug-CC-pVDZ\C5H12S1\OHZDE\05-Apr-2025\0\\#t hf a
 ug-cc-pvdz iop(5/13=1,5/36=2,99/5=2) pseudo=read geom=check guess=(rea
 d,tcheck) scf=(maxcycle=1)\\title\\0,1\S,0,-0.692409,-1.055906,0.\C,0,
 -0.026867,0.686541,0.\C,0,-1.284091,1.562967,0.\C,0,0.800267,-2.097232
 ,0.\H,0,0.440552,-3.124595,0.\H,0,-0.998307,2.616921,0.\C,0,0.800267,0
 .953171,1.259728\C,0,0.800267,0.953171,-1.259728\H,0,1.404795,-1.94357
 4,0.891889\H,0,1.404795,-1.943574,-0.891889\H,0,0.214552,0.768111,-2.1
 59589\H,0,0.214552,0.768111,2.159589\H,0,1.131617,1.995073,1.274003\H,

 Normal termination of Gaussian 16 at Sat Apr  5 22:41:32 2025.
