 Gaussian 16, Revision C.01,

 ----------------------------------------------------------------------
 #t hf aug-cc-pvdz symm=none int=(grid=ultrafine) guess=(read,tcheck) s
 table=(opt,rrhf)
 ----------------------------------------------------------------------
 -----
 title
 -----
 Symbolic Z-matrix:
 Charge =  0 Multiplicity = 1

 SCF Done:  E(RHF) =  -212.349709747     A.U. after   12 cycles

 1\1\GINC-SE053\Stability\RHF\Aug-CC-pVDZ\C4H11N1\OHZDE\05-Apr-2025\0\\
 #t hf aug-cc-pvdz symm=none int=(grid=ultrafine) guess=(read,tcheck) s
 table=(opt,rrhf)\\title\\0,1\N,0,-2.017293,-0.02783,-0.195165\H,0,-2.8
 20908,-0.592269,0.048212\H,0,-2.147266,0.872192,0.248999\C,0,-0.776018
 ,-0.669821,0.249843\H,0,-0.672045,-0.698833,1.345476\H,0,-0.809076,-1.
 707432,-0.088935\C,0,1.722505,-0.804982,0.017003\H,0,1.877218,-0.83259
 9,1.098733\H,0,1.649672,-1.835748,-0.334919\H,0,2.613446,-0.362479,-0.
 430967\C,0,0.606424,1.454776,0.111148\H,0,1.501894,1.911846,-0.313053\

 Normal termination of Gaussian 16 at Sat Apr  5 22:40:44 2025.
 Gaussian 16:  ES64L-G16RevC.01  3-Jul-2019

 ----------------------------------------------------------------------
 #t hf aug-cc-pvdz iop(5/13=1,5/36=2,99/5=2) pseudo=read geom=check gue
 ss=(read,tcheck) scf=(maxcycle=1)
 ----------------------------------------------------------------------
 -----
 title
 -----
 Structure from the checkpoint file:  "2-methyl-1-propanamine.chk"
 Charge =  0 Multiplicity = 1

                         Standard orientation:
 ---------------------------------------------------------------------
 Center     Atomic      Atomic             Coordinates (Angstroms)
 Number     Number       Type             X           Y           Z
 ---------------------------------------------------------------------
      1          7           0       -2.017293   -0.027830   -0.195165
      2          1           0       -2.820908   -0.592269    0.048212
      3          1           0       -2.147266    0.872192    0.248999
      4          6           0       -0.776018   -0.669821    0.249843
      5          1           0       -0.672045   -0.698833    1.345476
      6          1           0       -0.809076   -1.707432   -0.088935
      7          6           0        1.722505   -0.804982    0.017003
      8          1           0        1.877218   -0.832599    1.098733
      9          1           0        1.649672   -1.835748   -0.334919
     10          1           0        2.613446   -0.362479   -0.430967
     11          6           0        0.606424    1.454776    0.111148
     12          1           0        1.501894    1.911846   -0.313053
     13          1           0       -0.244796    2.059218   -0.204351
     14          1           0        0.687235    1.520067    1.200032
     15          6           0        0.469897   -0.001587   -0.340529
     16          1           0        0.348831   -0.009471   -1.427859
 ---------------------------------------------------------------------

 SCF Done:  E(RHF) =  -212.588436093     A.U. after    2 cycles

 The electronic state is 1-A.
 Alpha  occ. eigenvalues --  -15.47952 -11.24979 -11.22608 -11.21876 -11.21833
 Alpha  occ. eigenvalues --   -1.17647  -1.06500  -0.93069  -0.90159  -0.77133
 Alpha  occ. eigenvalues --   -0.69317  -0.65578  -0.61208  -0.59417  -0.56631
 Alpha  occ. eigenvalues --   -0.54237  -0.52897  -0.48248  -0.47476  -0.46980
 Alpha  occ. eigenvalues --   -0.41843
 Alpha virt. eigenvalues --    0.03574   0.04158   0.04266   0.04372   0.06257
 Alpha virt. eigenvalues --    0.06442   0.06766   0.07203   0.07918   0.09323
 Alpha virt. eigenvalues --    0.09940   0.13718   0.14402   0.14784   0.15472

 Mulliken charges:
               1
     1  N    0.293418
     2  H    0.162852
     3  H    0.132805
     4  C   -0.582513
     5  H    0.095543
     6  H    0.052887
     7  C   -0.040041
     8  H    0.203169
     9  H    0.124003
    10  H    0.141687
    11  C   -0.063596
    12  H    0.132603
    13  H    0.135083
    14  H    0.226913
    15  C   -1.198266
    16  H    0.183452
 Sum of Mulliken charges =  -0.00000

 Dipole moment (field-independent basis, Debye):
    X=             -0.0257    Y=             -0.1905    Z=              1.1779  Tot=              1.1935

 Test job not archived.
 1\1\GINC-SE053\SP\RHF\Aug-CC-pVDZ\C4H11N1\OHZDE\05-Apr-2025\0\\#t hf a
 ug-cc-pvdz iop(5/13=1,5/36=2,99/5=2) pseudo=read geom=check guess=(rea
 d,tcheck) scf=(maxcycle=1)\\title\\0,1\N,0,-2.017293,-0.02783,-0.19516
 5\H,0,-2.820908,-0.592269,0.048212\H,0,-2.147266,0.872192,0.248999\C,0
 ,-0.776018,-0.669821,0.249843\H,0,-0.672045,-0.698833,1.345476\H,0,-0.
 809076,-1.707432,-0.088935\C,0,1.722505,-0.804982,0.017003\H,0,1.87721
 8,-0.832599,1.098733\H,0,1.649672,-1.835748,-0.334919\H,0,2.613446,-0.
 362479,-0.430967\C,0,0.606424,1.454776,0.111148\H,0,1.501894,1.911846,

 Normal termination of Gaussian 16 at Sat Apr  5 22:40:55 2025.
