 Gaussian 16, Revision C.01,

 ----------------------------------------------------------------------
 #t hf aug-cc-pvdz symm=none int=(grid=ultrafine) guess=(read,tcheck) s
 table=(opt,rrhf)
 ----------------------------------------------------------------------
 -----
 title
 -----
 Symbolic Z-matrix:
 Charge =  0 Multiplicity = 1

 SCF Done:  E(RHF) =  -274.428631242     A.U. after   11 cycles
 Normal termination of Gaussian 16 at Sat Apr  5 22:41:34 2025.
 Gaussian 16:  ES64L-G16RevC.01  3-Jul-2019

 ----------------------------------------------------------------------
 #t hf aug-cc-pvdz iop(5/13=1,5/36=2,99/5=2) pseudo=read geom=check gue
 ss=(read,tcheck) scf=(maxcycle=1)
 ----------------------------------------------------------------------
 -----
 title
 -----
 Structure from the checkpoint file:  "2-methylhexane.chk"
 Charge =  0 Multiplicity = 1

                         Standard orientation:
 ---------------------------------------------------------------------
 Center     Atomic      Atomic             Coordinates (Angstroms)
 Number     Number       Type             X           Y           Z
 ---------------------------------------------------------------------
      1          6           0       -0.868384    3.234895   -0.000000
      2          6           0       -0.219571   -2.152365    1.263450
      3          6           0       -0.219571   -2.152365   -1.263450
      4          6           0        0.268040    2.213869   -0.000000
      5          6           0       -0.219571    0.763488   -0.000000
      6          6           0        0.930524   -0.247686    0.000000
      7          6           0        0.542679   -1.739197    0.000000
      8          1           0       -0.486911    4.257021   -0.000000
      9          1           0       -1.503449    3.118553   -0.880742
     10          1           0       -1.503449    3.118553    0.880742
     11          1           0       -1.205277   -1.685922    1.310069
     12          1           0       -0.370188   -3.233066    1.289312
     13          1           0        0.325690   -1.871056    2.166571
     14          1           0       -1.205277   -1.685922   -1.310069
     15          1           0       -0.370188   -3.233066   -1.289312
     16          1           0        0.325690   -1.871056   -2.166571
     17          1           0        0.905576    2.378650    0.873933
     18          1           0        0.905576    2.378650   -0.873933
     19          1           0       -0.856827    0.606146    0.874834
     20          1           0       -0.856827    0.606146   -0.874834
     21          1           0        1.561967   -0.056811   -0.873944
     22          1           0        1.561967   -0.056811    0.873944
     23          1           0        1.487050   -2.293848    0.000000
 ---------------------------------------------------------------------

 SCF Done:  E(RHF) =  -274.741107955     A.U. after    2 cycles

 The electronic state is 1-A'.
 Alpha  occ. eigenvalues --  -11.22805 -11.22201 -11.21888 -11.21843 -11.21837
 Alpha  occ. eigenvalues --  -11.21633 -11.21618  -1.09843  -1.04953  -0.96504
 Alpha  occ. eigenvalues --   -0.92730  -0.87333  -0.80193  -0.75136  -0.64789
 Alpha  occ. eigenvalues --   -0.63458  -0.60188  -0.59392  -0.57920  -0.55140
 Alpha  occ. eigenvalues --   -0.54246  -0.52988  -0.50472  -0.50019  -0.48621
 Alpha  occ. eigenvalues --   -0.47312  -0.45829  -0.45169  -0.44262
 Alpha virt. eigenvalues --    0.03294   0.03505   0.03538   0.04071   0.05256
 Alpha virt. eigenvalues --    0.05712   0.05811   0.06393   0.06808   0.08122
 Alpha virt. eigenvalues --    0.08606   0.08768   0.09438   0.10574   0.11393

 Mulliken charges:
               1
     1  C   -0.364374
     2  C   -0.046929
     3  C   -0.046929
     4  C   -0.183371
     5  C   -0.194080
     6  C   -0.145290
     7  C   -1.169263
     8  H    0.113796
     9  H    0.161038
    10  H    0.161038
    11  H    0.222056
    12  H    0.104040
    13  H    0.149148
    14  H    0.222056
    15  H    0.104040
    16  H    0.149148
    17  H    0.103984
    18  H    0.103984
    19  H    0.092788
    20  H    0.092788
    21  H    0.080972
    22  H    0.080972
    23  H    0.208389
 Sum of Mulliken charges =  -0.00000

 Dipole moment (field-independent basis, Debye):
    X=              0.1458    Y=             -0.0473    Z=              0.0000  Tot=              0.1533

 Test job not archived.
 1\1\GINC-SE145\SP\RHF\Aug-CC-pVDZ\C7H16\OHZDE\05-Apr-2025\0\\#t hf aug
 -cc-pvdz iop(5/13=1,5/36=2,99/5=2) pseudo=read geom=check guess=(read,
 tcheck) scf=(maxcycle=1)\\title\\0,1\C,0,-0.868384,3.234895,0.\C,0,-0.
 219571,-2.152365,1.26345\C,0,-0.219571,-2.152365,-1.26345\C,0,0.26804,
 2.213869,0.\C,0,-0.219571,0.763488,0.\C,0,0.930524,-0.247686,0.\C,0,0.
 542679,-1.739197,0.\H,0,-0.486911,4.257021,0.\H,0,-1.503449,3.118553,-
 0.880742\H,0,-1.503449,3.118553,0.880742\H,0,-1.205277,-1.685922,1.310
 069\H,0,-0.370188,-3.233066,1.289312\H,0,0.32569,-1.871056,2.166571\H,

 Normal termination of Gaussian 16 at Sat Apr  5 22:41:41 2025.
