 Gaussian 16, Revision C.01,

 ----------------------------------------------------------------------
 #t hf aug-cc-pvdz symm=none int=(grid=ultrafine) guess=(read,tcheck) s
 table=(opt,rrhf)
 ----------------------------------------------------------------------
 -----
 title
 -----
 Symbolic Z-matrix:
 Charge =  0 Multiplicity = 1

 SCF Done:  E(RHF) =  -310.265999688     A.U. after   12 cycles

 1\1\GINC-SE146\Stability\RHF\Aug-CC-pVDZ\C6H14O1\OHZDE\05-Apr-2025\0\\
 #t hf aug-cc-pvdz symm=none int=(grid=ultrafine) guess=(read,tcheck) s
 table=(opt,rrhf)\\title\\0,1\C,0,3.005568,-0.234641,-0.07587\C,0,-1.94
 6912,-1.107066,-0.387839\C,0,-1.238412,1.280682,-0.728586\C,0,1.63283,
 0.41303,0.105069\C,0,0.49271,-0.535387,-0.269388\C,0,-0.931821,-0.0291
 61,0.003653\O,0,-0.996264,0.187836,1.42867\H,0,3.165367,-0.547167,-1.1
 10366\H,0,3.109196,-1.119822,0.554911\H,0,3.807682,0.455938,0.188183\H
 ,0,-2.963517,-0.784311,-0.150713\H,0,-1.747156,-2.030635,0.155349\H,0,

 Normal termination of Gaussian 16 at Sat Apr  5 22:41:21 2025.
 Gaussian 16:  ES64L-G16RevC.01  3-Jul-2019

 ----------------------------------------------------------------------
 #t hf aug-cc-pvdz iop(5/13=1,5/36=2,99/5=2) pseudo=read geom=check gue
 ss=(read,tcheck) scf=(maxcycle=1)
 ----------------------------------------------------------------------
 -----
 title
 -----
 Structure from the checkpoint file:  "2-methylpentan-2-ol.chk"
 Charge =  0 Multiplicity = 1

                         Standard orientation:
 ---------------------------------------------------------------------
 Center     Atomic      Atomic             Coordinates (Angstroms)
 Number     Number       Type             X           Y           Z
 ---------------------------------------------------------------------
      1          6           0        3.005568   -0.234641   -0.075870
      2          6           0       -1.946912   -1.107066   -0.387839
      3          6           0       -1.238412    1.280682   -0.728586
      4          6           0        1.632830    0.413030    0.105069
      5          6           0        0.492710   -0.535387   -0.269388
      6          6           0       -0.931821   -0.029161    0.003653
      7          8           0       -0.996264    0.187836    1.428670
      8          1           0        3.165367   -0.547167   -1.110366
      9          1           0        3.109196   -1.119822    0.554911
     10          1           0        3.807682    0.455938    0.188183
     11          1           0       -2.963517   -0.784311   -0.150713
     12          1           0       -1.747156   -2.030635    0.155349
     13          1           0       -1.906985   -1.318328   -1.457633
     14          1           0       -0.578207    2.078717   -0.394031
     15          1           0       -2.268050    1.591351   -0.535843
     16          1           0       -1.124654    1.164869   -1.807771
     17          1           0        1.507934    0.728735    1.141736
     18          1           0        1.583749    1.318038   -0.504908
     19          1           0        0.564713   -0.793340   -1.330153
     20          1           0        0.615355   -1.469442    0.286075
     21          1           0       -1.879090    0.497967    1.653569
 ---------------------------------------------------------------------

 SCF Done:  E(RHF) =  -310.606464867     A.U. after    2 cycles

 The electronic state is 1-A.
 Alpha  occ. eigenvalues --  -20.53816 -11.28884 -11.22359 -11.22328 -11.22011
 Alpha  occ. eigenvalues --  -11.21720 -11.21628  -1.43805  -1.08594  -1.02770
 Alpha  occ. eigenvalues --   -0.94326  -0.92648  -0.81794  -0.76525  -0.67494
 Alpha  occ. eigenvalues --   -0.64095  -0.62011  -0.60940  -0.58375  -0.56353
 Alpha  occ. eigenvalues --   -0.55267  -0.53067  -0.52223  -0.51417  -0.49986
 Alpha  occ. eigenvalues --   -0.47687  -0.46711  -0.45285  -0.42847
 Alpha virt. eigenvalues --    0.03330   0.03662   0.03777   0.04262   0.05715
 Alpha virt. eigenvalues --    0.05831   0.06085   0.06599   0.07035   0.08592
 Alpha virt. eigenvalues --    0.09176   0.09557   0.09941   0.11303   0.13588

 Mulliken charges:
               1
     1  C   -0.410873
     2  C    0.170905
     3  C    0.077936
     4  C   -0.217387
     5  C    0.044542
     6  C   -0.691153
     7  O   -1.467067
     8  H    0.170467
     9  H    0.166730
    10  H    0.117501
    11  H    0.149992
    12  H    0.223302
    13  H    0.261038
    14  H    0.232293
    15  H    0.148911
    16  H    0.231865
    17  H    0.137155
    18  H    0.092925
    19  H    0.145478
    20  H    0.141702
    21  H    0.273736
 Sum of Mulliken charges =  -0.00000

 Dipole moment (field-independent basis, Debye):
    X=             -1.1348    Y=              0.2716    Z=             -1.0568  Tot=              1.5742

 Test job not archived.
 1\1\GINC-SE146\SP\RHF\Aug-CC-pVDZ\C6H14O1\OHZDE\05-Apr-2025\0\\#t hf a
 ug-cc-pvdz iop(5/13=1,5/36=2,99/5=2) pseudo=read geom=check guess=(rea
 d,tcheck) scf=(maxcycle=1)\\title\\0,1\C,0,3.005568,-0.234641,-0.07587
 \C,0,-1.946912,-1.107066,-0.387839\C,0,-1.238412,1.280682,-0.728586\C,
 0,1.63283,0.41303,0.105069\C,0,0.49271,-0.535387,-0.269388\C,0,-0.9318
 21,-0.029161,0.003653\O,0,-0.996264,0.187836,1.42867\H,0,3.165367,-0.5
 47167,-1.110366\H,0,3.109196,-1.119822,0.554911\H,0,3.807682,0.455938,
 0.188183\H,0,-2.963517,-0.784311,-0.150713\H,0,-1.747156,-2.030635,0.1

 Normal termination of Gaussian 16 at Sat Apr  5 22:41:36 2025.
