 Gaussian 16, Revision C.01,

 ----------------------------------------------------------------------
 #t hf aug-cc-pvdz symm=none int=(grid=ultrafine) guess=(read,tcheck) s
 table=(opt,rrhf)
 ----------------------------------------------------------------------
 -----
 title
 -----
 Symbolic Z-matrix:
 Charge =  0 Multiplicity = 1

 SCF Done:  E(RHF) =  -232.171548729     A.U. after   12 cycles

 1\1\GINC-SE183\Stability\RHF\Aug-CC-pVDZ\C4H10O1\OHZDE\05-Apr-2025\0\\
 #t hf aug-cc-pvdz symm=none int=(grid=ultrafine) guess=(read,tcheck) s
 table=(opt,rrhf)\\title\\0,1\C,0,-0.678099,1.442161,-0.097723\C,0,-1.6
 02385,-0.90915,-0.006698\C,0,1.963999,-0.107579,0.092089\C,0,-0.421488
 ,-0.006587,0.311499\O,0,0.708102,-0.560944,-0.366728\H,0,-1.546873,1.8
 37096,0.431111\H,0,0.169074,2.086994,0.135299\H,0,-0.870837,1.501789,-
 1.170041\H,0,-2.500908,-0.561297,0.503988\H,0,-1.397458,-1.932194,0.30
 6542\H,0,-1.795646,-0.912336,-1.080473\H,0,2.130121,0.953843,-0.119355

 Normal termination of Gaussian 16 at Sat Apr  5 22:39:27 2025.
 Gaussian 16:  ES64L-G16RevC.01  3-Jul-2019

 ----------------------------------------------------------------------
 #t hf aug-cc-pvdz iop(5/13=1,5/36=2,99/5=2) pseudo=read geom=check gue
 ss=(read,tcheck) scf=(maxcycle=1)
 ----------------------------------------------------------------------
 -----
 title
 -----
 Structure from the checkpoint file:  "2-methoxypropane.chk"
 Charge =  0 Multiplicity = 1

                         Standard orientation:
 ---------------------------------------------------------------------
 Center     Atomic      Atomic             Coordinates (Angstroms)
 Number     Number       Type             X           Y           Z
 ---------------------------------------------------------------------
      1          6           0       -0.678099    1.442161   -0.097723
      2          6           0       -1.602385   -0.909150   -0.006698
      3          6           0        1.963999   -0.107579    0.092089
      4          6           0       -0.421488   -0.006587    0.311499
      5          8           0        0.708102   -0.560944   -0.366728
      6          1           0       -1.546873    1.837096    0.431111
      7          1           0        0.169074    2.086994    0.135299
      8          1           0       -0.870837    1.501789   -1.170041
      9          1           0       -2.500908   -0.561297    0.503988
     10          1           0       -1.397458   -1.932194    0.306542
     11          1           0       -1.795646   -0.912336   -1.080473
     12          1           0        2.130121    0.953843   -0.119355
     13          1           0        2.722137   -0.686882   -0.431688
     14          1           0        2.076887   -0.270336    1.171121
     15          1           0       -0.223479   -0.042199    1.392313
 ---------------------------------------------------------------------

 SCF Done:  E(RHF) =  -232.424609609     A.U. after    2 cycles

 The electronic state is 1-A.
 Alpha  occ. eigenvalues --  -20.53526 -11.28361 -11.27582 -11.22265 -11.21899
 Alpha  occ. eigenvalues --   -1.45061  -1.05518  -0.94445  -0.91539  -0.79654
 Alpha  occ. eigenvalues --   -0.67268  -0.64175  -0.63635  -0.59307  -0.55672
 Alpha  occ. eigenvalues --   -0.54759  -0.53395  -0.50483  -0.49527  -0.45959
 Alpha  occ. eigenvalues --   -0.40993
 Alpha virt. eigenvalues --    0.03816   0.04106   0.04239   0.04511   0.06382
 Alpha virt. eigenvalues --    0.06789   0.07118   0.07436   0.08138   0.09743
 Alpha virt. eigenvalues --    0.12468   0.14094   0.14794   0.15349   0.15738

 Mulliken charges:
               1
     1  C   -0.292151
     2  C   -0.311025
     3  C    0.187939
     4  C    0.373942
     5  O   -1.417846
     6  H    0.188489
     7  H    0.076886
     8  H    0.221420
     9  H    0.174897
    10  H    0.142451
    11  H    0.197307
    12  H    0.155944
    13  H   -0.028568
    14  H    0.154283
    15  H    0.176031
 Sum of Mulliken charges =   0.00000

 Dipole moment (field-independent basis, Debye):
    X=              0.0359    Y=              0.8861    Z=              0.9888  Tot=              1.3283

 Test job not archived.
 1\1\GINC-SE183\SP\RHF\Aug-CC-pVDZ\C4H10O1\OHZDE\05-Apr-2025\0\\#t hf a
 ug-cc-pvdz iop(5/13=1,5/36=2,99/5=2) pseudo=read geom=check guess=(rea
 d,tcheck) scf=(maxcycle=1)\\title\\0,1\C,0,-0.678099,1.442161,-0.09772
 3\C,0,-1.602385,-0.90915,-0.006698\C,0,1.963999,-0.107579,0.092089\C,0
 ,-0.421488,-0.006587,0.311499\O,0,0.708102,-0.560944,-0.366728\H,0,-1.
 546873,1.837096,0.431111\H,0,0.169074,2.086994,0.135299\H,0,-0.870837,
 1.501789,-1.170041\H,0,-2.500908,-0.561297,0.503988\H,0,-1.397458,-1.9
 32194,0.306542\H,0,-1.795646,-0.912336,-1.080473\H,0,2.130121,0.953843

 Normal termination of Gaussian 16 at Sat Apr  5 22:39:49 2025.
