 Gaussian 16, Revision C.01,

 ----------------------------------------------------------------------
 #t hf aug-cc-pvdz symm=none int=(grid=ultrafine) guess=(read,tcheck) s
 table=(opt,rrhf)
 ----------------------------------------------------------------------
 -----
 title
 -----
 Symbolic Z-matrix:
 Charge =  0 Multiplicity = 1

 SCF Done:  E(RHF) =  -593.884303280     A.U. after   13 cycles

 1\1\GINC-SE165\Stability\RHF\Aug-CC-pVDZ\C5H12S1\OHZDE\05-Apr-2025\0\\
 #t hf aug-cc-pvdz symm=none int=(grid=ultrafine) guess=(read,tcheck) s
 table=(opt,rrhf)\\title\\0,1\H,0,-2.24159,-1.215243,-0.387645\H,0,-0.9
 12425,-2.289504,-0.826315\H,0,-1.300954,-0.896147,-1.84639\C,0,-1.2395
 95,-1.246048,-0.81681\C,0,-0.259075,-0.399357,-0.001092\H,0,1.407768,-
 1.489975,-0.756299\H,0,1.007906,-0.079353,-1.707859\C,0,1.124715,-0.43
 5306,-0.681589\H,0,2.022628,1.398388,0.091245\H,0,3.169518,0.252206,-0
 .593787\H,0,2.473612,-0.046308,0.992131\C,0,2.255992,0.338004,-0.00428

 Normal termination of Gaussian 16 at Sat Apr  5 22:42:26 2025.
 Gaussian 16:  ES64L-G16RevC.01  3-Jul-2019

 ----------------------------------------------------------------------
 #t hf aug-cc-pvdz iop(5/13=1,5/36=2,99/5=2) pseudo=read geom=check gue
 ss=(read,tcheck) scf=(maxcycle=1)
 ----------------------------------------------------------------------
 -----
 title
 -----
 Structure from the checkpoint file:  "2-methyl-2-butanethiol.chk"
 Charge =  0 Multiplicity = 1

                         Standard orientation:
 ---------------------------------------------------------------------
 Center     Atomic      Atomic             Coordinates (Angstroms)
 Number     Number       Type             X           Y           Z
 ---------------------------------------------------------------------
      1          1           0       -2.241591   -1.215242   -0.387645
      2          1           0       -0.912426   -2.289504   -0.826315
      3          1           0       -1.300955   -0.896146   -1.846390
      4          6           0       -1.239596   -1.246047   -0.816810
      5          6           0       -0.259075   -0.399357   -0.001092
      6          1           0        1.407767   -1.489976   -0.756299
      7          1           0        1.007906   -0.079354   -1.707859
      8          6           0        1.124715   -0.435307   -0.681589
      9          1           0        2.022629    1.398387    0.091245
     10          1           0        3.169518    0.252204   -0.593787
     11          1           0        2.473612   -0.046309    0.992131
     12          6           0        2.255992    0.338003   -0.004285
     13          1           0        0.185173   -1.926656    1.466143
     14          1           0       -1.196830   -0.915575    1.889107
     15          1           0        0.434562   -0.280652    2.066600
     16          6           0       -0.201952   -0.903990    1.442827
     17          1           0       -2.042024    1.174321    0.484066
     18         16           0       -0.817990    1.387168   -0.031582
 ---------------------------------------------------------------------

 SCF Done:  E(RHF) =  -594.165168122     A.U. after    2 cycles

 The electronic state is 1-A.
 Alpha  occ. eigenvalues --  -93.93719 -11.28113 -11.23708 -11.23109 -11.23042
 Alpha  occ. eigenvalues --  -11.22421  -8.21801  -6.19648  -6.19498  -6.19287
 Alpha  occ. eigenvalues --   -1.12862  -1.01130  -0.96562  -0.94563  -0.86686
 Alpha  occ. eigenvalues --   -0.74246  -0.64668  -0.63361  -0.60529  -0.58886
 Alpha  occ. eigenvalues --   -0.55884  -0.54807  -0.53020  -0.52210  -0.50191
 Alpha  occ. eigenvalues --   -0.48219  -0.46999  -0.43069  -0.35799
 Alpha virt. eigenvalues --    0.03569   0.03658   0.04015   0.04503   0.06008
 Alpha virt. eigenvalues --    0.06137   0.06381   0.06805   0.07354   0.09222
 Alpha virt. eigenvalues --    0.09570   0.09937   0.11596   0.13310   0.13826

 Mulliken charges:
               1
     1  H    0.096016
     2  H    0.228447
     3  H    0.211047
     4  C    0.084514
     5  C   -1.698674
     6  H    0.156092
     7  H    0.105852
     8  C    0.049429
     9  H    0.191869
    10  H    0.108498
    11  H    0.162546
    12  C   -0.346701
    13  H    0.215290
    14  H    0.119664
    15  H    0.173162
    16  C   -0.045799
    17  H    0.281100
    18  S   -0.092352
 Sum of Mulliken charges =   0.00000

 Dipole moment (field-independent basis, Debye):
    X=             -0.0014    Y=             -1.8421    Z=              0.2959  Tot=              1.8657

 Test job not archived.
 1\1\GINC-SE165\SP\RHF\Aug-CC-pVDZ\C5H12S1\OHZDE\05-Apr-2025\0\\#t hf a
 ug-cc-pvdz iop(5/13=1,5/36=2,99/5=2) pseudo=read geom=check guess=(rea
 d,tcheck) scf=(maxcycle=1)\\title\\0,1\H,0,-2.24159,-1.215243,-0.38764
 5\H,0,-0.912425,-2.289504,-0.826315\H,0,-1.300954,-0.896147,-1.84639\C
 ,0,-1.239595,-1.246048,-0.81681\C,0,-0.259075,-0.399357,-0.001092\H,0,
 1.407768,-1.489975,-0.756299\H,0,1.007906,-0.079353,-1.707859\C,0,1.12
 4715,-0.435306,-0.681589\H,0,2.022628,1.398388,0.091245\H,0,3.169518,0
 .252206,-0.593787\H,0,2.473612,-0.046308,0.992131\C,0,2.255992,0.33800

 Normal termination of Gaussian 16 at Sat Apr  5 22:43:20 2025.
