 Gaussian 16, Revision C.01,

 ----------------------------------------------------------------------
 #t hf aug-cc-pvdz symm=none int=(grid=ultrafine) guess=(read,tcheck) s
 table=(opt,rrhf)
 ----------------------------------------------------------------------
 -----
 title
 -----
 Symbolic Z-matrix:
 Charge =  0 Multiplicity = 1

 SCF Done:  E(RHF) =  -270.050103707     A.U. after   12 cycles

 1\1\GINC-SE232\Stability\RHF\Aug-CC-pVDZ\C5H10O1\OHZDE\05-Apr-2025\0\\
 #t hf aug-cc-pvdz symm=none int=(grid=ultrafine) guess=(read,tcheck) s
 table=(opt,rrhf)\\title\\0,1\C,0,-1.5452,0.674146,-0.126359\C,0,-0.105
 076,1.223728,0.00573\C,0,-1.368914,-0.846757,0.057412\C,0,0.7328,-0.01
 1059,0.378649\C,0,2.152046,-0.027585,-0.146353\O,0,0.009355,-1.112893,
 -0.176593\H,0,-2.218989,1.088613,0.622495\H,0,-1.962003,0.904798,-1.10
 5364\H,0,0.242266,1.630722,-0.944467\H,0,-0.020334,2.011011,0.754025\H
 ,0,-1.637823,-1.149102,1.077531\H,0,-1.947361,-1.446214,-0.643058\H,0,

 Normal termination of Gaussian 16 at Sat Apr  5 22:40:51 2025.
 Gaussian 16:  ES64L-G16RevC.01  3-Jul-2019

 ----------------------------------------------------------------------
 #t hf aug-cc-pvdz iop(5/13=1,5/36=2,99/5=2) pseudo=read geom=check gue
 ss=(read,tcheck) scf=(maxcycle=1)
 ----------------------------------------------------------------------
 -----
 title
 -----
 Structure from the checkpoint file:  "2-methyltetrahydrofuran.chk"
 Charge =  0 Multiplicity = 1

                         Standard orientation:
 ---------------------------------------------------------------------
 Center     Atomic      Atomic             Coordinates (Angstroms)
 Number     Number       Type             X           Y           Z
 ---------------------------------------------------------------------
      1          6           0       -1.545200    0.674146   -0.126359
      2          6           0       -0.105076    1.223728    0.005730
      3          6           0       -1.368914   -0.846757    0.057412
      4          6           0        0.732800   -0.011059    0.378649
      5          6           0        2.152046   -0.027584   -0.146353
      6          8           0        0.009355   -1.112893   -0.176593
      7          1           0       -2.218989    1.088612    0.622495
      8          1           0       -1.962003    0.904797   -1.105364
      9          1           0        0.242265    1.630722   -0.944467
     10          1           0       -0.020335    2.011011    0.754025
     11          1           0       -1.637823   -1.149102    1.077531
     12          1           0       -1.947361   -1.446215   -0.643058
     13          1           0        0.744850   -0.121334    1.473448
     14          1           0        2.155499    0.063415   -1.233368
     15          1           0        2.721516    0.803003    0.273159
     16          1           0        2.653606   -0.956605    0.123859
 ---------------------------------------------------------------------

 SCF Done:  E(RHF) =  -270.340735445     A.U. after    2 cycles

 The electronic state is 1-A.
 Alpha  occ. eigenvalues --  -20.53333 -11.27964 -11.27553 -11.23010 -11.22835
 Alpha  occ. eigenvalues --  -11.22133  -1.45435  -1.06173  -1.03019  -0.91571
 Alpha  occ. eigenvalues --   -0.81397  -0.79237  -0.68156  -0.66116  -0.63290
 Alpha  occ. eigenvalues --   -0.59050  -0.57575  -0.53652  -0.52391  -0.50063
 Alpha  occ. eigenvalues --   -0.48509  -0.47016  -0.46563  -0.40846
 Alpha virt. eigenvalues --    0.03772   0.03953   0.04015   0.04509   0.06031
 Alpha virt. eigenvalues --    0.06299   0.06468   0.07163   0.07907   0.09507
 Alpha virt. eigenvalues --    0.12455   0.13167   0.13284   0.14765   0.15404

 Mulliken charges:
               1
     1  C   -0.214205
     2  C   -0.363656
     3  C    0.443188
     4  C    0.628686
     5  C   -0.384456
     6  O   -1.424746
     7  H    0.161887
     8  H    0.125968
     9  H    0.106275
    10  H    0.108633
    11  H    0.121417
    12  H   -0.010816
    13  H    0.123655
    14  H    0.213197
    15  H    0.209666
    16  H    0.155306
 Sum of Mulliken charges =   0.00000

 Dipole moment (field-independent basis, Debye):
    X=             -0.5516    Y=              1.3833    Z=              0.5946  Tot=              1.6035

 Test job not archived.
 1\1\GINC-SE232\SP\RHF\Aug-CC-pVDZ\C5H10O1\OHZDE\05-Apr-2025\0\\#t hf a
 ug-cc-pvdz iop(5/13=1,5/36=2,99/5=2) pseudo=read geom=check guess=(rea
 d,tcheck) scf=(maxcycle=1)\\title\\0,1\C,0,-1.5452,0.674146,-0.126359\
 C,0,-0.105076,1.223728,0.00573\C,0,-1.368914,-0.846757,0.057412\C,0,0.
 7328,-0.011059,0.378649\C,0,2.152046,-0.027585,-0.146353\O,0,0.009355,
 -1.112893,-0.176593\H,0,-2.218989,1.088613,0.622495\H,0,-1.962003,0.90
 4798,-1.105364\H,0,0.242266,1.630722,-0.944467\H,0,-0.020334,2.011011,
 0.754025\H,0,-1.637823,-1.149102,1.077531\H,0,-1.947361,-1.446214,-0.6

 Normal termination of Gaussian 16 at Sat Apr  5 22:41:32 2025.
