 Gaussian 16, Revision C.01,

 ----------------------------------------------------------------------
 #t hf aug-cc-pvdz symm=none int=(grid=ultrafine) guess=(read,tcheck) s
 table=(opt,rrhf)
 ----------------------------------------------------------------------
 -----
 title
 -----
 Symbolic Z-matrix:
 Charge =  0 Multiplicity = 1

 SCF Done:  E(RHF) =  -305.879259691     A.U. after   12 cycles
 Normal termination of Gaussian 16 at Sat Apr  5 22:40:10 2025.
 Gaussian 16:  ES64L-G16RevC.01  3-Jul-2019

 ----------------------------------------------------------------------
 #t hf aug-cc-pvdz iop(5/13=1,5/36=2,99/5=2) pseudo=read geom=check gue
 ss=(read,tcheck) scf=(maxcycle=1)
 ----------------------------------------------------------------------
 -----
 title
 -----
 Structure from the checkpoint file:  "2-methyl-1-3-dioxolane.chk"
 Charge =  0 Multiplicity = 1

                         Standard orientation:
 ---------------------------------------------------------------------
 Center     Atomic      Atomic             Coordinates (Angstroms)
 Number     Number       Type             X           Y           Z
 ---------------------------------------------------------------------
      1          6           0       -2.091969    0.010752   -0.180597
      2          1           0       -2.635094   -0.893942    0.090351
      3          1           0       -2.624543    0.872125    0.220077
      4          1           0       -2.045431    0.092193   -1.265498
      5          6           0       -0.698672   -0.035879    0.388299
      6          1           0       -0.716959   -0.130269    1.485995
      7          8           0        0.030683    1.138373    0.045279
      8          8           0        0.034322   -1.115337   -0.154500
      9          6           0        1.399093   -0.761458    0.034643
     10          1           0        1.998042   -1.291310   -0.702163
     11          1           0        1.730930   -1.043846    1.039807
     12          6           0        1.397982    0.765704   -0.146745
     13          1           0        1.700345    1.065105   -1.151226
     14          1           0        2.034073    1.270939    0.582825
 ---------------------------------------------------------------------

 SCF Done:  E(RHF) =  -306.197143535     A.U. after    2 cycles

 The electronic state is 1-A.
 Alpha  occ. eigenvalues --  -20.55324 -20.54639 -11.33757 -11.29232 -11.28953
 Alpha  occ. eigenvalues --  -11.22534  -1.51914  -1.41865  -1.05908  -0.96470
 Alpha  occ. eigenvalues --   -0.85832  -0.83014  -0.71752  -0.68947  -0.65045
 Alpha  occ. eigenvalues --   -0.62817  -0.59080  -0.55100  -0.53963  -0.53718
 Alpha  occ. eigenvalues --   -0.50383  -0.49681  -0.43668  -0.41746
 Alpha virt. eigenvalues --    0.03712   0.04136   0.04518   0.04652   0.06254
 Alpha virt. eigenvalues --    0.06496   0.06770   0.07969   0.10323   0.12932
 Alpha virt. eigenvalues --    0.13240   0.13521   0.14782   0.15305   0.15518

 Mulliken charges:
               1
     1  C   -0.364325
     2  H    0.190676
     3  H    0.188772
     4  H    0.205442
     5  C    1.569946
     6  H    0.047247
     7  O   -1.411832
     8  O   -1.408976
     9  C    0.258034
    10  H    0.023804
    11  H    0.094572
    12  C    0.507794
    13  H    0.026871
    14  H    0.071974
 Sum of Mulliken charges =  -0.00000

 Dipole moment (field-independent basis, Debye):
    X=              1.1514    Y=             -0.2026    Z=              0.5827  Tot=              1.3062

 Test job not archived.
 1\1\GINC-SE052\SP\RHF\Aug-CC-pVDZ\C4H8O2\OHZDE\05-Apr-2025\0\\#t hf au
 g-cc-pvdz iop(5/13=1,5/36=2,99/5=2) pseudo=read geom=check guess=(read
 ,tcheck) scf=(maxcycle=1)\\title\\0,1\C,0,-2.091969,0.010752,-0.180597
 \H,0,-2.635094,-0.893942,0.090351\H,0,-2.624543,0.872125,0.220077\H,0,
 -2.045431,0.092193,-1.265498\C,0,-0.698672,-0.035879,0.388299\H,0,-0.7
 16959,-0.130269,1.485995\O,0,0.030683,1.138373,0.045279\O,0,0.034322,-
 1.115337,-0.1545\C,0,1.399093,-0.761458,0.034643\H,0,1.998042,-1.29131
 ,-0.702163\H,0,1.73093,-1.043846,1.039807\C,0,1.397982,0.765704,-0.146

 Normal termination of Gaussian 16 at Sat Apr  5 22:40:25 2025.
