 Gaussian 16, Revision C.01,

 ----------------------------------------------------------------------
 #t hf aug-cc-pvdz symm=none int=(grid=ultrafine) guess=(read,tcheck) s
 table=(opt,rrhf)
 ----------------------------------------------------------------------
 -----
 title
 -----
 Symbolic Z-matrix:
 Charge =  0 Multiplicity = 1

 SCF Done:  E(RHF) =  -156.129603611     A.U. after   12 cycles
 Normal termination of Gaussian 16 at Sat Apr  5 22:40:27 2025.
 Gaussian 16:  ES64L-G16RevC.01  3-Jul-2019

 ----------------------------------------------------------------------
 #t hf aug-cc-pvdz iop(5/13=1,5/36=2,99/5=2) pseudo=read geom=check gue
 ss=(read,tcheck) scf=(maxcycle=1)
 ----------------------------------------------------------------------
 -----
 title
 -----
 Structure from the checkpoint file:  "2-methyl-1-propene.chk"
 Charge =  0 Multiplicity = 1

                         Standard orientation:
 ---------------------------------------------------------------------
 Center     Atomic      Atomic             Coordinates (Angstroms)
 Number     Number       Type             X           Y           Z
 ---------------------------------------------------------------------
      1          6           0        0.000000   -0.000000    1.454540
      2          6           0        0.000000   -0.000000    0.123825
      3          6           0        0.000000    1.272551   -0.676777
      4          6           0       -0.000000   -1.272551   -0.676777
      5          1           0        0.000000   -0.922142    2.021334
      6          1           0        0.000000    0.922142    2.021334
      7          1           0        0.876282    1.321528   -1.329331
      8          1           0       -0.876282    1.321528   -1.329331
      9          1           0        0.000000    2.153807   -0.037106
     10          1           0       -0.876282   -1.321528   -1.329331
     11          1           0        0.876282   -1.321528   -1.329331
     12          1           0       -0.000000   -2.153807   -0.037106
 ---------------------------------------------------------------------

 SCF Done:  E(RHF) =  -156.304512260     A.U. after    2 cycles

 The electronic state is 1-A1.
 Alpha  occ. eigenvalues --  -11.24383 -11.22894 -11.22885 -11.21685  -1.09188
 Alpha  occ. eigenvalues --   -0.94451  -0.93072  -0.72587  -0.62922  -0.62078
 Alpha  occ. eigenvalues --   -0.59653  -0.54357  -0.52871  -0.52565  -0.48941
 Alpha  occ. eigenvalues --   -0.35493
 Alpha virt. eigenvalues --    0.03781   0.04316   0.04322   0.04955   0.06171
 Alpha virt. eigenvalues --    0.06727   0.08051   0.09811   0.11151   0.11273
 Alpha virt. eigenvalues --    0.15081   0.15164   0.15422   0.16550   0.17280

 Mulliken charges:
               1
     1  C    0.113000
     2  C    0.298785
     3  C   -0.591839
     4  C   -0.591839
     5  H   -0.140657
     6  H   -0.140657
     7  H    0.221212
     8  H    0.221212
     9  H    0.084180
    10  H    0.221212
    11  H    0.221212
    12  H    0.084180
 Sum of Mulliken charges =  -0.00000

 Dipole moment (field-independent basis, Debye):
    X=              0.0000    Y=              0.0000    Z=             -0.5787  Tot=              0.5787

 Test job not archived.
 1\1\GINC-SE151\SP\RHF\Aug-CC-pVDZ\C4H8\OHZDE\05-Apr-2025\0\\#t hf aug-
 cc-pvdz iop(5/13=1,5/36=2,99/5=2) pseudo=read geom=check guess=(read,t
 check) scf=(maxcycle=1)\\title\\0,1\C,0,0.,0.,1.45454\C,0,0.,0.,0.1238
 25\C,0,0.,1.272551,-0.676777\C,0,0.,-1.272551,-0.676777\H,0,0.,-0.9221
 42,2.021334\H,0,0.,0.922142,2.021334\H,0,0.876282,1.321528,-1.329331\H
 ,0,-0.876282,1.321528,-1.329331\H,0,0.,2.153807,-0.037106\H,0,-0.87628
 2,-1.321528,-1.329331\H,0,0.876282,-1.321528,-1.329331\H,0,0.,-2.15380
 7,-0.037106\\Version=ES64L-G16RevC.01\State=1-A1\HF=-156.3045123\RMSD=

 Normal termination of Gaussian 16 at Sat Apr  5 22:40:53 2025.
