 Gaussian 16, Revision C.01,

 ----------------------------------------------------------------------
 #t hf aug-cc-pvdz symm=none int=(grid=ultrafine) guess=(read,tcheck) s
 table=(opt,rrhf)
 ----------------------------------------------------------------------
 -----
 title
 -----
 Symbolic Z-matrix:
 Charge =  0 Multiplicity = 1

 SCF Done:  E(RHF) =  -286.090245833     A.U. after   13 cycles
 Normal termination of Gaussian 16 at Sat Apr  5 22:42:21 2025.
 Gaussian 16:  ES64L-G16RevC.01  3-Jul-2019

 ----------------------------------------------------------------------
 #t hf aug-cc-pvdz iop(5/13=1,5/36=2,99/5=2) pseudo=read geom=check gue
 ss=(read,tcheck) scf=(maxcycle=1)
 ----------------------------------------------------------------------
 -----
 title
 -----
 Structure from the checkpoint file:  "2-methylpropanamide.chk"
 Charge =  0 Multiplicity = 1

                         Standard orientation:
 ---------------------------------------------------------------------
 Center     Atomic      Atomic             Coordinates (Angstroms)
 Number     Number       Type             X           Y           Z
 ---------------------------------------------------------------------
      1          6           0        1.353431    1.270810    0.013760
      2          1           0        0.841398    2.180726   -0.302096
      3          1           0        1.417446    1.279075    1.101271
      4          1           0        2.364879    1.292140   -0.393745
      5          6           0        1.362786   -1.262502   -0.056829
      6          1           0        0.858541   -2.157090   -0.424699
      7          1           0        1.425064   -1.331889    1.028585
      8          6           0        0.615424    0.013505   -0.461515
      9          1           0        0.538032    0.043857   -1.552099
     10          7           0       -1.818851    0.026866   -0.759937
     11          1           0       -2.762329    0.014931   -0.411347
     12          1           0       -1.665858    0.059091   -1.750368
     13          6           0       -0.791440   -0.007396    0.135988
     14          8           0       -0.987670   -0.050347    1.337337
     15          1           0        2.374939   -1.252626   -0.463060
 ---------------------------------------------------------------------

 SCF Done:  E(RHF) =  -286.390810552     A.U. after    2 cycles

 The electronic state is 1-A.
 Alpha  occ. eigenvalues --  -20.50244 -15.52803 -11.35284 -11.25234 -11.23008
 Alpha  occ. eigenvalues --  -11.22982  -1.45216  -1.22156  -1.08406  -0.94047
 Alpha  occ. eigenvalues --   -0.88652  -0.80209  -0.74340  -0.69736  -0.61611
 Alpha  occ. eigenvalues --   -0.61248  -0.60969  -0.55514  -0.54193  -0.52931
 Alpha  occ. eigenvalues --   -0.49614  -0.49371  -0.43098  -0.41381
 Alpha virt. eigenvalues --    0.02610   0.03787   0.04301   0.04838   0.06073
 Alpha virt. eigenvalues --    0.06579   0.07466   0.07835   0.08065   0.11559
 Alpha virt. eigenvalues --    0.12772   0.13450   0.14224   0.15270   0.15336

 Mulliken charges:
               1
     1  C    0.052831
     2  H    0.134599
     3  H    0.245450
     4  H    0.142496
     5  C    0.049679
     6  H    0.134785
     7  H    0.244744
     8  C   -1.383747
     9  H    0.113570
    10  N    0.756608
    11  H    0.080251
    12  H    0.058836
    13  C    0.522587
    14  O   -1.295728
    15  H    0.143039
 Sum of Mulliken charges =  -0.00000

 Dipole moment (field-independent basis, Debye):
    X=              0.2299    Y=              0.1307    Z=             -3.7150  Tot=              3.7244

 Test job not archived.
 1\1\GINC-SE199\SP\RHF\Aug-CC-pVDZ\C4H9N1O1\OHZDE\05-Apr-2025\0\\#t hf
 aug-cc-pvdz iop(5/13=1,5/36=2,99/5=2) pseudo=read geom=check guess=(re
 ad,tcheck) scf=(maxcycle=1)\\title\\0,1\C,0,1.353431,1.27081,0.01376\H
 ,0,0.841398,2.180726,-0.302096\H,0,1.417446,1.279075,1.101271\H,0,2.36
 4879,1.29214,-0.393745\C,0,1.362786,-1.262502,-0.056829\H,0,0.858541,-
 2.15709,-0.424699\H,0,1.425064,-1.331889,1.028585\C,0,0.615424,0.01350
 5,-0.461515\H,0,0.538032,0.043857,-1.552099\N,0,-1.818851,0.026866,-0.
 759937\H,0,-2.762329,0.014931,-0.411347\H,0,-1.665858,0.059091,-1.7503

 Normal termination of Gaussian 16 at Sat Apr  5 22:43:17 2025.
