 Gaussian 16, Revision C.01,

 ----------------------------------------------------------------------
 #t hf aug-cc-pvdz symm=none int=(grid=ultrafine) guess=(read,tcheck) s
 table=(opt,rrhf)
 ----------------------------------------------------------------------
 -----
 title
 -----
 Symbolic Z-matrix:
 Charge =  0 Multiplicity = 1

 SCF Done:  E(RHF) =  -248.165532626     A.U. after   12 cycles
 Normal termination of Gaussian 16 at Sat Apr  5 22:40:01 2025.
 Gaussian 16:  ES64L-G16RevC.01  3-Jul-2019

 ----------------------------------------------------------------------
 #t hf aug-cc-pvdz iop(5/13=1,5/36=2,99/5=2) pseudo=read geom=check gue
 ss=(read,tcheck) scf=(maxcycle=1)
 ----------------------------------------------------------------------
 -----
 title
 -----
 Structure from the checkpoint file:  "2-methoxyethanamine.chk"
 Charge =  0 Multiplicity = 1

                         Standard orientation:
 ---------------------------------------------------------------------
 Center     Atomic      Atomic             Coordinates (Angstroms)
 Number     Number       Type             X           Y           Z
 ---------------------------------------------------------------------
      1          6           0        2.394338   -0.198378    0.010397
      2          6           0       -1.213963    0.512011   -0.011820
      3          6           0        0.040704   -0.342423    0.060690
      4          7           0       -2.400419   -0.343513    0.068122
      5          8           0        1.170345    0.499841   -0.068361
      6          1           0        3.193257    0.531998   -0.100922
      7          1           0        2.481000   -0.946782   -0.786913
      8          1           0        2.505379   -0.705551    0.976378
      9          1           0       -1.223477    1.192544    0.840371
     10          1           0       -1.165713    1.129196   -0.917074
     11          1           0        0.034198   -1.091761   -0.745001
     12          1           0        0.066402   -0.885403    1.013302
     13          1           0       -2.543778   -0.851532   -0.796036
     14          1           0       -3.233572    0.205897    0.230329
 ---------------------------------------------------------------------

 SCF Done:  E(RHF) =  -248.431960424     A.U. after    2 cycles

 The electronic state is 1-A.
 Alpha  occ. eigenvalues --  -20.54040 -15.48548 -11.27855 -11.27622 -11.25358
 Alpha  occ. eigenvalues --   -1.45757  -1.17940  -1.00065  -0.90634  -0.83067
 Alpha  occ. eigenvalues --   -0.70288  -0.67535  -0.65926  -0.62794  -0.60714
 Alpha  occ. eigenvalues --   -0.58095  -0.53051  -0.50783  -0.47595  -0.42794
 Alpha  occ. eigenvalues --   -0.41437
 Alpha virt. eigenvalues --    0.03586   0.04074   0.04782   0.05009   0.06523
 Alpha virt. eigenvalues --    0.06643   0.07001   0.08250   0.09308   0.11384
 Alpha virt. eigenvalues --    0.11943   0.14438   0.15501   0.15998   0.16425

 Mulliken charges:
               1
     1  C    0.154040
     2  C   -0.603558
     3  C    0.513270
     4  N    0.146232
     5  O   -1.269370
     6  H   -0.023633
     7  H    0.182732
     8  H    0.174673
     9  H    0.077279
    10  H    0.113440
    11  H    0.115681
    12  H    0.151883
    13  H    0.131775
    14  H    0.135556
 Sum of Mulliken charges =  -0.00000

 Dipole moment (field-independent basis, Debye):
    X=             -0.1539    Y=             -0.3437    Z=             -0.8199  Tot=              0.9022

 Test job not archived.
 1\1\GINC-SE047\SP\RHF\Aug-CC-pVDZ\C3H9N1O1\OHZDE\05-Apr-2025\0\\#t hf
 aug-cc-pvdz iop(5/13=1,5/36=2,99/5=2) pseudo=read geom=check guess=(re
 ad,tcheck) scf=(maxcycle=1)\\title\\0,1\C,0,2.394338,-0.198378,0.01039
 7\C,0,-1.213963,0.512011,-0.01182\C,0,0.040704,-0.342423,0.06069\N,0,-
 2.400419,-0.343513,0.068122\O,0,1.170345,0.499841,-0.068361\H,0,3.1932
 57,0.531998,-0.100922\H,0,2.481,-0.946782,-0.786913\H,0,2.505379,-0.70
 5551,0.976378\H,0,-1.223477,1.192544,0.840371\H,0,-1.165713,1.129196,-
 0.917074\H,0,0.034198,-1.091761,-0.745001\H,0,0.066402,-0.885403,1.013

 Normal termination of Gaussian 16 at Sat Apr  5 22:40:24 2025.
