 Gaussian 16, Revision C.01,

 ----------------------------------------------------------------------
 #t hf aug-cc-pvdz symm=none int=(grid=ultrafine) guess=(read,tcheck) s
 table=(opt,rrhf)
 ----------------------------------------------------------------------
 -----
 title
 -----
 Symbolic Z-matrix:
 Charge =  0 Multiplicity = 1

 SCF Done:  E(RHF) =  -399.665034215     A.U. after   16 cycles
 Normal termination of Gaussian 16 at Sat Apr  5 22:41:12 2025.
 Gaussian 16:  ES64L-G16RevC.01  3-Jul-2019

 ----------------------------------------------------------------------
 #t hf aug-cc-pvdz iop(5/13=1,5/36=2,99/5=2) pseudo=read geom=check gue
 ss=(read,tcheck) scf=(maxcycle=1)
 ----------------------------------------------------------------------
 -----
 title
 -----
 Structure from the checkpoint file:  "2-methoxyaniline.chk"
 Charge =  0 Multiplicity = 1

                         Standard orientation:
 ---------------------------------------------------------------------
 Center     Atomic      Atomic             Coordinates (Angstroms)
 Number     Number       Type             X           Y           Z
 ---------------------------------------------------------------------
      1          6           0       -2.271210   -0.667396    0.006455
      2          6           0       -1.340708   -1.693820    0.003564
      3          6           0       -1.847275    0.658049   -0.000251
      4          6           0        0.022067   -1.392654   -0.001131
      5          6           0       -0.492758    0.980526   -0.008667
      6          6           0        0.445302   -0.071805   -0.005646
      7          6           0        2.767671   -0.660845    0.004342
      8          7           0       -0.043263    2.295390   -0.074695
      9          8           0        1.756422    0.332204    0.000731
     10          1           0       -3.329530   -0.889156    0.012129
     11          1           0       -1.659536   -2.726611    0.006451
     12          1           0       -2.575105    1.460127   -0.006553
     13          1           0        0.743830   -2.195462    0.001739
     14          1           0        2.710088   -1.289626   -0.887662
     15          1           0        2.704278   -1.291535    0.894876
     16          1           0        3.714636   -0.127595    0.007528
     17          1           0       -0.670523    2.990656    0.293401
     18          1           0        0.914787    2.431518    0.203116
 ---------------------------------------------------------------------

 SCF Done:  E(RHF) =  -400.078714740     A.U. after    2 cycles

 The electronic state is 1-A.
 Alpha  occ. eigenvalues --  -20.57052 -15.49917 -11.29499 -11.29326 -11.27495
 Alpha  occ. eigenvalues --  -11.23596 -11.23122 -11.22914 -11.22787  -1.49427
 Alpha  occ. eigenvalues --   -1.21716  -1.12828  -1.01557  -0.99851  -0.94503
 Alpha  occ. eigenvalues --   -0.83899  -0.81991  -0.73646  -0.72235  -0.69294
 Alpha  occ. eigenvalues --   -0.65789  -0.64502  -0.63340  -0.61303  -0.58732
 Alpha  occ. eigenvalues --   -0.55893  -0.54248  -0.51286  -0.49461  -0.48823
 Alpha  occ. eigenvalues --   -0.46031  -0.33308  -0.29568
 Alpha virt. eigenvalues --    0.03377   0.03619   0.03962   0.04738   0.05335
 Alpha virt. eigenvalues --    0.05486   0.07386   0.08168   0.09242   0.10956
 Alpha virt. eigenvalues --    0.11406   0.12583   0.12905   0.13145   0.13832

 Mulliken charges:
               1
     1  C   -0.055350
     2  C    0.361617
     3  C    1.189255
     4  C   -0.012308
     5  C   -2.314202
     6  C    2.795967
     7  C    0.104490
     8  N    0.846018
     9  O   -2.040172
    10  H   -0.236214
    11  H   -0.237782
    12  H   -0.308755
    13  H   -0.457462
    14  H    0.161923
    15  H    0.162468
    16  H   -0.054927
    17  H    0.049593
    18  H    0.045840
 Sum of Mulliken charges =  -0.00000

 Dipole moment (field-independent basis, Debye):
    X=              1.0815    Y=             -0.2834    Z=              0.9572  Tot=              1.4718

 Test job not archived.
 1\1\GINC-SE042\SP\RHF\Aug-CC-pVDZ\C7H9N1O1\OHZDE\05-Apr-2025\0\\#t hf
 aug-cc-pvdz iop(5/13=1,5/36=2,99/5=2) pseudo=read geom=check guess=(re
 ad,tcheck) scf=(maxcycle=1)\\title\\0,1\C,0,-2.27121,-0.667396,0.00645
 5\C,0,-1.340708,-1.69382,0.003564\C,0,-1.847275,0.658049,-0.000251\C,0
 ,0.022067,-1.392654,-0.001131\C,0,-0.492758,0.980526,-0.008667\C,0,0.4
 45302,-0.071805,-0.005646\C,0,2.767671,-0.660845,0.004342\N,0,-0.04326
 3,2.29539,-0.074695\O,0,1.756422,0.332204,0.000731\H,0,-3.32953,-0.889
 156,0.012129\H,0,-1.659536,-2.726611,0.006451\H,0,-2.575105,1.460127,-

 Normal termination of Gaussian 16 at Sat Apr  5 22:41:36 2025.
