 Gaussian 16, Revision C.01,

 ----------------------------------------------------------------------
 #t hf aug-cc-pvdz symm=none int=(grid=ultrafine) guess=(read,tcheck) s
 table=(opt,rrhf)
 ----------------------------------------------------------------------
 -----
 title
 -----
 Symbolic Z-matrix:
 Charge =  0 Multiplicity = 1

 SCF Done:  E(RHF) =  -267.995601340     A.U. after   12 cycles
 Normal termination of Gaussian 16 at Sat Apr  5 22:40:00 2025.
 Gaussian 16:  ES64L-G16RevC.01  3-Jul-2019

 ----------------------------------------------------------------------
 #t hf aug-cc-pvdz iop(5/13=1,5/36=2,99/5=2) pseudo=read geom=check gue
 ss=(read,tcheck) scf=(maxcycle=1)
 ----------------------------------------------------------------------
 -----
 title
 -----
 Structure from the checkpoint file:  "2-methoxyethanol.chk"
 Charge =  0 Multiplicity = 1

                         Standard orientation:
 ---------------------------------------------------------------------
 Center     Atomic      Atomic             Coordinates (Angstroms)
 Number     Number       Type             X           Y           Z
 ---------------------------------------------------------------------
      1          6           0       -2.240901   -0.228900    0.078947
      2          6           0        1.357635    0.506201   -0.241163
      3          6           0       -0.057727    0.632576    0.286522
      4          8           0        1.985166   -0.733246    0.058970
      5          8           0       -0.911332   -0.260311   -0.393888
      6          1           0       -2.296798   -0.511289    1.137407
      7          1           0       -2.810353   -0.945359   -0.509172
      8          1           0       -2.687110    0.766333   -0.039775
      9          1           0        1.946368    1.347748    0.143838
     10          1           0        1.344535    0.574466   -1.328580
     11          1           0       -0.397375    1.669916    0.147193
     12          1           0       -0.075546    0.427374    1.368715
     13          1           0        2.031563   -0.840001    1.013883
 ---------------------------------------------------------------------

 SCF Done:  E(RHF) =  -268.276480540     A.U. after    2 cycles

 The electronic state is 1-A.
 Alpha  occ. eigenvalues --  -20.54516 -20.54487 -11.28835 -11.28483 -11.28255
 Alpha  occ. eigenvalues --   -1.46608  -1.44087  -1.02355  -0.92030  -0.84385
 Alpha  occ. eigenvalues --   -0.69524  -0.68009  -0.66278  -0.63052  -0.60558
 Alpha  occ. eigenvalues --   -0.56708  -0.54048  -0.50788  -0.47532  -0.44073
 Alpha  occ. eigenvalues --   -0.41995
 Alpha virt. eigenvalues --    0.03446   0.04016   0.04163   0.05076   0.06521
 Alpha virt. eigenvalues --    0.06749   0.07190   0.08267   0.12301   0.12572
 Alpha virt. eigenvalues --    0.14134   0.15247   0.15613   0.15912   0.16481

 Mulliken charges:
               1
     1  C    0.182387
     2  C    0.626919
     3  C    0.495118
     4  O   -1.106673
     5  O   -1.224096
     6  H    0.171893
     7  H   -0.027066
     8  H    0.179231
     9  H    0.128252
    10  H    0.076585
    11  H    0.124682
    12  H    0.085563
    13  H    0.287205
 Sum of Mulliken charges =   0.00000

 Dipole moment (field-independent basis, Debye):
    X=             -1.1145    Y=              1.8517    Z=              2.0311  Tot=              2.9658

 Test job not archived.
 1\1\GINC-SE084\SP\RHF\Aug-CC-pVDZ\C3H8O2\OHZDE\05-Apr-2025\0\\#t hf au
 g-cc-pvdz iop(5/13=1,5/36=2,99/5=2) pseudo=read geom=check guess=(read
 ,tcheck) scf=(maxcycle=1)\\title\\0,1\C,0,-2.240901,-0.2289,0.078947\C
 ,0,1.357635,0.506201,-0.241163\C,0,-0.057727,0.632576,0.286522\O,0,1.9
 85166,-0.733246,0.05897\O,0,-0.911332,-0.260311,-0.393888\H,0,-2.29679
 8,-0.511289,1.137407\H,0,-2.810353,-0.945359,-0.509172\H,0,-2.68711,0.
 766333,-0.039775\H,0,1.946368,1.347748,0.143838\H,0,1.344535,0.574466,
 -1.32858\H,0,-0.397375,1.669916,0.147193\H,0,-0.075546,0.427374,1.3687

 Normal termination of Gaussian 16 at Sat Apr  5 22:40:17 2025.
