 Gaussian 16, Revision C.01,

 ----------------------------------------------------------------------
 #t hf aug-cc-pvdz symm=none int=(grid=ultrafine) guess=(read,tcheck) s
 table=(opt,rrhf)
 ----------------------------------------------------------------------
 -----
 title
 -----
 Symbolic Z-matrix:
 Charge =  0 Multiplicity = 1

 SCF Done:  E(RHF) =  -230.982407330     A.U. after   13 cycles
 Normal termination of Gaussian 16 at Sat Apr  5 22:39:23 2025.
 Gaussian 16:  ES64L-G16RevC.01  3-Jul-2019

 ----------------------------------------------------------------------
 #t hf aug-cc-pvdz iop(5/13=1,5/36=2,99/5=2) pseudo=read geom=check gue
 ss=(read,tcheck) scf=(maxcycle=1)
 ----------------------------------------------------------------------
 -----
 title
 -----
 Structure from the checkpoint file:  "2-methoxy-1-propene.chk"
 Charge =  0 Multiplicity = 1

                         Standard orientation:
 ---------------------------------------------------------------------
 Center     Atomic      Atomic             Coordinates (Angstroms)
 Number     Number       Type             X           Y           Z
 ---------------------------------------------------------------------
      1          6           0        1.837929   -0.075225    0.168133
      2          1           0        1.826268    0.039396    1.255725
      3          1           0        2.650139   -0.742755   -0.108297
      4          1           0        2.008448    0.898348   -0.296127
      5          8           0        0.647190   -0.693975   -0.300207
      6          6           0       -0.598702    1.412224   -0.036759
      7          1           0       -0.014163    1.839066    0.780446
      8          1           0       -0.198576    1.814610   -0.970439
      9          1           0       -1.625342    1.752574    0.072846
     10          6           0       -0.558029   -0.087441   -0.037725
     11          6           0       -1.627694   -0.863197    0.124504
     12          1           0       -2.606952   -0.428216    0.248327
     13          1           0       -1.538361   -1.939393    0.110257
 ---------------------------------------------------------------------

 SCF Done:  E(RHF) =  -231.228103786     A.U. after    2 cycles

 The electronic state is 1-A.
 Alpha  occ. eigenvalues --  -20.55868 -11.29816 -11.29028 -11.24018 -11.20993
 Alpha  occ. eigenvalues --   -1.48121  -1.06460  -0.96863  -0.92104  -0.75618
 Alpha  occ. eigenvalues --   -0.67074  -0.66068  -0.64871  -0.58413  -0.56972
 Alpha  occ. eigenvalues --   -0.56546  -0.53791  -0.49813  -0.46395  -0.33752
 Alpha virt. eigenvalues --    0.03509   0.04077   0.04502   0.04803   0.06209
 Alpha virt. eigenvalues --    0.06468   0.07386   0.09243   0.10808   0.11390
 Alpha virt. eigenvalues --    0.13642   0.14697   0.15058   0.16085   0.16396

 Mulliken charges:
               1
     1  C    0.172251
     2  H    0.128250
     3  H   -0.043790
     4  H    0.178435
     5  O   -1.564458
     6  C   -0.650357
     7  H    0.269607
     8  H    0.256052
     9  H    0.039107
    10  C    1.295991
    11  C    0.154582
    12  H   -0.099640
    13  H   -0.136031
 Sum of Mulliken charges =   0.00000

 Dipole moment (field-independent basis, Debye):
    X=              0.8991    Y=              1.6664    Z=              0.5315  Tot=              1.9667

 Test job not archived.
 1\1\GINC-SE151\SP\RHF\Aug-CC-pVDZ\C4H8O1\OHZDE\05-Apr-2025\0\\#t hf au
 g-cc-pvdz iop(5/13=1,5/36=2,99/5=2) pseudo=read geom=check guess=(read
 ,tcheck) scf=(maxcycle=1)\\title\\0,1\C,0,1.837929,-0.075225,0.168133\
 H,0,1.826268,0.039396,1.255725\H,0,2.650139,-0.742755,-0.108297\H,0,2.
 008448,0.898348,-0.296127\O,0,0.64719,-0.693975,-0.300207\C,0,-0.59870
 2,1.412224,-0.036759\H,0,-0.014163,1.839066,0.780446\H,0,-0.198576,1.8
 1461,-0.970439\H,0,-1.625342,1.752574,0.072846\C,0,-0.558029,-0.087441
 ,-0.037725\C,0,-1.627694,-0.863197,0.124504\H,0,-2.606952,-0.428216,0.

 Normal termination of Gaussian 16 at Sat Apr  5 22:39:48 2025.
