 Gaussian 16, Revision C.01,

 ----------------------------------------------------------------------
 #t hf aug-cc-pvdz symm=none int=(grid=ultrafine) guess=(read,tcheck) s
 table=(opt,rrhf)
 ----------------------------------------------------------------------
 -----
 title
 -----
 Symbolic Z-matrix:
 Charge =  0 Multiplicity = 1

 SCF Done:  E(RHF) =  -267.701478487     A.U. after   14 cycles
 Normal termination of Gaussian 16 at Sat Apr  5 22:40:32 2025.
 Gaussian 16:  ES64L-G16RevC.01  3-Jul-2019

 ----------------------------------------------------------------------
 #t hf aug-cc-pvdz iop(5/13=1,5/36=2,99/5=2) pseudo=read geom=check gue
 ss=(read,tcheck) scf=(maxcycle=1)
 ----------------------------------------------------------------------
 -----
 title
 -----
 Structure from the checkpoint file:  "2-methylfuran.chk"
 Charge =  0 Multiplicity = 1

                         Standard orientation:
 ---------------------------------------------------------------------
 Center     Atomic      Atomic             Coordinates (Angstroms)
 Number     Number       Type             X           Y           Z
 ---------------------------------------------------------------------
      1          8           0        1.035246   -0.245795    0.000000
      2          6           0        0.000000    0.646987    0.000000
      3          6           0        0.492364   -1.497390    0.000000
      4          6           0       -1.179136   -0.026476    0.000000
      5          6           0       -0.858244   -1.422573    0.000000
      6          6           0        0.358496    2.086650    0.000000
      7          1           0        1.190884   -2.314077    0.000000
      8          1           0       -2.160525    0.415739    0.000000
      9          1           0       -1.544479   -2.251632    0.000000
     10          1           0       -0.545250    2.693073    0.000000
     11          1           0        0.948262    2.350033    0.880725
     12          1           0        0.948262    2.350033   -0.880725
 ---------------------------------------------------------------------

 SCF Done:  E(RHF) =  -267.978253324     A.U. after    2 cycles

 The electronic state is 1-A'.
 Alpha  occ. eigenvalues --  -20.60087 -11.29567 -11.28790 -11.24386 -11.23277
 Alpha  occ. eigenvalues --  -11.22743  -1.53651  -1.08954  -1.04938  -0.93520
 Alpha  occ. eigenvalues --   -0.81015  -0.76783  -0.71765  -0.64046  -0.61355
 Alpha  occ. eigenvalues --   -0.57732  -0.56619  -0.56604  -0.55590  -0.53154
 Alpha  occ. eigenvalues --   -0.39662  -0.31665
 Alpha virt. eigenvalues --    0.03672   0.03765   0.04154   0.05408   0.05744
 Alpha virt. eigenvalues --    0.06653   0.10345   0.11071   0.11908   0.12549
 Alpha virt. eigenvalues --    0.13375   0.13958   0.14595   0.15192   0.16012

 Mulliken charges:
               1
     1  O   -1.538248
     2  C    0.880292
     3  C    0.806778
     4  C    0.276291
     5  C    0.233158
     6  C   -0.796726
     7  H   -0.155350
     8  H   -0.182163
     9  H   -0.136287
    10  H    0.169567
    11  H    0.221344
    12  H    0.221344
 Sum of Mulliken charges =   0.00000

 Dipole moment (field-independent basis, Debye):
    X=             -0.5084    Y=              0.4184    Z=              0.0000  Tot=              0.6584

 Test job not archived.
 1\1\GINC-SE145\SP\RHF\Aug-CC-pVDZ\C5H6O1\OHZDE\05-Apr-2025\0\\#t hf au
 g-cc-pvdz iop(5/13=1,5/36=2,99/5=2) pseudo=read geom=check guess=(read
 ,tcheck) scf=(maxcycle=1)\\title\\0,1\O,0,1.035246,-0.245795,0.\C,0,0.
 ,0.646987,0.\C,0,0.492364,-1.49739,0.\C,0,-1.179136,-0.026476,0.\C,0,-
 0.858244,-1.422573,0.\C,0,0.358496,2.08665,0.\H,0,1.190884,-2.314077,0
 .\H,0,-2.160525,0.415739,0.\H,0,-1.544479,-2.251632,0.\H,0,-0.54525,2.
 693073,0.\H,0,0.948262,2.350033,0.880725\H,0,0.948262,2.350033,-0.8807
 25\\Version=ES64L-G16RevC.01\State=1-A'\HF=-267.9782533\RMSD=2.415e-02

 Normal termination of Gaussian 16 at Sat Apr  5 22:40:55 2025.
