 Gaussian 16, Revision C.01,

 ----------------------------------------------------------------------
 #t hf aug-cc-pvdz symm=none int=(grid=ultrafine) guess=(read,tcheck) s
 table=(opt,rrhf)
 ----------------------------------------------------------------------
 -----
 title
 -----
 Symbolic Z-matrix:
 Charge =  0 Multiplicity = 1

 SCF Done:  E(RHF) =  -593.883462026     A.U. after   12 cycles

 1\1\GINC-SE009\Stability\RHF\Aug-CC-pVDZ\C5H12S1\OHZDE\05-Apr-2025\0\\
 #t hf aug-cc-pvdz symm=none int=(grid=ultrafine) guess=(read,tcheck) s
 table=(opt,rrhf)\\title\\0,1\C,0,0.033256,1.911012,-0.006826\H,0,-0.98
 6044,2.108323,-0.337943\H,0,0.093132,2.170909,1.052977\H,0,0.697112,2.
 582639,-0.552731\S,0,-2.221681,-0.406315,-0.170182\H,0,-2.696542,-1.50
 7291,0.437978\C,0,-0.500845,-0.518317,0.493893\H,0,-0.520646,-0.291581
 ,1.560399\H,0,-0.169368,-1.544432,0.361547\C,0,0.437737,0.451031,-0.23
 1891\H,0,0.370711,0.237349,-1.303989\C,0,2.508461,-1.112816,-0.216529\

 Normal termination of Gaussian 16 at Sat Apr  5 22:42:22 2025.
 Gaussian 16:  ES64L-G16RevC.01  3-Jul-2019

 ----------------------------------------------------------------------
 #t hf aug-cc-pvdz iop(5/13=1,5/36=2,99/5=2) pseudo=read geom=check gue
 ss=(read,tcheck) scf=(maxcycle=1)
 ----------------------------------------------------------------------
 -----
 title
 -----
 Structure from the checkpoint file:  "2-methyl-1-butanethiol.chk"
 Charge =  0 Multiplicity = 1

                         Standard orientation:
 ---------------------------------------------------------------------
 Center     Atomic      Atomic             Coordinates (Angstroms)
 Number     Number       Type             X           Y           Z
 ---------------------------------------------------------------------
      1          6           0        0.033256    1.911012   -0.006826
      2          1           0       -0.986044    2.108323   -0.337943
      3          1           0        0.093132    2.170909    1.052977
      4          1           0        0.697112    2.582639   -0.552731
      5         16           0       -2.221681   -0.406315   -0.170182
      6          1           0       -2.696542   -1.507291    0.437978
      7          6           0       -0.500845   -0.518317    0.493893
      8          1           0       -0.520646   -0.291581    1.560399
      9          1           0       -0.169368   -1.544432    0.361547
     10          6           0        0.437737    0.451031   -0.231891
     11          1           0        0.370711    0.237349   -1.303989
     12          6           0        2.508461   -1.112816   -0.216529
     13          1           0        3.564281   -1.156476    0.053666
     14          1           0        2.018303   -1.959968    0.264207
     15          1           0        2.437887   -1.258057   -1.296481
     16          6           0        1.899038    0.226212    0.199414
     17          1           0        2.499117    1.032331   -0.230492
     18          1           0        1.973065    0.344573    1.285406
 ---------------------------------------------------------------------

 SCF Done:  E(RHF) =  -594.164696778     A.U. after    2 cycles

 The electronic state is 1-A.
 Alpha  occ. eigenvalues --  -93.94268 -11.26610 -11.24198 -11.23244 -11.22703
 Alpha  occ. eigenvalues --  -11.22316  -8.22330  -6.20184  -6.20041  -6.19815
 Alpha  occ. eigenvalues --   -1.11649  -1.03453  -0.98556  -0.90048  -0.85338
 Alpha  occ. eigenvalues --   -0.77459  -0.64938  -0.63018  -0.61724  -0.58376
 Alpha  occ. eigenvalues --   -0.56405  -0.54771  -0.52528  -0.51157  -0.48575
 Alpha  occ. eigenvalues --   -0.47730  -0.46905  -0.44407  -0.35901
 Alpha virt. eigenvalues --    0.03429   0.03534   0.03842   0.04309   0.05997
 Alpha virt. eigenvalues --    0.06299   0.06412   0.06816   0.07295   0.08927
 Alpha virt. eigenvalues --    0.09615   0.09767   0.11820   0.13584   0.13960

 Mulliken charges:
               1
     1  C   -0.192256
     2  H    0.145774
     3  H    0.232508
     4  H    0.150544
     5  S    0.018879
     6  H    0.294603
     7  C   -0.352694
     8  H    0.146519
     9  H    0.091681
    10  C   -0.933208
    11  H    0.133458
    12  C   -0.325487
    13  H    0.116818
    14  H    0.153414
    15  H    0.165920
    16  C   -0.106724
    17  H    0.122000
    18  H    0.138250
 Sum of Mulliken charges =  -0.00000

 Dipole moment (field-independent basis, Debye):
    X=              1.5571    Y=             -0.6125    Z=              0.8459  Tot=              1.8749

 Test job not archived.
 1\1\GINC-SE009\SP\RHF\Aug-CC-pVDZ\C5H12S1\OHZDE\05-Apr-2025\0\\#t hf a
 ug-cc-pvdz iop(5/13=1,5/36=2,99/5=2) pseudo=read geom=check guess=(rea
 d,tcheck) scf=(maxcycle=1)\\title\\0,1\C,0,0.033256,1.911012,-0.006826
 \H,0,-0.986044,2.108323,-0.337943\H,0,0.093132,2.170909,1.052977\H,0,0
 .697112,2.582639,-0.552731\S,0,-2.221681,-0.406315,-0.170182\H,0,-2.69
 6542,-1.507291,0.437978\C,0,-0.500845,-0.518317,0.493893\H,0,-0.520646
 ,-0.291581,1.560399\H,0,-0.169368,-1.544432,0.361547\C,0,0.437737,0.45
 1031,-0.231891\H,0,0.370711,0.237349,-1.303989\C,0,2.508461,-1.112816,

 Normal termination of Gaussian 16 at Sat Apr  5 22:43:20 2025.
