 Gaussian 16, Revision C.01,

 ----------------------------------------------------------------------
 #t hf aug-cc-pvdz symm=none int=(grid=ultrafine) guess=(read,tcheck) s
 table=(opt,rrhf)
 ----------------------------------------------------------------------
 -----
 title
 -----
 Symbolic Z-matrix:
 Charge =  0 Multiplicity = 1

 SCF Done:  E(RHF) =  -263.894898459     A.U. after   14 cycles
 Normal termination of Gaussian 16 at Sat Apr  5 22:40:34 2025.
 Gaussian 16:  ES64L-G16RevC.01  3-Jul-2019

 ----------------------------------------------------------------------
 #t hf aug-cc-pvdz iop(5/13=1,5/36=2,99/5=2) pseudo=read geom=check gue
 ss=(read,tcheck) scf=(maxcycle=1)
 ----------------------------------------------------------------------
 -----
 title
 -----
 Structure from the checkpoint file:  "2-methyl-1H-imidazole.chk"
 Charge =  0 Multiplicity = 1

                         Standard orientation:
 ---------------------------------------------------------------------
 Center     Atomic      Atomic             Coordinates (Angstroms)
 Number     Number       Type             X           Y           Z
 ---------------------------------------------------------------------
      1          6           0       -0.211213    2.098944    0.000000
      2          1           0       -0.763664    2.429115    0.882489
      3          1           0        0.758858    2.588726    0.000000
      4          1           0       -0.763664    2.429115   -0.882489
      5          7           0       -1.022980   -0.282177    0.000000
      6          1           0       -2.004898   -0.069530    0.000000
      7          6           0        0.000000    0.624449    0.000000
      8          7           0        1.160665    0.009381    0.000000
      9          6           0        0.880939   -1.338149    0.000000
     10          1           0        1.664738   -2.075911    0.000000
     11          6           0       -0.467672   -1.544500    0.000000
     12          1           0       -1.067486   -2.436412    0.000000
 ---------------------------------------------------------------------

 SCF Done:  E(RHF) =  -264.170117274     A.U. after    2 cycles

 The electronic state is 1-A'.
 Alpha  occ. eigenvalues --  -15.55252 -15.47481 -11.30066 -11.26028 -11.24622
 Alpha  occ. eigenvalues --  -11.24293  -1.33419  -1.16737  -1.05157  -0.95655
 Alpha  occ. eigenvalues --   -0.84745  -0.82635  -0.73832  -0.64170  -0.63402
 Alpha  occ. eigenvalues --   -0.61869  -0.57779  -0.56814  -0.55798  -0.47228
 Alpha  occ. eigenvalues --   -0.43633  -0.32545
 Alpha virt. eigenvalues --    0.02802   0.04105   0.04614   0.05123   0.05356
 Alpha virt. eigenvalues --    0.06952   0.08890   0.10594   0.12336   0.12365
 Alpha virt. eigenvalues --    0.12927   0.14259   0.14675   0.15786   0.15810

 Mulliken charges:
               1
     1  C   -0.021021
     2  H    0.209730
     3  H    0.191268
     4  H    0.209730
     5  N    0.639044
     6  H    0.001033
     7  C   -1.482621
     8  N    0.805034
     9  C   -0.279528
    10  H   -0.138950
    11  C    0.056170
    12  H   -0.189887
 Sum of Mulliken charges =  -0.00000

 Dipole moment (field-independent basis, Debye):
    X=             -3.7762    Y=              0.3214    Z=             -0.0000  Tot=              3.7899

 Test job not archived.
 1\1\GINC-SE164\SP\RHF\Aug-CC-pVDZ\C4H6N2\OHZDE\05-Apr-2025\0\\#t hf au
 g-cc-pvdz iop(5/13=1,5/36=2,99/5=2) pseudo=read geom=check guess=(read
 ,tcheck) scf=(maxcycle=1)\\title\\0,1\C,0,-0.211213,2.098944,0.\H,0,-0
 .763664,2.429115,0.882489\H,0,0.758858,2.588726,0.\H,0,-0.763664,2.429
 115,-0.882489\N,0,-1.02298,-0.282177,0.\H,0,-2.004898,-0.06953,0.\C,0,
 0.,0.624449,0.\N,0,1.160665,0.009381,0.\C,0,0.880939,-1.338149,0.\H,0,
 1.664738,-2.075911,0.\C,0,-0.467672,-1.5445,0.\H,0,-1.067486,-2.436412
 ,0.\\Version=ES64L-G16RevC.01\State=1-A'\HF=-264.1701173\RMSD=3.191e-0

 Normal termination of Gaussian 16 at Sat Apr  5 22:40:55 2025.
