 Gaussian 16, Revision C.01,

 ----------------------------------------------------------------------
 #t hf aug-cc-pvdz symm=none int=(grid=ultrafine) guess=(read,tcheck) s
 table=(opt,rrhf)
 ----------------------------------------------------------------------
 -----
 title
 -----
 Symbolic Z-matrix:
 Charge =  0 Multiplicity = 1

 SCF Done:  E(RHF) =  -704.516524495     A.U. after   13 cycles
 Normal termination of Gaussian 16 at Sat Apr  5 22:41:07 2025.
 Gaussian 16:  ES64L-G16RevC.01  3-Jul-2019

 ----------------------------------------------------------------------
 #t hf aug-cc-pvdz iop(5/13=1,5/36=2,99/5=2) pseudo=read geom=check gue
 ss=(read,tcheck) scf=(maxcycle=1)
 ----------------------------------------------------------------------
 -----
 title
 -----
 Structure from the checkpoint file:  "2-methylsulphonylpropane.chk"
 Charge =  0 Multiplicity = 1

                         Standard orientation:
 ---------------------------------------------------------------------
 Center     Atomic      Atomic             Coordinates (Angstroms)
 Number     Number       Type             X           Y           Z
 ---------------------------------------------------------------------
      1          6           0        1.914502   -1.078827   -0.104407
      2          6           0        1.061527    0.128342   -0.489304
      3          6           0        1.601028    1.440504    0.068529
      4         16           0       -0.649449   -0.198934    0.095737
      5          6           0       -1.646361    1.149605   -0.566671
      6          8           0       -1.109835   -1.428241   -0.547411
      7          8           0       -0.671628   -0.094970    1.553917
      8          1           0        1.500968   -2.001807   -0.504676
      9          1           0        2.919668   -0.945748   -0.505540
     10          1           0        1.988659   -1.170348    0.978888
     11          1           0        0.955561    0.177066   -1.574814
     12          1           0        2.625980    1.581977   -0.276903
     13          1           0        1.023347    2.303886   -0.259803
     14          1           0        1.607003    1.421611    1.157570
     15          1           0       -1.554403    1.165976   -1.649467
     16          1           0       -2.667243    0.908254   -0.279320
     17          1           0       -1.340835    2.090018   -0.118649
 ---------------------------------------------------------------------

 SCF Done:  E(RHF) =  -704.904077419     A.U. after    2 cycles

 The electronic state is 1-A.
 Alpha  occ. eigenvalues --  -94.17756 -20.52546 -20.52472 -11.29388 -11.28608
 Alpha  occ. eigenvalues --  -11.25499 -11.24548  -8.43156  -6.41250  -6.41042
 Alpha  occ. eigenvalues --   -6.40980  -1.53565  -1.41858  -1.12264  -1.05000
 Alpha  occ. eigenvalues --   -0.96381  -0.90221  -0.79388  -0.70515  -0.66895
 Alpha  occ. eigenvalues --   -0.66208  -0.64740  -0.61425  -0.60064  -0.59322
 Alpha  occ. eigenvalues --   -0.56993  -0.56176  -0.52615  -0.52281  -0.47845
 Alpha  occ. eigenvalues --   -0.47414  -0.44770  -0.42003
 Alpha virt. eigenvalues --    0.02652   0.03330   0.03831   0.04597   0.05899
 Alpha virt. eigenvalues --    0.06243   0.06743   0.07460   0.08285   0.09295
 Alpha virt. eigenvalues --    0.11755   0.12389   0.13497   0.14168   0.14303

 Mulliken charges:
               1
     1  C   -0.004160
     2  C   -1.718186
     3  C    0.039591
     4  S    3.487301
     5  C   -0.671906
     6  O   -1.583506
     7  O   -1.597364
     8  H    0.170613
     9  H    0.177393
    10  H    0.254099
    11  H    0.168316
    12  H    0.175306
    13  H    0.112799
    14  H    0.259440
    15  H    0.227135
    16  H    0.240672
    17  H    0.262457
 Sum of Mulliken charges =  -0.00000

 Dipole moment (field-independent basis, Debye):
    X=              2.1235    Y=              3.8335    Z=             -2.7077  Tot=              5.1514

 Test job not archived.
 1\1\GINC-SE231\SP\RHF\Aug-CC-pVDZ\C4H10O2S1\OHZDE\05-Apr-2025\0\\#t hf
  aug-cc-pvdz iop(5/13=1,5/36=2,99/5=2) pseudo=read geom=check guess=(r
 ead,tcheck) scf=(maxcycle=1)\\title\\0,1\C,0,1.914502,-1.078827,-0.104
 407\C,0,1.061527,0.128342,-0.489304\C,0,1.601028,1.440504,0.068529\S,0
 ,-0.649449,-0.198934,0.095737\C,0,-1.646361,1.149604,-0.566671\O,0,-1.
 109835,-1.428241,-0.547411\O,0,-0.671628,-0.09497,1.553917\H,0,1.50096
 8,-2.001807,-0.504676\H,0,2.919668,-0.945747,-0.50554\H,0,1.988659,-1.
 170348,0.978888\H,0,0.955561,0.177066,-1.574814\H,0,2.625979,1.581977,

 Normal termination of Gaussian 16 at Sat Apr  5 22:41:34 2025.
