 Gaussian 16, Revision C.01,

 ----------------------------------------------------------------------
 #t hf aug-cc-pvdz symm=none int=(grid=ultrafine) guess=(read,tcheck) s
 table=(opt,rrhf)
 ----------------------------------------------------------------------
 -----
 title
 -----
 Symbolic Z-matrix:
 Charge =  0 Multiplicity = 1

 SCF Done:  E(RHF) =  -285.769100195     A.U. after   14 cycles
 Normal termination of Gaussian 16 at Sat Apr  5 22:40:48 2025.
 Gaussian 16:  ES64L-G16RevC.01  3-Jul-2019

 ----------------------------------------------------------------------
 #t hf aug-cc-pvdz iop(5/13=1,5/36=2,99/5=2) pseudo=read geom=check gue
 ss=(read,tcheck) scf=(maxcycle=1)
 ----------------------------------------------------------------------
 -----
 title
 -----
 Structure from the checkpoint file:  "2-methylpyridine.chk"
 Charge =  0 Multiplicity = 1

                         Standard orientation:
 ---------------------------------------------------------------------
 Center     Atomic      Atomic             Coordinates (Angstroms)
 Number     Number       Type             X           Y           Z
 ---------------------------------------------------------------------
      1          7           0        1.184590    0.251105    0.000000
      2          6           0       -0.000000    0.875562    0.000000
      3          6           0       -1.202367    0.166726    0.000000
      4          6           0       -1.174475   -1.220655    0.000000
      5          6           0        0.054155   -1.864985    0.000000
      6          6           0        1.201261   -1.080306    0.000000
      7          6           0        0.032915    2.378142    0.000000
      8          1           0       -2.143876    0.698947    0.000000
      9          1           0       -2.096226   -1.787364    0.000000
     10          1           0        0.127330   -2.943410    0.000000
     11          1           0        2.181582   -1.544032    0.000000
     12          1           0       -0.968801    2.804749    0.000000
     13          1           0        0.569466    2.743239    0.876757
     14          1           0        0.569466    2.743239   -0.876757
 ---------------------------------------------------------------------

 SCF Done:  E(RHF) =  -286.066895292     A.U. after    2 cycles

 The electronic state is 1-A'.
 Alpha  occ. eigenvalues --  -15.49615 -11.28337 -11.27764 -11.26303 -11.24186
 Alpha  occ. eigenvalues --  -11.24136 -11.23172  -1.25790  -1.08936  -1.06074
 Alpha  occ. eigenvalues --   -0.95987  -0.87386  -0.83996  -0.71765  -0.69270
 Alpha  occ. eigenvalues --   -0.64869  -0.60044  -0.59735  -0.58843  -0.54977
 Alpha  occ. eigenvalues --   -0.53358  -0.52750  -0.44556  -0.40142  -0.34700
 Alpha virt. eigenvalues --    0.03312   0.03837   0.03995   0.05071   0.05712
 Alpha virt. eigenvalues --    0.05978   0.07997   0.08196   0.10573   0.10811
 Alpha virt. eigenvalues --    0.11730   0.12363   0.12445   0.14077   0.14375

 Mulliken charges:
               1
     1  N    1.164184
     2  C   -1.206597
     3  C    0.779933
     4  C    0.023921
     5  C    0.558278
     6  C   -0.735091
     7  C   -0.383284
     8  H   -0.244902
     9  H   -0.180935
    10  H   -0.194894
    11  H   -0.199989
    12  H    0.123162
    13  H    0.248108
    14  H    0.248108
 Sum of Mulliken charges =  -0.00000

 Dipole moment (field-independent basis, Debye):
    X=             -2.1156    Y=             -0.8699    Z=              0.0000  Tot=              2.2875

 Test job not archived.
 1\1\GINC-SE226\SP\RHF\Aug-CC-pVDZ\C6H7N1\OHZDE\05-Apr-2025\0\\#t hf au
 g-cc-pvdz iop(5/13=1,5/36=2,99/5=2) pseudo=read geom=check guess=(read
 ,tcheck) scf=(maxcycle=1)\\title\\0,1\N,0,1.18459,0.251105,0.\C,0,0.,0
 .875562,0.\C,0,-1.202367,0.166726,0.\C,0,-1.174475,-1.220655,0.\C,0,0.
 054155,-1.864985,0.\C,0,1.201261,-1.080306,0.\C,0,0.032915,2.378142,0.
 \H,0,-2.143876,0.698947,0.\H,0,-2.096226,-1.787364,0.\H,0,0.12733,-2.9
 4341,0.\H,0,2.181582,-1.544032,0.\H,0,-0.968801,2.804749,0.\H,0,0.5694
 66,2.743239,0.876757\H,0,0.569466,2.743239,-0.876757\\Version=ES64L-G1

 Normal termination of Gaussian 16 at Sat Apr  5 22:40:55 2025.
