 Gaussian 16, Revision C.01,

 ----------------------------------------------------------------------
 #t hf aug-cc-pvdz symm=none int=(grid=ultrafine) guess=(read,tcheck) s
 table=(opt,rrhf)
 ----------------------------------------------------------------------
 -----
 title
 -----
 Symbolic Z-matrix:
 Charge =  0 Multiplicity = 1

 SCF Done:  E(RHF) =  -235.391427047     A.U. after   11 cycles
 Normal termination of Gaussian 16 at Sat Apr  5 22:41:04 2025.
 Gaussian 16:  ES64L-G16RevC.01  3-Jul-2019

 ----------------------------------------------------------------------
 #t hf aug-cc-pvdz iop(5/13=1,5/36=2,99/5=2) pseudo=read geom=check gue
 ss=(read,tcheck) scf=(maxcycle=1)
 ----------------------------------------------------------------------
 -----
 title
 -----
 Structure from the checkpoint file:  "2-methylpentane.chk"
 Charge =  0 Multiplicity = 1

                         Standard orientation:
 ---------------------------------------------------------------------
 Center     Atomic      Atomic             Coordinates (Angstroms)
 Number     Number       Type             X           Y           Z
 ---------------------------------------------------------------------
      1          6           0        2.838715   -0.210284    0.151499
      2          6           0       -1.452331    1.374908    0.194977
      3          6           0       -2.150229   -1.037838    0.031809
      4          6           0        1.495560    0.356257   -0.307569
      5          6           0        0.304604   -0.477105    0.169426
      6          6           0       -1.071855   -0.012797   -0.331369
      7          1           0        2.897031   -0.252318    1.241150
      8          1           0        2.988894   -1.224454   -0.224592
      9          1           0        3.671051    0.400513   -0.201048
     10          1           0       -0.743775    2.142198   -0.116896
     11          1           0       -1.487672    1.377435    1.287781
     12          1           0       -2.438033    1.672153   -0.167266
     13          1           0       -2.241995   -1.138272    1.116369
     14          1           0       -3.126439   -0.741164   -0.355760
     15          1           0       -1.914534   -2.023603   -0.373148
     16          1           0        1.400426    1.383805    0.050622
     17          1           0        1.479386    0.411612   -1.400581
     18          1           0        0.457236   -1.513257   -0.149856
     19          1           0        0.293963   -0.498723    1.265583
     20          1           0       -1.022318    0.045239   -1.424998
 ---------------------------------------------------------------------

 SCF Done:  E(RHF) =  -235.660411651     A.U. after    2 cycles

 The electronic state is 1-A.
 Alpha  occ. eigenvalues --  -11.22774 -11.22199 -11.21887 -11.21869 -11.21677
 Alpha  occ. eigenvalues --  -11.21646  -1.09661  -1.02925  -0.92746  -0.91928
 Alpha  occ. eigenvalues --   -0.81438  -0.76571  -0.64885  -0.61507  -0.60837
 Alpha  occ. eigenvalues --   -0.58123  -0.55697  -0.53782  -0.53440  -0.51705
 Alpha  occ. eigenvalues --   -0.49623  -0.47930  -0.46001  -0.45657  -0.45026
 Alpha virt. eigenvalues --    0.03522   0.03597   0.03756   0.04163   0.05801
 Alpha virt. eigenvalues --    0.05916   0.06244   0.06576   0.07209   0.08613
 Alpha virt. eigenvalues --    0.09189   0.09723   0.09801   0.11485   0.13422

 Mulliken charges:
               1
     1  C   -0.392948
     2  C   -0.032081
     3  C   -0.054905
     4  C   -0.271644
     5  C    0.027528
     6  C   -1.313138
     7  H    0.170468
     8  H    0.160615
     9  H    0.114281
    10  H    0.138637
    11  H    0.204447
    12  H    0.139631
    13  H    0.235165
    14  H    0.142702
    15  H    0.140452
    16  H    0.112611
    17  H    0.112387
    18  H    0.115268
    19  H    0.113755
    20  H    0.136771
 Sum of Mulliken charges =  -0.00000

 Dipole moment (field-independent basis, Debye):
    X=              0.0174    Y=              0.0417    Z=             -0.1307  Tot=              0.1383

 Test job not archived.
 1\1\GINC-SE187\SP\RHF\Aug-CC-pVDZ\C6H14\OHZDE\05-Apr-2025\0\\#t hf aug
 -cc-pvdz iop(5/13=1,5/36=2,99/5=2) pseudo=read geom=check guess=(read,
 tcheck) scf=(maxcycle=1)\\title\\0,1\C,0,2.838715,-0.210284,0.151499\C
 ,0,-1.452331,1.374908,0.194977\C,0,-2.150229,-1.037838,0.031809\C,0,1.
 49556,0.356257,-0.307569\C,0,0.304604,-0.477105,0.169426\C,0,-1.071855
 ,-0.012797,-0.331369\H,0,2.897031,-0.252318,1.24115\H,0,2.988894,-1.22
 4454,-0.224592\H,0,3.671051,0.400513,-0.201048\H,0,-0.743775,2.142198,
 -0.116896\H,0,-1.487672,1.377435,1.287781\H,0,-2.438033,1.672153,-0.16

 Normal termination of Gaussian 16 at Sat Apr  5 22:41:34 2025.
