 Gaussian 16, Revision C.01,

 ----------------------------------------------------------------------
 #t hf aug-cc-pvdz symm=none int=(grid=ultrafine) guess=(read,tcheck) s
 table=(opt,rrhf)
 ----------------------------------------------------------------------
 -----
 title
 -----
 Symbolic Z-matrix:
 Charge =  0 Multiplicity = 1

 SCF Done:  E(RHF) =  -295.837133703     A.U. after   15 cycles
 Normal termination of Gaussian 16 at Sat Apr  5 22:40:27 2025.
 Gaussian 16:  ES64L-G16RevC.01  3-Jul-2019

 ----------------------------------------------------------------------
 #t hf aug-cc-pvdz iop(5/13=1,5/36=2,99/5=2) pseudo=read geom=check gue
 ss=(read,tcheck) scf=(maxcycle=1)
 ----------------------------------------------------------------------
 -----
 title
 -----
 Structure from the checkpoint file:  "2-methyl-2H-tetrazole.chk"
 Charge =  0 Multiplicity = 1

                         Standard orientation:
 ---------------------------------------------------------------------
 Center     Atomic      Atomic             Coordinates (Angstroms)
 Number     Number       Type             X           Y           Z
 ---------------------------------------------------------------------
      1          1           0        1.261590   -2.270226    0.000000
      2          6           0        0.638250   -1.394165    0.000000
      3          7           0        1.115640   -0.158335    0.000000
      4          7           0       -0.709343   -1.427292    0.000000
      5          7           0       -1.101004   -0.179300    0.000000
      6          7           0        0.000000    0.555258    0.000000
      7          1           0        0.482613    2.378013    0.888585
      8          1           0       -1.062032    2.314158    0.000000
      9          1           0        0.482613    2.378013   -0.888585
     10          6           0       -0.021889    2.005452    0.000000
 ---------------------------------------------------------------------

 SCF Done:  E(RHF) =  -296.137799271     A.U. after    2 cycles

 The electronic state is 1-A'.
 Alpha  occ. eigenvalues --  -15.64294 -15.60371 -15.56298 -15.54528 -11.30650
 Alpha  occ. eigenvalues --  -11.30472  -1.49366  -1.28191  -1.21464  -1.04745
 Alpha  occ. eigenvalues --   -0.93698  -0.89399  -0.77213  -0.74575  -0.67239
 Alpha  occ. eigenvalues --   -0.62991  -0.61779  -0.60222  -0.55100  -0.52362
 Alpha  occ. eigenvalues --   -0.48666  -0.44014
 Alpha virt. eigenvalues --    0.03051   0.04557   0.04656   0.05660   0.07430
 Alpha virt. eigenvalues --    0.07647   0.09149   0.10044   0.11980   0.13697
 Alpha virt. eigenvalues --    0.13732   0.14781   0.17064   0.17131   0.17482

 Mulliken charges:
               1
     1  H   -0.052644
     2  C   -0.122800
     3  N    0.370114
     4  N    0.160697
     5  N   -0.449433
     6  N   -0.288282
     7  H    0.210428
     8  H    0.089856
     9  H    0.210428
    10  C   -0.128363
 Sum of Mulliken charges =  -0.00000

 Dipole moment (field-independent basis, Debye):
    X=              1.5763    Y=              2.3017    Z=              0.0000  Tot=              2.7897

 Test job not archived.
 1\1\GINC-SE194\SP\RHF\Aug-CC-pVDZ\C2H4N4\OHZDE\05-Apr-2025\0\\#t hf au
 g-cc-pvdz iop(5/13=1,5/36=2,99/5=2) pseudo=read geom=check guess=(read
 ,tcheck) scf=(maxcycle=1)\\title\\0,1\H,0,1.26159,-2.270226,0.\C,0,0.6
 3825,-1.394165,0.\N,0,1.11564,-0.158335,0.\N,0,-0.709343,-1.427292,0.\
 N,0,-1.101004,-0.1793,0.\N,0,0.,0.555258,0.\H,0,0.482613,2.378013,0.88
 8585\H,0,-1.062032,2.314158,0.\H,0,0.482613,2.378013,-0.888585\C,0,-0.
 021889,2.005452,0.\\Version=ES64L-G16RevC.01\State=1-A'\HF=-296.137799
 3\RMSD=4.954e-02\Dipole=0.620183,0.9055467,0.\Quadrupole=-4.1532261,5.

 Normal termination of Gaussian 16 at Sat Apr  5 22:40:54 2025.
