 Gaussian 16, Revision C.01,

 ----------------------------------------------------------------------
 #t hf aug-cc-pvdz symm=none int=(grid=ultrafine) guess=(read,tcheck) s
 table=(opt,rrhf)
 ----------------------------------------------------------------------
 -----
 title
 -----
 Symbolic Z-matrix:
 Charge =  0 Multiplicity = 1

 SCF Done:  E(RHF) =  -310.261242137     A.U. after   12 cycles

 1\1\GINC-SE084\Stability\RHF\Aug-CC-pVDZ\C6H14O1\OHZDE\05-Apr-2025\0\\
 #t hf aug-cc-pvdz symm=none int=(grid=ultrafine) guess=(read,tcheck) s
 table=(opt,rrhf)\\title\\0,1\C,0,-2.743598,0.27938,0.263321\C,0,1.5276
 37,1.583398,0.042847\C,0,2.22605,-0.822775,0.228502\C,0,-1.371578,0.64
 9289,-0.298578\C,0,1.159473,0.137171,-0.308936\C,0,-0.242383,-0.258067
 ,0.197134\O,0,-0.529559,-1.629626,-0.1126\H,0,-3.515575,0.944672,-0.12
 5339\H,0,-2.752787,0.361074,1.352137\H,0,-3.015995,-0.743733,0.008715\
 H,0,0.893332,2.312783,-0.458542\H,0,1.450647,1.75347,1.119924\H,0,2.55

 Normal termination of Gaussian 16 at Sat Apr  5 22:41:28 2025.
 Gaussian 16:  ES64L-G16RevC.01  3-Jul-2019

 ----------------------------------------------------------------------
 #t hf aug-cc-pvdz iop(5/13=1,5/36=2,99/5=2) pseudo=read geom=check gue
 ss=(read,tcheck) scf=(maxcycle=1)
 ----------------------------------------------------------------------
 -----
 title
 -----
 Structure from the checkpoint file:  "2-methyl-3-pentanol.chk"
 Charge =  0 Multiplicity = 1

                         Standard orientation:
 ---------------------------------------------------------------------
 Center     Atomic      Atomic             Coordinates (Angstroms)
 Number     Number       Type             X           Y           Z
 ---------------------------------------------------------------------
      1          6           0       -2.743598    0.279380    0.263321
      2          6           0        1.527637    1.583398    0.042847
      3          6           0        2.226050   -0.822775    0.228502
      4          6           0       -1.371578    0.649289   -0.298578
      5          6           0        1.159473    0.137171   -0.308936
      6          6           0       -0.242383   -0.258067    0.197134
      7          8           0       -0.529559   -1.629626   -0.112600
      8          1           0       -3.515575    0.944672   -0.125339
      9          1           0       -2.752787    0.361074    1.352137
     10          1           0       -3.015995   -0.743733    0.008715
     11          1           0        0.893332    2.312783   -0.458542
     12          1           0        1.450647    1.753470    1.119924
     13          1           0        2.558304    1.792091   -0.246918
     14          1           0        3.203847   -0.588092   -0.194843
     15          1           0        1.989120   -1.858593   -0.004759
     16          1           0        2.306790   -0.736724    1.315244
     17          1           0       -1.393282    0.611750   -1.394424
     18          1           0       -1.144600    1.683054   -0.034580
     19          1           0        1.140378    0.049342   -1.403355
     20          1           0       -0.228904   -0.235027    1.291831
     21          1           0       -0.588412   -1.719433   -1.070029
 ---------------------------------------------------------------------

 SCF Done:  E(RHF) =  -310.601112923     A.U. after    2 cycles

 The electronic state is 1-A.
 Alpha  occ. eigenvalues --  -20.53987 -11.27996 -11.23381 -11.22799 -11.22422
 Alpha  occ. eigenvalues --  -11.21875 -11.21513  -1.43944  -1.09056  -1.03439
 Alpha  occ. eigenvalues --   -0.92995  -0.91699  -0.82287  -0.78755  -0.66074
 Alpha  occ. eigenvalues --   -0.64663  -0.63328  -0.61680  -0.57593  -0.56013
 Alpha  occ. eigenvalues --   -0.54968  -0.54017  -0.52258  -0.50654  -0.49204
 Alpha  occ. eigenvalues --   -0.48493  -0.47787  -0.45324  -0.42307
 Alpha virt. eigenvalues --    0.03179   0.03512   0.03674   0.04313   0.05677
 Alpha virt. eigenvalues --    0.06007   0.06113   0.06483   0.07001   0.08590
 Alpha virt. eigenvalues --    0.09149   0.09535   0.09615   0.11210   0.13461

 Mulliken charges:
               1
     1  C   -0.370986
     2  C    0.006296
     3  C   -0.027512
     4  C   -0.252875
     5  C   -1.329354
     6  C    1.083413
     7  O   -1.365477
     8  H    0.129623
     9  H    0.168529
    10  H    0.194657
    11  H    0.167056
    12  H    0.219224
    13  H    0.121067
    14  H    0.152729
    15  H    0.177138
    16  H    0.231365
    17  H    0.106024
    18  H    0.133496
    19  H    0.133642
    20  H    0.057437
    21  H    0.264506
 Sum of Mulliken charges =  -0.00000

 Dipole moment (field-independent basis, Debye):
    X=              0.2120    Y=              1.2655    Z=             -1.0816  Tot=              1.6782

 Test job not archived.
 1\1\GINC-SE084\SP\RHF\Aug-CC-pVDZ\C6H14O1\OHZDE\05-Apr-2025\0\\#t hf a
 ug-cc-pvdz iop(5/13=1,5/36=2,99/5=2) pseudo=read geom=check guess=(rea
 d,tcheck) scf=(maxcycle=1)\\title\\0,1\C,0,-2.743598,0.27938,0.263321\
 C,0,1.527637,1.583398,0.042847\C,0,2.22605,-0.822775,0.228502\C,0,-1.3
 71578,0.649289,-0.298578\C,0,1.159473,0.137171,-0.308936\C,0,-0.242383
 ,-0.258067,0.197134\O,0,-0.529559,-1.629626,-0.1126\H,0,-3.515575,0.94
 4672,-0.125339\H,0,-2.752787,0.361074,1.352137\H,0,-3.015995,-0.743733
 ,0.008715\H,0,0.893332,2.312783,-0.458542\H,0,1.450647,1.75347,1.11992

 Normal termination of Gaussian 16 at Sat Apr  5 22:41:39 2025.
