 Gaussian 16, Revision C.01,

 ----------------------------------------------------------------------
 #t hf aug-cc-pvdz symm=none int=(grid=ultrafine) guess=(read,tcheck) s
 table=(opt,rrhf)
 ----------------------------------------------------------------------
 -----
 title
 -----
 Symbolic Z-matrix:
 Charge =  0 Multiplicity = 1

 SCF Done:  E(RHF) =  -304.095233383     A.U. after   13 cycles

 1\1\GINC-SE158\Stability\RHF\Aug-CC-pVDZ\C5H10N2\OHZDE\05-Apr-2025\0\\
 #t hf aug-cc-pvdz symm=none int=(grid=ultrafine) guess=(read,tcheck) s
 table=(opt,rrhf)\\title\\0,1\C,0,0.941514,-0.098483,-0.014842\C,0,-1.7
 81018,-0.019406,0.390258\C,0,-1.091888,-1.260357,-0.181491\C,0,-1.1370
 73,1.235394,-0.190517\C,0,2.440033,-0.02573,0.105285\N,0,0.363471,-1.2
 38193,-0.066973\N,0,0.305683,1.121283,-0.051204\H,0,-2.849215,-0.03038
 6,0.168731\H,0,-1.669794,-0.010999,1.476831\H,0,-1.454663,-2.156545,0.
 325164\H,0,-1.359693,-1.380641,-1.237877\H,0,-1.420985,1.347734,-1.243

 Normal termination of Gaussian 16 at Sat Apr  5 22:40:31 2025.
 Gaussian 16:  ES64L-G16RevC.01  3-Jul-2019

 ----------------------------------------------------------------------
 #t hf aug-cc-pvdz iop(5/13=1,5/36=2,99/5=2) pseudo=read geom=check gue
 ss=(read,tcheck) scf=(maxcycle=1)
 ----------------------------------------------------------------------
 -----
 title
 -----
 Structure from the checkpoint file:  "2-methyl-1-4-5-6-tetrahydropyrimidine.chk"
 Charge =  0 Multiplicity = 1

                         Standard orientation:
 ---------------------------------------------------------------------
 Center     Atomic      Atomic             Coordinates (Angstroms)
 Number     Number       Type             X           Y           Z
 ---------------------------------------------------------------------
      1          6           0        0.941514   -0.098483   -0.014842
      2          6           0       -1.781018   -0.019406    0.390258
      3          6           0       -1.091888   -1.260357   -0.181491
      4          6           0       -1.137073    1.235394   -0.190517
      5          6           0        2.440033   -0.025730    0.105285
      6          7           0        0.363471   -1.238193   -0.066973
      7          7           0        0.305683    1.121283   -0.051204
      8          1           0       -2.849215   -0.030386    0.168731
      9          1           0       -1.669794   -0.010999    1.476831
     10          1           0       -1.454663   -2.156545    0.325164
     11          1           0       -1.359693   -1.380641   -1.237877
     12          1           0       -1.420985    1.347734   -1.243241
     13          1           0       -1.475506    2.129505    0.335358
     14          1           0        2.734140    0.509347    1.011023
     15          1           0        2.874653    0.500871   -0.747674
     16          1           0        2.842634   -1.033035    0.140948
     17          1           0        0.864952    1.954010   -0.054174
 ---------------------------------------------------------------------

 SCF Done:  E(RHF) =  -304.419587362     A.U. after    2 cycles

 The electronic state is 1-A.
 Alpha  occ. eigenvalues --  -15.50836 -15.45004 -11.30454 -11.27000 -11.24188
 Alpha  occ. eigenvalues --  -11.23119 -11.22779  -1.27122  -1.16035  -1.06582
 Alpha  occ. eigenvalues --   -0.97533  -0.92103  -0.85335  -0.76308  -0.70419
 Alpha  occ. eigenvalues --   -0.67098  -0.64805  -0.60023  -0.59181  -0.57289
 Alpha  occ. eigenvalues --   -0.56863  -0.54747  -0.52428  -0.49345  -0.45827
 Alpha  occ. eigenvalues --   -0.41427  -0.37028
 Alpha virt. eigenvalues --    0.03186   0.04061   0.04403   0.04588   0.05347
 Alpha virt. eigenvalues --    0.05501   0.05916   0.06440   0.06959   0.09266
 Alpha virt. eigenvalues --    0.11706   0.13278   0.13704   0.14049   0.14237

 Mulliken charges:
               1
     1  C   -1.742541
     2  C   -0.276747
     3  C   -0.344131
     4  C   -0.325725
     5  C   -0.194168
     6  N    0.981027
     7  N    0.677599
     8  H    0.165627
     9  H    0.104958
    10  H    0.067599
    11  H    0.099310
    12  H    0.064179
    13  H    0.052494
    14  H    0.203692
    15  H    0.201151
    16  H    0.180372
    17  H    0.085305
 Sum of Mulliken charges =  -0.00000

 Dipole moment (field-independent basis, Debye):
    X=             -0.4445    Y=              3.3275    Z=             -0.0300  Tot=              3.3572

 Test job not archived.
 1\1\GINC-SE158\SP\RHF\Aug-CC-pVDZ\C5H10N2\OHZDE\05-Apr-2025\0\\#t hf a
 ug-cc-pvdz iop(5/13=1,5/36=2,99/5=2) pseudo=read geom=check guess=(rea
 d,tcheck) scf=(maxcycle=1)\\title\\0,1\C,0,0.941514,-0.098483,-0.01484
 2\C,0,-1.781018,-0.019406,0.390258\C,0,-1.091888,-1.260357,-0.181491\C
 ,0,-1.137073,1.235394,-0.190517\C,0,2.440033,-0.02573,0.105285\N,0,0.3
 63471,-1.238193,-0.066973\N,0,0.305683,1.121283,-0.051204\H,0,-2.84921
 5,-0.030386,0.168731\H,0,-1.669794,-0.010999,1.476831\H,0,-1.454663,-2
 .156545,0.325164\H,0,-1.359693,-1.380641,-1.237877\H,0,-1.420985,1.347

 Normal termination of Gaussian 16 at Sat Apr  5 22:41:06 2025.
