 Gaussian 16, Revision C.01,

 ----------------------------------------------------------------------
 #t hf aug-cc-pvdz symm=none int=(grid=ultrafine) guess=(read,tcheck) s
 table=(opt,rrhf)
 ----------------------------------------------------------------------
 -----
 title
 -----
 Symbolic Z-matrix:
 Charge =  0 Multiplicity = 1

 SCF Done:  E(RHF) =  -419.497847687     A.U. after   15 cycles
 Normal termination of Gaussian 16 at Sat Apr  5 22:41:07 2025.
 Gaussian 16:  ES64L-G16RevC.01  3-Jul-2019

 ----------------------------------------------------------------------
 #t hf aug-cc-pvdz iop(5/13=1,5/36=2,99/5=2) pseudo=read geom=check gue
 ss=(read,tcheck) scf=(maxcycle=1)
 ----------------------------------------------------------------------
 -----
 title
 -----
 Structure from the checkpoint file:  "2-methoxyphenol.chk"
 Charge =  0 Multiplicity = 1

                         Standard orientation:
 ---------------------------------------------------------------------
 Center     Atomic      Atomic             Coordinates (Angstroms)
 Number     Number       Type             X           Y           Z
 ---------------------------------------------------------------------
      1          6           0       -0.983062   -2.154025    0.000000
      2          6           0       -1.860094   -1.080555    0.000000
      3          6           0        0.392477   -1.934250    0.000000
      4          6           0       -1.369349    0.225898    0.000000
      5          6           0        0.887643   -0.641461    0.000000
      6          6           0        0.000000    0.446658    0.000000
      7          6           0       -0.195214    2.837494    0.000000
      8          8           0        2.233459   -0.428850    0.000000
      9          8           0        0.616159    1.672471    0.000000
     10          1           0       -1.361602   -3.166654    0.000000
     11          1           0       -2.928255   -1.246184    0.000000
     12          1           0        1.093761   -2.757095    0.000000
     13          1           0       -2.058350    1.057052    0.000000
     14          1           0       -0.824743    2.879274    0.891811
     15          1           0       -0.824743    2.879274   -0.891811
     16          1           0        0.488417    3.681876    0.000000
     17          1           0        2.384168    0.524940    0.000000
 ---------------------------------------------------------------------

 SCF Done:  E(RHF) =  -419.926496220     A.U. after    2 cycles

 The electronic state is 1-A'.
 Alpha  occ. eigenvalues --  -20.58394 -20.56995 -11.30465 -11.30387 -11.30047
 Alpha  occ. eigenvalues --  -11.24494 -11.23830 -11.23742 -11.23595  -1.51327
 Alpha  occ. eigenvalues --   -1.47828  -1.15089  -1.02594  -1.01688  -0.95597
 Alpha  occ. eigenvalues --   -0.84090  -0.83395  -0.75147  -0.71675  -0.68484
 Alpha  occ. eigenvalues --   -0.66949  -0.64140  -0.62838  -0.60459  -0.58539
 Alpha  occ. eigenvalues --   -0.57320  -0.55058  -0.51363  -0.51235  -0.50327
 Alpha  occ. eigenvalues --   -0.47198  -0.34148  -0.30857
 Alpha virt. eigenvalues --    0.03094   0.03574   0.04167   0.05093   0.05276
 Alpha virt. eigenvalues --    0.05416   0.07428   0.08777   0.09939   0.11173
 Alpha virt. eigenvalues --    0.12343   0.12811   0.13253   0.13314   0.13840

 Mulliken charges:
               1
     1  C    0.288947
     2  C    0.354572
     3  C    0.580097
     4  C   -0.030178
     5  C    1.109414
     6  C    1.820075
     7  C    0.085087
     8  O   -1.811408
     9  O   -1.999295
    10  H   -0.223075
    11  H   -0.230513
    12  H   -0.258985
    13  H   -0.422530
    14  H    0.167384
    15  H    0.167384
    16  H   -0.042227
    17  H    0.445251
 Sum of Mulliken charges =  -0.00000

 Dipole moment (field-independent basis, Debye):
    X=             -1.5180    Y=              2.3140    Z=              0.0000  Tot=              2.7674

 Test job not archived.
 1\1\GINC-SE108\SP\RHF\Aug-CC-pVDZ\C7H8O2\OHZDE\05-Apr-2025\0\\#t hf au
 g-cc-pvdz iop(5/13=1,5/36=2,99/5=2) pseudo=read geom=check guess=(read
 ,tcheck) scf=(maxcycle=1)\\title\\0,1\C,0,-0.983062,-2.154025,0.\C,0,-
 1.860094,-1.080555,0.\C,0,0.392477,-1.93425,0.\C,0,-1.369349,0.225898,
 0.\C,0,0.887643,-0.641461,0.\C,0,0.,0.446658,0.\C,0,-0.195214,2.837494
 ,0.\O,0,2.233459,-0.42885,0.\O,0,0.616159,1.672471,0.\H,0,-1.361602,-3
 .166654,0.\H,0,-2.928255,-1.246184,0.\H,0,1.093761,-2.757095,0.\H,0,-2
 .05835,1.057052,0.\H,0,-0.824743,2.879274,0.891811\H,0,-0.824743,2.879

 Normal termination of Gaussian 16 at Sat Apr  5 22:41:34 2025.
