 Gaussian 16, Revision C.01,

 ----------------------------------------------------------------------
 #t hf aug-cc-pvdz symm=none int=(grid=ultrafine) guess=(read,tcheck) s
 table=(opt,rrhf)
 ----------------------------------------------------------------------
 -----
 title
 -----
 Symbolic Z-matrix:
 Charge =  0 Multiplicity = 1

 SCF Done:  E(RHF) =  -271.227431174     A.U. after   12 cycles

 1\1\GINC-SE180\Stability\RHF\Aug-CC-pVDZ\C5H12O1\OHZDE\05-Apr-2025\0\\
 #t hf aug-cc-pvdz symm=none int=(grid=ultrafine) guess=(read,tcheck) s
 table=(opt,rrhf)\\title\\0,1\C,0,-2.165229,-0.019777,-0.016641\C,0,0.5
 34517,1.417395,-0.549756\C,0,1.641044,-0.836748,-0.424661\C,0,-0.86497
 5,-0.71006,-0.425335\C,0,0.429999,-0.005131,0.007651\O,0,0.376349,0.04
 3462,1.448394\H,0,-3.021673,-0.639001,-0.286612\H,0,-2.292415,0.942994
 ,-0.512746\H,0,-2.195466,0.147199,1.059086\H,0,0.507717,1.416045,-1.64
 0747\H,0,-0.278903,2.041128,-0.183517\H,0,1.4768,1.877169,-0.242684\H,

 Normal termination of Gaussian 16 at Sat Apr  5 22:41:30 2025.
 Gaussian 16:  ES64L-G16RevC.01  3-Jul-2019

 ----------------------------------------------------------------------
 #t hf aug-cc-pvdz iop(5/13=1,5/36=2,99/5=2) pseudo=read geom=check gue
 ss=(read,tcheck) scf=(maxcycle=1)
 ----------------------------------------------------------------------
 -----
 title
 -----
 Structure from the checkpoint file:  "2-methyl-2-butanol.chk"
 Charge =  0 Multiplicity = 1

                         Standard orientation:
 ---------------------------------------------------------------------
 Center     Atomic      Atomic             Coordinates (Angstroms)
 Number     Number       Type             X           Y           Z
 ---------------------------------------------------------------------
      1          6           0       -2.165229   -0.019777   -0.016641
      2          6           0        0.534517    1.417395   -0.549756
      3          6           0        1.641044   -0.836748   -0.424661
      4          6           0       -0.864975   -0.710060   -0.425335
      5          6           0        0.429999   -0.005131    0.007651
      6          8           0        0.376349    0.043462    1.448394
      7          1           0       -3.021673   -0.639001   -0.286612
      8          1           0       -2.292415    0.942994   -0.512746
      9          1           0       -2.195466    0.147199    1.059086
     10          1           0        0.507717    1.416045   -1.640747
     11          1           0       -0.278903    2.041128   -0.183517
     12          1           0        1.476800    1.877169   -0.242684
     13          1           0        1.695208   -0.921627   -1.511210
     14          1           0        2.569524   -0.374559   -0.081065
     15          1           0        1.582438   -1.839278   -0.001025
     16          1           0       -0.835262   -0.834371   -1.510827
     17          1           0       -0.842950   -1.714358    0.004098
     18          1           0        1.172045    0.476886    1.772546
 ---------------------------------------------------------------------

 SCF Done:  E(RHF) =  -271.524385406     A.U. after    2 cycles

 The electronic state is 1-A.
 Alpha  occ. eigenvalues --  -20.53817 -11.28856 -11.22364 -11.22333 -11.22262
 Alpha  occ. eigenvalues --  -11.21369  -1.43812  -1.07968  -0.99585  -0.94336
 Alpha  occ. eigenvalues --   -0.86362  -0.76458  -0.67416  -0.63921  -0.61435
 Alpha  occ. eigenvalues --   -0.59067  -0.57761  -0.55997  -0.54221  -0.51913
 Alpha  occ. eigenvalues --   -0.50627  -0.49313  -0.48253  -0.45649  -0.42987
 Alpha virt. eigenvalues --    0.03466   0.03903   0.03987   0.04394   0.06113
 Alpha virt. eigenvalues --    0.06207   0.06513   0.06824   0.07370   0.09374
 Alpha virt. eigenvalues --    0.09800   0.10023   0.13561   0.14035   0.14252

 Mulliken charges:
               1
     1  C   -0.350421
     2  C    0.066289
     3  C    0.162470
     4  C    0.078640
     5  C   -0.755154
     6  O   -1.431248
     7  H    0.107246
     8  H    0.153637
     9  H    0.190429
    10  H    0.239656
    11  H    0.216765
    12  H    0.144339
    13  H    0.252711
    14  H    0.140854
    15  H    0.209751
    16  H    0.162193
    17  H    0.143061
    18  H    0.268783
 Sum of Mulliken charges =   0.00000

 Dipole moment (field-independent basis, Debye):
    X=              1.1105    Y=              0.5106    Z=             -0.9958  Tot=              1.5766

 Test job not archived.
 1\1\GINC-SE180\SP\RHF\Aug-CC-pVDZ\C5H12O1\OHZDE\05-Apr-2025\0\\#t hf a
 ug-cc-pvdz iop(5/13=1,5/36=2,99/5=2) pseudo=read geom=check guess=(rea
 d,tcheck) scf=(maxcycle=1)\\title\\0,1\C,0,-2.165229,-0.019777,-0.0166
 41\C,0,0.534517,1.417395,-0.549756\C,0,1.641044,-0.836748,-0.424661\C,
 0,-0.864975,-0.71006,-0.425335\C,0,0.429999,-0.005131,0.007651\O,0,0.3
 76349,0.043462,1.448394\H,0,-3.021673,-0.639001,-0.286612\H,0,-2.29241
 5,0.942994,-0.512746\H,0,-2.195466,0.147199,1.059086\H,0,0.507717,1.41
 6045,-1.640747\H,0,-0.278903,2.041128,-0.183517\H,0,1.4768,1.877169,-0

 Normal termination of Gaussian 16 at Sat Apr  5 22:41:36 2025.
