 Gaussian 16, Revision C.01,

 ----------------------------------------------------------------------
 #t hf aug-cc-pvdz symm=none int=(grid=ultrafine) guess=(read,tcheck) s
 table=(opt,rrhf)
 ----------------------------------------------------------------------
 -----
 title
 -----
 Symbolic Z-matrix:
 Charge =  0 Multiplicity = 1

 SCF Done:  E(RHF) =  -271.209671191     A.U. after   12 cycles

 1\1\GINC-SE153\Stability\RHF\Aug-CC-pVDZ\C5H12O1\OHZDE\05-Apr-2025\0\\
 #t hf aug-cc-pvdz symm=none int=(grid=ultrafine) guess=(read,tcheck) s
 table=(opt,rrhf)\\title\\0,1\C,0,-0.634025,0.771526,1.26238\C,0,1.5183
 92,1.037638,0.\C,0,-0.634025,0.771526,-1.26238\C,0,-0.634025,-1.948562
 ,0.\C,0,0.140834,0.377397,0.\O,0,0.443226,-1.034249,0.\H,0,-0.10178,0.
 437781,2.153609\H,0,-0.741929,1.855478,1.313981\H,0,-1.636409,0.343353
 ,1.277197\H,0,2.081691,0.735411,-0.882718\H,0,2.081691,0.735411,0.8827
 18\H,0,1.426783,2.124044,0.\H,0,-1.636409,0.343353,-1.277197\H,0,-0.74

 Normal termination of Gaussian 16 at Sat Apr  5 22:39:09 2025.
 Gaussian 16:  ES64L-G16RevC.01  3-Jul-2019

 ----------------------------------------------------------------------
 #t hf aug-cc-pvdz iop(5/13=1,5/36=2,99/5=2) pseudo=read geom=check gue
 ss=(read,tcheck) scf=(maxcycle=1)
 ----------------------------------------------------------------------
 -----
 title
 -----
 Structure from the checkpoint file:  "2-methoxy-2-methylpropane.chk"
 Charge =  0 Multiplicity = 1

                         Standard orientation:
 ---------------------------------------------------------------------
 Center     Atomic      Atomic             Coordinates (Angstroms)
 Number     Number       Type             X           Y           Z
 ---------------------------------------------------------------------
      1          6           0       -0.634025    0.771526    1.262380
      2          6           0        1.518392    1.037638   -0.000000
      3          6           0       -0.634025    0.771526   -1.262380
      4          6           0       -0.634025   -1.948562    0.000000
      5          6           0        0.140834    0.377397   -0.000000
      6          8           0        0.443226   -1.034249    0.000000
      7          1           0       -0.101780    0.437781    2.153609
      8          1           0       -0.741929    1.855478    1.313981
      9          1           0       -1.636409    0.343353    1.277197
     10          1           0        2.081691    0.735411   -0.882718
     11          1           0        2.081691    0.735411    0.882718
     12          1           0        1.426783    2.124044   -0.000000
     13          1           0       -1.636409    0.343353   -1.277197
     14          1           0       -0.741929    1.855478   -1.313981
     15          1           0       -0.101780    0.437781   -2.153609
     16          1           0       -1.264755   -1.854556   -0.889485
     17          1           0       -1.264755   -1.854556    0.889485
     18          1           0       -0.189132   -2.942139    0.000000
 ---------------------------------------------------------------------

 SCF Done:  E(RHF) =  -271.505826706     A.U. after    2 cycles

 The electronic state is 1-A'.
 Alpha  occ. eigenvalues --  -20.53143 -11.28854 -11.27257 -11.22173 -11.22146
 Alpha  occ. eigenvalues --  -11.21601  -1.44430  -1.07708  -0.94910  -0.94219
 Alpha  occ. eigenvalues --   -0.91151  -0.75590  -0.65960  -0.64448  -0.63860
 Alpha  occ. eigenvalues --   -0.59957  -0.57932  -0.55824  -0.54015  -0.52886
 Alpha  occ. eigenvalues --   -0.52129  -0.49407  -0.49005  -0.44703  -0.40724
 Alpha virt. eigenvalues --    0.03758   0.03911   0.04100   0.04293   0.06180
 Alpha virt. eigenvalues --    0.06485   0.06520   0.06783   0.07117   0.09741
 Alpha virt. eigenvalues --    0.09802   0.10147   0.11652   0.13396   0.14593

 Mulliken charges:
               1
     1  C    0.158200
     2  C    0.005139
     3  C    0.158200
     4  C    0.159533
     5  C   -0.885647
     6  O   -1.577432
     7  H    0.208100
     8  H    0.190890
     9  H    0.150360
    10  H    0.185863
    11  H    0.185863
    12  H    0.225254
    13  H    0.150360
    14  H    0.190890
    15  H    0.208100
    16  H    0.152492
    17  H    0.152492
    18  H   -0.018659
 Sum of Mulliken charges =  -0.00000

 Dipole moment (field-independent basis, Debye):
    X=             -1.1933    Y=              0.5543    Z=              0.0000  Tot=              1.3157

 Test job not archived.
 1\1\GINC-SE153\SP\RHF\Aug-CC-pVDZ\C5H12O1\OHZDE\05-Apr-2025\0\\#t hf a
 ug-cc-pvdz iop(5/13=1,5/36=2,99/5=2) pseudo=read geom=check guess=(rea
 d,tcheck) scf=(maxcycle=1)\\title\\0,1\C,0,-0.634025,0.771526,1.26238\
 C,0,1.518392,1.037638,0.\C,0,-0.634025,0.771526,-1.26238\C,0,-0.634025
 ,-1.948562,0.\C,0,0.140834,0.377397,0.\O,0,0.443226,-1.034249,0.\H,0,-
 0.10178,0.437781,2.153609\H,0,-0.741929,1.855478,1.313981\H,0,-1.63640
 9,0.343353,1.277197\H,0,2.081691,0.735411,-0.882718\H,0,2.081691,0.735
 411,0.882718\H,0,1.426783,2.124044,0.\H,0,-1.636409,0.343353,-1.277197

 Normal termination of Gaussian 16 at Sat Apr  5 22:39:50 2025.
