 Gaussian 16, Revision C.01,

 ----------------------------------------------------------------------
 #t hf aug-cc-pvdz symm=none int=(grid=ultrafine) guess=(read,tcheck) s
 table=(opt,rrhf)
 ----------------------------------------------------------------------
 -----
 title
 -----
 Symbolic Z-matrix:
 Charge =  0 Multiplicity = 1

 SCF Done:  E(RHF) =  -232.191208997     A.U. after   12 cycles

 1\1\GINC-SE188\Stability\RHF\Aug-CC-pVDZ\C4H10O1\OHZDE\05-Apr-2025\0\\
 #t hf aug-cc-pvdz symm=none int=(grid=ultrafine) guess=(read,tcheck) s
 table=(opt,rrhf)\\title\\0,1\C,0,-0.486076,-0.705434,1.261168\C,0,-0.4
 86076,-0.705434,-1.261168\C,0,1.521674,0.142791,0.\C,0,0.001813,0.0122
 59,0.\O,0,-0.486076,1.369657,0.\H,0,-1.57707,-0.763138,1.276432\H,0,-0
 .09932,-1.724561,1.310729\H,0,-0.160405,-0.167882,2.151574\H,0,-0.1604
 05,-0.167882,-2.151574\H,0,-1.57707,-0.763138,-1.276432\H,0,-0.09932,-
 1.724561,-1.310729\H,0,1.854033,0.688346,0.883017\H,0,1.994672,-0.8395

 Normal termination of Gaussian 16 at Sat Apr  5 22:40:46 2025.
 Gaussian 16:  ES64L-G16RevC.01  3-Jul-2019

 ----------------------------------------------------------------------
 #t hf aug-cc-pvdz iop(5/13=1,5/36=2,99/5=2) pseudo=read geom=check gue
 ss=(read,tcheck) scf=(maxcycle=1)
 ----------------------------------------------------------------------
 -----
 title
 -----
 Structure from the checkpoint file:  "2-methylpropan-2-ol.chk"
 Charge =  0 Multiplicity = 1

                         Standard orientation:
 ---------------------------------------------------------------------
 Center     Atomic      Atomic             Coordinates (Angstroms)
 Number     Number       Type             X           Y           Z
 ---------------------------------------------------------------------
      1          6           0       -0.486076   -0.705434    1.261168
      2          6           0       -0.486076   -0.705434   -1.261168
      3          6           0        1.521674    0.142791    0.000000
      4          6           0        0.001813    0.012259    0.000000
      5          8           0       -0.486076    1.369657    0.000000
      6          1           0       -1.577070   -0.763138    1.276432
      7          1           0       -0.099320   -1.724561    1.310729
      8          1           0       -0.160405   -0.167882    2.151574
      9          1           0       -0.160405   -0.167882   -2.151574
     10          1           0       -1.577070   -0.763138   -1.276432
     11          1           0       -0.099320   -1.724561   -1.310729
     12          1           0        1.854033    0.688346    0.883017
     13          1           0        1.994672   -0.839511    0.000000
     14          1           0        1.854033    0.688346   -0.883017
     15          1           0       -1.448562    1.351622   -0.000000
 ---------------------------------------------------------------------

 SCF Done:  E(RHF) =  -232.445001759     A.U. after    2 cycles

 The electronic state is 1-A'.
 Alpha  occ. eigenvalues --  -20.53860 -11.29053 -11.22467 -11.22439 -11.21856
 Alpha  occ. eigenvalues --   -1.43812  -1.07083  -0.94377  -0.94227  -0.77427
 Alpha  occ. eigenvalues --   -0.67248  -0.62892  -0.62715  -0.58050  -0.56170
 Alpha  occ. eigenvalues --   -0.53614  -0.52393  -0.50907  -0.50628  -0.46962
 Alpha  occ. eigenvalues --   -0.43186
 Alpha virt. eigenvalues --    0.03569   0.04131   0.04201   0.04582   0.06610
 Alpha virt. eigenvalues --    0.06781   0.06902   0.07419   0.07750   0.09764
 Alpha virt. eigenvalues --    0.12379   0.14139   0.14896   0.15806   0.15827

 Mulliken charges:
               1
     1  C    0.140253
     2  C    0.140253
     3  C    0.065570
     4  C   -0.985075
     5  O   -1.375863
     6  H    0.128013
     7  H    0.234907
     8  H    0.197697
     9  H    0.197697
    10  H    0.128013
    11  H    0.234907
    12  H    0.181441
    13  H    0.255617
    14  H    0.181441
    15  H    0.275129
 Sum of Mulliken charges =  -0.00000

 Dipole moment (field-independent basis, Debye):
    X=             -0.7809    Y=             -1.4619    Z=             -0.0000  Tot=              1.6574

 Test job not archived.
 1\1\GINC-SE188\SP\RHF\Aug-CC-pVDZ\C4H10O1\OHZDE\05-Apr-2025\0\\#t hf a
 ug-cc-pvdz iop(5/13=1,5/36=2,99/5=2) pseudo=read geom=check guess=(rea
 d,tcheck) scf=(maxcycle=1)\\title\\0,1\C,0,-0.486076,-0.705434,1.26116
 8\C,0,-0.486076,-0.705434,-1.261168\C,0,1.521674,0.142791,0.\C,0,0.001
 813,0.012259,0.\O,0,-0.486076,1.369657,0.\H,0,-1.57707,-0.763138,1.276
 432\H,0,-0.09932,-1.724561,1.310729\H,0,-0.160405,-0.167882,2.151574\H
 ,0,-0.160405,-0.167882,-2.151574\H,0,-1.57707,-0.763138,-1.276432\H,0,
 -0.09932,-1.724561,-1.310729\H,0,1.854033,0.688346,0.883017\H,0,1.9946

 Normal termination of Gaussian 16 at Sat Apr  5 22:40:55 2025.
