 Gaussian 16, Revision C.01,

 ----------------------------------------------------------------------
 #t hf aug-cc-pvdz symm=none int=(grid=ultrafine) guess=(read,tcheck) s
 table=(opt,rrhf)
 ----------------------------------------------------------------------
 -----
 title
 -----
 Symbolic Z-matrix:
 Charge =  0 Multiplicity = 1

 SCF Done:  E(RHF) =  -301.760551194     A.U. after   14 cycles
 Normal termination of Gaussian 16 at Sat Apr  5 22:40:45 2025.
 Gaussian 16:  ES64L-G16RevC.01  3-Jul-2019

 ----------------------------------------------------------------------
 #t hf aug-cc-pvdz iop(5/13=1,5/36=2,99/5=2) pseudo=read geom=check gue
 ss=(read,tcheck) scf=(maxcycle=1)
 ----------------------------------------------------------------------
 -----
 title
 -----
 Structure from the checkpoint file:  "2-methylpyrazine.chk"
 Charge =  0 Multiplicity = 1

                         Standard orientation:
 ---------------------------------------------------------------------
 Center     Atomic      Atomic             Coordinates (Angstroms)
 Number     Number       Type             X           Y           Z
 ---------------------------------------------------------------------
      1          6           0       -0.001868   -1.820771    0.000000
      2          6           0       -1.182467   -1.087059    0.000000
      3          6           0        1.179811    0.108531    0.000000
      4          6           0        0.000000    0.858405    0.000000
      5          6           0        0.008652    2.358272    0.000000
      6          7           0        1.186439   -1.221482    0.000000
      7          7           0       -1.186506    0.242772    0.000000
      8          1           0       -0.015053   -2.903968    0.000000
      9          1           0       -2.145893   -1.583765    0.000000
     10          1           0        2.144697    0.602719    0.000000
     11          1           0       -0.515539    2.739063    0.877425
     12          1           0        1.023030    2.753583    0.000000
     13          1           0       -0.515539    2.739063   -0.877425
 ---------------------------------------------------------------------

 SCF Done:  E(RHF) =  -302.069445587     A.U. after    2 cycles

 The electronic state is 1-A'.
 Alpha  occ. eigenvalues --  -15.52868 -15.52347 -11.29254 -11.28701 -11.28229
 Alpha  occ. eigenvalues --  -11.28216 -11.24278  -1.30657  -1.22159  -1.07972
 Alpha  occ. eigenvalues --   -0.98550  -0.91743  -0.87664  -0.75076  -0.73347
 Alpha  occ. eigenvalues --   -0.66862  -0.61882  -0.60922  -0.57048  -0.56459
 Alpha  occ. eigenvalues --   -0.56252  -0.53929  -0.46742  -0.43940  -0.35988
 Alpha virt. eigenvalues --    0.03411   0.04194   0.04567   0.04913   0.05031
 Alpha virt. eigenvalues --    0.05550   0.06095   0.09939   0.10106   0.10733
 Alpha virt. eigenvalues --    0.11508   0.11917   0.12131   0.14540   0.14659

 Mulliken charges:
               1
     1  C   -0.469955
     2  C   -0.236290
     3  C   -0.707308
     4  C   -0.638450
     5  C   -0.504915
     6  N    1.045419
     7  N    1.257222
     8  H   -0.108095
     9  H   -0.129826
    10  H   -0.119677
    11  H    0.235620
    12  H    0.140634
    13  H    0.235620
 Sum of Mulliken charges =  -0.00000

 Dipole moment (field-independent basis, Debye):
    X=             -0.1311    Y=              0.6330    Z=             -0.0000  Tot=              0.6464

 Test job not archived.
 1\1\GINC-SE225\SP\RHF\Aug-CC-pVDZ\C5H6N2\OHZDE\05-Apr-2025\0\\#t hf au
 g-cc-pvdz iop(5/13=1,5/36=2,99/5=2) pseudo=read geom=check guess=(read
 ,tcheck) scf=(maxcycle=1)\\title\\0,1\C,0,-0.001868,-1.820771,0.\C,0,-
 1.182467,-1.087059,0.\C,0,1.179811,0.108531,0.\C,0,0.,0.858405,0.\C,0,
 0.008652,2.358272,0.\N,0,1.186439,-1.221482,0.\N,0,-1.186506,0.242772,
 0.\H,0,-0.015053,-2.903968,0.\H,0,-2.145893,-1.583765,0.\H,0,2.144697,
 0.602719,0.\H,0,-0.515539,2.739063,0.877425\H,0,1.02303,2.753583,0.\H,
 0,-0.515539,2.739063,-0.877425\\Version=ES64L-G16RevC.01\State=1-A'\HF

 Normal termination of Gaussian 16 at Sat Apr  5 22:40:55 2025.
