 Gaussian 16, Revision C.01,

 ----------------------------------------------------------------------
 #t hf aug-cc-pvdz symm=none int=(grid=ultrafine) guess=(read,tcheck) s
 table=(opt,rrhf)
 ----------------------------------------------------------------------
 -----
 title
 -----
 Symbolic Z-matrix:
 Charge =  0 Multiplicity = 1

 SCF Done:  E(RHF) =  -271.220219959     A.U. after   12 cycles

 1\1\GINC-SE129\Stability\RHF\Aug-CC-pVDZ\C5H12O1\OHZDE\05-Apr-2025\0\\
 #t hf aug-cc-pvdz symm=none int=(grid=ultrafine) guess=(read,tcheck) s
 table=(opt,rrhf)\\title\\0,1\C,0,-2.236267,-0.829238,-0.168845\C,0,-0.
 460692,1.802331,-0.02324\C,0,-0.836105,-0.683283,0.427209\C,0,1.500792
 ,0.264459,0.201369\C,0,0.043139,0.374428,-0.255318\O,0,2.109917,-0.991
 421,-0.095886\H,0,-2.822588,0.085548,-0.074475\H,0,-2.186814,-1.08279,
 -1.230252\H,0,-2.790772,-1.623663,0.332395\H,0,-0.462102,2.045466,1.04
 232\H,0,-1.476626,1.936066,-0.392815\H,0,0.171194,2.533818,-0.530269\H

 Normal termination of Gaussian 16 at Sat Apr  5 22:41:06 2025.
 Gaussian 16:  ES64L-G16RevC.01  3-Jul-2019

 ----------------------------------------------------------------------
 #t hf aug-cc-pvdz iop(5/13=1,5/36=2,99/5=2) pseudo=read geom=check gue
 ss=(read,tcheck) scf=(maxcycle=1)
 ----------------------------------------------------------------------
 -----
 title
 -----
 Structure from the checkpoint file:  "2-methyl-1-butanol.chk"
 Charge =  0 Multiplicity = 1

                         Standard orientation:
 ---------------------------------------------------------------------
 Center     Atomic      Atomic             Coordinates (Angstroms)
 Number     Number       Type             X           Y           Z
 ---------------------------------------------------------------------
      1          6           0       -2.236267   -0.829238   -0.168845
      2          6           0       -0.460692    1.802331   -0.023240
      3          6           0       -0.836105   -0.683283    0.427209
      4          6           0        1.500792    0.264459    0.201369
      5          6           0        0.043139    0.374428   -0.255318
      6          8           0        2.109917   -0.991421   -0.095886
      7          1           0       -2.822588    0.085548   -0.074475
      8          1           0       -2.186814   -1.082790   -1.230252
      9          1           0       -2.790772   -1.623663    0.332395
     10          1           0       -0.462102    2.045466    1.042320
     11          1           0       -1.476626    1.936066   -0.392815
     12          1           0        0.171194    2.533818   -0.530269
     13          1           0       -0.321864   -1.644079    0.373767
     14          1           0       -0.914617   -0.436619    1.491531
     15          1           0        1.558959    0.362361    1.287435
     16          1           0        2.087287    1.082323   -0.232344
     17          1           0        0.027882    0.181040   -1.336643
     18          1           0        2.185520   -1.080283   -1.050612
 ---------------------------------------------------------------------

 SCF Done:  E(RHF) =  -271.517165896     A.U. after    2 cycles

 The electronic state is 1-A.
 Alpha  occ. eigenvalues --  -20.54399 -11.27845 -11.23275 -11.22524 -11.22102
 Alpha  occ. eigenvalues --  -11.22032  -1.44134  -1.09238  -0.99414  -0.92055
 Alpha  occ. eigenvalues --   -0.85975  -0.78026  -0.68225  -0.64606  -0.62862
 Alpha  occ. eigenvalues --   -0.59421  -0.58807  -0.55427  -0.54416  -0.51210
 Alpha  occ. eigenvalues --   -0.50705  -0.49125  -0.46925  -0.45706  -0.42797
 Alpha virt. eigenvalues --    0.03274   0.03714   0.03883   0.04376   0.06136
 Alpha virt. eigenvalues --    0.06391   0.06514   0.06877   0.07314   0.09337
 Alpha virt. eigenvalues --    0.09694   0.10070   0.13545   0.13999   0.14414

 Mulliken charges:
               1
     1  C   -0.375607
     2  C   -0.099279
     3  C    0.081817
     4  C    1.124356
     5  C   -1.420747
     6  O   -1.153695
     7  H    0.139004
     8  H    0.166951
     9  H    0.117560
    10  H    0.219536
    11  H    0.141119
    12  H    0.147767
    13  H    0.130927
    14  H    0.138333
    15  H    0.129782
    16  H    0.126099
    17  H    0.105699
    18  H    0.280378
 Sum of Mulliken charges =  -0.00000

 Dipole moment (field-independent basis, Debye):
    X=             -0.6263    Y=              1.0554    Z=             -1.1189  Tot=              1.6608

 Test job not archived.
 1\1\GINC-SE129\SP\RHF\Aug-CC-pVDZ\C5H12O1\OHZDE\05-Apr-2025\0\\#t hf a
 ug-cc-pvdz iop(5/13=1,5/36=2,99/5=2) pseudo=read geom=check guess=(rea
 d,tcheck) scf=(maxcycle=1)\\title\\0,1\C,0,-2.236267,-0.829238,-0.1688
 45\C,0,-0.460692,1.802331,-0.02324\C,0,-0.836105,-0.683283,0.427209\C,
 0,1.500792,0.264459,0.201369\C,0,0.043139,0.374428,-0.255318\O,0,2.109
 917,-0.991421,-0.095886\H,0,-2.822588,0.085548,-0.074475\H,0,-2.186814
 ,-1.08279,-1.230252\H,0,-2.790772,-1.623663,0.332395\H,0,-0.462102,2.0
 45466,1.04232\H,0,-1.476626,1.936066,-0.392815\H,0,0.171194,2.533818,-

 Normal termination of Gaussian 16 at Sat Apr  5 22:41:33 2025.
