 Gaussian 16, Revision C.01,

 ----------------------------------------------------------------------
 #t hf aug-cc-pvdz symm=none int=(grid=ultrafine) guess=(read,tcheck) s
 table=(opt,rrhf)
 ----------------------------------------------------------------------
 -----
 title
 -----
 Symbolic Z-matrix:
 Charge =  0 Multiplicity = 1

 SCF Done:  E(RHF) =  -210.022322845     A.U. after   13 cycles
 Normal termination of Gaussian 16 at Sat Apr  5 22:40:29 2025.
 Gaussian 16:  ES64L-G16RevC.01  3-Jul-2019

 ----------------------------------------------------------------------
 #t hf aug-cc-pvdz iop(5/13=1,5/36=2,99/5=2) pseudo=read geom=check gue
 ss=(read,tcheck) scf=(maxcycle=1)
 ----------------------------------------------------------------------
 -----
 title
 -----
 Structure from the checkpoint file:  "2-methylpropanenitrile.chk"
 Charge =  0 Multiplicity = 1

                         Standard orientation:
 ---------------------------------------------------------------------
 Center     Atomic      Atomic             Coordinates (Angstroms)
 Number     Number       Type             X           Y           Z
 ---------------------------------------------------------------------
      1          7           0       -0.400750   -2.173012   -0.000000
      2          6           0       -0.026829   -1.085083   -0.000000
      3          1           0        1.527406    0.267302    0.000000
      4          6           0        0.434603    0.306529    0.000000
      5          1           0        0.322951    0.513931    2.170270
      6          1           0        0.322951    0.513931   -2.170270
      7          1           0       -1.114559    1.081957   -1.317044
      8          1           0       -1.114559    1.081957    1.317044
      9          6           0       -0.026829    1.027994   -1.276481
     10          6           0       -0.026829    1.027994    1.276481
     11          1           0        0.368182    2.043699   -1.284867
     12          1           0        0.368182    2.043699    1.284867
 ---------------------------------------------------------------------

 SCF Done:  E(RHF) =  -210.243601591     A.U. after    2 cycles

 The electronic state is 1-A'.
 Alpha  occ. eigenvalues --  -15.50694 -11.29462 -11.27422 -11.25410 -11.25399
 Alpha  occ. eigenvalues --   -1.23161  -1.11357  -0.96459  -0.88594  -0.71582
 Alpha  occ. eigenvalues --   -0.65404  -0.61153  -0.60823  -0.57368  -0.55351
 Alpha  occ. eigenvalues --   -0.53943  -0.53525  -0.48530  -0.48285
 Alpha virt. eigenvalues --    0.02908   0.03844   0.03876   0.04687   0.06292
 Alpha virt. eigenvalues --    0.06821   0.07277   0.09418   0.11174   0.13066
 Alpha virt. eigenvalues --    0.13696   0.14490   0.14868   0.15739   0.15799

 Mulliken charges:
               1
     1  N    0.974521
     2  C   -1.561764
     3  H    0.243555
     4  C   -0.785915
     5  H    0.145556
     6  H    0.145556
     7  H    0.236427
     8  H    0.236427
     9  C    0.034937
    10  C    0.034937
    11  H    0.147882
    12  H    0.147882
 Sum of Mulliken charges =  -0.00000

 Dipole moment (field-independent basis, Debye):
    X=              1.4303    Y=              4.7058    Z=              0.0000  Tot=              4.9183

 Test job not archived.
 1\1\GINC-SE225\SP\RHF\Aug-CC-pVDZ\C4H7N1\OHZDE\05-Apr-2025\0\\#t hf au
 g-cc-pvdz iop(5/13=1,5/36=2,99/5=2) pseudo=read geom=check guess=(read
 ,tcheck) scf=(maxcycle=1)\\title\\0,1\N,0,-0.40075,-2.173012,0.\C,0,-0
 .026829,-1.085083,0.\H,0,1.527406,0.267302,0.\C,0,0.434603,0.306529,0.
 \H,0,0.322951,0.513931,2.17027\H,0,0.322951,0.513931,-2.17027\H,0,-1.1
 14559,1.081957,-1.317044\H,0,-1.114559,1.081957,1.317044\C,0,-0.026829
 ,1.027994,-1.276481\C,0,-0.026829,1.027994,1.276481\H,0,0.368182,2.043
 699,-1.284867\H,0,0.368182,2.043699,1.284867\\Version=ES64L-G16RevC.01

 Normal termination of Gaussian 16 at Sat Apr  5 22:40:54 2025.
