 Gaussian 16, Revision C.01,

 ----------------------------------------------------------------------
 #t hf aug-cc-pvdz symm=none int=(grid=ultrafine) guess=(read,tcheck) s
 table=(opt,rrhf)
 ----------------------------------------------------------------------
 -----
 title
 -----
 Symbolic Z-matrix:
 Charge =  0 Multiplicity = 1

 SCF Done:  E(RHF) =  -212.354594725     A.U. after   12 cycles

 1\1\GINC-SE185\Stability\RHF\Aug-CC-pVDZ\C4H11N1\OHZDE\05-Apr-2025\0\\
 #t hf aug-cc-pvdz symm=none int=(grid=ultrafine) guess=(read,tcheck) s
 table=(opt,rrhf)\\title\\0,1\N,0,0.544724,1.387269,0.\H,0,0.216989,1.8
 95686,0.813925\H,0,0.216989,1.895686,-0.813925\C,0,-1.527556,-0.018978
 ,0.\H,0,-1.923151,0.487103,0.883105\H,0,-1.923151,0.487103,-0.883105\H
 ,0,-1.91004,-1.041945,0.\C,0,0.544724,-0.686055,1.255867\H,0,1.634333,
 -0.676871,1.262856\H,0,0.196491,-0.179088,2.158818\H,0,0.203288,-1.720
 826,1.303577\C,0,0.01162,0.01093,0.\C,0,0.544724,-0.686055,-1.255867\H

 Normal termination of Gaussian 16 at Sat Apr  5 22:42:21 2025.
 Gaussian 16:  ES64L-G16RevC.01  3-Jul-2019

 ----------------------------------------------------------------------
 #t hf aug-cc-pvdz iop(5/13=1,5/36=2,99/5=2) pseudo=read geom=check gue
 ss=(read,tcheck) scf=(maxcycle=1)
 ----------------------------------------------------------------------
 -----
 title
 -----
 Structure from the checkpoint file:  "2-methyl-2-propanamine.chk"
 Charge =  0 Multiplicity = 1

                         Standard orientation:
 ---------------------------------------------------------------------
 Center     Atomic      Atomic             Coordinates (Angstroms)
 Number     Number       Type             X           Y           Z
 ---------------------------------------------------------------------
      1          7           0        0.544724    1.387269   -0.000000
      2          1           0        0.216989    1.895686    0.813925
      3          1           0        0.216989    1.895686   -0.813925
      4          6           0       -1.527556   -0.018978    0.000000
      5          1           0       -1.923151    0.487103    0.883105
      6          1           0       -1.923151    0.487103   -0.883105
      7          1           0       -1.910040   -1.041945    0.000000
      8          6           0        0.544724   -0.686055    1.255867
      9          1           0        1.634333   -0.676871    1.262856
     10          1           0        0.196491   -0.179088    2.158818
     11          1           0        0.203288   -1.720826    1.303577
     12          6           0        0.011620    0.010930   -0.000000
     13          6           0        0.544724   -0.686055   -1.255867
     14          1           0        1.634333   -0.676871   -1.262856
     15          1           0        0.203288   -1.720826   -1.303577
     16          1           0        0.196491   -0.179088   -2.158818
 ---------------------------------------------------------------------

 SCF Done:  E(RHF) =  -212.593265765     A.U. after    2 cycles

 The electronic state is 1-A'.
 Alpha  occ. eigenvalues --  -15.47696 -11.26353 -11.22011 -11.21720 -11.21689
 Alpha  occ. eigenvalues --   -1.18736  -1.03440  -0.93605  -0.93584  -0.76562
 Alpha  occ. eigenvalues --   -0.68420  -0.64540  -0.61425  -0.58815  -0.55567
 Alpha  occ. eigenvalues --   -0.53651  -0.52046  -0.51837  -0.48926  -0.47264
 Alpha  occ. eigenvalues --   -0.41920
 Alpha virt. eigenvalues --    0.03635   0.04265   0.04319   0.04575   0.06103
 Alpha virt. eigenvalues --    0.06279   0.06699   0.06856   0.07682   0.09983
 Alpha virt. eigenvalues --    0.10059   0.12464   0.14795   0.14825   0.15317

 Mulliken charges:
               1
     1  N    1.038289
     2  H    0.167151
     3  H    0.167151
     4  C    0.440102
     5  H    0.166708
     6  H    0.166708
     7  H    0.243766
     8  C    0.472096
     9  H    0.224803
    10  H    0.158237
    11  H    0.216440
    12  C   -4.533026
    13  C    0.472096
    14  H    0.224803
    15  H    0.216440
    16  H    0.158237
 Sum of Mulliken charges =  -0.00000

 Dipole moment (field-independent basis, Debye):
    X=             -1.3211    Y=             -0.0706    Z=             -0.0000  Tot=              1.3230

 Test job not archived.
 1\1\GINC-SE185\SP\RHF\Aug-CC-pVDZ\C4H11N1\OHZDE\05-Apr-2025\0\\#t hf a
 ug-cc-pvdz iop(5/13=1,5/36=2,99/5=2) pseudo=read geom=check guess=(rea
 d,tcheck) scf=(maxcycle=1)\\title\\0,1\N,0,0.544724,1.387269,0.\H,0,0.
 216989,1.895686,0.813925\H,0,0.216989,1.895686,-0.813925\C,0,-1.527556
 ,-0.018978,0.\H,0,-1.923151,0.487103,0.883105\H,0,-1.923151,0.487103,-
 0.883105\H,0,-1.91004,-1.041945,0.\C,0,0.544724,-0.686055,1.255867\H,0
 ,1.634333,-0.676871,1.262856\H,0,0.196491,-0.179088,2.158818\H,0,0.203
 288,-1.720826,1.303577\C,0,0.01162,0.01093,0.\C,0,0.544724,-0.686055,-

 Normal termination of Gaussian 16 at Sat Apr  5 22:43:15 2025.
