 Gaussian 16, Revision C.01,

 ----------------------------------------------------------------------
 #t hf aug-cc-pvdz symm=none int=(grid=ultrafine) guess=(read,tcheck) s
 table=(opt,rrhf)
 ----------------------------------------------------------------------
 -----
 title
 -----
 Symbolic Z-matrix:
 Charge =  0 Multiplicity = 1

 SCF Done:  E(RHF) =  -554.843201521     A.U. after   12 cycles

 1\1\GINC-SE231\Stability\RHF\Aug-CC-pVDZ\C4H10S1\OHZDE\05-Apr-2025\0\\
 #t hf aug-cc-pvdz symm=none int=(grid=ultrafine) guess=(read,tcheck) s
 table=(opt,rrhf)\\title\\0,1\C,0,2.099858,0.369973,0.299455\S,0,0.7696
 7,-0.705032,-0.323442\C,0,-0.727952,0.124983,0.364432\C,0,-0.985167,1.
 492597,-0.260375\C,0,-1.906973,-0.823775,0.163596\H,0,3.037274,-0.1058
 1,0.018885\H,0,2.064635,1.361496,-0.147229\H,0,2.058488,0.449131,1.385
 117\H,0,-0.544665,0.242009,1.4349\H,0,-0.145508,2.172003,-0.117608\H,0
 ,-1.738088,-1.779969,0.657497\H,0,-1.166779,1.398813,-1.331795\H,0,-1.

 Normal termination of Gaussian 16 at Sat Apr  5 22:41:49 2025.
 Gaussian 16:  ES64L-G16RevC.01  3-Jul-2019

 ----------------------------------------------------------------------
 #t hf aug-cc-pvdz iop(5/13=1,5/36=2,99/5=2) pseudo=read geom=check gue
 ss=(read,tcheck) scf=(maxcycle=1)
 ----------------------------------------------------------------------
 -----
 title
 -----
 Structure from the checkpoint file:  "2-methylsulfanylpropane.chk"
 Charge =  0 Multiplicity = 1

                         Standard orientation:
 ---------------------------------------------------------------------
 Center     Atomic      Atomic             Coordinates (Angstroms)
 Number     Number       Type             X           Y           Z
 ---------------------------------------------------------------------
      1          6           0        2.099858    0.369973    0.299455
      2         16           0        0.769670   -0.705032   -0.323442
      3          6           0       -0.727952    0.124983    0.364432
      4          6           0       -0.985167    1.492597   -0.260375
      5          6           0       -1.906973   -0.823775    0.163596
      6          1           0        3.037274   -0.105810    0.018885
      7          1           0        2.064635    1.361496   -0.147229
      8          1           0        2.058488    0.449131    1.385117
      9          1           0       -0.544665    0.242009    1.434900
     10          1           0       -0.145508    2.172003   -0.117608
     11          1           0       -1.738088   -1.779969    0.657497
     12          1           0       -1.166779    1.398813   -1.331795
     13          1           0       -1.863937    1.955096    0.196475
     14          1           0       -2.816392   -0.380971    0.573674
     15          1           0       -2.078342   -1.013952   -0.897490
 ---------------------------------------------------------------------

 SCF Done:  E(RHF) =  -555.082390431     A.U. after    2 cycles

 The electronic state is 1-A.
 Alpha  occ. eigenvalues --  -93.93146 -11.26894 -11.25917 -11.23032 -11.22988
 Alpha  occ. eigenvalues --   -8.21231  -6.19057  -6.18896  -6.18684  -1.10787
 Alpha  occ. eigenvalues --   -1.01918  -0.94193  -0.87754  -0.77494  -0.63904
 Alpha  occ. eigenvalues --   -0.61920  -0.59585  -0.58513  -0.56424  -0.54961
 Alpha  occ. eigenvalues --   -0.50899  -0.50160  -0.47460  -0.42407  -0.34043
 Alpha virt. eigenvalues --    0.03639   0.03773   0.04220   0.04552   0.06125
 Alpha virt. eigenvalues --    0.06587   0.06953   0.07348   0.08433   0.09767
 Alpha virt. eigenvalues --    0.10959   0.13663   0.14115   0.14559   0.15449

 Mulliken charges:
               1
     1  C   -0.676201
     2  S    0.415072
     3  C   -1.081697
     4  C   -0.240728
     5  C   -0.084969
     6  H    0.132082
     7  H    0.201269
     8  H    0.167987
     9  H    0.163177
    10  H    0.067216
    11  H    0.141189
    12  H    0.217902
    13  H    0.182417
    14  H    0.175527
    15  H    0.219757
 Sum of Mulliken charges =  -0.00000

 Dipole moment (field-independent basis, Debye):
    X=             -0.3022    Y=              1.5019    Z=              1.0702  Tot=              1.8688

 Test job not archived.
 1\1\GINC-SE231\SP\RHF\Aug-CC-pVDZ\C4H10S1\OHZDE\05-Apr-2025\0\\#t hf a
 ug-cc-pvdz iop(5/13=1,5/36=2,99/5=2) pseudo=read geom=check guess=(rea
 d,tcheck) scf=(maxcycle=1)\\title\\0,1\C,0,2.099858,0.369973,0.299455\
 S,0,0.76967,-0.705032,-0.323442\C,0,-0.727952,0.124983,0.364432\C,0,-0
 .985167,1.492597,-0.260375\C,0,-1.906973,-0.823775,0.163596\H,0,3.0372
 74,-0.10581,0.018885\H,0,2.064635,1.361496,-0.147229\H,0,2.058488,0.44
 9131,1.385117\H,0,-0.544665,0.242009,1.4349\H,0,-0.145508,2.172003,-0.
 117608\H,0,-1.738088,-1.779969,0.657497\H,0,-1.166779,1.398813,-1.3317

 Normal termination of Gaussian 16 at Sat Apr  5 22:42:23 2025.
