 Gaussian 16, Revision C.01,

 ----------------------------------------------------------------------
 #t hf aug-cc-pvdz symm=none int=(grid=ultrafine) guess=(read,tcheck) s
 table=(opt,rrhf)
 ----------------------------------------------------------------------
 -----
 title
 -----
 Symbolic Z-matrix:
 Charge =  0 Multiplicity = 1

 SCF Done:  E(RHF) =  -231.017228773     A.U. after   14 cycles
 Normal termination of Gaussian 16 at Sat Apr  5 22:40:34 2025.
 Gaussian 16:  ES64L-G16RevC.01  3-Jul-2019

 ----------------------------------------------------------------------
 #t hf aug-cc-pvdz iop(5/13=1,5/36=2,99/5=2) pseudo=read geom=check gue
 ss=(read,tcheck) scf=(maxcycle=1)
 ----------------------------------------------------------------------
 -----
 title
 -----
 Structure from the checkpoint file:  "2-methylpropanal.chk"
 Charge =  0 Multiplicity = 1

                         Standard orientation:
 ---------------------------------------------------------------------
 Center     Atomic      Atomic             Coordinates (Angstroms)
 Number     Number       Type             X           Y           Z
 ---------------------------------------------------------------------
      1          6           0        0.937510   -0.611838   -0.203807
      2          6           0       -1.492937   -0.871126    0.255516
      3          6           0       -0.484064    1.465272    0.040969
      4          6           0       -0.424750    0.011005   -0.411659
      5          8           0        1.895644   -0.059647    0.273304
      6          1           0        1.010075   -1.671440   -0.531638
      7          1           0       -1.421771   -1.909326   -0.072827
      8          1           0       -2.490925   -0.510469    0.007755
      9          1           0       -1.387988   -0.851505    1.341538
     10          1           0       -1.458921    1.896199   -0.188710
     11          1           0        0.282989    2.063378   -0.448681
     12          1           0       -0.321325    1.543319    1.116354
     13          1           0       -0.591848   -0.042855   -1.496335
 ---------------------------------------------------------------------

 SCF Done:  E(RHF) =  -231.261712607     A.U. after    2 cycles

 The electronic state is 1-A.
 Alpha  occ. eigenvalues --  -20.54586 -11.33805 -11.25534 -11.24414 -11.22897
 Alpha  occ. eigenvalues --   -1.47694  -1.09695  -0.94882  -0.89491  -0.76739
 Alpha  occ. eigenvalues --   -0.68899  -0.64760  -0.63327  -0.57459  -0.55793
 Alpha  occ. eigenvalues --   -0.54087  -0.52768  -0.50476  -0.48676  -0.41143
 Alpha virt. eigenvalues --    0.03210   0.03852   0.03951   0.04867   0.06600
 Alpha virt. eigenvalues --    0.06842   0.07553   0.07625   0.10479   0.12533
 Alpha virt. eigenvalues --    0.13325   0.14467   0.14670   0.15206   0.15799

 Mulliken charges:
               1
     1  C    1.249047
     2  C   -0.109683
     3  C   -0.019128
     4  C   -1.324899
     5  O   -1.147619
     6  H    0.108045
     7  H    0.116779
     8  H    0.142993
     9  H    0.228309
    10  H    0.154914
    11  H    0.121302
    12  H    0.208902
    13  H    0.271038
 Sum of Mulliken charges =  -0.00000

 Dipole moment (field-independent basis, Debye):
    X=             -2.7044    Y=             -0.8801    Z=             -1.0689  Tot=              3.0383

 Test job not archived.
 1\1\GINC-SE198\SP\RHF\Aug-CC-pVDZ\C4H8O1\OHZDE\05-Apr-2025\0\\#t hf au
 g-cc-pvdz iop(5/13=1,5/36=2,99/5=2) pseudo=read geom=check guess=(read
 ,tcheck) scf=(maxcycle=1)\\title\\0,1\C,0,0.93751,-0.611839,-0.203807\
 C,0,-1.492937,-0.871125,0.255516\C,0,-0.484063,1.465272,0.040969\C,0,-
 0.42475,0.011005,-0.411659\O,0,1.895644,-0.059648,0.273304\H,0,1.01007
 4,-1.671441,-0.531638\H,0,-1.421772,-1.909325,-0.072827\H,0,-2.490925,
 -0.510468,0.007755\H,0,-1.387988,-0.851504,1.341538\H,0,-1.45892,1.896
 2,-0.18871\H,0,0.28299,2.063378,-0.448681\H,0,-0.321324,1.543319,1.116

 Normal termination of Gaussian 16 at Sat Apr  5 22:40:54 2025.
