 Gaussian 16, Revision C.01,

 ----------------------------------------------------------------------
 #t hf aug-cc-pvdz symm=none int=(grid=ultrafine) guess=(read,tcheck) s
 table=(opt,rrhf)
 ----------------------------------------------------------------------
 -----
 title
 -----
 Symbolic Z-matrix:
 Charge =  0 Multiplicity = 1

 SCF Done:  E(RHF) =  -249.059685813     A.U. after   14 cycles
 Normal termination of Gaussian 16 at Sat Apr  5 22:41:54 2025.
 Gaussian 16:  ES64L-G16RevC.01  3-Jul-2019

 ----------------------------------------------------------------------
 #t hf aug-cc-pvdz iop(5/13=1,5/36=2,99/5=2) pseudo=read geom=check gue
 ss=(read,tcheck) scf=(maxcycle=1)
 ----------------------------------------------------------------------
 -----
 title
 -----
 Structure from the checkpoint file:  "2-methylbutanenitrile.chk"
 Charge =  0 Multiplicity = 1

                         Standard orientation:
 ---------------------------------------------------------------------
 Center     Atomic      Atomic             Coordinates (Angstroms)
 Number     Number       Type             X           Y           Z
 ---------------------------------------------------------------------
      1          6           0       -1.519478   -0.306091    0.116403
      2          7           0       -2.579509   -0.707080   -0.081472
      3          6           0       -0.053322    1.653906   -0.147603
      4          1           0       -0.178135    1.700270   -1.229566
      5          1           0       -0.816479    2.281556    0.309582
      6          1           0        0.921467    2.065882    0.106210
      7          6           0        2.314757   -0.422465    0.087354
      8          1           0        2.455299   -0.421432    1.170184
      9          1           0        2.992332   -1.166370   -0.331717
     10          1           0        2.625607    0.550800   -0.292013
     11          6           0        0.870992   -0.753554   -0.283413
     12          1           0        0.745929   -0.734085   -1.368367
     13          1           0        0.638768   -1.770647    0.035713
     14          6           0       -0.164996    0.202947    0.349922
     15          1           0       -0.015943    0.195124    1.434302
 ---------------------------------------------------------------------

 SCF Done:  E(RHF) =  -249.324288020     A.U. after    2 cycles

 The electronic state is 1-A.
 Alpha  occ. eigenvalues --  -15.50556 -11.29095 -11.27282 -11.25630 -11.25205
 Alpha  occ. eigenvalues --  -11.24285  -1.23040  -1.12152  -1.01608  -0.92513
 Alpha  occ. eigenvalues --   -0.83936  -0.71668  -0.66631  -0.62306  -0.60839
 Alpha  occ. eigenvalues --   -0.58976  -0.56918  -0.55414  -0.53402  -0.51953
 Alpha  occ. eigenvalues --   -0.51049  -0.48135  -0.47589
 Alpha virt. eigenvalues --    0.03039   0.03365   0.03618   0.04284   0.05861
 Alpha virt. eigenvalues --    0.06364   0.06840   0.07556   0.08783   0.10114
 Alpha virt. eigenvalues --    0.12291   0.12969   0.13606   0.14311   0.14589

 Mulliken charges:
               1
     1  C   -1.937755
     2  N    1.115007
     3  C    0.024454
     4  H    0.240541
     5  H    0.139120
     6  H    0.145513
     7  C   -0.276954
     8  H    0.154374
     9  H    0.124123
    10  H    0.139863
    11  C   -0.035211
    12  H    0.154301
    13  H    0.106546
    14  C   -0.291782
    15  H    0.197862
 Sum of Mulliken charges =  -0.00000

 Dipole moment (field-independent basis, Debye):
    X=              4.7084    Y=              1.6422    Z=              0.6305  Tot=              5.0262

 Test job not archived.
 1\1\GINC-SE107\SP\RHF\Aug-CC-pVDZ\C5H9N1\OHZDE\05-Apr-2025\0\\#t hf au
 g-cc-pvdz iop(5/13=1,5/36=2,99/5=2) pseudo=read geom=check guess=(read
 ,tcheck) scf=(maxcycle=1)\\title\\0,1\C,0,-1.519478,-0.306091,0.116403
 \N,0,-2.579509,-0.70708,-0.081472\C,0,-0.053322,1.653906,-0.147603\H,0
 ,-0.178135,1.70027,-1.229566\H,0,-0.816479,2.281556,0.309582\H,0,0.921
 467,2.065882,0.10621\C,0,2.314757,-0.422465,0.087354\H,0,2.455299,-0.4
 21432,1.170184\H,0,2.992332,-1.16637,-0.331717\H,0,2.625607,0.5508,-0.
 292013\C,0,0.870992,-0.753554,-0.283413\H,0,0.745929,-0.734085,-1.3683

 Normal termination of Gaussian 16 at Sat Apr  5 22:42:23 2025.
