 Gaussian 16, Revision C.01,

 ----------------------------------------------------------------------
 #t hf aug-cc-pvdz symm=none int=(grid=ultrafine) guess=(read,tcheck) s
 table=(opt,rrhf)
 ----------------------------------------------------------------------
 -----
 title
 -----
 Symbolic Z-matrix:
 Charge =  0 Multiplicity = 1

 SCF Done:  E(RHF) =  -289.261802209     A.U. after   12 cycles

 1\1\GINC-SE188\Stability\RHF\Aug-CC-pVDZ\C6H13N1\OHZDE\05-Apr-2025\0\\
 #t hf aug-cc-pvdz symm=none int=(grid=ultrafine) guess=(read,tcheck) s
 table=(opt,rrhf)\\title\\0,1\C,0,-1.876724,-0.056528,0.292117\C,0,-1.2
 20756,1.238754,-0.193233\C,0,0.269212,1.266716,0.162963\C,0,0.99315,0.
 003566,-0.331778\N,0,0.336494,-1.236054,0.10124\C,0,-1.09353,-1.276574
 ,-0.20657\C,0,2.45808,-0.02292,0.084158\H,0,-2.914516,-0.113656,-0.046
 636\H,0,-1.90032,-0.067386,1.38704\H,0,-1.33115,1.311007,-1.280554\H,0
 ,-1.729106,2.108897,0.227207\H,0,0.744092,2.1563,-0.259637\H,0,0.38553

 Normal termination of Gaussian 16 at Sat Apr  5 22:42:44 2025.
 Gaussian 16:  ES64L-G16RevC.01  3-Jul-2019

 ----------------------------------------------------------------------
 #t hf aug-cc-pvdz iop(5/13=1,5/36=2,99/5=2) pseudo=read geom=check gue
 ss=(read,tcheck) scf=(maxcycle=1)
 ----------------------------------------------------------------------
 -----
 title
 -----
 Structure from the checkpoint file:  "2-methylpiperidine.chk"
 Charge =  0 Multiplicity = 1

                         Standard orientation:
 ---------------------------------------------------------------------
 Center     Atomic      Atomic             Coordinates (Angstroms)
 Number     Number       Type             X           Y           Z
 ---------------------------------------------------------------------
      1          6           0       -1.876724   -0.056528    0.292117
      2          6           0       -1.220756    1.238754   -0.193233
      3          6           0        0.269212    1.266716    0.162963
      4          6           0        0.993150    0.003566   -0.331778
      5          7           0        0.336494   -1.236054    0.101240
      6          6           0       -1.093530   -1.276574   -0.206570
      7          6           0        2.458080   -0.022920    0.084158
      8          1           0       -2.914516   -0.113656   -0.046636
      9          1           0       -1.900320   -0.067386    1.387040
     10          1           0       -1.331150    1.311007   -1.280554
     11          1           0       -1.729106    2.108897    0.227207
     12          1           0        0.744092    2.156300   -0.259637
     13          1           0        0.385539    1.333833    1.250920
     14          1           0        0.947191    0.002171   -1.427861
     15          1           0        0.478094   -1.362314    1.097987
     16          1           0       -1.506343   -2.198011    0.207370
     17          1           0       -1.194856   -1.349044   -1.294590
     18          1           0        2.954195   -0.908747   -0.311642
     19          1           0        2.551510   -0.040360    1.173496
     20          1           0        2.983619    0.861609   -0.277729
 ---------------------------------------------------------------------

 SCF Done:  E(RHF) =  -289.581401835     A.U. after    2 cycles

 The electronic state is 1-A.
 Alpha  occ. eigenvalues --  -15.47388 -11.25150 -11.24716 -11.22388 -11.22143
 Alpha  occ. eigenvalues --  -11.22032 -11.21787  -1.20763  -1.05671  -1.03798
 Alpha  occ. eigenvalues --   -0.94037  -0.86432  -0.82176  -0.78111  -0.66205
 Alpha  occ. eigenvalues --   -0.64001  -0.63427  -0.61109  -0.59174  -0.55822
 Alpha  occ. eigenvalues --   -0.53339  -0.52608  -0.51933  -0.49507  -0.48147
 Alpha  occ. eigenvalues --   -0.46360  -0.45707  -0.38255
 Alpha virt. eigenvalues --    0.03684   0.03811   0.03947   0.04203   0.05423
 Alpha virt. eigenvalues --    0.05574   0.05780   0.06255   0.06515   0.09147
 Alpha virt. eigenvalues --    0.09500   0.09636   0.09875   0.13178   0.13952

 Mulliken charges:
               1
     1  C   -0.197951
     2  C   -0.225970
     3  C   -0.012224
     4  C   -1.514120
     5  N    0.737487
     6  C   -0.525134
     7  C   -0.050057
     8  H    0.118438
     9  H    0.123981
    10  H    0.116714
    11  H    0.122851
    12  H    0.116664
    13  H    0.146673
    14  H    0.033057
    15  H    0.364386
    16  H    0.021127
    17  H    0.128370
    18  H    0.174621
    19  H    0.164992
    20  H    0.156094
 Sum of Mulliken charges =  -0.00000

 Dipole moment (field-independent basis, Debye):
    X=             -0.5568    Y=              0.9947    Z=              0.4992  Tot=              1.2444

 Test job not archived.
 1\1\GINC-SE188\SP\RHF\Aug-CC-pVDZ\C6H13N1\OHZDE\05-Apr-2025\0\\#t hf a
 ug-cc-pvdz iop(5/13=1,5/36=2,99/5=2) pseudo=read geom=check guess=(rea
 d,tcheck) scf=(maxcycle=1)\\title\\0,1\C,0,-1.876724,-0.056528,0.29211
 7\C,0,-1.220756,1.238754,-0.193233\C,0,0.269212,1.266716,0.162963\C,0,
 0.99315,0.003566,-0.331778\N,0,0.336494,-1.236054,0.10124\C,0,-1.09353
 ,-1.276574,-0.20657\C,0,2.45808,-0.02292,0.084158\H,0,-2.914516,-0.113
 656,-0.046636\H,0,-1.90032,-0.067386,1.38704\H,0,-1.33115,1.311007,-1.
 280554\H,0,-1.729106,2.108897,0.227207\H,0,0.744092,2.1563,-0.259637\H

 Normal termination of Gaussian 16 at Sat Apr  5 22:43:21 2025.
