 Gaussian 16, Revision C.01,

 ----------------------------------------------------------------------
 #t hf aug-cc-pvdz symm=none int=(grid=ultrafine) guess=(read,tcheck) s
 table=(opt,rrhf)
 ----------------------------------------------------------------------
 -----
 title
 -----
 Symbolic Z-matrix:
 Charge =  0 Multiplicity = 1

 SCF Done:  E(RHF) =  -192.769370609     A.U. after   15 cycles
 Normal termination of Gaussian 16 at Sat Apr  5 22:40:29 2025.
 Gaussian 16:  ES64L-G16RevC.01  3-Jul-2019

 ----------------------------------------------------------------------
 #t hf aug-cc-pvdz iop(5/13=1,5/36=2,99/5=2) pseudo=read geom=check gue
 ss=(read,tcheck) scf=(maxcycle=1)
 ----------------------------------------------------------------------
 -----
 title
 -----
 Structure from the checkpoint file:  "2-methyl-1-buten-3-yne.chk"
 Charge =  0 Multiplicity = 1

                         Standard orientation:
 ---------------------------------------------------------------------
 Center     Atomic      Atomic             Coordinates (Angstroms)
 Number     Number       Type             X           Y           Z
 ---------------------------------------------------------------------
      1          6           0       -1.467731    0.790367    0.000000
      2          1           0       -1.610102    1.869749    0.000000
      3          1           0       -1.963613    0.371038    0.877295
      4          1           0       -1.963613    0.371038   -0.877295
      5          6           0        0.530643   -2.135031    0.000000
      6          1           0        0.736992   -3.175778    0.000000
      7          6           0        0.314957   -0.952176    0.000000
      8          6           0        0.000000    0.441174    0.000000
      9          6           0        0.966097    1.364809    0.000000
     10          1           0        2.010863    1.089814    0.000000
     11          1           0        0.725678    2.419275    0.000000
 ---------------------------------------------------------------------

 SCF Done:  E(RHF) =  -192.974093791     A.U. after    2 cycles

 The electronic state is 1-A'.
 Alpha  occ. eigenvalues --  -11.27172 -11.24615 -11.24497 -11.24047 -11.23989
 Alpha  occ. eigenvalues --   -1.11394  -1.01563  -0.94990  -0.83058  -0.72055
 Alpha  occ. eigenvalues --   -0.67293  -0.62335  -0.58781  -0.55428  -0.53243
 Alpha  occ. eigenvalues --   -0.45630  -0.40606  -0.34756
 Alpha virt. eigenvalues --    0.03684   0.03824   0.04415   0.05408   0.05563
 Alpha virt. eigenvalues --    0.07250   0.08764   0.10213   0.11544   0.11783
 Alpha virt. eigenvalues --    0.12066   0.14746   0.14994   0.15085   0.16544

 Mulliken charges:
               1
     1  C   -0.814183
     2  H    0.103828
     3  H    0.280363
     4  H    0.280363
     5  C    0.087322
     6  H   -0.415921
     7  C    0.345620
     8  C    0.335282
     9  C    0.069398
    10  H   -0.159907
    11  H   -0.112164
 Sum of Mulliken charges =  -0.00000

 Dipole moment (field-independent basis, Debye):
    X=             -0.3177    Y=              0.4275    Z=             -0.0000  Tot=              0.5327

 Test job not archived.
 1\1\GINC-SE196\SP\RHF\Aug-CC-pVDZ\C5H6\OHZDE\05-Apr-2025\0\\#t hf aug-
 cc-pvdz iop(5/13=1,5/36=2,99/5=2) pseudo=read geom=check guess=(read,t
 check) scf=(maxcycle=1)\\title\\0,1\C,0,-1.467731,0.790367,0.\H,0,-1.6
 10102,1.869749,0.\H,0,-1.963613,0.371038,0.877295\H,0,-1.963613,0.3710
 38,-0.877295\C,0,0.530643,-2.135031,0.\H,0,0.736992,-3.175778,0.\C,0,0
 .314957,-0.952176,0.\C,0,0.,0.441174,0.\C,0,0.966097,1.364809,0.\H,0,2
 .010863,1.089814,0.\H,0,0.725678,2.419275,0.\\Version=ES64L-G16RevC.01
 \State=1-A'\HF=-192.9740938\RMSD=2.312e-02\Dipole=-0.1250078,0.168193,

 Normal termination of Gaussian 16 at Sat Apr  5 22:40:54 2025.
