 Gaussian 16, Revision C.01,

 ----------------------------------------------------------------------
 #t hf aug-cc-pvdz symm=none int=(grid=ultrafine) guess=(read,tcheck) s
 table=(opt,rrhf)
 ----------------------------------------------------------------------
 -----
 title
 -----
 Symbolic Z-matrix:
 Charge =  0 Multiplicity = 1

 SCF Done:  E(RHF) =  -1115.65622355     A.U. after   17 cycles
 Normal termination of Gaussian 16 at Sat Apr  5 22:41:06 2025.
 Gaussian 16:  ES64L-G16RevC.01  3-Jul-2019

 ----------------------------------------------------------------------
 #t hf aug-cc-pvdz iop(5/13=1,5/36=2,99/5=2) pseudo=read geom=check gue
 ss=(read,tcheck) scf=(maxcycle=1)
 ----------------------------------------------------------------------
 -----
 title
 -----
 Structure from the checkpoint file:  "2-nitropropanedithioic_acid.chk"
 Charge =  0 Multiplicity = 1

                         Standard orientation:
 ---------------------------------------------------------------------
 Center     Atomic      Atomic             Coordinates (Angstroms)
 Number     Number       Type             X           Y           Z
 ---------------------------------------------------------------------
      1         16           0       -1.970085   -1.004827    0.404057
      2         16           0       -1.139600    1.747515   -0.120095
      3          8           0        2.148970    1.195733   -0.147249
      4          8           0        1.936106   -0.474437    1.215650
      5          7           0        1.643397    0.143181    0.214618
      6          6           0        0.530339   -0.432912   -0.684238
      7          6           0       -0.823235    0.025273   -0.124545
      8          6           0        0.716286   -1.928719   -0.821212
      9          1           0        0.055106    2.176069   -0.582816
     10          1           0        0.695123    0.073347   -1.632561
     11          1           0        0.587914   -2.431303    0.132211
     12          1           0       -0.020665   -2.316756   -1.520848
     13          1           0        1.712760   -2.138854   -1.208928
 ---------------------------------------------------------------------

 SCF Done:  E(RHF) =  -1116.08526703     A.U. after    2 cycles

 The electronic state is 1-A.
 Alpha  occ. eigenvalues --  -94.00477 -93.95910 -20.61470 -20.60983 -15.80592
 Alpha  occ. eigenvalues --  -11.38964 -11.35759 -11.26681  -8.28618  -8.24136
 Alpha  occ. eigenvalues --   -6.26441  -6.26281  -6.26079  -6.21947  -6.21744
 Alpha  occ. eigenvalues --   -6.21525  -1.69335  -1.53159  -1.20724  -1.11795
 Alpha  occ. eigenvalues --   -1.03670  -0.99336  -0.89776  -0.82311  -0.78329
 Alpha  occ. eigenvalues --   -0.76534  -0.73120  -0.68159  -0.62932  -0.59898
 Alpha  occ. eigenvalues --   -0.58087  -0.55403  -0.52171  -0.51797  -0.50067
 Alpha  occ. eigenvalues --   -0.48931  -0.46867  -0.37977  -0.37809
 Alpha virt. eigenvalues --    0.00577   0.03191   0.04301   0.04544   0.04940
 Alpha virt. eigenvalues --    0.05907   0.06892   0.07860   0.09044   0.10311
 Alpha virt. eigenvalues --    0.11117   0.11842   0.13146   0.14265   0.14539

 Mulliken charges:
               1
     1  S    0.193427
     2  S    0.191163
     3  O   -1.382179
     4  O   -1.415274
     5  N    2.770128
     6  C   -0.850535
     7  C   -0.615885
     8  C   -0.138585
     9  H    0.414745
    10  H    0.130445
    11  H    0.289928
    12  H    0.247153
    13  H    0.165470
 Sum of Mulliken charges =   0.00000

 Dipole moment (field-independent basis, Debye):
    X=             -0.0543    Y=             -0.4905    Z=             -3.0026  Tot=              3.0429

 Test job not archived.
 1\1\GINC-SE153\SP\RHF\Aug-CC-pVDZ\C3H5N1O2S2\OHZDE\05-Apr-2025\0\\#t h
 f aug-cc-pvdz iop(5/13=1,5/36=2,99/5=2) pseudo=read geom=check guess=(
 read,tcheck) scf=(maxcycle=1)\\title\\0,1\S,0,-1.970085,-1.004828,0.40
 4057\S,0,-1.139601,1.747515,-0.120095\O,0,2.14897,1.195734,-0.147249\O
 ,0,1.936106,-0.474436,1.21565\N,0,1.643397,0.143182,0.214618\C,0,0.530
 339,-0.432912,-0.684238\C,0,-0.823235,0.025273,-0.124545\C,0,0.716287,
 -1.928719,-0.821212\H,0,0.055105,2.176069,-0.582816\H,0,0.695123,0.073
 347,-1.632561\H,0,0.587915,-2.431303,0.132211\H,0,-0.020664,-2.316756,

 Normal termination of Gaussian 16 at Sat Apr  5 22:41:32 2025.
