 Gaussian 16, Revision C.01,

 ----------------------------------------------------------------------
 #t hf aug-cc-pvdz symm=none int=(grid=ultrafine) guess=(read,tcheck) s
 table=(opt,rrhf)
 ----------------------------------------------------------------------
 -----
 title
 -----
 Symbolic Z-matrix:
 Charge =  0 Multiplicity = 1

 SCF Done:  E(RHF) =  -321.789414442     A.U. after   15 cycles
 Normal termination of Gaussian 16 at Sat Apr  5 22:40:44 2025.
 Gaussian 16:  ES64L-G16RevC.01  3-Jul-2019

 ----------------------------------------------------------------------
 #t hf aug-cc-pvdz iop(5/13=1,5/36=2,99/5=2) pseudo=read geom=check gue
 ss=(read,tcheck) scf=(maxcycle=1)
 ----------------------------------------------------------------------
 -----
 title
 -----
 Structure from the checkpoint file:  "2-nitropropane.chk"
 Charge =  0 Multiplicity = 1

                         Standard orientation:
 ---------------------------------------------------------------------
 Center     Atomic      Atomic             Coordinates (Angstroms)
 Number     Number       Type             X           Y           Z
 ---------------------------------------------------------------------
      1          6           0       -0.019580    1.273801    1.273937
      2          6           0       -0.019580    1.273801   -1.273937
      3          6           0        0.466570    0.597774   -0.000000
      4          7           0       -0.019580   -0.850943    0.000000
      5          8           0        0.828786   -1.727382   -0.000000
      6          8           0       -1.224451   -1.038289    0.000000
      7          1           0        0.370883    2.290811    1.305811
      8          1           0       -1.106994    1.317390    1.296364
      9          1           0        0.330843    0.747565    2.161338
     10          1           0        0.330843    0.747565   -2.161338
     11          1           0        0.370883    2.290811   -1.305811
     12          1           0       -1.106994    1.317390   -1.296364
     13          1           0        1.548465    0.498180   -0.000000
 ---------------------------------------------------------------------

 SCF Done:  E(RHF) =  -322.115126742     A.U. after    2 cycles

 The electronic state is 1-A'.
 Alpha  occ. eigenvalues --  -20.58831 -20.58551 -15.77732 -11.31954 -11.25848
 Alpha  occ. eigenvalues --  -11.25826  -1.66619  -1.50402  -1.15364  -0.98285
 Alpha  occ. eigenvalues --   -0.97679  -0.83823  -0.76379  -0.73902  -0.73789
 Alpha  occ. eigenvalues --   -0.65961  -0.60090  -0.59794  -0.57693  -0.53617
 Alpha  occ. eigenvalues --   -0.53462  -0.48271  -0.47656  -0.44642
 Alpha virt. eigenvalues --    0.03032   0.04096   0.04263   0.04747   0.06265
 Alpha virt. eigenvalues --    0.06357   0.06940   0.08073   0.11394   0.12010
 Alpha virt. eigenvalues --    0.14387   0.14414   0.14841   0.15304   0.16125

 Mulliken charges:
               1
     1  C    0.019232
     2  C    0.019232
     3  C   -1.399850
     4  N    2.716777
     5  O   -1.316098
     6  O   -1.407276
     7  H    0.219991
     8  H    0.266497
     9  H    0.150792
    10  H    0.150792
    11  H    0.219991
    12  H    0.266497
    13  H    0.093423
 Sum of Mulliken charges =  -0.00000

 Dipole moment (field-independent basis, Debye):
    X=              1.0249    Y=              4.1125    Z=             -0.0000  Tot=              4.2383

 Test job not archived.
 1\1\GINC-SE153\SP\RHF\Aug-CC-pVDZ\C3H7N1O2\OHZDE\05-Apr-2025\0\\#t hf
 aug-cc-pvdz iop(5/13=1,5/36=2,99/5=2) pseudo=read geom=check guess=(re
 ad,tcheck) scf=(maxcycle=1)\\title\\0,1\C,0,-0.01958,1.273801,1.273937
 \C,0,-0.01958,1.273801,-1.273937\C,0,0.46657,0.597774,0.\N,0,-0.01958,
 -0.850943,0.\O,0,0.828786,-1.727382,0.\O,0,-1.224451,-1.038289,0.\H,0,
 0.370883,2.290811,1.305811\H,0,-1.106994,1.31739,1.296364\H,0,0.330843
 ,0.747565,2.161338\H,0,0.330843,0.747565,-2.161338\H,0,0.370883,2.2908
 11,-1.305811\H,0,-1.106994,1.31739,-1.296364\H,0,1.548465,0.49818,0.\\

 Normal termination of Gaussian 16 at Sat Apr  5 22:40:54 2025.
