 Gaussian 16, Revision C.01,

 ----------------------------------------------------------------------
 #t hf aug-cc-pvdz symm=none int=(grid=ultrafine) guess=(read,tcheck) s
 table=(opt,rrhf)
 ----------------------------------------------------------------------
 -----
 title
 -----
 Symbolic Z-matrix:
 Charge =  0 Multiplicity = 1

 SCF Done:  E(RHF) =  -360.828300887     A.U. after   15 cycles
 Normal termination of Gaussian 16 at Sat Apr  5 22:40:59 2025.
 Gaussian 16:  ES64L-G16RevC.01  3-Jul-2019

 ----------------------------------------------------------------------
 #t hf aug-cc-pvdz iop(5/13=1,5/36=2,99/5=2) pseudo=read geom=check gue
 ss=(read,tcheck) scf=(maxcycle=1)
 ----------------------------------------------------------------------
 -----
 title
 -----
 Structure from the checkpoint file:  "2-nitrobutane.chk"
 Charge =  0 Multiplicity = 1

                         Standard orientation:
 ---------------------------------------------------------------------
 Center     Atomic      Atomic             Coordinates (Angstroms)
 Number     Number       Type             X           Y           Z
 ---------------------------------------------------------------------
      1          6           0        0.729471    1.904216   -0.107889
      2          6           0       -0.016491    0.615252   -0.425867
      3          7           0        0.850921   -0.558678    0.026714
      4          8           0        1.306585   -1.287691   -0.838614
      5          8           0        1.039827   -0.688006    1.224692
      6          6           0       -1.386010    0.520666    0.241641
      7          6           0       -2.166261   -0.746449   -0.100809
      8          1           0        0.857898    2.020360    0.966917
      9          1           0        1.709251    1.922511   -0.584185
     10          1           0        0.153750    2.749659   -0.483645
     11          1           0       -0.096788    0.467156   -1.500194
     12          1           0       -1.947266    1.400933   -0.080637
     13          1           0       -1.253956    0.607897    1.320918
     14          1           0       -2.318382   -0.842024   -1.177079
     15          1           0       -1.649746   -1.642316    0.245321
     16          1           0       -3.146754   -0.729961    0.374509
 ---------------------------------------------------------------------

 SCF Done:  E(RHF) =  -361.197127720     A.U. after    2 cycles

 The electronic state is 1-A.
 Alpha  occ. eigenvalues --  -20.58737 -20.58438 -15.77625 -11.31504 -11.25874
 Alpha  occ. eigenvalues --  -11.25730 -11.24057  -1.66517  -1.50265  -1.15660
 Alpha  occ. eigenvalues --   -1.03432  -0.98000  -0.89022  -0.83135  -0.76347
 Alpha  occ. eigenvalues --   -0.74083  -0.73415  -0.64673  -0.62181  -0.61460
 Alpha  occ. eigenvalues --   -0.58852  -0.55619  -0.52998  -0.51501  -0.51133
 Alpha  occ. eigenvalues --   -0.48140  -0.47289  -0.44556
 Alpha virt. eigenvalues --    0.03093   0.03566   0.04001   0.04606   0.05817
 Alpha virt. eigenvalues --    0.05955   0.06171   0.08001   0.08326   0.09438
 Alpha virt. eigenvalues --    0.11337   0.12609   0.13907   0.14330   0.14566

 Mulliken charges:
               1
     1  C   -0.027079
     2  C   -1.130600
     3  N    2.822484
     4  O   -1.372827
     5  O   -1.479520
     6  C   -0.135005
     7  C   -0.276332
     8  H    0.266349
     9  H    0.154996
    10  H    0.212135
    11  H    0.085758
    12  H    0.183508
    13  H    0.208500
    14  H    0.172914
    15  H    0.191052
    16  H    0.123668
 Sum of Mulliken charges =   0.00000

 Dipole moment (field-independent basis, Debye):
    X=             -2.5636    Y=              3.2131    Z=             -0.8952  Tot=              4.2069

 Test job not archived.
 1\1\GINC-SE046\SP\RHF\Aug-CC-pVDZ\C4H9N1O2\OHZDE\05-Apr-2025\0\\#t hf
 aug-cc-pvdz iop(5/13=1,5/36=2,99/5=2) pseudo=read geom=check guess=(re
 ad,tcheck) scf=(maxcycle=1)\\title\\0,1\C,0,0.729471,1.904216,-0.10788
 9\C,0,-0.016491,0.615252,-0.425867\N,0,0.850921,-0.558678,0.026714\O,0
 ,1.306585,-1.287691,-0.838614\O,0,1.039827,-0.688006,1.224692\C,0,-1.3
 8601,0.520666,0.241641\C,0,-2.166261,-0.746449,-0.100809\H,0,0.857898,
 2.02036,0.966917\H,0,1.709251,1.922511,-0.584185\H,0,0.15375,2.749659,
 -0.483645\H,0,-0.096788,0.467156,-1.500194\H,0,-1.947266,1.400933,-0.0

 Normal termination of Gaussian 16 at Sat Apr  5 22:41:33 2025.
