 Gaussian 16, Revision C.01,

 ----------------------------------------------------------------------
 #t hf aug-cc-pvdz symm=none int=(grid=ultrafine) guess=(read,tcheck) s
 table=(opt,rrhf)
 ----------------------------------------------------------------------
 -----
 title
 -----
 Symbolic Z-matrix:
 Charge =  0 Multiplicity = 1

 SCF Done:  E(RHF) =  -509.095663438     A.U. after   17 cycles
 Normal termination of Gaussian 16 at Sat Apr  5 22:42:36 2025.
 Gaussian 16:  ES64L-G16RevC.01  3-Jul-2019

 ----------------------------------------------------------------------
 #t hf aug-cc-pvdz iop(5/13=1,5/36=2,99/5=2) pseudo=read geom=check gue
 ss=(read,tcheck) scf=(maxcycle=1)
 ----------------------------------------------------------------------
 -----
 title
 -----
 Structure from the checkpoint file:  "2-nitrophenol.chk"
 Charge =  0 Multiplicity = 1

                         Standard orientation:
 ---------------------------------------------------------------------
 Center     Atomic      Atomic             Coordinates (Angstroms)
 Number     Number       Type             X           Y           Z
 ---------------------------------------------------------------------
      1          6           0       -1.835597   -1.471168    0.106759
      2          6           0       -2.531726   -0.267314    0.040621
      3          6           0       -0.452973   -1.452868    0.080538
      4          6           0       -1.850063    0.934346   -0.048731
      5          6           0        0.235671   -0.246214    0.013147
      6          6           0       -0.453434    0.973310   -0.060215
      7          7           0        1.703827   -0.306080    0.022093
      8          8           0        2.221476   -1.316605   -0.438893
      9          8           0        2.315378    0.632296    0.504570
     10          8           0        0.220545    2.138083   -0.177817
     11          1           0       -2.364481   -2.410267    0.175643
     12          1           0       -3.612989   -0.262930    0.054068
     13          1           0        0.123143   -2.364653    0.116206
     14          1           0       -2.397052    1.867174   -0.114478
     15          1           0       -0.405870    2.862503   -0.281682
 ---------------------------------------------------------------------

 SCF Done:  E(RHF) =  -509.595811361     A.U. after    2 cycles

 The electronic state is 1-A.
 Alpha  occ. eigenvalues --  -20.60896 -20.58469 -20.58030 -15.78770 -11.35823
 Alpha  occ. eigenvalues --  -11.31290 -11.28568 -11.28512 -11.27153 -11.26399
 Alpha  occ. eigenvalues --   -1.66491  -1.52929  -1.49980  -1.20376  -1.11411
 Alpha  occ. eigenvalues --   -1.05027  -0.98320  -0.89403  -0.85330  -0.79869
 Alpha  occ. eigenvalues --   -0.76941  -0.74625  -0.74291  -0.70342  -0.68352
 Alpha  occ. eigenvalues --   -0.64991  -0.62140  -0.61279  -0.56786  -0.55500
 Alpha  occ. eigenvalues --   -0.52277  -0.48937  -0.48075  -0.44154  -0.39097
 Alpha  occ. eigenvalues --   -0.35680
 Alpha virt. eigenvalues --    0.02253   0.02861   0.03467   0.03808   0.05799
 Alpha virt. eigenvalues --    0.06659   0.08676   0.09730   0.10534   0.11254
 Alpha virt. eigenvalues --    0.11844   0.12394   0.13089   0.13228   0.13591

 Mulliken charges:
               1
     1  C    0.335461
     2  C    0.155538
     3  C    0.471662
     4  C    0.282655
     5  C   -0.579788
     6  C    1.820324
     7  N    2.654764
     8  O   -1.396631
     9  O   -1.356984
    10  O   -1.823278
    11  H   -0.206786
    12  H   -0.208259
    13  H   -0.228458
    14  H   -0.348928
    15  H    0.428708
 Sum of Mulliken charges =  -0.00000

 Dipole moment (field-independent basis, Debye):
    X=             -6.0208    Y=              1.0661    Z=             -0.1026  Tot=              6.1153

 Test job not archived.
 1\1\GINC-SE155\SP\RHF\Aug-CC-pVDZ\C6H5N1O3\OHZDE\05-Apr-2025\0\\#t hf
 aug-cc-pvdz iop(5/13=1,5/36=2,99/5=2) pseudo=read geom=check guess=(re
 ad,tcheck) scf=(maxcycle=1)\\title\\0,1\C,0,-1.835597,-1.471168,0.1067
 59\C,0,-2.531726,-0.267314,0.040621\C,0,-0.452973,-1.452868,0.080538\C
 ,0,-1.850063,0.934346,-0.048731\C,0,0.235671,-0.246214,0.013147\C,0,-0
 .453434,0.97331,-0.060215\N,0,1.703827,-0.30608,0.022093\O,0,2.221476,
 -1.316606,-0.438893\O,0,2.315378,0.632295,0.50457\O,0,0.220545,2.13808
 3,-0.177817\H,0,-2.364482,-2.410267,0.175643\H,0,-3.612989,-0.262929,0

 Normal termination of Gaussian 16 at Sat Apr  5 22:43:20 2025.
