 Gaussian 16, Revision C.01,

 ----------------------------------------------------------------------
 #t hf aug-cc-pvdz symm=none int=(grid=ultrafine) guess=(read,tcheck) s
 table=(opt,rrhf)
 ----------------------------------------------------------------------
 -----
 title
 -----
 Symbolic Z-matrix:
 Charge =  0 Multiplicity = 1

 SCF Done:  E(RHF) =  -489.276558262     A.U. after   16 cycles
 Normal termination of Gaussian 16 at Sat Apr  5 22:41:34 2025.
 Gaussian 16:  ES64L-G16RevC.01  3-Jul-2019

 ----------------------------------------------------------------------
 #t hf aug-cc-pvdz iop(5/13=1,5/36=2,99/5=2) pseudo=read geom=check gue
 ss=(read,tcheck) scf=(maxcycle=1)
 ----------------------------------------------------------------------
 -----
 title
 -----
 Structure from the checkpoint file:  "2-nitroaniline.chk"
 Charge =  0 Multiplicity = 1

                         Standard orientation:
 ---------------------------------------------------------------------
 Center     Atomic      Atomic             Coordinates (Angstroms)
 Number     Number       Type             X           Y           Z
 ---------------------------------------------------------------------
      1          6           0        2.063464   -1.503763    0.000000
      2          6           0        2.365819   -0.135580    0.000000
      3          6           0        0.760060   -1.938693    0.000000
      4          6           0        1.333452    0.772214    0.000000
      5          6           0       -0.327896   -1.035393   -0.000000
      6          6           0       -0.000000    0.344759    0.000000
      7          7           0       -1.591077   -1.520223   -0.000000
      8          7           0       -1.021402    1.372732   -0.000000
      9          8           0       -0.674531    2.546284   -0.000000
     10          8           0       -2.211698    1.027891   -0.000000
     11          1           0        2.862699   -2.232880    0.000000
     12          1           0        3.391203    0.202815    0.000000
     13          1           0        0.541477   -2.998734   -0.000000
     14          1           0        1.518872    1.834417    0.000000
     15          1           0       -1.742811   -2.511061   -0.000000
     16          1           0       -2.363649   -0.876785   -0.000000
 ---------------------------------------------------------------------

 SCF Done:  E(RHF) =  -489.763054846     A.U. after    2 cycles

 The electronic state is 1-A'.
 Alpha  occ. eigenvalues --  -20.58349 -20.58120 -15.78945 -15.53144 -11.33646
 Alpha  occ. eigenvalues --  -11.29946 -11.27855 -11.27613 -11.25702 -11.24898
 Alpha  occ. eigenvalues --   -1.66147  -1.49522  -1.26490  -1.17764  -1.11273
 Alpha  occ. eigenvalues --   -1.03155  -0.97349  -0.87557  -0.86430  -0.79663
 Alpha  occ. eigenvalues --   -0.75895  -0.75188  -0.74109  -0.74098  -0.67891
 Alpha  occ. eigenvalues --   -0.64667  -0.63767  -0.58551  -0.57309  -0.54235
 Alpha  occ. eigenvalues --   -0.49716  -0.49535  -0.48079  -0.44802  -0.38619
 Alpha  occ. eigenvalues --   -0.33314
 Alpha virt. eigenvalues --    0.02638   0.02642   0.03160   0.03760   0.05778
 Alpha virt. eigenvalues --    0.06267   0.08278   0.09590   0.09774   0.11164
 Alpha virt. eigenvalues --    0.11883   0.12208   0.12807   0.13410   0.13626

 Mulliken charges:
               1
     1  C   -0.094510
     2  C    0.282029
     3  C    1.344468
     4  C    0.303655
     5  C   -2.125797
     6  C    0.347880
     7  N    1.018590
     8  N    2.969903
     9  O   -1.449380
    10  O   -1.613301
    11  H   -0.229935
    12  H   -0.218380
    13  H   -0.325524
    14  H   -0.239461
    15  H   -0.013986
    16  H    0.043749
 Sum of Mulliken charges =   0.00000

 Dipole moment (field-independent basis, Debye):
    X=              2.2365    Y=             -4.3361    Z=              0.0000  Tot=              4.8789

 Test job not archived.
 1\1\GINC-SE046\SP\RHF\Aug-CC-pVDZ\C6H6N2O2\OHZDE\05-Apr-2025\0\\#t hf
 aug-cc-pvdz iop(5/13=1,5/36=2,99/5=2) pseudo=read geom=check guess=(re
 ad,tcheck) scf=(maxcycle=1)\\title\\0,1\C,0,2.063464,-1.503763,0.\C,0,
 2.365819,-0.13558,0.\C,0,0.76006,-1.938693,0.\C,0,1.333452,0.772214,0.
 \C,0,-0.327896,-1.035393,0.\C,0,0.,0.344759,0.\N,0,-1.591077,-1.520223
 ,0.\N,0,-1.021402,1.372732,0.\O,0,-0.674531,2.546284,0.\O,0,-2.211698,
 1.027891,0.\H,0,2.862699,-2.23288,0.\H,0,3.391203,0.202815,0.\H,0,0.54
 1477,-2.998734,0.\H,0,1.518872,1.834417,0.\H,0,-1.742811,-2.511061,0.\

 Normal termination of Gaussian 16 at Sat Apr  5 22:41:42 2025.
