 Gaussian 16, Revision C.01,

 ----------------------------------------------------------------------
 #t hf aug-cc-pvdz symm=none int=(grid=ultrafine) guess=(read,tcheck) s
 table=(opt,rrhf)
 ----------------------------------------------------------------------
 -----
 title
 -----
 Symbolic Z-matrix:
 Charge =  0 Multiplicity = 1

 SCF Done:  E(RHF) =  -450.257577457     A.U. after   16 cycles
 Normal termination of Gaussian 16 at Sat Apr  5 22:41:11 2025.
 Gaussian 16:  ES64L-G16RevC.01  3-Jul-2019

 ----------------------------------------------------------------------
 #t hf aug-cc-pvdz iop(5/13=1,5/36=2,99/5=2) pseudo=read geom=check gue
 ss=(read,tcheck) scf=(maxcycle=1)
 ----------------------------------------------------------------------
 -----
 title
 -----
 Structure from the checkpoint file:  "2-nitroso-3-pyridinol.chk"
 Charge =  0 Multiplicity = 1

                         Standard orientation:
 ---------------------------------------------------------------------
 Center     Atomic      Atomic             Coordinates (Angstroms)
 Number     Number       Type             X           Y           Z
 ---------------------------------------------------------------------
      1          8           0        2.164676   -0.539196    0.000000
      2          8           0        0.084580    2.775541    0.000000
      3          7           0       -1.331579    0.475000   -0.000000
      4          7           0        0.726390    1.750983    0.000000
      5          6           0        0.000000    0.522358    0.000000
      6          6           0        0.824411   -0.616949    0.000000
      7          6           0        0.204822   -1.870177   -0.000000
      8          6           0       -1.905774   -0.710961   -0.000000
      9          6           0       -1.171952   -1.910799   -0.000000
     10          1           0        2.405510    0.402858    0.000000
     11          1           0        0.809768   -2.765739   -0.000000
     12          1           0       -2.988888   -0.732364   -0.000000
     13          1           0       -1.693161   -2.858226   -0.000000
 ---------------------------------------------------------------------

 SCF Done:  E(RHF) =  -450.698792191     A.U. after    2 cycles

 The electronic state is 1-A'.
 Alpha  occ. eigenvalues --  -20.62078 -20.60607 -15.64937 -15.53818 -11.34983
 Alpha  occ. eigenvalues --  -11.31519 -11.29771 -11.28500 -11.28159  -1.59415
 Alpha  occ. eigenvalues --   -1.52941  -1.29542  -1.12895  -1.11885  -1.00381
 Alpha  occ. eigenvalues --   -0.90366  -0.87778  -0.79892  -0.76872  -0.72865
 Alpha  occ. eigenvalues --   -0.69081  -0.66801  -0.65867  -0.62420  -0.61410
 Alpha  occ. eigenvalues --   -0.60359  -0.59344  -0.55552  -0.48576  -0.43253
 Alpha  occ. eigenvalues --   -0.42105  -0.35815
 Alpha virt. eigenvalues --    0.00506   0.02812   0.03745   0.04185   0.05945
 Alpha virt. eigenvalues --    0.08261   0.08918   0.10020   0.10293   0.11845
 Alpha virt. eigenvalues --    0.12583   0.12663   0.12844   0.13494   0.13589

 Mulliken charges:
               1
     1  O   -1.793018
     2  O   -1.150278
     3  N    1.183294
     4  N    1.876711
     5  C   -2.440632
     6  C    1.882242
     7  C    0.541077
     8  C   -0.464736
     9  C    0.516211
    10  H    0.415678
    11  H   -0.178401
    12  H   -0.196180
    13  H   -0.191968
 Sum of Mulliken charges =   0.00000

 Dipole moment (field-independent basis, Debye):
    X=             -0.1613    Y=             -4.0264    Z=             -0.0000  Tot=              4.0296

 Test job not archived.
 1\1\GINC-SE154\SP\RHF\Aug-CC-pVDZ\C5H4N2O2\OHZDE\05-Apr-2025\0\\#t hf
 aug-cc-pvdz iop(5/13=1,5/36=2,99/5=2) pseudo=read geom=check guess=(re
 ad,tcheck) scf=(maxcycle=1)\\title\\0,1\O,0,2.164676,-0.539196,0.\O,0,
 0.08458,2.775541,0.\N,0,-1.331579,0.475,0.\N,0,0.72639,1.750983,0.\C,0
 ,0.,0.522358,0.\C,0,0.824411,-0.616949,0.\C,0,0.204822,-1.870177,0.\C,
 0,-1.905774,-0.710961,0.\C,0,-1.171952,-1.910799,0.\H,0,2.40551,0.4028
 58,0.\H,0,0.809768,-2.765739,0.\H,0,-2.988888,-0.732364,0.\H,0,-1.6931
 61,-2.858226,0.\\Version=ES64L-G16RevC.01\State=1-A'\HF=-450.6987922\R

 Normal termination of Gaussian 16 at Sat Apr  5 22:41:32 2025.
