 Gaussian 16, Revision C.01,

 ----------------------------------------------------------------------
 #t hf aug-cc-pvdz symm=none int=(grid=ultrafine) guess=(read,tcheck) s
 table=(opt,rrhf)
 ----------------------------------------------------------------------
 -----
 title
 -----
 Symbolic Z-matrix:
 Charge =  0 Multiplicity = 1

 SCF Done:  E(RHF) =  -436.712667451     A.U. after   14 cycles
 Normal termination of Gaussian 16 at Sat Apr  5 22:43:12 2025.
 Gaussian 16:  ES64L-G16RevC.01  3-Jul-2019

 ----------------------------------------------------------------------
 #t hf aug-cc-pvdz iop(5/13=1,5/36=2,99/5=2) pseudo=read geom=check gue
 ss=(read,tcheck) scf=(maxcycle=1)
 ----------------------------------------------------------------------
 -----
 title
 -----
 Structure from the checkpoint file:  "2-oxo-1-piperidinecarbaldehyde.chk"
 Charge =  0 Multiplicity = 1

                         Standard orientation:
 ---------------------------------------------------------------------
 Center     Atomic      Atomic             Coordinates (Angstroms)
 Number     Number       Type             X           Y           Z
 ---------------------------------------------------------------------
      1          6           0       -0.186018    1.136555   -0.016276
      2          6           0        2.009439    0.143910   -0.020263
      3          6           0       -1.688458    0.930915   -0.085110
      4          6           0       -2.193334   -0.451194    0.319463
      5          6           0       -1.329801   -1.518012   -0.342061
      6          6           0        0.110985   -1.389348    0.120028
      7          7           0        0.625043   -0.010474   -0.004995
      8          8           0        0.292401    2.250735   -0.012180
      9          8           0        2.774688   -0.789444    0.046595
     10          1           0        2.318270    1.188945   -0.103512
     11          1           0       -2.134838    1.730283    0.504410
     12          1           0       -1.958505    1.134988   -1.126204
     13          1           0       -2.147779   -0.565223    1.406075
     14          1           0       -3.240882   -0.559386    0.036482
     15          1           0       -1.680512   -2.521239   -0.096983
     16          1           0       -1.383960   -1.417352   -1.429648
     17          1           0        0.200795   -1.695360    1.165693
     18          1           0        0.778519   -2.029625   -0.451356
 ---------------------------------------------------------------------

 SCF Done:  E(RHF) =  -437.156363186     A.U. after    2 cycles

 The electronic state is 1-A.
 Alpha  occ. eigenvalues --  -20.53790 -20.53353 -15.55648 -11.38370 -11.36779
 Alpha  occ. eigenvalues --  -11.28900 -11.26401 -11.25844 -11.25687  -1.49055
 Alpha  occ. eigenvalues --   -1.47693  -1.27619  -1.11826  -1.04175  -0.95305
 Alpha  occ. eigenvalues --   -0.90460  -0.84799  -0.76696  -0.71983  -0.70261
 Alpha  occ. eigenvalues --   -0.68048  -0.64804  -0.63775  -0.62917  -0.62638
 Alpha  occ. eigenvalues --   -0.60713  -0.54621  -0.52999  -0.52559  -0.51118
 Alpha  occ. eigenvalues --   -0.50190  -0.46499  -0.42742  -0.42168
 Alpha virt. eigenvalues --    0.02707   0.03313   0.03520   0.04192   0.05484
 Alpha virt. eigenvalues --    0.05860   0.06029   0.07221   0.07699   0.10290
 Alpha virt. eigenvalues --    0.10801   0.11003   0.11662   0.12759   0.13121

 Mulliken charges:
               1
     1  C    0.385981
     2  C    0.637170
     3  C   -0.237890
     4  C   -0.123139
     5  C   -0.206067
     6  C   -0.341665
     7  N    0.987454
     8  O   -1.267376
     9  O   -1.109190
    10  H    0.106137
    11  H    0.191991
    12  H    0.291171
    13  H    0.140619
    14  H    0.137564
    15  H    0.151408
    16  H    0.122530
    17  H    0.066370
    18  H    0.066932
 Sum of Mulliken charges =  -0.00000

 Dipole moment (field-independent basis, Debye):
    X=             -4.3624    Y=             -1.6969    Z=             -0.1343  Tot=              4.6827

 Test job not archived.
 1\1\GINC-SE052\SP\RHF\Aug-CC-pVDZ\C6H9N1O2\OHZDE\05-Apr-2025\0\\#t hf
 aug-cc-pvdz iop(5/13=1,5/36=2,99/5=2) pseudo=read geom=check guess=(re
 ad,tcheck) scf=(maxcycle=1)\\title\\0,1\C,0,-0.186018,1.136555,-0.0162
 76\C,0,2.009439,0.14391,-0.020263\C,0,-1.688458,0.930915,-0.08511\C,0,
 -2.193334,-0.451194,0.319463\C,0,-1.329801,-1.518012,-0.342061\C,0,0.1
 10985,-1.389348,0.120028\N,0,0.625043,-0.010474,-0.004995\O,0,0.292401
 ,2.250735,-0.01218\O,0,2.774688,-0.789444,0.046595\H,0,2.31827,1.18894
 5,-0.103512\H,0,-2.134838,1.730283,0.50441\H,0,-1.958505,1.134988,-1.1

 Normal termination of Gaussian 16 at Sat Apr  5 22:43:23 2025.
