 Gaussian 16, Revision C.01,

 ----------------------------------------------------------------------
 #t hf aug-cc-pvdz symm=none int=(grid=ultrafine) guess=(read,tcheck) s
 table=(opt,rrhf)
 ----------------------------------------------------------------------
 -----
 title
 -----
 Symbolic Z-matrix:
 Charge =  0 Multiplicity = 1

 SCF Done:  E(RHF) =  -271.226322582     A.U. after   12 cycles

 1\1\GINC-SE176\Stability\RHF\Aug-CC-pVDZ\C5H12O1\OHZDE\05-Apr-2025\0\\
 #t hf aug-cc-pvdz symm=none int=(grid=ultrafine) guess=(read,tcheck) s
 table=(opt,rrhf)\\title\\0,1\C,0,-2.811044,-0.221945,-0.162139\C,0,2.2
 21288,-0.900163,-0.048109\C,0,-1.473342,0.339233,0.316846\C,0,-0.28085
 8,-0.504253,-0.134238\C,0,1.07141,0.02896,0.322589\O,0,1.239016,1.3197
 77,-0.283419\H,0,-3.644676,0.394864,0.176352\H,0,-2.975117,-1.234898,0
 .212481\H,0,-2.852626,-0.264029,-1.252522\H,0,2.257486,-1.050421,-1.12
 8043\H,0,3.179284,-0.482509,0.27\H,0,2.107939,-1.872159,0.434921\H,0,-

 Normal termination of Gaussian 16 at Sat Apr  5 22:42:19 2025.
 Gaussian 16:  ES64L-G16RevC.01  3-Jul-2019

 ----------------------------------------------------------------------
 #t hf aug-cc-pvdz iop(5/13=1,5/36=2,99/5=2) pseudo=read geom=check gue
 ss=(read,tcheck) scf=(maxcycle=1)
 ----------------------------------------------------------------------
 -----
 title
 -----
 Structure from the checkpoint file:  "2-pentanol.chk"
 Charge =  0 Multiplicity = 1

                         Standard orientation:
 ---------------------------------------------------------------------
 Center     Atomic      Atomic             Coordinates (Angstroms)
 Number     Number       Type             X           Y           Z
 ---------------------------------------------------------------------
      1          6           0       -2.811044   -0.221945   -0.162139
      2          6           0        2.221288   -0.900163   -0.048109
      3          6           0       -1.473342    0.339233    0.316846
      4          6           0       -0.280858   -0.504253   -0.134238
      5          6           0        1.071410    0.028960    0.322589
      6          8           0        1.239016    1.319777   -0.283419
      7          1           0       -3.644676    0.394864    0.176352
      8          1           0       -2.975117   -1.234898    0.212481
      9          1           0       -2.852626   -0.264029   -1.252522
     10          1           0        2.257486   -1.050421   -1.128043
     11          1           0        3.179284   -0.482509    0.270000
     12          1           0        2.107939   -1.872159    0.434921
     13          1           0       -1.347052    1.358855   -0.049391
     14          1           0       -1.474885    0.402013    1.409571
     15          1           0       -0.391242   -1.525089    0.243683
     16          1           0       -0.268458   -0.572453   -1.226633
     17          1           0        1.048581    0.150408    1.414128
     18          1           0        2.083920    1.686207   -0.006882
 ---------------------------------------------------------------------

 SCF Done:  E(RHF) =  -271.523693445     A.U. after    2 cycles

 The electronic state is 1-A.
 Alpha  occ. eigenvalues --  -20.54090 -11.28380 -11.22648 -11.22094 -11.21794
 Alpha  occ. eigenvalues --  -11.21654  -1.43964  -1.07603  -1.01381  -0.92941
 Alpha  occ. eigenvalues --   -0.82520  -0.78715  -0.70113  -0.62521  -0.61823
 Alpha  occ. eigenvalues --   -0.61292  -0.56015  -0.55378  -0.53407  -0.53046
 Alpha  occ. eigenvalues --   -0.50395  -0.48024  -0.46957  -0.45851  -0.43150
 Alpha virt. eigenvalues --    0.03349   0.03865   0.03939   0.04377   0.05851
 Alpha virt. eigenvalues --    0.06071   0.06413   0.06809   0.08868   0.09493
 Alpha virt. eigenvalues --    0.09836   0.10147   0.11506   0.13692   0.14052

 Mulliken charges:
               1
     1  C   -0.404883
     2  C   -0.351964
     3  C   -0.184668
     4  C   -0.340977
     5  C    0.753795
     6  O   -1.334987
     7  H    0.115168
     8  H    0.156740
     9  H    0.164658
    10  H    0.221438
    11  H    0.097965
    12  H    0.180551
    13  H    0.154716
    14  H    0.092558
    15  H    0.134134
    16  H    0.122016
    17  H    0.131742
    18  H    0.291998
 Sum of Mulliken charges =  -0.00000

 Dipole moment (field-independent basis, Debye):
    X=              1.0704    Y=             -0.7083    Z=              0.9741  Tot=              1.6113

 Test job not archived.
 1\1\GINC-SE176\SP\RHF\Aug-CC-pVDZ\C5H12O1\OHZDE\05-Apr-2025\0\\#t hf a
 ug-cc-pvdz iop(5/13=1,5/36=2,99/5=2) pseudo=read geom=check guess=(rea
 d,tcheck) scf=(maxcycle=1)\\title\\0,1\C,0,-2.811044,-0.221945,-0.1621
 39\C,0,2.221288,-0.900163,-0.048109\C,0,-1.473342,0.339233,0.316846\C,
 0,-0.280858,-0.504253,-0.134238\C,0,1.07141,0.02896,0.322589\O,0,1.239
 016,1.319777,-0.283419\H,0,-3.644676,0.394864,0.176352\H,0,-2.975117,-
 1.234898,0.212481\H,0,-2.852626,-0.264029,-1.252522\H,0,2.257486,-1.05
 0421,-1.128043\H,0,3.179284,-0.482509,0.27\H,0,2.107939,-1.872159,0.43

 Normal termination of Gaussian 16 at Sat Apr  5 22:42:25 2025.
