 Gaussian 16, Revision C.01,

 ----------------------------------------------------------------------
 #t hf aug-cc-pvdz symm=none int=(grid=ultrafine) guess=(read,tcheck) s
 table=(opt,rrhf)
 ----------------------------------------------------------------------
 -----
 title
 -----
 Symbolic Z-matrix:
 Charge =  0 Multiplicity = 1

 SCF Done:  E(RHF) =  -270.066693974     A.U. after   13 cycles

 1\1\GINC-SE220\Stability\RHF\Aug-CC-pVDZ\C5H10O1\OHZDE\05-Apr-2025\0\\
 #t hf aug-cc-pvdz symm=none int=(grid=ultrafine) guess=(read,tcheck) s
 table=(opt,rrhf)\\title\\0,1\C,0,1.137455,0.146005,-0.002101\C,0,2.339
 985,-0.775148,0.003438\C,0,-2.754057,-0.294448,-0.000481\C,0,-0.22544,
 -0.525525,-0.005704\C,0,-1.410723,0.432588,0.006368\O,0,1.262714,1.350
 118,-0.002835\H,0,2.311679,-1.443961,-0.859263\H,0,2.326989,-1.406936,
 0.894211\H,0,3.256222,-0.191143,-0.01554\H,0,-2.862511,-0.940914,0.873
 136\H,0,-2.864356,-0.920583,-0.888559\H,0,-3.583566,0.413374,0.008555\

 Normal termination of Gaussian 16 at Sat Apr  5 22:41:56 2025.
 Gaussian 16:  ES64L-G16RevC.01  3-Jul-2019

 ----------------------------------------------------------------------
 #t hf aug-cc-pvdz iop(5/13=1,5/36=2,99/5=2) pseudo=read geom=check gue
 ss=(read,tcheck) scf=(maxcycle=1)
 ----------------------------------------------------------------------
 -----
 title
 -----
 Structure from the checkpoint file:  "2-pentanone.chk"
 Charge =  0 Multiplicity = 1

                         Standard orientation:
 ---------------------------------------------------------------------
 Center     Atomic      Atomic             Coordinates (Angstroms)
 Number     Number       Type             X           Y           Z
 ---------------------------------------------------------------------
      1          6           0        1.137455    0.146005   -0.002101
      2          6           0        2.339985   -0.775148    0.003438
      3          6           0       -2.754057   -0.294448   -0.000481
      4          6           0       -0.225440   -0.525525   -0.005704
      5          6           0       -1.410723    0.432588    0.006368
      6          8           0        1.262714    1.350118   -0.002835
      7          1           0        2.311679   -1.443961   -0.859263
      8          1           0        2.326989   -1.406936    0.894211
      9          1           0        3.256222   -0.191143   -0.015540
     10          1           0       -2.862511   -0.940914    0.873136
     11          1           0       -2.864356   -0.920583   -0.888559
     12          1           0       -3.583566    0.413374    0.008555
     13          1           0       -0.263760   -1.203516    0.854803
     14          1           0       -0.266645   -1.183799   -0.881400
     15          1           0       -1.338759    1.077971    0.883375
     16          1           0       -1.340329    1.097732   -0.855756
 ---------------------------------------------------------------------

 SCF Done:  E(RHF) =  -270.355681105     A.U. after    2 cycles

 The electronic state is 1-A.
 Alpha  occ. eigenvalues --  -20.53169 -11.33623 -11.24423 -11.24327 -11.22975
 Alpha  occ. eigenvalues --  -11.22635  -1.46658  -1.08347  -1.02139  -0.94933
 Alpha  occ. eigenvalues --   -0.82793  -0.74223  -0.66115  -0.65622  -0.63198
 Alpha  occ. eigenvalues --   -0.60286  -0.57488  -0.56421  -0.55209  -0.51081
 Alpha  occ. eigenvalues --   -0.49224  -0.48996  -0.48006  -0.40564
 Alpha virt. eigenvalues --    0.03203   0.03725   0.03825   0.04590   0.05894
 Alpha virt. eigenvalues --    0.06238   0.06629   0.07848   0.09074   0.09681
 Alpha virt. eigenvalues --    0.10672   0.11678   0.13784   0.13887   0.14730

 Mulliken charges:
               1
     1  C    1.247682
     2  C   -0.589787
     3  C   -0.369478
     4  C   -0.560588
     5  C   -0.126609
     6  O   -1.371242
     7  H    0.247975
     8  H    0.251031
     9  H    0.131406
    10  H    0.155168
    11  H    0.155041
    12  H    0.120731
    13  H    0.224342
    14  H    0.226067
    15  H    0.128027
    16  H    0.130235
 Sum of Mulliken charges =   0.00000

 Dipole moment (field-independent basis, Debye):
    X=             -0.4410    Y=             -2.9459    Z=              0.0042  Tot=              2.9787

 Test job not archived.
 1\1\GINC-SE220\SP\RHF\Aug-CC-pVDZ\C5H10O1\OHZDE\05-Apr-2025\0\\#t hf a
 ug-cc-pvdz iop(5/13=1,5/36=2,99/5=2) pseudo=read geom=check guess=(rea
 d,tcheck) scf=(maxcycle=1)\\title\\0,1\C,0,1.137455,0.146005,-0.002101
 \C,0,2.339985,-0.775148,0.003438\C,0,-2.754057,-0.294448,-0.000481\C,0
 ,-0.22544,-0.525525,-0.005704\C,0,-1.410723,0.432588,0.006368\O,0,1.26
 2714,1.350118,-0.002835\H,0,2.311679,-1.443961,-0.859263\H,0,2.326989,
 -1.406936,0.894211\H,0,3.256222,-0.191143,-0.01554\H,0,-2.862511,-0.94
 0914,0.873136\H,0,-2.864356,-0.920583,-0.888559\H,0,-3.583566,0.413374

 Normal termination of Gaussian 16 at Sat Apr  5 22:42:24 2025.
