 Gaussian 16, Revision C.01,

 ----------------------------------------------------------------------
 #t hf aug-cc-pvdz symm=none int=(grid=ultrafine) guess=(read,tcheck) s
 table=(opt,rrhf)
 ----------------------------------------------------------------------
 -----
 title
 -----
 Symbolic Z-matrix:
 Charge =  0 Multiplicity = 1

 SCF Done:  E(RHF) =  -383.675617445     A.U. after   15 cycles

 1\1\GINC-SE220\Stability\RHF\Aug-CC-pVDZ\C8H10O1\OHZDE\05-Apr-2025\0\\
 #t hf aug-cc-pvdz symm=none int=(grid=ultrafine) guess=(read,tcheck) s
 table=(opt,rrhf)\\title\\0,1\C,0,2.814804,-0.001719,-0.301389\C,0,2.13
 4649,-1.200607,-0.119441\C,0,2.136199,1.201043,-0.142617\C,0,0.785938,
 -1.194095,0.216238\C,0,0.787279,1.201961,0.193344\C,0,0.091182,0.00611
 3,0.377674\C,0,-1.382308,0.00657,0.699381\C,0,-2.252301,-0.022112,-0.5
 63342\O,0,-3.645434,-0.085015,-0.273276\H,0,3.864982,-0.004812,-0.5601
 08\H,0,2.655224,-2.142017,-0.234918\H,0,2.657691,2.139541,-0.276374\H,

 Normal termination of Gaussian 16 at Sat Apr  5 22:42:49 2025.
 Gaussian 16:  ES64L-G16RevC.01  3-Jul-2019

 ----------------------------------------------------------------------
 #t hf aug-cc-pvdz iop(5/13=1,5/36=2,99/5=2) pseudo=read geom=check gue
 ss=(read,tcheck) scf=(maxcycle=1)
 ----------------------------------------------------------------------
 -----
 title
 -----
 Structure from the checkpoint file:  "2-phenylethanol.chk"
 Charge =  0 Multiplicity = 1

                         Standard orientation:
 ---------------------------------------------------------------------
 Center     Atomic      Atomic             Coordinates (Angstroms)
 Number     Number       Type             X           Y           Z
 ---------------------------------------------------------------------
      1          6           0        2.814804   -0.001719   -0.301389
      2          6           0        2.134649   -1.200607   -0.119441
      3          6           0        2.136199    1.201043   -0.142617
      4          6           0        0.785938   -1.194095    0.216238
      5          6           0        0.787279    1.201961    0.193344
      6          6           0        0.091182    0.006113    0.377674
      7          6           0       -1.382308    0.006570    0.699381
      8          6           0       -2.252301   -0.022112   -0.563342
      9          8           0       -3.645434   -0.085015   -0.273276
     10          1           0        3.864982   -0.004812   -0.560108
     11          1           0        2.655224   -2.142017   -0.234918
     12          1           0        2.657691    2.139541   -0.276374
     13          1           0        0.266470   -2.133322    0.361844
     14          1           0        0.269747    2.144962    0.321584
     15          1           0       -1.634273    0.897699    1.281212
     16          1           0       -1.639570   -0.859511    1.311331
     17          1           0       -2.033440   -0.917594   -1.144566
     18          1           0       -2.023001    0.842586   -1.195287
     19          1           0       -3.913002    0.729665    0.162405
 ---------------------------------------------------------------------

 SCF Done:  E(RHF) =  -384.076224958     A.U. after    2 cycles

 The electronic state is 1-A.
 Alpha  occ. eigenvalues --  -20.54843 -11.28618 -11.24939 -11.24417 -11.24381
 Alpha  occ. eigenvalues --  -11.24119 -11.24094 -11.24053 -11.23956  -1.44601
 Alpha  occ. eigenvalues --   -1.16224  -1.06650  -1.01882  -0.98001  -0.86944
 Alpha  occ. eigenvalues --   -0.83914  -0.80689  -0.71284  -0.69692  -0.65734
 Alpha  occ. eigenvalues --   -0.64798  -0.61742  -0.60716  -0.59993  -0.56484
 Alpha  occ. eigenvalues --   -0.54842  -0.51753  -0.50301  -0.50017  -0.48336
 Alpha  occ. eigenvalues --   -0.44367  -0.34832  -0.33946
 Alpha virt. eigenvalues --    0.03120   0.03330   0.03786   0.04533   0.04729
 Alpha virt. eigenvalues --    0.05330   0.06878   0.07027   0.07924   0.08980
 Alpha virt. eigenvalues --    0.10409   0.10477   0.10703   0.11339   0.13638

 Mulliken charges:
               1
     1  C    0.097220
     2  C    0.040484
     3  C    0.034000
     4  C    0.153915
     5  C    0.258005
     6  C    1.422123
     7  C   -0.813038
     8  C    0.752046
     9  O   -1.155155
    10  H   -0.224040
    11  H   -0.231696
    12  H   -0.233111
    13  H   -0.337171
    14  H   -0.339245
    15  H    0.040540
    16  H    0.092412
    17  H    0.050703
    18  H    0.107629
    19  H    0.284378
 Sum of Mulliken charges =  -0.00000

 Dipole moment (field-independent basis, Debye):
    X=              0.9547    Y=              1.2072    Z=              0.4334  Tot=              1.5989

 Test job not archived.
 1\1\GINC-SE220\SP\RHF\Aug-CC-pVDZ\C8H10O1\OHZDE\05-Apr-2025\0\\#t hf a
 ug-cc-pvdz iop(5/13=1,5/36=2,99/5=2) pseudo=read geom=check guess=(rea
 d,tcheck) scf=(maxcycle=1)\\title\\0,1\C,0,2.814804,-0.001719,-0.30138
 9\C,0,2.134649,-1.200607,-0.119441\C,0,2.136199,1.201043,-0.142617\C,0
 ,0.785938,-1.194095,0.216238\C,0,0.787279,1.201961,0.193344\C,0,0.0911
 82,0.006113,0.377674\C,0,-1.382308,0.00657,0.699381\C,0,-2.252301,-0.0
 22112,-0.563342\O,0,-3.645434,-0.085015,-0.273276\H,0,3.864982,-0.0048
 12,-0.560108\H,0,2.655224,-2.142017,-0.234918\H,0,2.657691,2.139541,-0

 Normal termination of Gaussian 16 at Sat Apr  5 22:43:21 2025.
