 Gaussian 16, Revision C.01,

 ----------------------------------------------------------------------
 #t hf aug-cc-pvdz symm=none int=(grid=ultrafine) guess=(read,tcheck) s
 table=(opt,rrhf)
 ----------------------------------------------------------------------
 -----
 title
 -----
 Symbolic Z-matrix:
 Charge =  0 Multiplicity = 1

 SCF Done:  E(RHF) =  -892.632235530     A.U. after   16 cycles
 Normal termination of Gaussian 16 at Sat Apr  5 22:44:10 2025.
 Gaussian 16:  ES64L-G16RevC.01  3-Jul-2019

 ----------------------------------------------------------------------
 #t hf aug-cc-pvdz iop(5/13=1,5/36=2,99/5=2) pseudo=read geom=check gue
 ss=(read,tcheck) scf=(maxcycle=1)
 ----------------------------------------------------------------------
 -----
 title
 -----
 Structure from the checkpoint file:  "2-propyn-1-ylsulfonylbenzene.chk"
 Charge =  0 Multiplicity = 1

                         Standard orientation:
 ---------------------------------------------------------------------
 Center     Atomic      Atomic             Coordinates (Angstroms)
 Number     Number       Type             X           Y           Z
 ---------------------------------------------------------------------
      1          8           0        1.156985    1.267774    1.230191
      2         16           0        0.843996    0.000062    0.585576
      3          6           0        1.650805   -0.000061   -1.080985
      4          6           0        3.089778   -0.000082   -0.968083
      5          6           0        4.283059   -0.000104   -0.864662
      6          8           0        1.157003   -1.267545    1.230387
      7          6           0       -0.900255    0.000015    0.152344
      8          6           0       -1.559782   -1.213746   -0.004980
      9          6           0       -2.908652   -1.207188   -0.338370
     10          6           0       -3.579238   -0.000063   -0.507878
     11          6           0       -2.908689    1.207101   -0.338507
     12          6           0       -1.559819    1.213738   -0.005118
     13          1           0        1.278876    0.889853   -1.588820
     14          1           0        1.278846   -0.890027   -1.588706
     15          1           0        5.340191   -0.000125   -0.768376
     16          1           0       -1.026919   -2.140103    0.154686
     17          1           0       -3.436604   -2.143231   -0.457340
     18          1           0       -4.629833   -0.000093   -0.764710
     19          1           0       -3.436669    2.143114   -0.457585
     20          1           0       -1.026981    2.140129    0.154442
 ---------------------------------------------------------------------

 SCF Done:  E(RHF) =  -893.195197380     A.U. after    2 cycles

 The electronic state is 1-A.
 Alpha  occ. eigenvalues --  -94.19619 -20.53636 -20.53630 -11.31640 -11.29125
 Alpha  occ. eigenvalues --  -11.27909 -11.27904 -11.27577 -11.26992 -11.26978
 Alpha  occ. eigenvalues --  -11.26158 -11.25451  -8.44842  -6.42957  -6.42745
 Alpha  occ. eigenvalues --   -6.42674  -1.54910  -1.43232  -1.19444  -1.11316
 Alpha  occ. eigenvalues --   -1.06901  -1.05139  -1.01076  -0.92103  -0.87063
 Alpha  occ. eigenvalues --   -0.83076  -0.75546  -0.74924  -0.70040  -0.69258
 Alpha  occ. eigenvalues --   -0.68709  -0.66360  -0.66161  -0.64852  -0.63355
 Alpha  occ. eigenvalues --   -0.62025  -0.56090  -0.54671  -0.53874  -0.49605
 Alpha  occ. eigenvalues --   -0.49060  -0.46186  -0.45562  -0.41628  -0.40514
 Alpha  occ. eigenvalues --   -0.38462  -0.37592
 Alpha virt. eigenvalues --    0.02521   0.03134   0.03508   0.03933   0.04748
 Alpha virt. eigenvalues --    0.05247   0.06257   0.06929   0.07275   0.08192
 Alpha virt. eigenvalues --    0.08610   0.10180   0.10360   0.11048   0.11770

 Mulliken charges:
               1
     1  O   -1.665712
     2  S    3.921006
     3  C   -1.366378
     4  C    0.660027
     5  C    0.265074
     6  O   -1.665711
     7  C    0.911226
     8  C   -0.358203
     9  C    0.343901
    10  C    0.052029
    11  C    0.343920
    12  C   -0.358231
    13  H    0.291809
    14  H    0.291814
    15  H   -0.422449
    16  H   -0.301841
    17  H   -0.215370
    18  H   -0.209710
    19  H   -0.215370
    20  H   -0.301832
 Sum of Mulliken charges =   0.00000

 Dipole moment (field-independent basis, Debye):
    X=             -3.3729    Y=             -0.0004    Z=             -4.2943  Tot=              5.4605

 Test job not archived.
 1\1\GINC-SE204\SP\RHF\Aug-CC-pVDZ\C9H8O2S1\OHZDE\05-Apr-2025\0\\#t hf
 aug-cc-pvdz iop(5/13=1,5/36=2,99/5=2) pseudo=read geom=check guess=(re
 ad,tcheck) scf=(maxcycle=1)\\title\\0,1\O,0,1.156985,1.267774,1.230191
 \S,0,0.843996,0.000062,0.585576\C,0,1.650805,-0.000061,-1.080985\C,0,3
 .089778,-0.000082,-0.968083\C,0,4.283059,-0.000104,-0.864662\O,0,1.157
 003,-1.267545,1.230387\C,0,-0.900255,0.000015,0.152344\C,0,-1.559782,-
 1.213746,-0.00498\C,0,-2.908652,-1.207188,-0.33837\C,0,-3.579238,-0.00
 0063,-0.507878\C,0,-2.908689,1.207101,-0.338507\C,0,-1.559819,1.213738

 Normal termination of Gaussian 16 at Sat Apr  5 22:45:06 2025.
