 Gaussian 16, Revision C.01,

 ----------------------------------------------------------------------
 #t hf aug-cc-pvdz symm=none int=(grid=ultrafine) guess=(read,tcheck) s
 table=(opt,rrhf)
 ----------------------------------------------------------------------
 -----
 title
 -----
 Symbolic Z-matrix:
 Charge =  0 Multiplicity = 1

 SCF Done:  E(RHF) =  -190.738051554     A.U. after   14 cycles
 Normal termination of Gaussian 16 at Sat Apr  5 22:41:31 2025.
 Gaussian 16:  ES64L-G16RevC.01  3-Jul-2019

 ----------------------------------------------------------------------
 #t hf aug-cc-pvdz iop(5/13=1,5/36=2,99/5=2) pseudo=read geom=check gue
 ss=(read,tcheck) scf=(maxcycle=1)
 ----------------------------------------------------------------------
 -----
 title
 -----
 Structure from the checkpoint file:  "2-propyn-1-ol.chk"
 Charge =  0 Multiplicity = 1

                         Standard orientation:
 ---------------------------------------------------------------------
 Center     Atomic      Atomic             Coordinates (Angstroms)
 Number     Number       Type             X           Y           Z
 ---------------------------------------------------------------------
      1          6           0       -0.657272   -0.503422    0.000000
      2          6           0        0.000000    0.795889    0.000000
      3          6           0        0.514208    1.878089    0.000000
      4          8           0        0.326252   -1.539360    0.000000
      5          1           0       -1.299934   -0.577228    0.884602
      6          1           0       -1.299934   -0.577228   -0.884602
      7          1           0        0.977878    2.832712    0.000000
      8          1           0       -0.129644   -2.386711    0.000000
 ---------------------------------------------------------------------

 SCF Done:  E(RHF) =  -190.934659295     A.U. after    2 cycles

 The electronic state is 1-A'.
 Alpha  occ. eigenvalues --  -20.56322 -11.32216 -11.24601 -11.24004  -1.46045
 Alpha  occ. eigenvalues --   -1.05771  -0.95641  -0.73764  -0.71412  -0.65854
 Alpha  occ. eigenvalues --   -0.65241  -0.53834  -0.47177  -0.41060  -0.39895
 Alpha virt. eigenvalues --    0.03112   0.03950   0.05148   0.05302   0.08980
 Alpha virt. eigenvalues --    0.11170   0.11931   0.12370   0.13886   0.14878
 Alpha virt. eigenvalues --    0.16032   0.16703   0.17361   0.18018   0.21500

 Mulliken charges:
               1
     1  C    0.429185
     2  C   -0.177221
     3  C    0.580875
     4  O   -1.125779
     5  H    0.162616
     6  H    0.162616
     7  H   -0.387181
     8  H    0.354890
 Sum of Mulliken charges =   0.00000

 Dipole moment (field-independent basis, Debye):
    X=             -1.8630    Y=             -0.6327    Z=              0.0000  Tot=              1.9675

 Test job not archived.
 1\1\GINC-SE202\SP\RHF\Aug-CC-pVDZ\C3H4O1\OHZDE\05-Apr-2025\0\\#t hf au
 g-cc-pvdz iop(5/13=1,5/36=2,99/5=2) pseudo=read geom=check guess=(read
 ,tcheck) scf=(maxcycle=1)\\title\\0,1\C,0,-0.657272,-0.503422,0.\C,0,0
 .,0.795889,0.\C,0,0.514208,1.878089,0.\O,0,0.326252,-1.53936,0.\H,0,-1
 .299934,-0.577228,0.884602\H,0,-1.299934,-0.577228,-0.884602\H,0,0.977
 878,2.832712,0.\H,0,-0.129644,-2.386711,0.\\Version=ES64L-G16RevC.01\S
 tate=1-A'\HF=-190.9346593\RMSD=2.448e-02\Dipole=-0.7329748,-0.2489329,
 0.\Quadrupole=-1.5004923,3.977537,-2.4770447,3.9811992,0.,0.\PG=CS [SG

 Normal termination of Gaussian 16 at Sat Apr  5 22:41:33 2025.
