 Gaussian 16, Revision C.01,

 ----------------------------------------------------------------------
 #t hf aug-cc-pvdz symm=none int=(grid=ultrafine) guess=(read,tcheck) s
 table=(opt,rrhf)
 ----------------------------------------------------------------------
 -----
 title
 -----
 Symbolic Z-matrix:
 Charge =  0 Multiplicity = 1

 SCF Done:  E(RHF) =  -346.079118723     A.U. after   12 cycles

 1\1\GINC-SE173\Stability\RHF\Aug-CC-pVDZ\C5H12O2\OHZDE\05-Apr-2025\0\\
 #t hf aug-cc-pvdz symm=none int=(grid=ultrafine) guess=(read,tcheck) s
 table=(opt,rrhf)\\title\\0,1\C,0,-3.551731,-0.145916,0.178332\C,0,-2.1
 60631,-0.497409,-0.345698\C,0,-1.084795,0.418115,0.210133\C,0,2.554528
 ,0.252331,-0.341891\C,0,1.246011,0.820604,0.153652\O,0,2.871763,-0.915
 524,0.411744\O,0,0.173609,0.025383,-0.308235\H,0,-3.834247,0.874037,-0
 .090442\H,0,-4.305646,-0.815827,-0.235313\H,0,-3.600044,-0.226907,1.26
 6045\H,0,-2.141876,-0.436709,-1.436016\H,0,-1.907786,-1.527183,-0.0849

 Normal termination of Gaussian 16 at Sat Apr  5 22:42:20 2025.
 Gaussian 16:  ES64L-G16RevC.01  3-Jul-2019

 ----------------------------------------------------------------------
 #t hf aug-cc-pvdz iop(5/13=1,5/36=2,99/5=2) pseudo=read geom=check gue
 ss=(read,tcheck) scf=(maxcycle=1)
 ----------------------------------------------------------------------
 -----
 title
 -----
 Structure from the checkpoint file:  "2-propoxyethanol.chk"
 Charge =  0 Multiplicity = 1

                         Standard orientation:
 ---------------------------------------------------------------------
 Center     Atomic      Atomic             Coordinates (Angstroms)
 Number     Number       Type             X           Y           Z
 ---------------------------------------------------------------------
      1          6           0       -3.551731   -0.145916    0.178332
      2          6           0       -2.160631   -0.497409   -0.345698
      3          6           0       -1.084795    0.418115    0.210133
      4          6           0        2.554528    0.252331   -0.341891
      5          6           0        1.246011    0.820604    0.153652
      6          8           0        2.871763   -0.915524    0.411744
      7          8           0        0.173609    0.025383   -0.308235
      8          1           0       -3.834247    0.874037   -0.090442
      9          1           0       -4.305646   -0.815827   -0.235313
     10          1           0       -3.600044   -0.226907    1.266045
     11          1           0       -2.141876   -0.436709   -1.436016
     12          1           0       -1.907786   -1.527183   -0.084984
     13          1           0       -1.294438    1.463084   -0.062635
     14          1           0       -1.068300    0.365578    1.307923
     15          1           0        3.334739    1.012724   -0.218945
     16          1           0        2.461235    0.020138   -1.407091
     17          1           0        1.140374    1.851849   -0.212086
     18          1           0        1.258753    0.851169    1.250942
     19          1           0        3.573974   -1.397171   -0.032650
 ---------------------------------------------------------------------

 SCF Done:  E(RHF) =  -346.447725333     A.U. after    2 cycles

 The electronic state is 1-A.
 Alpha  occ. eigenvalues --  -20.54386 -20.53607 -11.28357 -11.28000 -11.27606
 Alpha  occ. eigenvalues --  -11.22356 -11.22312  -1.45900  -1.43826  -1.06294
 Alpha  occ. eigenvalues --   -1.00645  -0.91079  -0.83054  -0.80879  -0.71250
 Alpha  occ. eigenvalues --   -0.67789  -0.66442  -0.62129  -0.60319  -0.60045
 Alpha  occ. eigenvalues --   -0.57099  -0.54396  -0.52184  -0.51088  -0.48225
 Alpha  occ. eigenvalues --   -0.47854  -0.46655  -0.44106  -0.41083
 Alpha virt. eigenvalues --    0.03564   0.03824   0.04048   0.04273   0.05429
 Alpha virt. eigenvalues --    0.05778   0.06220   0.07220   0.08074   0.08740
 Alpha virt. eigenvalues --    0.09573   0.10256   0.11837   0.13244   0.14155

 Mulliken charges:
               1
     1  C   -0.304690
     2  C   -0.463884
     3  C    0.641307
     4  C    0.507715
     5  C    0.286111
     6  O   -1.118456
     7  O   -1.391910
     8  H    0.163814
     9  H    0.110650
    10  H    0.164686
    11  H    0.124630
    12  H    0.130119
    13  H    0.150329
    14  H    0.133899
    15  H    0.109368
    16  H    0.115982
    17  H    0.140313
    18  H    0.185175
    19  H    0.314841
 Sum of Mulliken charges =  -0.00000

 Dipole moment (field-independent basis, Debye):
    X=              0.4535    Y=              1.2158    Z=             -0.6830  Tot=              1.4664

 Test job not archived.
 1\1\GINC-SE173\SP\RHF\Aug-CC-pVDZ\C5H12O2\OHZDE\05-Apr-2025\0\\#t hf a
 ug-cc-pvdz iop(5/13=1,5/36=2,99/5=2) pseudo=read geom=check guess=(rea
 d,tcheck) scf=(maxcycle=1)\\title\\0,1\C,0,-3.551731,-0.145916,0.17833
 2\C,0,-2.160631,-0.497409,-0.345698\C,0,-1.084795,0.418115,0.210133\C,
 0,2.554528,0.252331,-0.341891\C,0,1.246011,0.820604,0.153652\O,0,2.871
 763,-0.915524,0.411744\O,0,0.173609,0.025383,-0.308235\H,0,-3.834247,0
 .874037,-0.090442\H,0,-4.305646,-0.815827,-0.235313\H,0,-3.600044,-0.2
 26907,1.266045\H,0,-2.141876,-0.436709,-1.436016\H,0,-1.907786,-1.5271

 Normal termination of Gaussian 16 at Sat Apr  5 22:43:19 2025.
