 Gaussian 16, Revision C.01,

 ----------------------------------------------------------------------
 #t hf aug-cc-pvdz symm=none int=(grid=ultrafine) guess=(read,tcheck) s
 table=(opt,rrhf)
 ----------------------------------------------------------------------
 -----
 title
 -----
 Symbolic Z-matrix:
 Charge =  0 Multiplicity = 1

 SCF Done:  E(RHF) =  -193.148797193     A.U. after   12 cycles
 Normal termination of Gaussian 16 at Sat Apr  5 22:41:36 2025.
 Gaussian 16:  ES64L-G16RevC.01  3-Jul-2019

 ----------------------------------------------------------------------
 #t hf aug-cc-pvdz iop(5/13=1,5/36=2,99/5=2) pseudo=read geom=check gue
 ss=(read,tcheck) scf=(maxcycle=1)
 ----------------------------------------------------------------------
 -----
 title
 -----
 Structure from the checkpoint file:  "2-propanol.chk"
 Charge =  0 Multiplicity = 1

                         Standard orientation:
 ---------------------------------------------------------------------
 Center     Atomic      Atomic             Coordinates (Angstroms)
 Number     Number       Type             X           Y           Z
 ---------------------------------------------------------------------
      1          6           0        0.287231   -0.610477    1.268740
      2          6           0        0.287231   -0.610477   -1.268740
      3          6           0        0.287231    0.234800   -0.000000
      4          8           0       -0.802494    1.166277    0.000000
      5          1           0        1.168231   -1.253175    1.311423
      6          1           0        0.281273    0.027361    2.152009
      7          1           0       -0.596203   -1.253979    1.303814
      8          1           0        1.168231   -1.253175   -1.311423
      9          1           0        0.281273    0.027361   -2.152009
     10          1           0       -0.596203   -1.253979   -1.303814
     11          1           0        1.172769    0.873582   -0.000000
     12          1           0       -1.629582    0.672719    0.000000
 ---------------------------------------------------------------------

 SCF Done:  E(RHF) =  -193.359078217     A.U. after    2 cycles

 The electronic state is 1-A'.
 Alpha  occ. eigenvalues --  -20.54113 -11.28619 -11.22646 -11.22624  -1.43948
 Alpha  occ. eigenvalues --   -1.04838  -0.94310  -0.81792  -0.66513  -0.64396
 Alpha  occ. eigenvalues --   -0.60535  -0.58095  -0.55116  -0.51566  -0.51520
 Alpha  occ. eigenvalues --   -0.47408  -0.43615
 Alpha virt. eigenvalues --    0.03709   0.04032   0.04338   0.04796   0.07025
 Alpha virt. eigenvalues --    0.07337   0.07409   0.07624   0.11840   0.14001
 Alpha virt. eigenvalues --    0.15227   0.15789   0.15940   0.16647   0.17567

 Mulliken charges:
               1
     1  C   -0.222392
     2  C   -0.222392
     3  C    0.436876
     4  O   -1.305851
     5  H    0.187134
     6  H    0.154935
     7  H    0.133562
     8  H    0.187134
     9  H    0.154935
    10  H    0.133562
    11  H    0.056428
    12  H    0.306071
 Sum of Mulliken charges =   0.00000

 Dipole moment (field-independent basis, Debye):
    X=              0.0743    Y=             -1.7223    Z=             -0.0000  Tot=              1.7239

 Test job not archived.
 1\1\GINC-SE169\SP\RHF\Aug-CC-pVDZ\C3H8O1\OHZDE\05-Apr-2025\0\\#t hf au
 g-cc-pvdz iop(5/13=1,5/36=2,99/5=2) pseudo=read geom=check guess=(read
 ,tcheck) scf=(maxcycle=1)\\title\\0,1\C,0,0.287231,-0.610477,1.26874\C
 ,0,0.287231,-0.610477,-1.26874\C,0,0.287231,0.2348,0.\O,0,-0.802494,1.
 166277,0.\H,0,1.168231,-1.253175,1.311423\H,0,0.281273,0.027361,2.1520
 09\H,0,-0.596203,-1.253979,1.303814\H,0,1.168231,-1.253175,-1.311423\H
 ,0,0.281273,0.027361,-2.152009\H,0,-0.596203,-1.253979,-1.303814\H,0,1
 .172769,0.873582,0.\H,0,-1.629582,0.672719,0.\\Version=ES64L-G16RevC.0

 Normal termination of Gaussian 16 at Sat Apr  5 22:41:39 2025.
