 Gaussian 16, Revision C.01,

 ----------------------------------------------------------------------
 #t hf aug-cc-pvdz symm=none int=(grid=ultrafine) guess=(read,tcheck) s
 table=(opt,rrhf)
 ----------------------------------------------------------------------
 -----
 title
 -----
 Symbolic Z-matrix:
 Charge =  0 Multiplicity = 1

 SCF Done:  E(RHF) =  -191.953660150     A.U. after   13 cycles
 Normal termination of Gaussian 16 at Sat Apr  5 22:41:35 2025.
 Gaussian 16:  ES64L-G16RevC.01  3-Jul-2019

 ----------------------------------------------------------------------
 #t hf aug-cc-pvdz iop(5/13=1,5/36=2,99/5=2) pseudo=read geom=check gue
 ss=(read,tcheck) scf=(maxcycle=1)
 ----------------------------------------------------------------------
 -----
 title
 -----
 Structure from the checkpoint file:  "2-propene-1-ol.chk"
 Charge =  0 Multiplicity = 1

                         Standard orientation:
 ---------------------------------------------------------------------
 Center     Atomic      Atomic             Coordinates (Angstroms)
 Number     Number       Type             X           Y           Z
 ---------------------------------------------------------------------
      1          6           0        1.798671    0.026140   -0.256881
      2          6           0        0.665074   -0.290241    0.357148
      3          6           0       -0.599255    0.505881    0.255208
      4          8           0       -1.694874   -0.274273   -0.232077
      5          1           0        2.690246   -0.577940   -0.155580
      6          1           0        1.876485    0.910633   -0.878456
      7          1           0        0.608435   -1.184136    0.970445
      8          1           0       -0.440048    1.391472   -0.369265
      9          1           0       -0.916428    0.847380    1.242042
     10          1           0       -1.446641   -0.643903   -1.085425
 ---------------------------------------------------------------------

 SCF Done:  E(RHF) =  -192.156353654     A.U. after    2 cycles

 The electronic state is 1-A.
 Alpha  occ. eigenvalues --  -20.54962 -11.29097 -11.24724 -11.24409  -1.44571
 Alpha  occ. eigenvalues --   -1.07177  -0.92785  -0.78282  -0.70563  -0.63496
 Alpha  occ. eigenvalues --   -0.62324  -0.60688  -0.53725  -0.49853  -0.45041
 Alpha  occ. eigenvalues --   -0.38561
 Alpha virt. eigenvalues --    0.03691   0.04268   0.04686   0.05005   0.06751
 Alpha virt. eigenvalues --    0.07234   0.09916   0.11542   0.12801   0.14781
 Alpha virt. eigenvalues --    0.15236   0.15814   0.16736   0.17100   0.18295

 Mulliken charges:
               1
     1  C   -0.011953
     2  C    0.456315
     3  C    0.407756
     4  O   -1.075793
     5  H   -0.081665
     6  H   -0.056395
     7  H   -0.123690
     8  H    0.049592
     9  H    0.110641
    10  H    0.325192
 Sum of Mulliken charges =  -0.00000

 Dipole moment (field-independent basis, Debye):
    X=              1.4976    Y=              0.2279    Z=             -0.6840  Tot=              1.6621

 Test job not archived.
 1\1\GINC-SE172\SP\RHF\Aug-CC-pVDZ\C3H6O1\OHZDE\05-Apr-2025\0\\#t hf au
 g-cc-pvdz iop(5/13=1,5/36=2,99/5=2) pseudo=read geom=check guess=(read
 ,tcheck) scf=(maxcycle=1)\\title\\0,1\C,0,1.798671,0.02614,-0.256881\C
 ,0,0.665074,-0.290241,0.357148\C,0,-0.599255,0.505881,0.255208\O,0,-1.
 694874,-0.274273,-0.232077\H,0,2.690246,-0.577939,-0.15558\H,0,1.87648
 5,0.910633,-0.878456\H,0,0.608435,-1.184136,0.970445\H,0,-0.440048,1.3
 91472,-0.369265\H,0,-0.916428,0.84738,1.242042\H,0,-1.446641,-0.643903
 ,-1.085425\\Version=ES64L-G16RevC.01\State=1-A\HF=-192.1563537\RMSD=1.

 Normal termination of Gaussian 16 at Sat Apr  5 22:41:38 2025.
