 Gaussian 16, Revision C.01,

 ----------------------------------------------------------------------
 #t hf aug-cc-pvdz symm=none int=(grid=ultrafine) guess=(read,tcheck) s
 table=(opt,rrhf)
 ----------------------------------------------------------------------
 -----
 title
 -----
 Symbolic Z-matrix:
 Charge =  0 Multiplicity = 1

 SCF Done:  E(RHF) =  -515.810358987     A.U. after   12 cycles
 Normal termination of Gaussian 16 at Sat Apr  5 22:41:34 2025.
 Gaussian 16:  ES64L-G16RevC.01  3-Jul-2019

 ----------------------------------------------------------------------
 #t hf aug-cc-pvdz iop(5/13=1,5/36=2,99/5=2) pseudo=read geom=check gue
 ss=(read,tcheck) scf=(maxcycle=1)
 ----------------------------------------------------------------------
 -----
 title
 -----
 Structure from the checkpoint file:  "2-propanethiol.chk"
 Charge =  0 Multiplicity = 1

                         Standard orientation:
 ---------------------------------------------------------------------
 Center     Atomic      Atomic             Coordinates (Angstroms)
 Number     Number       Type             X           Y           Z
 ---------------------------------------------------------------------
      1          6           0        0.054241    1.100477    1.268813
      2          6           0        0.054241    1.100477   -1.268813
      3          6           0       -0.409424    0.392082   -0.000000
      4         16           0        0.054241   -1.399668    0.000000
      5          1           0       -0.309019    2.131146    1.280502
      6          1           0       -0.310858    0.595967    2.161592
      7          1           0        1.144294    1.131346    1.319556
      8          1           0       -0.309019    2.131146   -1.280502
      9          1           0       -0.310858    0.595967   -2.161592
     10          1           0        1.144294    1.131346   -1.319556
     11          1           0       -1.500071    0.339611   -0.000000
     12          1           0        1.389046   -1.220063    0.000000
 ---------------------------------------------------------------------

 SCF Done:  E(RHF) =  -516.005029428     A.U. after    2 cycles

 The electronic state is 1-A'.
 Alpha  occ. eigenvalues --  -93.94182 -11.27779 -11.23418 -11.23409  -8.22260
 Alpha  occ. eigenvalues --   -6.20110  -6.19960  -6.19744  -1.10574  -0.96750
 Alpha  occ. eigenvalues --   -0.94559  -0.79624  -0.64209  -0.61238  -0.58560
 Alpha  occ. eigenvalues --   -0.55383  -0.54027  -0.50834  -0.48958  -0.44358
 Alpha  occ. eigenvalues --   -0.36132
 Alpha virt. eigenvalues --    0.03675   0.03956   0.04347   0.04832   0.07020
 Alpha virt. eigenvalues --    0.07080   0.07386   0.07511   0.10062   0.12699
 Alpha virt. eigenvalues --    0.14464   0.14840   0.15563   0.15850   0.16410

 Mulliken charges:
               1
     1  C   -0.106639
     2  C   -0.106639
     3  C   -1.295706
     4  S   -0.002073
     5  H    0.163854
     6  H    0.147907
     7  H    0.168600
     8  H    0.163854
     9  H    0.147907
    10  H    0.168600
    11  H    0.212542
    12  H    0.337791
 Sum of Mulliken charges =  -0.00000

 Dipole moment (field-independent basis, Debye):
    X=              0.3072    Y=              1.8667    Z=              0.0000  Tot=              1.8918

 Test job not archived.
 1\1\GINC-SE222\SP\RHF\Aug-CC-pVDZ\C3H8S1\OHZDE\05-Apr-2025\0\\#t hf au
 g-cc-pvdz iop(5/13=1,5/36=2,99/5=2) pseudo=read geom=check guess=(read
 ,tcheck) scf=(maxcycle=1)\\title\\0,1\C,0,0.054241,1.100477,1.268813\C
 ,0,0.054241,1.100477,-1.268813\C,0,-0.409424,0.392082,0.\S,0,0.054241,
 -1.399668,0.\H,0,-0.309019,2.131146,1.280502\H,0,-0.310858,0.595967,2.
 161592\H,0,1.144294,1.131346,1.319556\H,0,-0.309019,2.131146,-1.280502
 \H,0,-0.310858,0.595967,-2.161592\H,0,1.144294,1.131346,-1.319556\H,0,
 -1.500071,0.339611,0.\H,0,1.389046,-1.220063,0.\\Version=ES64L-G16RevC

 Normal termination of Gaussian 16 at Sat Apr  5 22:41:37 2025.
