 Gaussian 16, Revision C.01,

 ----------------------------------------------------------------------
 #t hf aug-cc-pvdz symm=none int=(grid=ultrafine) guess=(read,tcheck) s
 table=(opt,rrhf)
 ----------------------------------------------------------------------
 -----
 title
 -----
 Symbolic Z-matrix:
 Charge =  0 Multiplicity = 1

 SCF Done:  E(RHF) =  -172.142343761     A.U. after   13 cycles
 Normal termination of Gaussian 16 at Sat Apr  5 22:41:34 2025.
 Gaussian 16:  ES64L-G16RevC.01  3-Jul-2019

 ----------------------------------------------------------------------
 #t hf aug-cc-pvdz iop(5/13=1,5/36=2,99/5=2) pseudo=read geom=check gue
 ss=(read,tcheck) scf=(maxcycle=1)
 ----------------------------------------------------------------------
 -----
 title
 -----
 Structure from the checkpoint file:  "2-propanimine.chk"
 Charge =  0 Multiplicity = 1

                         Standard orientation:
 ---------------------------------------------------------------------
 Center     Atomic      Atomic             Coordinates (Angstroms)
 Number     Number       Type             X           Y           Z
 ---------------------------------------------------------------------
      1          6           0        0.000000    0.160391    0.000000
      2          6           0        1.341166   -0.522197    0.000000
      3          6           0       -1.204165   -0.750105    0.000000
      4          7           0       -0.046207    1.430440    0.000000
      5          1           0        2.139324    0.215075    0.000000
      6          1           0        1.444083   -1.166052    0.876901
      7          1           0        1.444083   -1.166052   -0.876901
      8          1           0       -2.134256   -0.183538    0.000000
      9          1           0       -1.190635   -1.402345    0.876352
     10          1           0       -1.190635   -1.402345   -0.876352
     11          1           0       -1.010521    1.763644    0.000000
 ---------------------------------------------------------------------

 SCF Done:  E(RHF) =  -172.329476651     A.U. after    2 cycles

 The electronic state is 1-A'.
 Alpha  occ. eigenvalues --  -15.48060 -11.29038 -11.24453 -11.23251  -1.21377
 Alpha  occ. eigenvalues --   -1.01760  -0.96143  -0.76822  -0.67094  -0.62131
 Alpha  occ. eigenvalues --   -0.61638  -0.55926  -0.55700  -0.53153  -0.44549
 Alpha  occ. eigenvalues --   -0.44485
 Alpha virt. eigenvalues --    0.03378   0.04377   0.04681   0.04941   0.06753
 Alpha virt. eigenvalues --    0.07479   0.07564   0.10975   0.13828   0.14227
 Alpha virt. eigenvalues --    0.15048   0.15154   0.15535   0.15790   0.16802

 Mulliken charges:
               1
     1  C   -1.303914
     2  C   -0.403576
     3  C   -0.252901
     4  N    0.699377
     5  H    0.137477
     6  H    0.241514
     7  H    0.241514
     8  H    0.037362
     9  H    0.243230
    10  H    0.243230
    11  H    0.116687
 Sum of Mulliken charges =  -0.00000

 Dipole moment (field-independent basis, Debye):
    X=             -1.2723    Y=             -2.6794    Z=             -0.0000  Tot=              2.9661

 Test job not archived.
 1\1\GINC-SE168\SP\RHF\Aug-CC-pVDZ\C3H7N1\OHZDE\05-Apr-2025\0\\#t hf au
 g-cc-pvdz iop(5/13=1,5/36=2,99/5=2) pseudo=read geom=check guess=(read
 ,tcheck) scf=(maxcycle=1)\\title\\0,1\C,0,0.,0.160391,0.\C,0,1.341166,
 -0.522197,0.\C,0,-1.204165,-0.750105,0.\N,0,-0.046207,1.43044,0.\H,0,2
 .139324,0.215075,0.\H,0,1.444083,-1.166052,0.876901\H,0,1.444083,-1.16
 6052,-0.876901\H,0,-2.134256,-0.183538,0.\H,0,-1.190635,-1.402345,0.87
 6352\H,0,-1.190635,-1.402345,-0.876352\H,0,-1.010521,1.763644,0.\\Vers
 ion=ES64L-G16RevC.01\State=1-A'\HF=-172.3294767\RMSD=1.595e-02\Dipole=

 Normal termination of Gaussian 16 at Sat Apr  5 22:41:37 2025.
