 Gaussian 16, Revision C.01,

 ----------------------------------------------------------------------
 #t hf aug-cc-pvdz symm=none int=(grid=ultrafine) guess=(read,tcheck) s
 table=(opt,rrhf)
 ----------------------------------------------------------------------
 -----
 title
 -----
 Symbolic Z-matrix:
 Charge =  0 Multiplicity = 1

 SCF Done:  E(RHF) =  -450.211048269     A.U. after   16 cycles
 Normal termination of Gaussian 16 at Sat Apr  5 22:42:07 2025.
 Gaussian 16:  ES64L-G16RevC.01  3-Jul-2019

 ----------------------------------------------------------------------
 #t hf aug-cc-pvdz iop(5/13=1,5/36=2,99/5=2) pseudo=read geom=check gue
 ss=(read,tcheck) scf=(maxcycle=1)
 ----------------------------------------------------------------------
 -----
 title
 -----
 Structure from the checkpoint file:  "2-propyn-1-yl_diazoacetate.chk"
 Charge =  0 Multiplicity = 1

                         Standard orientation:
 ---------------------------------------------------------------------
 Center     Atomic      Atomic             Coordinates (Angstroms)
 Number     Number       Type             X           Y           Z
 ---------------------------------------------------------------------
      1          8           0       -0.777836    0.622205   -0.000066
      2          8           0        1.157333    1.699452   -0.000071
      3          7           0        2.577306   -0.606933    0.000088
      4          7           0        3.695819   -0.545596    0.000118
      5          6           0       -1.504219   -0.618985   -0.000007
      6          6           0        0.582712    0.639548   -0.000031
      7          6           0        1.267948   -0.648464    0.000052
      8          6           0       -2.928155   -0.331723   -0.000031
      9          6           0       -4.108010   -0.128816   -0.000050
     10          1           0       -1.247335   -1.201991   -0.888800
     11          1           0       -1.247348   -1.201899    0.888849
     12          1           0        0.837583   -1.633315    0.000081
     13          1           0       -5.152401    0.062286   -0.000066
 ---------------------------------------------------------------------

 SCF Done:  E(RHF) =  -450.649996079     A.U. after    2 cycles

 The electronic state is 1-A.
 Alpha  occ. eigenvalues --  -20.60224 -20.52703 -15.71908 -15.65579 -11.40813
 Alpha  occ. eigenvalues --  -11.35033 -11.30474 -11.26235 -11.25754  -1.54843
 Alpha  occ. eigenvalues --   -1.53247  -1.45506  -1.20110  -1.08494  -0.99316
 Alpha  occ. eigenvalues --   -0.91681  -0.79591  -0.78172  -0.76194  -0.76012
 Alpha  occ. eigenvalues --   -0.73952  -0.70272  -0.69804  -0.66918  -0.63110
 Alpha  occ. eigenvalues --   -0.59272  -0.54827  -0.47078  -0.45667  -0.42484
 Alpha  occ. eigenvalues --   -0.41798  -0.38787
 Alpha virt. eigenvalues --    0.02510   0.03371   0.04058   0.04425   0.05229
 Alpha virt. eigenvalues --    0.06173   0.07365   0.09229   0.10338   0.10383
 Alpha virt. eigenvalues --    0.10865   0.11324   0.11334   0.13046   0.13426

 Mulliken charges:
               1
     1  O   -1.274944
     2  O   -1.372146
     3  N   -0.741108
     4  N    1.019168
     5  C   -0.104803
     6  C    2.059831
     7  C   -0.173533
     8  C    0.342364
     9  C    0.428140
    10  H    0.185843
    11  H    0.185846
    12  H   -0.117472
    13  H   -0.437185
 Sum of Mulliken charges =  -0.00000

 Dipole moment (field-independent basis, Debye):
    X=             -1.7563    Y=             -4.8456    Z=              0.0002  Tot=              5.1541

 Test job not archived.
 1\1\GINC-SE203\SP\RHF\Aug-CC-pVDZ\C5H4N2O2\OHZDE\05-Apr-2025\0\\#t hf
 aug-cc-pvdz iop(5/13=1,5/36=2,99/5=2) pseudo=read geom=check guess=(re
 ad,tcheck) scf=(maxcycle=1)\\title\\0,1\O,0,-0.777836,0.622205,-0.0000
 66\O,0,1.157333,1.699452,-0.000071\N,0,2.577306,-0.606933,0.000088\N,0
 ,3.695819,-0.545596,0.000118\C,0,-1.504219,-0.618985,-0.000007\C,0,0.5
 82712,0.639548,-0.000031\C,0,1.267948,-0.648464,0.000052\C,0,-2.928155
 ,-0.331723,-0.000031\C,0,-4.10801,-0.128816,-0.00005\H,0,-1.247335,-1.
 201991,-0.8888\H,0,-1.247348,-1.201899,0.888849\H,0,0.837583,-1.633315

 Normal termination of Gaussian 16 at Sat Apr  5 22:42:26 2025.
