 Gaussian 16, Revision C.01,

 ----------------------------------------------------------------------
 #t hf aug-cc-pvdz symm=none int=(grid=ultrafine) guess=(read,tcheck) s
 table=(opt,rrhf)
 ----------------------------------------------------------------------
 -----
 title
 -----
 Symbolic Z-matrix:
 Charge =  0 Multiplicity = 1

 SCF Done:  E(RHF) =  -173.314632827     A.U. after   12 cycles
 Normal termination of Gaussian 16 at Sat Apr  5 22:41:39 2025.
 Gaussian 16:  ES64L-G16RevC.01  3-Jul-2019

 ----------------------------------------------------------------------
 #t hf aug-cc-pvdz iop(5/13=1,5/36=2,99/5=2) pseudo=read geom=check gue
 ss=(read,tcheck) scf=(maxcycle=1)
 ----------------------------------------------------------------------
 -----
 title
 -----
 Structure from the checkpoint file:  "2-propanamine.chk"
 Charge =  0 Multiplicity = 1

                         Standard orientation:
 ---------------------------------------------------------------------
 Center     Atomic      Atomic             Coordinates (Angstroms)
 Number     Number       Type             X           Y           Z
 ---------------------------------------------------------------------
      1          6           0        0.291567    0.213459   -0.000000
      2          7           0       -0.907457    1.063947   -0.000000
      3          1           0        1.214879    0.812042   -0.000000
      4          6           0        0.291567   -0.643023    1.262440
      5          6           0        0.291567   -0.643023   -1.262440
      6          1           0       -0.926663    1.665263   -0.815022
      7          1           0       -0.926663    1.665263    0.815022
      8          1           0       -0.596181   -1.276761    1.290536
      9          1           0       -0.596181   -1.276761   -1.290536
     10          1           0        1.176573   -1.279494    1.299902
     11          1           0        1.176573   -1.279494   -1.299902
     12          1           0        0.290826   -0.021081    2.160146
     13          1           0        0.290826   -0.021081   -2.160146
 ---------------------------------------------------------------------

 SCF Done:  E(RHF) =  -173.510203617     A.U. after    2 cycles

 The electronic state is 1-A'.
 Alpha  occ. eigenvalues --  -15.47818 -11.25783 -11.21850 -11.21826  -1.18078
 Alpha  occ. eigenvalues --   -1.01802  -0.93444  -0.79153  -0.68234  -0.67004
 Alpha  occ. eigenvalues --   -0.61028  -0.54797  -0.53670  -0.52322  -0.50656
 Alpha  occ. eigenvalues --   -0.48524  -0.41896
 Alpha virt. eigenvalues --    0.03614   0.04444   0.04542   0.04801   0.06522
 Alpha virt. eigenvalues --    0.06604   0.07218   0.07570   0.09953   0.12890
 Alpha virt. eigenvalues --    0.13352   0.14655   0.15479   0.16164   0.16889

 Mulliken charges:
               1
     1  C   -1.797280
     2  N    0.416404
     3  H    0.101026
     4  C   -0.010925
     5  C   -0.010925
     6  H    0.141763
     7  H    0.141763
     8  H    0.242883
     9  H    0.242883
    10  H    0.170187
    11  H    0.170187
    12  H    0.096016
    13  H    0.096016
 Sum of Mulliken charges =  -0.00000

 Dipole moment (field-independent basis, Debye):
    X=              1.1537    Y=              0.7584    Z=              0.0000  Tot=              1.3806

 Test job not archived.
 1\1\GINC-SE222\SP\RHF\Aug-CC-pVDZ\C3H9N1\OHZDE\05-Apr-2025\0\\#t hf au
 g-cc-pvdz iop(5/13=1,5/36=2,99/5=2) pseudo=read geom=check guess=(read
 ,tcheck) scf=(maxcycle=1)\\title\\0,1\C,0,0.291567,0.213459,0.\N,0,-0.
 907457,1.063947,0.\H,0,1.214879,0.812042,0.\C,0,0.291567,-0.643023,1.2
 6244\C,0,0.291567,-0.643023,-1.26244\H,0,-0.926663,1.665263,-0.815022\
 H,0,-0.926663,1.665263,0.815022\H,0,-0.596181,-1.276761,1.290536\H,0,-
 0.596181,-1.276761,-1.290536\H,0,1.176573,-1.279494,1.299902\H,0,1.176
 573,-1.279494,-1.299902\H,0,0.290826,-0.021081,2.160146\H,0,0.290826,-

 Normal termination of Gaussian 16 at Sat Apr  5 22:41:42 2025.
