 Gaussian 16, Revision C.01,

 ----------------------------------------------------------------------
 #t hf aug-cc-pvdz symm=none int=(grid=ultrafine) guess=(read,tcheck) s
 table=(opt,rrhf)
 ----------------------------------------------------------------------
 -----
 title
 -----
 Symbolic Z-matrix:
 Charge =  0 Multiplicity = 1

 SCF Done:  E(RHF) =  -353.519750187     A.U. after   16 cycles
 Normal termination of Gaussian 16 at Sat Apr  5 22:41:40 2025.
 Gaussian 16:  ES64L-G16RevC.01  3-Jul-2019

 ----------------------------------------------------------------------
 #t hf aug-cc-pvdz iop(5/13=1,5/36=2,99/5=2) pseudo=read geom=check gue
 ss=(read,tcheck) scf=(maxcycle=1)
 ----------------------------------------------------------------------
 -----
 title
 -----
 Structure from the checkpoint file:  "2-propenoylazide.chk"
 Charge =  0 Multiplicity = 1

                         Standard orientation:
 ---------------------------------------------------------------------
 Center     Atomic      Atomic             Coordinates (Angstroms)
 Number     Number       Type             X           Y           Z
 ---------------------------------------------------------------------
      1          8           0        0.112000    1.645041    0.000178
      2          7           0        0.429060   -0.659026   -0.000089
      3          7           0        1.652969   -0.464671   -0.000125
      4          7           0        2.770025   -0.386800   -0.000154
      5          6           0       -1.813590    0.267150    0.000107
      6          6           0       -0.363056    0.533548    0.000075
      7          6           0       -2.364559   -0.942577   -0.000011
      8          1           0       -2.413662    1.167111    0.000239
      9          1           0       -1.760433   -1.838905   -0.000143
     10          1           0       -3.439057   -1.063786    0.000022
 ---------------------------------------------------------------------

 SCF Done:  E(RHF) =  -353.865913442     A.U. after    2 cycles

 The electronic state is 1-A.
 Alpha  occ. eigenvalues --  -20.54865 -15.74949 -15.64752 -15.56712 -11.39173
 Alpha  occ. eigenvalues --  -11.27866 -11.26783  -1.55218  -1.49471  -1.35116
 Alpha  occ. eigenvalues --   -1.10600  -0.97576  -0.86414  -0.78950  -0.78651
 Alpha  occ. eigenvalues --   -0.75703  -0.70943  -0.68148  -0.64595  -0.59196
 Alpha  occ. eigenvalues --   -0.56563  -0.55458  -0.45910  -0.45377  -0.41283
 Alpha virt. eigenvalues --    0.03276   0.04200   0.04397   0.04923   0.06075
 Alpha virt. eigenvalues --    0.08070   0.08902   0.10595   0.10604   0.10993
 Alpha virt. eigenvalues --    0.13263   0.13992   0.14665   0.15360   0.15509

 Mulliken charges:
               1
     1  O   -1.182984
     2  N    0.205037
     3  N   -1.181868
     4  N    0.972164
     5  C    0.847972
     6  C    0.578882
     7  C    0.043875
     8  H   -0.227259
     9  H    0.020810
    10  H   -0.076629
 Sum of Mulliken charges =  -0.00000

 Dipole moment (field-independent basis, Debye):
    X=             -2.0272    Y=             -2.0103    Z=             -0.0001  Tot=              2.8550

 Test job not archived.
 1\1\GINC-SE171\SP\RHF\Aug-CC-pVDZ\C3H3N3O1\OHZDE\05-Apr-2025\0\\#t hf
 aug-cc-pvdz iop(5/13=1,5/36=2,99/5=2) pseudo=read geom=check guess=(re
 ad,tcheck) scf=(maxcycle=1)\\title\\0,1\O,0,0.112,1.645041,0.000178\N,
 0,0.42906,-0.659026,-0.000089\N,0,1.652969,-0.464671,-0.000125\N,0,2.7
 70025,-0.3868,-0.000154\C,0,-1.81359,0.26715,0.000107\C,0,-0.363056,0.
 533548,0.000075\C,0,-2.364559,-0.942577,-0.000011\H,0,-2.413662,1.1671
 11,0.000239\H,0,-1.760433,-1.838905,-0.000143\H,0,-3.439057,-1.063786,
 0.000022\\Version=ES64L-G16RevC.01\State=1-A\HF=-353.8659134\RMSD=1.06

 Normal termination of Gaussian 16 at Sat Apr  5 22:41:44 2025.
