 Gaussian 16, Revision C.01,

 ----------------------------------------------------------------------
 #t hf aug-cc-pvdz symm=none int=(grid=ultrafine) guess=(read,tcheck) s
 table=(opt,rrhf)
 ----------------------------------------------------------------------
 -----
 title
 -----
 Symbolic Z-matrix:
 Charge =  0 Multiplicity = 1

 SCF Done:  E(RHF) =  -321.613743573     A.U. after   14 cycles
 Normal termination of Gaussian 16 at Sat Apr  5 22:41:43 2025.
 Gaussian 16:  ES64L-G16RevC.01  3-Jul-2019

 ----------------------------------------------------------------------
 #t hf aug-cc-pvdz iop(5/13=1,5/36=2,99/5=2) pseudo=read geom=check gue
 ss=(read,tcheck) scf=(maxcycle=1)
 ----------------------------------------------------------------------
 -----
 title
 -----
 Structure from the checkpoint file:  "2-pyridinol.chk"
 Charge =  0 Multiplicity = 1

                         Standard orientation:
 ---------------------------------------------------------------------
 Center     Atomic      Atomic             Coordinates (Angstroms)
 Number     Number       Type             X           Y           Z
 ---------------------------------------------------------------------
      1          7           0       -1.176140    0.295001   -0.000000
      2          6           0       -0.000000    0.900809   -0.000000
      3          6           0        1.223975    0.226351    0.000000
      4          6           0        1.190077   -1.154667    0.000000
      5          6           0       -0.039417   -1.813282    0.000000
      6          6           0       -1.189267   -1.042689    0.000000
      7          8           0        0.005822    2.254025   -0.000000
      8          1           0        2.149101    0.783058   -0.000000
      9          1           0        2.113772   -1.717700    0.000000
     10          1           0       -0.101258   -2.891524    0.000000
     11          1           0       -2.168354   -1.506394    0.000000
     12          1           0       -0.919060    2.536214   -0.000000
 ---------------------------------------------------------------------

 SCF Done:  E(RHF) =  -321.940217544     A.U. after    2 cycles

 The electronic state is 1-A'.
 Alpha  occ. eigenvalues --  -20.58414 -15.50408 -11.34695 -11.28890 -11.27179
 Alpha  occ. eigenvalues --  -11.24580 -11.24181  -1.50852  -1.26284  -1.09901
 Alpha  occ. eigenvalues --   -1.03616  -0.89518  -0.87226  -0.75949  -0.72826
 Alpha  occ. eigenvalues --   -0.67826  -0.63530  -0.62055  -0.60898  -0.58352
 Alpha  occ. eigenvalues --   -0.54992  -0.51983  -0.46756  -0.41253  -0.34044
 Alpha virt. eigenvalues --    0.03368   0.03902   0.04221   0.05326   0.06159
 Alpha virt. eigenvalues --    0.07989   0.10728   0.11066   0.11474   0.12418
 Alpha virt. eigenvalues --    0.12752   0.12890   0.13468   0.13830   0.14445

 Mulliken charges:
               1
     1  N    0.934126
     2  C    0.083326
     3  C    0.953918
     4  C   -0.031338
     5  C    0.768697
     6  C   -0.802467
     7  O   -1.522374
     8  H   -0.237146
     9  H   -0.158873
    10  H   -0.199962
    11  H   -0.183431
    12  H    0.395522
 Sum of Mulliken charges =  -0.00000

 Dipole moment (field-independent basis, Debye):
    X=              0.8320    Y=             -1.4973    Z=              0.0000  Tot=              1.7129

 Test job not archived.
 1\1\GINC-SE204\SP\RHF\Aug-CC-pVDZ\C5H5N1O1\OHZDE\05-Apr-2025\0\\#t hf
 aug-cc-pvdz iop(5/13=1,5/36=2,99/5=2) pseudo=read geom=check guess=(re
 ad,tcheck) scf=(maxcycle=1)\\title\\0,1\N,0,-1.17614,0.295001,0.\C,0,0
 .,0.900809,0.\C,0,1.223975,0.226351,0.\C,0,1.190077,-1.154667,0.\C,0,-
 0.039417,-1.813282,0.\C,0,-1.189267,-1.042689,0.\O,0,0.005822,2.254025
 ,0.\H,0,2.149101,0.783058,0.\H,0,2.113772,-1.7177,0.\H,0,-0.101257,-2.
 891524,0.\H,0,-2.168354,-1.506394,0.\H,0,-0.91906,2.536214,0.\\Version
 =ES64L-G16RevC.01\State=1-A'\HF=-321.9402175\RMSD=3.179e-02\Dipole=0.3

 Normal termination of Gaussian 16 at Sat Apr  5 22:41:49 2025.
