 Gaussian 16, Revision C.01,

 ----------------------------------------------------------------------
 #t hf aug-cc-pvdz symm=none int=(grid=ultrafine) guess=(read,tcheck) s
 table=(opt,rrhf)
 ----------------------------------------------------------------------
 -----
 title
 -----
 Symbolic Z-matrix:
 Charge =  0 Multiplicity = 1

 SCF Done:  E(RHF) =  -473.404318649     A.U. after   16 cycles
 Normal termination of Gaussian 16 at Sat Apr  5 22:43:50 2025.
 Gaussian 16:  ES64L-G16RevC.01  3-Jul-2019

 ----------------------------------------------------------------------
 #t hf aug-cc-pvdz iop(5/13=1,5/36=2,99/5=2) pseudo=read geom=check gue
 ss=(read,tcheck) scf=(maxcycle=1)
 ----------------------------------------------------------------------
 -----
 title
 -----
 Structure from the checkpoint file:  "2-pyridinyl_acetate.chk"
 Charge =  0 Multiplicity = 1

                         Standard orientation:
 ---------------------------------------------------------------------
 Center     Atomic      Atomic             Coordinates (Angstroms)
 Number     Number       Type             X           Y           Z
 ---------------------------------------------------------------------
      1          6           0       -2.338453    1.106760    0.151750
      2          6           0       -2.887654   -0.169877    0.191707
      3          6           0       -0.990243    1.249733   -0.135297
      4          6           0       -2.057419   -1.252130   -0.061697
      5          6           0       -0.261460    0.091175   -0.369070
      6          6           0        2.022769   -0.010003    0.246139
      7          6           0        3.397877   -0.012120   -0.356274
      8          7           0       -0.757678   -1.126595   -0.342613
      9          8           0        1.751515   -0.164505    1.402471
     10          8           0        1.078492    0.204899   -0.727454
     11          1           0       -2.950154    1.977738    0.343578
     12          1           0       -3.933897   -0.324461    0.412893
     13          1           0       -0.509700    2.215713   -0.177084
     14          1           0       -2.444289   -2.263759   -0.042752
     15          1           0        3.510688   -0.894802   -0.986722
     16          1           0        4.140400   -0.030768    0.435030
     17          1           0        3.538129    0.862122   -0.990340
 ---------------------------------------------------------------------

 SCF Done:  E(RHF) =  -473.879031195     A.U. after    2 cycles

 The electronic state is 1-A.
 Alpha  occ. eigenvalues --  -20.59937 -20.54095 -15.51172 -11.39919 -11.34793
 Alpha  occ. eigenvalues --  -11.29021 -11.27463 -11.25574 -11.25529 -11.25205
 Alpha  occ. eigenvalues --   -1.55674  -1.46538  -1.27361  -1.10527  -1.06362
 Alpha  occ. eigenvalues --   -1.01839  -0.89913  -0.89163  -0.81331  -0.73361
 Alpha  occ. eigenvalues --   -0.71787  -0.69944  -0.69147  -0.64663  -0.64329
 Alpha  occ. eigenvalues --   -0.60656  -0.59875  -0.58357  -0.56456  -0.55265
 Alpha  occ. eigenvalues --   -0.54743  -0.48130  -0.46720  -0.44746  -0.41377
 Alpha  occ. eigenvalues --   -0.36104
 Alpha virt. eigenvalues --    0.03200   0.03669   0.03869   0.04662   0.05328
 Alpha virt. eigenvalues --    0.05958   0.07467   0.07680   0.09174   0.09763
 Alpha virt. eigenvalues --    0.10757   0.11117   0.11907   0.12612   0.13137

 Mulliken charges:
               1
     1  C   -0.049381
     2  C    0.838390
     3  C    0.761000
     4  C   -0.664238
     5  C   -0.021394
     6  C    1.516788
     7  C   -0.622471
     8  N    1.375528
     9  O   -1.202394
    10  O   -1.738772
    11  H   -0.168826
    12  H   -0.197939
    13  H   -0.274256
    14  H   -0.213086
    15  H    0.256578
    16  H    0.184061
    17  H    0.220411
 Sum of Mulliken charges =   0.00000

 Dipole moment (field-independent basis, Debye):
    X=             -1.1304    Y=              2.0868    Z=             -1.2470  Tot=              2.6810

 Test job not archived.
 1\1\GINC-SE205\SP\RHF\Aug-CC-pVDZ\C7H7N1O2\OHZDE\05-Apr-2025\0\\#t hf
 aug-cc-pvdz iop(5/13=1,5/36=2,99/5=2) pseudo=read geom=check guess=(re
 ad,tcheck) scf=(maxcycle=1)\\title\\0,1\C,0,-2.338453,1.10676,0.15175\
 C,0,-2.887654,-0.169877,0.191707\C,0,-0.990243,1.249733,-0.135297\C,0,
 -2.057419,-1.25213,-0.061697\C,0,-0.26146,0.091175,-0.36907\C,0,2.0227
 69,-0.010003,0.246139\C,0,3.397877,-0.01212,-0.356274\N,0,-0.757678,-1
 .126595,-0.342613\O,0,1.751515,-0.164505,1.402471\O,0,1.078492,0.20489
 9,-0.727454\H,0,-2.950154,1.977738,0.343578\H,0,-3.933897,-0.324461,0.

 Normal termination of Gaussian 16 at Sat Apr  5 22:44:47 2025.
