 Gaussian 16, Revision C.01,

 ----------------------------------------------------------------------
 #t hf aug-cc-pvdz symm=none int=(grid=ultrafine) guess=(read,tcheck) s
 table=(opt,rrhf)
 ----------------------------------------------------------------------
 -----
 title
 -----
 Symbolic Z-matrix:
 Charge =  0 Multiplicity = 1

 SCF Done:  E(RHF) =  -981.934095641     A.U. after   16 cycles
 Normal termination of Gaussian 16 at Sat Apr  5 22:42:32 2025.
 Gaussian 16:  ES64L-G16RevC.01  3-Jul-2019

 ----------------------------------------------------------------------
 #t hf aug-cc-pvdz iop(5/13=1,5/36=2,99/5=2) pseudo=read geom=check gue
 ss=(read,tcheck) scf=(maxcycle=1)
 ----------------------------------------------------------------------
 -----
 title
 -----
 Structure from the checkpoint file:  "2-sulfanyl-2-3-dihydro-1-2-3-thiadiazole.chk"
 Charge =  0 Multiplicity = 1

                         Standard orientation:
 ---------------------------------------------------------------------
 Center     Atomic      Atomic             Coordinates (Angstroms)
 Number     Number       Type             X           Y           Z
 ---------------------------------------------------------------------
      1         16           0       -0.810277   -1.201087   -0.200139
      2         16           0        1.913381   -0.044710    0.323269
      3          7           0        0.443660   -0.088164   -0.739013
      4          7           0       -0.252291    1.168391   -0.769326
      5          6           0       -1.623704    0.083578    0.709655
      6          6           0       -1.186766    1.266178    0.270196
      7          1           0        1.326453    0.217777    1.515056
      8          1           0        0.406206    1.926467   -0.878431
      9          1           0       -2.353808   -0.114528    1.473493
     10          1           0       -1.505287    2.242921    0.599065
 ---------------------------------------------------------------------

 SCF Done:  E(RHF) =  -982.239223505     A.U. after    2 cycles

 The electronic state is 1-A.
 Alpha  occ. eigenvalues --  -93.99208 -93.98449 -15.59922 -15.55954 -11.29743
 Alpha  occ. eigenvalues --  -11.27079  -8.27019  -8.26205  -6.24790  -6.24653
 Alpha  occ. eigenvalues --   -6.24360  -6.24020  -6.23844  -6.23614  -1.34267
 Alpha  occ. eigenvalues --   -1.13637  -1.09557  -0.99648  -0.87596  -0.82803
 Alpha  occ. eigenvalues --   -0.76799  -0.66247  -0.64451  -0.63451  -0.60302
 Alpha  occ. eigenvalues --   -0.50980  -0.49151  -0.46996  -0.44803  -0.38473
 Alpha  occ. eigenvalues --   -0.31661
 Alpha virt. eigenvalues --    0.03153   0.03947   0.04819   0.05366   0.06936
 Alpha virt. eigenvalues --    0.08327   0.09019   0.10079   0.11402   0.11684
 Alpha virt. eigenvalues --    0.12224   0.13851   0.14120   0.14757   0.15714

 Mulliken charges:
               1
     1  S    0.446757
     2  S   -0.083385
     3  N   -0.655294
     4  N    0.220129
     5  C   -0.196550
     6  C    0.063705
     7  H    0.362045
     8  H    0.125256
     9  H   -0.141047
    10  H   -0.141615
 Sum of Mulliken charges =  -0.00000

 Dipole moment (field-independent basis, Debye):
    X=             -1.0620    Y=              2.1757    Z=              2.6861  Tot=              3.6161

 Test job not archived.
 1\1\GINC-SE050\SP\RHF\Aug-CC-pVDZ\C2H4N2S2\OHZDE\05-Apr-2025\0\\#t hf
 aug-cc-pvdz iop(5/13=1,5/36=2,99/5=2) pseudo=read geom=check guess=(re
 ad,tcheck) scf=(maxcycle=1)\\title\\0,1\S,0,-0.810277,-1.201087,-0.200
 139\S,0,1.913381,-0.04471,0.323269\N,0,0.44366,-0.088164,-0.739013\N,0
 ,-0.252291,1.168391,-0.769326\C,0,-1.623704,0.083578,0.709655\C,0,-1.1
 86766,1.266178,0.270196\H,0,1.326453,0.217777,1.515056\H,0,0.406206,1.
 926467,-0.878431\H,0,-2.353808,-0.114528,1.473493\H,0,-1.505287,2.2429
 21,0.599065\\Version=ES64L-G16RevC.01\State=1-A\HF=-982.2392235\RMSD=1

 Normal termination of Gaussian 16 at Sat Apr  5 22:43:17 2025.
