 Gaussian 16, Revision C.01,

 ----------------------------------------------------------------------
 #t hf aug-cc-pvdz symm=none int=(grid=ultrafine) guess=(read,tcheck) s
 table=(opt,rrhf)
 ----------------------------------------------------------------------
 -----
 title
 -----
 Symbolic Z-matrix:
 Charge =  0 Multiplicity = 1

 SCF Done:  E(RHF) =  -659.223851965     A.U. after   15 cycles
 Normal termination of Gaussian 16 at Sat Apr  5 22:41:39 2025.
 Gaussian 16:  ES64L-G16RevC.01  3-Jul-2019

 ----------------------------------------------------------------------
 #t hf aug-cc-pvdz iop(5/13=1,5/36=2,99/5=2) pseudo=read geom=check gue
 ss=(read,tcheck) scf=(maxcycle=1)
 ----------------------------------------------------------------------
 -----
 title
 -----
 Structure from the checkpoint file:  "2-sulfanyl-2-3-dihydro-1-2-3-oxadiazole.chk"
 Charge =  0 Multiplicity = 1

                         Standard orientation:
 ---------------------------------------------------------------------
 Center     Atomic      Atomic             Coordinates (Angstroms)
 Number     Number       Type             X           Y           Z
 ---------------------------------------------------------------------
      1         16           0       -1.764262   -0.028731    0.281446
      2          8           0        0.586821   -1.114709   -0.509303
      3          7           0       -0.251683    0.006912   -0.828675
      4          7           0        0.614061    1.105043   -0.503142
      5          6           0        1.485936   -0.681423    0.451316
      6          6           0        1.501411    0.645466    0.492509
      7          1           0       -1.126094    0.003515    1.472452
      8          1           0        0.064649    1.928199   -0.298450
      9          1           0        2.039233   -1.439683    0.972831
     10          1           0        2.095103    1.317395    1.084212
 ---------------------------------------------------------------------

 SCF Done:  E(RHF) =  -659.542041255     A.U. after    2 cycles

 The electronic state is 1-A.
 Alpha  occ. eigenvalues --  -93.98184 -20.61463 -15.64511 -15.56066 -11.30668
 Alpha  occ. eigenvalues --  -11.28865  -8.25968  -6.23765  -6.23610  -6.23368
 Alpha  occ. eigenvalues --   -1.54911  -1.28565  -1.12947  -1.01114  -0.93232
 Alpha  occ. eigenvalues --   -0.85577  -0.78502  -0.69600  -0.66085  -0.65158
 Alpha  occ. eigenvalues --   -0.63262  -0.57392  -0.54776  -0.50869  -0.46945
 Alpha  occ. eigenvalues --   -0.39218  -0.33476
 Alpha virt. eigenvalues --    0.03094   0.04143   0.04825   0.05173   0.07754
 Alpha virt. eigenvalues --    0.09272   0.09922   0.10410   0.11844   0.12476
 Alpha virt. eigenvalues --    0.13464   0.14623   0.15255   0.15522   0.17392

 Mulliken charges:
               1
     1  S   -0.034017
     2  O   -1.333679
     3  N    0.308860
     4  N    0.093254
     5  C    1.147539
     6  C   -0.493876
     7  H    0.359136
     8  H    0.137323
     9  H   -0.051852
    10  H   -0.132688
 Sum of Mulliken charges =  -0.00000

 Dipole moment (field-independent basis, Debye):
    X=              1.4299    Y=              1.3319    Z=              3.4666  Tot=              3.9795

 Test job not archived.
 1\1\GINC-SE028\SP\RHF\Aug-CC-pVDZ\C2H4N2O1S1\OHZDE\05-Apr-2025\0\\#t h
 f aug-cc-pvdz iop(5/13=1,5/36=2,99/5=2) pseudo=read geom=check guess=(
 read,tcheck) scf=(maxcycle=1)\\title\\0,1\S,0,-1.764262,-0.028731,0.28
 1446\O,0,0.586821,-1.114709,-0.509303\N,0,-0.251683,0.006912,-0.828675
 \N,0,0.614061,1.105043,-0.503142\C,0,1.485936,-0.681423,0.451316\C,0,1
 .501411,0.645466,0.492509\H,0,-1.126094,0.003515,1.472452\H,0,0.064649
 ,1.928199,-0.29845\H,0,2.039233,-1.439683,0.972831\H,0,2.095103,1.3173
 95,1.084212\\Version=ES64L-G16RevC.01\State=1-A\HF=-659.5420413\RMSD=2

 Normal termination of Gaussian 16 at Sat Apr  5 22:41:43 2025.
