 Gaussian 16, Revision C.01,

 ----------------------------------------------------------------------
 #t hf aug-cc-pvdz symm=none int=(grid=ultrafine) guess=(read,tcheck) s
 table=(opt,rrhf)
 ----------------------------------------------------------------------
 -----
 title
 -----
 Symbolic Z-matrix:
 Charge =  0 Multiplicity = 1

 SCF Done:  E(RHF) =  -705.436354722     A.U. after   15 cycles
 Normal termination of Gaussian 16 at Sat Apr  5 22:44:22 2025.
 Gaussian 16:  ES64L-G16RevC.01  3-Jul-2019

 ----------------------------------------------------------------------
 #t hf aug-cc-pvdz iop(5/13=1,5/36=2,99/5=2) pseudo=read geom=check gue
 ss=(read,tcheck) scf=(maxcycle=1)
 ----------------------------------------------------------------------
 -----
 title
 -----
 Structure from the checkpoint file:  "2-sulfylformaldehyde-3-methylbutene.chk"
 Charge =  0 Multiplicity = 1

                         Standard orientation:
 ---------------------------------------------------------------------
 Center     Atomic      Atomic             Coordinates (Angstroms)
 Number     Number       Type             X           Y           Z
 ---------------------------------------------------------------------
      1          6           0       -1.966141   -0.243997    0.652074
      2          6           0        1.427449   -0.406198   -0.004522
      3          6           0        0.548506    0.597372   -0.160463
      4          6           0        1.159927   -1.840030   -0.373853
      5          6           0        2.811134   -0.200827    0.559532
      6          6           0        0.786607    2.053943    0.137899
      7          8           0       -3.126754   -0.539822    0.672071
      8         16           0       -1.103623    0.293545   -0.820783
      9          1           0       -1.304658   -0.279475    1.536228
     10          1           0        1.992891   -2.231161   -0.963195
     11          1           0        1.099429   -2.460899    0.524518
     12          1           0        0.242889   -1.970157   -0.939207
     13          1           0        2.984133    0.790914    0.963815
     14          1           0        3.562165   -0.391258   -0.212287
     15          1           0        2.996780   -0.925244    1.356070
     16          1           0        0.160197    2.390423    0.967818
     17          1           0        1.822753    2.273115    0.382174
     18          1           0        0.510533    2.664030   -0.723971
 ---------------------------------------------------------------------

 SCF Done:  E(RHF) =  -705.817102715     A.U. after    2 cycles

 The electronic state is 1-A.
 Alpha  occ. eigenvalues --  -93.96585 -20.55502 -11.37289 -11.27762 -11.27368
 Alpha  occ. eigenvalues --  -11.24853 -11.24629 -11.24233  -8.24774  -6.22565
 Alpha  occ. eigenvalues --   -6.22415  -6.22236  -1.49208  -1.14759  -1.06185
 Alpha  occ. eigenvalues --   -1.00220  -0.95622  -0.89965  -0.81936  -0.71780
 Alpha  occ. eigenvalues --   -0.67796  -0.65682  -0.63643  -0.62117  -0.59736
 Alpha  occ. eigenvalues --   -0.57930  -0.56151  -0.55959  -0.55564  -0.54228
 Alpha  occ. eigenvalues --   -0.53304  -0.47156  -0.42139  -0.38130  -0.36311
 Alpha virt. eigenvalues --    0.02799   0.03340   0.03433   0.04157   0.05651
 Alpha virt. eigenvalues --    0.06034   0.06369   0.06953   0.08199   0.09302
 Alpha virt. eigenvalues --    0.09696   0.10753   0.11004   0.11928   0.12764

 Mulliken charges:
               1
     1  C    0.690434
     2  C    0.196751
     3  C   -0.093526
     4  C   -0.706200
     5  C   -0.615909
     6  C   -0.788279
     7  O   -1.112099
     8  S    0.259684
     9  H    0.187744
    10  H    0.216733
    11  H    0.247627
    12  H    0.224386
    13  H    0.058127
    14  H    0.288017
    15  H    0.282674
    16  H    0.269722
    17  H    0.115392
    18  H    0.278723
 Sum of Mulliken charges =  -0.00000

 Dipole moment (field-independent basis, Debye):
    X=              4.7414    Y=              0.2965    Z=              0.9192  Tot=              4.8387

 Test job not archived.
 1\1\GINC-SE129\SP\RHF\Aug-CC-pVDZ\C6H10O1S1\OHZDE\05-Apr-2025\0\\#t hf
  aug-cc-pvdz iop(5/13=1,5/36=2,99/5=2) pseudo=read geom=check guess=(r
 ead,tcheck) scf=(maxcycle=1)\\title\\0,1\C,0,-1.966141,-0.243997,0.652
 074\C,0,1.427449,-0.406198,-0.004522\C,0,0.548506,0.597372,-0.160463\C
 ,0,1.159927,-1.84003,-0.373853\C,0,2.811134,-0.200827,0.559532\C,0,0.7
 86607,2.053943,0.137899\O,0,-3.126754,-0.539822,0.672071\S,0,-1.103623
 ,0.293545,-0.820783\H,0,-1.304658,-0.279475,1.536228\H,0,1.992891,-2.2
 31161,-0.963195\H,0,1.099429,-2.460899,0.524518\H,0,0.242889,-1.970157

 Normal termination of Gaussian 16 at Sat Apr  5 22:44:47 2025.
