 Gaussian 16, Revision C.01,

 ----------------------------------------------------------------------
 #t hf aug-cc-pvdz symm=none int=(grid=ultrafine) guess=(read,tcheck) s
 table=(opt,rrhf)
 ----------------------------------------------------------------------
 -----
 title
 -----
 Symbolic Z-matrix:
 Charge =  0 Multiplicity = 1

 SCF Done:  E(RHF) =  -1074.83446191     A.U. after   16 cycles
 Normal termination of Gaussian 16 at Sat Apr  5 22:43:04 2025.
 Gaussian 16:  ES64L-G16RevC.01  3-Jul-2019

 ----------------------------------------------------------------------
 #t hf aug-cc-pvdz iop(5/13=1,5/36=2,99/5=2) pseudo=read geom=check gue
 ss=(read,tcheck) scf=(maxcycle=1)
 ----------------------------------------------------------------------
 -----
 title
 -----
 Structure from the checkpoint file:  "2-sulfanyl-2-3-dihydro-1-2-3-triazine-41H-thione.chk"
 Charge =  0 Multiplicity = 1

                         Standard orientation:
 ---------------------------------------------------------------------
 Center     Atomic      Atomic             Coordinates (Angstroms)
 Number     Number       Type             X           Y           Z
 ---------------------------------------------------------------------
      1         16           0        2.547758   -0.919099   -0.053026
      2         16           0       -2.705184   -0.795536    0.103404
      3          7           0        1.128924   -0.011693   -0.377571
      4          7           0       -0.064029   -0.748349   -0.053981
      5          7           0        1.139175    1.250598    0.371535
      6          6           0       -1.124329   -0.028818   -0.115379
      7          6           0       -1.120311    1.420199   -0.258114
      8          6           0        0.038662    2.018372    0.067171
      9          1           0        2.381553   -1.155465    1.277531
     10          1           0       -2.221852   -2.049836    0.167875
     11          1           0        2.042552    1.684451    0.251989
     12          1           0       -2.024383    1.975775   -0.440590
     13          1           0        0.148326    3.086836    0.195205
 ---------------------------------------------------------------------

 SCF Done:  E(RHF) =  -1075.23506856     A.U. after    2 cycles

 The electronic state is 1-A.
 Alpha  occ. eigenvalues --  -93.98739 -93.97289 -15.59682 -15.56434 -15.53124
 Alpha  occ. eigenvalues --  -11.33218 -11.31961 -11.24855  -8.26508  -8.25476
 Alpha  occ. eigenvalues --   -6.24345  -6.24131  -6.23916  -6.23324  -6.23165
 Alpha  occ. eigenvalues --   -6.22939  -1.36490  -1.23389  -1.16921  -1.05562
 Alpha  occ. eigenvalues --   -1.03783  -0.93588  -0.88873  -0.78398  -0.75328
 Alpha  occ. eigenvalues --   -0.72589  -0.67018  -0.64648  -0.63292  -0.58582
 Alpha  occ. eigenvalues --   -0.54107  -0.53538  -0.50446  -0.48835  -0.45660
 Alpha  occ. eigenvalues --   -0.39577  -0.38287  -0.34554
 Alpha virt. eigenvalues --    0.02958   0.04147   0.04696   0.05456   0.06217
 Alpha virt. eigenvalues --    0.06372   0.07616   0.09025   0.09469   0.10156
 Alpha virt. eigenvalues --    0.11536   0.11966   0.12531   0.13298   0.14670

 Mulliken charges:
               1
     1  S    0.056912
     2  S    0.125419
     3  N   -0.868616
     4  N    0.676853
     5  N    0.406311
     6  C   -1.410073
     7  C    0.946097
     8  C   -0.527957
     9  H    0.347264
    10  H    0.373899
    11  H    0.181612
    12  H   -0.129635
    13  H   -0.178086
 Sum of Mulliken charges =   0.00000

 Dipole moment (field-independent basis, Debye):
    X=              0.1028    Y=              2.6936    Z=              1.0334  Tot=              2.8869

 Test job not archived.
 1\1\GINC-SE104\SP\RHF\Aug-CC-pVDZ\C3H5N3S2\OHZDE\05-Apr-2025\0\\#t hf
 aug-cc-pvdz iop(5/13=1,5/36=2,99/5=2) pseudo=read geom=check guess=(re
 ad,tcheck) scf=(maxcycle=1)\\title\\0,1\S,0,2.547758,-0.919099,-0.0530
 26\S,0,-2.705184,-0.795536,0.103404\N,0,1.128924,-0.011693,-0.377571\N
 ,0,-0.064029,-0.748349,-0.053981\N,0,1.139175,1.250598,0.371535\C,0,-1
 .124329,-0.028818,-0.115379\C,0,-1.120311,1.420199,-0.258114\C,0,0.038
 662,2.018372,0.067171\H,0,2.381553,-1.155465,1.277531\H,0,-2.221852,-2
 .049836,0.167875\H,0,2.042552,1.684451,0.251989\H,0,-2.024383,1.975775

 Normal termination of Gaussian 16 at Sat Apr  5 22:43:18 2025.
