 Gaussian 16, Revision C.01,

 ----------------------------------------------------------------------
 #t hf aug-cc-pvdz symm=none int=(grid=ultrafine) guess=(read,tcheck) s
 table=(opt,rrhf)
 ----------------------------------------------------------------------
 -----
 title
 -----
 Symbolic Z-matrix:
 Charge =  0 Multiplicity = 1

 SCF Done:  E(RHF) =  -1039.78143683     A.U. after   15 cycles
 Normal termination of Gaussian 16 at Sat Apr  5 22:42:34 2025.
 Gaussian 16:  ES64L-G16RevC.01  3-Jul-2019

 ----------------------------------------------------------------------
 #t hf aug-cc-pvdz iop(5/13=1,5/36=2,99/5=2) pseudo=read geom=check gue
 ss=(read,tcheck) scf=(maxcycle=1)
 ----------------------------------------------------------------------
 -----
 title
 -----
 Structure from the checkpoint file:  "2-thioxo-1-3-thiazolidin-4-one.chk"
 Charge =  0 Multiplicity = 1

                         Standard orientation:
 ---------------------------------------------------------------------
 Center     Atomic      Atomic             Coordinates (Angstroms)
 Number     Number       Type             X           Y           Z
 ---------------------------------------------------------------------
      1          8           0        1.710628   -2.268770    0.000000
      2          6           0        0.839149   -1.437452    0.000000
      3          7           0        1.061346   -0.070202    0.000000
      4          6           0        0.000000    0.800619    0.000000
      5         16           0        0.108303    2.432861    0.000000
      6          6           0       -0.653682   -1.727173    0.000000
      7         16           0       -1.508948   -0.111223    0.000000
      8          1           0        2.004537    0.291896    0.000000
      9          1           0       -0.910735   -2.306252    0.884785
     10          1           0       -0.910735   -2.306252   -0.884785
 ---------------------------------------------------------------------

 SCF Done:  E(RHF) =  -1040.13902409     A.U. after    2 cycles

 The electronic state is 1-A'.
 Alpha  occ. eigenvalues --  -94.00848 -93.93420 -20.56590 -15.59616 -11.41565
 Alpha  occ. eigenvalues --  -11.41123 -11.32219  -8.29023  -8.21706  -6.26791
 Alpha  occ. eigenvalues --   -6.26662  -6.26418  -6.19567  -6.19260  -6.19120
 Alpha  occ. eigenvalues --   -1.51593  -1.33998  -1.13865  -1.09816  -0.97113
 Alpha  occ. eigenvalues --   -0.89670  -0.87251  -0.72077  -0.70474  -0.66302
 Alpha  occ. eigenvalues --   -0.65075  -0.61950  -0.56092  -0.54356  -0.54204
 Alpha  occ. eigenvalues --   -0.46736  -0.43447  -0.36997  -0.36837
 Alpha virt. eigenvalues --    0.02805   0.04193   0.04358   0.04709   0.06833
 Alpha virt. eigenvalues --    0.07397   0.08137   0.09700   0.10507   0.10995
 Alpha virt. eigenvalues --    0.12579   0.13263   0.13487   0.13553   0.15357

 Mulliken charges:
               1
     1  O   -1.288178
     2  C    0.859989
     3  N    0.821874
     4  C   -1.466343
     5  S    0.374001
     6  C   -0.862373
     7  S    0.898953
     8  H    0.068033
     9  H    0.297022
    10  H    0.297022
 Sum of Mulliken charges =  -0.00000

 Dipole moment (field-independent basis, Debye):
    X=             -1.2489    Y=             -2.2713    Z=             -0.0000  Tot=              2.5920

 Test job not archived.
 1\1\GINC-SE185\SP\RHF\Aug-CC-pVDZ\C3H3N1O1S2\OHZDE\05-Apr-2025\0\\#t h
 f aug-cc-pvdz iop(5/13=1,5/36=2,99/5=2) pseudo=read geom=check guess=(
 read,tcheck) scf=(maxcycle=1)\\title\\0,1\O,0,1.710629,-2.26877,0.\C,0
 ,0.839149,-1.437452,0.\N,0,1.061346,-0.070202,0.\C,0,0.,0.800619,0.\S,
 0,0.108303,2.432861,0.\C,0,-0.653681,-1.727173,0.\S,0,-1.508948,-0.111
 223,0.\H,0,2.004537,0.291896,0.\H,0,-0.910734,-2.306252,0.884785\H,0,-
 0.910734,-2.306252,-0.884785\\Version=ES64L-G16RevC.01\State=1-A'\HF=-
 1040.1390241\RMSD=1.573e-02\Dipole=-0.4913729,-0.8935974,0.\Quadrupole

 Normal termination of Gaussian 16 at Sat Apr  5 22:43:17 2025.
