 Gaussian 16, Revision C.01,

 ----------------------------------------------------------------------
 #t hf aug-cc-pvdz symm=none int=(grid=ultrafine) guess=(read,tcheck) s
 table=(opt,rrhf)
 ----------------------------------------------------------------------
 -----
 title
 -----
 Symbolic Z-matrix:
 Charge =  0 Multiplicity = 1

 SCF Done:  E(RHF) =  -1039.76360050     A.U. after   15 cycles
 Normal termination of Gaussian 16 at Sat Apr  5 22:42:35 2025.
 Gaussian 16:  ES64L-G16RevC.01  3-Jul-2019

 ----------------------------------------------------------------------
 #t hf aug-cc-pvdz iop(5/13=1,5/36=2,99/5=2) pseudo=read geom=check gue
 ss=(read,tcheck) scf=(maxcycle=1)
 ----------------------------------------------------------------------
 -----
 title
 -----
 Structure from the checkpoint file:  "2-thioxo-1-3-thiazolidin-5-one.chk"
 Charge =  0 Multiplicity = 1

                         Standard orientation:
 ---------------------------------------------------------------------
 Center     Atomic      Atomic             Coordinates (Angstroms)
 Number     Number       Type             X           Y           Z
 ---------------------------------------------------------------------
      1         16           0        0.301124   -1.194128   -0.000003
      2         16           0       -2.516695   -0.103145   -0.000004
      3          8           0        2.855536   -0.380914    0.000003
      4          7           0       -0.251435    1.319996    0.000004
      5          6           0       -0.891421    0.133788   -0.000001
      6          6           0        1.703099   -0.063528    0.000002
      7          6           0        1.190060    1.371895    0.000006
      8          1           0       -0.815242    2.155712    0.000006
      9          1           0        1.584859    1.877534   -0.885017
     10          1           0        1.584856    1.877528    0.885033
 ---------------------------------------------------------------------

 SCF Done:  E(RHF) =  -1040.12049137     A.U. after    2 cycles

 The electronic state is 1-A.
 Alpha  occ. eigenvalues --  -94.01247 -93.92197 -20.58546 -15.58489 -11.41264
 Alpha  occ. eigenvalues --  -11.40504 -11.33703  -8.29496  -8.20494  -6.27228
 Alpha  occ. eigenvalues --   -6.27122  -6.26887  -6.18367  -6.18037  -6.17922
 Alpha  occ. eigenvalues --   -1.52823  -1.33560  -1.12208  -1.09440  -0.99487
 Alpha  occ. eigenvalues --   -0.86854  -0.81727  -0.75226  -0.71611  -0.67764
 Alpha  occ. eigenvalues --   -0.67045  -0.59131  -0.58780  -0.56224  -0.53605
 Alpha  occ. eigenvalues --   -0.44770  -0.43239  -0.36650  -0.35840
 Alpha virt. eigenvalues --    0.02159   0.04051   0.04786   0.05864   0.06736
 Alpha virt. eigenvalues --    0.07857   0.08296   0.08609   0.09419   0.11529
 Alpha virt. eigenvalues --    0.11758   0.12549   0.13381   0.13478   0.14977

 Mulliken charges:
               1
     1  S    0.738801
     2  S    0.318074
     3  O   -1.243013
     4  N    0.878589
     5  C   -1.405800
     6  C    0.648330
     7  C   -0.349364
     8  H    0.043210
     9  H    0.185587
    10  H    0.185586
 Sum of Mulliken charges =  -0.00000

 Dipole moment (field-independent basis, Debye):
    X=              1.6722    Y=              3.4904    Z=              0.0000  Tot=              3.8703

 Test job not archived.
 1\1\GINC-SE052\SP\RHF\Aug-CC-pVDZ\C3H3N1O1S2\OHZDE\05-Apr-2025\0\\#t h
 f aug-cc-pvdz iop(5/13=1,5/36=2,99/5=2) pseudo=read geom=check guess=(
 read,tcheck) scf=(maxcycle=1)\\title\\0,1\S,0,0.301124,-1.194128,-0.00
 0003\S,0,-2.516695,-0.103145,-0.000004\O,0,2.855536,-0.380914,0.000003
 \N,0,-0.251435,1.319996,0.000004\C,0,-0.891421,0.133788,-0.000001\C,0,
 1.703099,-0.063528,0.000002\C,0,1.19006,1.371895,0.000006\H,0,-0.81524
 2,2.155712,0.000006\H,0,1.584859,1.877534,-0.885017\H,0,1.584856,1.877
 528,0.885033\\Version=ES64L-G16RevC.01\State=1-A\HF=-1040.1204914\RMSD

 Normal termination of Gaussian 16 at Sat Apr  5 22:43:17 2025.
