 Gaussian 16, Revision C.01,

 ----------------------------------------------------------------------
 #t hf aug-cc-pvdz symm=none int=(grid=ultrafine) guess=(read,tcheck) s
 table=(opt,rrhf)
 ----------------------------------------------------------------------
 -----
 title
 -----
 Symbolic Z-matrix:
 Charge =  0 Multiplicity = 1

 SCF Done:  E(RHF) =  -1098.60070251     A.U. after   17 cycles
 Normal termination of Gaussian 16 at Sat Apr  5 22:42:42 2025.
 Gaussian 16:  ES64L-G16RevC.01  3-Jul-2019

 ----------------------------------------------------------------------
 #t hf aug-cc-pvdz iop(5/13=1,5/36=2,99/5=2) pseudo=read geom=check gue
 ss=(read,tcheck) scf=(maxcycle=1)
 ----------------------------------------------------------------------
 -----
 title
 -----
 Structure from the checkpoint file:  "2-thioformyl-3-thioxopropanoic_acid.chk"
 Charge =  0 Multiplicity = 1

                         Standard orientation:
 ---------------------------------------------------------------------
 Center     Atomic      Atomic             Coordinates (Angstroms)
 Number     Number       Type             X           Y           Z
 ---------------------------------------------------------------------
      1         16           0        2.376125   -1.341872   -0.155715
      2         16           0       -2.376123   -1.341874   -0.155714
      3          8           0       -0.000001    2.271956   -1.220927
      4          8           0       -0.000001    2.134769    1.026292
      5          6           0       -0.000000    0.080610   -0.199333
      6          6           0        0.000000    1.613145   -0.221280
      7          6           0        1.234770   -0.423018    0.519041
      8          6           0       -1.234769   -0.423020    0.519042
      9          1           0       -0.000001    3.100348    0.941425
     10          1           0       -0.000000   -0.255540   -1.230687
     11          1           0        1.305553   -0.122488    1.562193
     12          1           0       -1.305552   -0.122490    1.562194
 ---------------------------------------------------------------------

 SCF Done:  E(RHF) =  -1099.01003564     A.U. after    2 cycles

 The electronic state is 1-A.
 Alpha  occ. eigenvalues --  -93.96581 -93.96580 -20.63585 -20.57329 -11.43282
 Alpha  occ. eigenvalues --  -11.35546 -11.35536 -11.30948  -8.24771  -8.24770
 Alpha  occ. eigenvalues --   -6.22558  -6.22558  -6.22413  -6.22413  -6.22133
 Alpha  occ. eigenvalues --   -6.22132  -1.58334  -1.49004  -1.18095  -1.10586
 Alpha  occ. eigenvalues --   -1.03279  -0.87994  -0.83331  -0.82899  -0.73979
 Alpha  occ. eigenvalues --   -0.72503  -0.68321  -0.64409  -0.62664  -0.61105
 Alpha  occ. eigenvalues --   -0.56007  -0.55375  -0.51016  -0.49650  -0.43775
 Alpha  occ. eigenvalues --   -0.43286  -0.37969  -0.36760
 Alpha virt. eigenvalues --    0.00256   0.02561   0.03806   0.04129   0.04666
 Alpha virt. eigenvalues --    0.05360   0.07791   0.08404   0.09759   0.09842
 Alpha virt. eigenvalues --    0.11096   0.12502   0.13248   0.13388   0.14659

 Mulliken charges:
               1
     1  S    0.229542
     2  S    0.229542
     3  O   -1.216089
     4  O   -1.292727
     5  C    0.432913
     6  C    1.907089
     7  C   -0.367211
     8  C   -0.367211
     9  H    0.399072
    10  H    0.101806
    11  H   -0.028362
    12  H   -0.028363
 Sum of Mulliken charges =  -0.00000

 Dipole moment (field-independent basis, Debye):
    X=              0.0000    Y=              1.8508    Z=              2.9516  Tot=              3.4839

 Test job not archived.
 1\1\GINC-SE158\SP\RHF\Aug-CC-pVDZ\C4H4O2S2\OHZDE\05-Apr-2025\0\\#t hf
 aug-cc-pvdz iop(5/13=1,5/36=2,99/5=2) pseudo=read geom=check guess=(re
 ad,tcheck) scf=(maxcycle=1)\\title\\0,1\S,0,2.376125,-1.341871,-0.1557
 15\S,0,-2.376123,-1.341874,-0.155714\O,0,-0.000002,2.271956,-1.220927\
 O,0,-0.000002,2.134769,1.026292\C,0,0.,0.08061,-0.199333\C,0,0.,1.6131
 45,-0.22128\C,0,1.23477,-0.423018,0.519041\C,0,-1.234769,-0.42302,0.51
 9042\H,0,-0.000002,3.100348,0.941425\H,0,0.,-0.25554,-1.230687\H,0,1.3
 05553,-0.122487,1.562193\H,0,-1.305552,-0.12249,1.562194\\Version=ES64

 Normal termination of Gaussian 16 at Sat Apr  5 22:43:18 2025.
