 Gaussian 16, Revision C.01,

 ----------------------------------------------------------------------
 #t hf aug-cc-pvdz symm=none int=(grid=ultrafine) guess=(read,tcheck) s
 table=(opt,rrhf)
 ----------------------------------------------------------------------
 -----
 title
 -----
 Symbolic Z-matrix:
 Charge =  0 Multiplicity = 1

 SCF Done:  E(RHF) =  -926.980678031     A.U. after   15 cycles
 Normal termination of Gaussian 16 at Sat Apr  5 22:42:26 2025.
 Gaussian 16:  ES64L-G16RevC.01  3-Jul-2019

 ----------------------------------------------------------------------
 #t hf aug-cc-pvdz iop(5/13=1,5/36=2,99/5=2) pseudo=read geom=check gue
 ss=(read,tcheck) scf=(maxcycle=1)
 ----------------------------------------------------------------------
 -----
 title
 -----
 Structure from the checkpoint file:  "2-thioxothioacetamide.chk"
 Charge =  0 Multiplicity = 1

                         Standard orientation:
 ---------------------------------------------------------------------
 Center     Atomic      Atomic             Coordinates (Angstroms)
 Number     Number       Type             X           Y           Z
 ---------------------------------------------------------------------
      1         16           0       -1.212773   -1.207584    0.003315
      2         16           0        2.042508   -0.178536   -0.008928
      3          7           0       -1.534033    1.415066   -0.011441
      4          6           0       -0.689942    0.359550    0.002786
      5          6           0        0.740967    0.774182    0.022682
      6          1           0       -1.200704    2.364588   -0.016085
      7          1           0       -2.525891    1.249315   -0.027968
      8          1           0        0.882911    1.856177    0.061139
 ---------------------------------------------------------------------

 SCF Done:  E(RHF) =  -927.227404460     A.U. after    2 cycles

 The electronic state is 1-A.
 Alpha  occ. eigenvalues --  -93.97035 -93.91460 -15.57081 -11.37674 -11.34692
 Alpha  occ. eigenvalues --   -8.25176  -8.19715  -6.22942  -6.22835  -6.22516
 Alpha  occ. eigenvalues --   -6.17563  -6.17290  -6.17133  -1.29145  -1.12463
 Alpha  occ. eigenvalues --   -1.03450  -0.92141  -0.81718  -0.76334  -0.70563
 Alpha  occ. eigenvalues --   -0.59544  -0.56807  -0.54117  -0.44890  -0.37754
 Alpha  occ. eigenvalues --   -0.36074  -0.34950
 Alpha virt. eigenvalues --   -0.01942   0.01880   0.04294   0.05993   0.07715
 Alpha virt. eigenvalues --    0.08750   0.10359   0.10970   0.11983   0.13301
 Alpha virt. eigenvalues --    0.14243   0.14346   0.15317   0.15918   0.17018

 Mulliken charges:
               1
     1  S    0.245589
     2  S    0.472606
     3  N    0.686073
     4  C   -0.922177
     5  C   -0.389110
     6  H   -0.005744
     7  H    0.058438
     8  H   -0.145673
 Sum of Mulliken charges =  -0.00000

 Dipole moment (field-independent basis, Debye):
    X=             -0.9148    Y=              4.6983    Z=             -0.0011  Tot=              4.7865

 Test job not archived.
 1\1\GINC-SE115\SP\RHF\Aug-CC-pVDZ\C2H3N1S2\OHZDE\05-Apr-2025\0\\#t hf
 aug-cc-pvdz iop(5/13=1,5/36=2,99/5=2) pseudo=read geom=check guess=(re
 ad,tcheck) scf=(maxcycle=1)\\title\\0,1\S,0,-1.212773,-1.207584,0.0033
 15\S,0,2.042508,-0.178536,-0.008928\N,0,-1.534033,1.415066,-0.011441\C
 ,0,-0.689942,0.35955,0.002786\C,0,0.740967,0.774182,0.022682\H,0,-1.20
 0704,2.364588,-0.016085\H,0,-2.525891,1.249315,-0.027968\H,0,0.882911,
 1.856177,0.061139\\Version=ES64L-G16RevC.01\State=1-A\HF=-927.2274045\
 RMSD=1.825e-02\Dipole=-0.3599068,1.8484518,-0.0004404\Quadrupole=-0.93

 Normal termination of Gaussian 16 at Sat Apr  5 22:43:15 2025.
