 Gaussian 16, Revision C.01,

 ----------------------------------------------------------------------
 #t hf aug-cc-pvdz symm=none int=(grid=ultrafine) guess=(read,tcheck) s
 table=(opt,rrhf)
 ----------------------------------------------------------------------
 -----
 title
 -----
 Symbolic Z-matrix:
 Charge =  0 Multiplicity = 1

 SCF Done:  E(RHF) =  -1056.60166442     A.U. after   16 cycles
 Normal termination of Gaussian 16 at Sat Apr  5 22:42:40 2025.
 Gaussian 16:  ES64L-G16RevC.01  3-Jul-2019

 ----------------------------------------------------------------------
 #t hf aug-cc-pvdz iop(5/13=1,5/36=2,99/5=2) pseudo=read geom=check gue
 ss=(read,tcheck) scf=(maxcycle=1)
 ----------------------------------------------------------------------
 -----
 title
 -----
 Structure from the checkpoint file:  "2-thioxo-2-3-dihydro-1-3-thiazole-5-carbonitrile.chk"
 Charge =  0 Multiplicity = 1

                         Standard orientation:
 ---------------------------------------------------------------------
 Center     Atomic      Atomic             Coordinates (Angstroms)
 Number     Number       Type             X           Y           Z
 ---------------------------------------------------------------------
      1         16           0       -0.132326   -1.067056   -0.000002
      2         16           0        2.794229   -0.264794   -0.000005
      3          7           0        0.642381    1.397235    0.000001
      4          7           0       -3.851613   -0.306271    0.000006
      5          6           0       -1.339600    0.198368    0.000002
      6          6           0        1.094765    0.176601   -0.000002
      7          6           0       -0.717729    1.417421    0.000003
      8          6           0       -2.720759   -0.076305    0.000004
      9          1           0        3.213634    1.014221   -0.000004
     10          1           0       -1.239521    2.362120    0.000006
 ---------------------------------------------------------------------

 SCF Done:  E(RHF) =  -1056.97189830     A.U. after    2 cycles

 The electronic state is 1-A.
 Alpha  occ. eigenvalues --  -94.02943 -94.00949 -15.54392 -15.53076 -11.38818
 Alpha  occ. eigenvalues --  -11.32820 -11.32478 -11.30203  -8.31092  -8.29100
 Alpha  occ. eigenvalues --   -6.28841  -6.28752  -6.28517  -6.26947  -6.26788
 Alpha  occ. eigenvalues --   -6.26551  -1.33648  -1.24958  -1.13910  -1.12262
 Alpha  occ. eigenvalues --   -1.02792  -0.91541  -0.81496  -0.76931  -0.69210
 Alpha  occ. eigenvalues --   -0.63927  -0.63269  -0.61084  -0.57814  -0.55395
 Alpha  occ. eigenvalues --   -0.55072  -0.51204  -0.49356  -0.45917  -0.44521
 Alpha  occ. eigenvalues --   -0.36096
 Alpha virt. eigenvalues --    0.03200   0.03342   0.04300   0.05996   0.06257
 Alpha virt. eigenvalues --    0.07051   0.08610   0.08763   0.09589   0.09831
 Alpha virt. eigenvalues --    0.11700   0.11890   0.12275   0.13376   0.13793

 Mulliken charges:
               1
     1  S    0.476071
     2  S    0.314308
     3  N    0.634775
     4  N    0.972113
     5  C    1.058601
     6  C   -1.307676
     7  C   -0.058336
     8  C   -2.400014
     9  H    0.407899
    10  H   -0.097740
 Sum of Mulliken charges =  -0.00000

 Dipole moment (field-independent basis, Debye):
    X=              4.7090    Y=              0.6427    Z=             -0.0000  Tot=              4.7526

 Test job not archived.
 1\1\GINC-SE085\SP\RHF\Aug-CC-pVDZ\C4H2N2S2\OHZDE\05-Apr-2025\0\\#t hf
 aug-cc-pvdz iop(5/13=1,5/36=2,99/5=2) pseudo=read geom=check guess=(re
 ad,tcheck) scf=(maxcycle=1)\\title\\0,1\S,0,-0.132326,-1.067056,-0.000
 002\S,0,2.794229,-0.264794,-0.000005\N,0,0.642381,1.397235,0.000001\N,
 0,-3.851613,-0.306271,0.000006\C,0,-1.3396,0.198368,0.000002\C,0,1.094
 765,0.176601,-0.000002\C,0,-0.717729,1.417421,0.000003\C,0,-2.720759,-
 0.076305,0.000004\H,0,3.213634,1.014221,-0.000004\H,0,-1.239521,2.3621
 2,0.000006\\Version=ES64L-G16RevC.01\State=1-A\HF=-1056.9718983\RMSD=2

 Normal termination of Gaussian 16 at Sat Apr  5 22:43:17 2025.
