 Gaussian 16, Revision C.01,

 ----------------------------------------------------------------------
 #t hf aug-cc-pvdz symm=none int=(grid=ultrafine) guess=(read,tcheck) s
 table=(opt,rrhf)
 ----------------------------------------------------------------------
 -----
 title
 -----
 Symbolic Z-matrix:
 Charge =  0 Multiplicity = 1

 SCF Done:  E(RHF) =  -224.826397606     A.U. after   12 cycles
 Normal termination of Gaussian 16 at Sat Apr  5 22:43:19 2025.
 Gaussian 16:  ES64L-G16RevC.01  3-Jul-2019

 ----------------------------------------------------------------------
 #t hf aug-cc-pvdz iop(5/13=1,5/36=2,99/5=2) pseudo=read geom=check gue
 ss=(read,tcheck) scf=(maxcycle=1)
 ----------------------------------------------------------------------
 -----
 title
 -----
 Structure from the checkpoint file:  "2H-imidazole.chk"
 Charge =  0 Multiplicity = 1

                         Standard orientation:
 ---------------------------------------------------------------------
 Center     Atomic      Atomic             Coordinates (Angstroms)
 Number     Number       Type             X           Y           Z
 ---------------------------------------------------------------------
      1          6           0        0.000000    0.000000    1.130632
      2          7           0        0.000000    1.186666    0.292106
      3          7           0       -0.000000   -1.186666    0.292106
      4          6           0        0.000000    0.737561   -0.907000
      5          6           0       -0.000000   -0.737561   -0.907000
      6          1           0       -0.879628    0.000000    1.780422
      7          1           0        0.879628   -0.000000    1.780422
      8          1           0        0.000000    1.384794   -1.775054
      9          1           0       -0.000000   -1.384794   -1.775054
 ---------------------------------------------------------------------

 SCF Done:  E(RHF) =  -225.055750736     A.U. after    2 cycles

 The electronic state is 1-A1.
 Alpha  occ. eigenvalues --  -15.52067 -15.52043 -11.29619 -11.29577 -11.29384
 Alpha  occ. eigenvalues --   -1.32572  -1.18270  -1.00949  -0.84022  -0.81505
 Alpha  occ. eigenvalues --   -0.73809  -0.66474  -0.63830  -0.59311  -0.50000
 Alpha  occ. eigenvalues --   -0.49113  -0.48323  -0.44850
 Alpha virt. eigenvalues --    0.03166   0.04632   0.04682   0.05140   0.06025
 Alpha virt. eigenvalues --    0.08687   0.09722   0.11141   0.11860   0.11910
 Alpha virt. eigenvalues --    0.13455   0.14915   0.15845   0.16895   0.17847

 Mulliken charges:
               1
     1  C   -0.420095
     2  N    0.613505
     3  N    0.613505
     4  C   -0.423145
     5  C   -0.423145
     6  H    0.071900
     7  H    0.071900
     8  H   -0.052213
     9  H   -0.052213
 Sum of Mulliken charges =  -0.00000

 Dipole moment (field-independent basis, Debye):
    X=              0.0000    Y=              0.0000    Z=             -2.0892  Tot=              2.0892

 Test job not archived.
 1\1\GINC-SE115\SP\RHF\Aug-CC-pVDZ\C3H4N2\OHZDE\05-Apr-2025\0\\#t hf au
 g-cc-pvdz iop(5/13=1,5/36=2,99/5=2) pseudo=read geom=check guess=(read
 ,tcheck) scf=(maxcycle=1)\\title\\0,1\C,0,0.,0.,1.130632\N,0,0.,1.1866
 66,0.292106\N,0,0.,-1.186666,0.292106\C,0,0.,0.737561,-0.907\C,0,0.,-0
 .737561,-0.907\H,0,-0.879628,0.,1.780422\H,0,0.879628,0.,1.780422\H,0,
 0.,1.384794,-1.775054\H,0,0.,-1.384794,-1.775054\\Version=ES64L-G16Rev
 C.01\State=1-A1\HF=-225.0557507\RMSD=2.767e-02\Dipole=0.,0.,-0.8219396
 \Quadrupole=-0.1992252,-5.2206021,5.4198272,0.,0.,0.\PG=C02V [C2(C1),S

 Normal termination of Gaussian 16 at Sat Apr  5 22:43:22 2025.
