 Gaussian 16, Revision C.01,

 ----------------------------------------------------------------------
 #t hf aug-cc-pvdz symm=none int=(grid=ultrafine) guess=(read,tcheck) s
 table=(opt,rrhf)
 ----------------------------------------------------------------------
 -----
 title
 -----
 Symbolic Z-matrix:
 Charge =  0 Multiplicity = 1

 SCF Done:  E(RHF) =  -337.578613971     A.U. after   16 cycles
 Normal termination of Gaussian 16 at Sat Apr  5 22:42:34 2025.
 Gaussian 16:  ES64L-G16RevC.01  3-Jul-2019

 ----------------------------------------------------------------------
 #t hf aug-cc-pvdz iop(5/13=1,5/36=2,99/5=2) pseudo=read geom=check gue
 ss=(read,tcheck) scf=(maxcycle=1)
 ----------------------------------------------------------------------
 -----
 title
 -----
 Structure from the checkpoint file:  "2H-pyridazin-3-one.chk"
 Charge =  0 Multiplicity = 1

                         Standard orientation:
 ---------------------------------------------------------------------
 Center     Atomic      Atomic             Coordinates (Angstroms)
 Number     Number       Type             X           Y           Z
 ---------------------------------------------------------------------
      1          6           0        1.231266   -1.050200   -0.000000
      2          6           0        1.247252    0.302719   -0.000000
      3          6           0       -0.014010   -1.744866    0.000000
      4          6           0       -0.000000    1.044703   -0.000000
      5          7           0       -1.158816   -1.129309    0.000000
      6          7           0       -1.120005    0.204852    0.000000
      7          8           0       -0.133213    2.257718   -0.000000
      8          1           0        2.151945   -1.618873   -0.000000
      9          1           0        2.161023    0.878599   -0.000000
     10          1           0       -0.060616   -2.824365    0.000000
     11          1           0       -2.021955    0.659959    0.000000
 ---------------------------------------------------------------------

 SCF Done:  E(RHF) =  -337.916285064     A.U. after    2 cycles

 The electronic state is 1-A'.
 Alpha  occ. eigenvalues --  -20.51388 -15.59233 -15.58461 -11.37382 -11.29951
 Alpha  occ. eigenvalues --  -11.29441 -11.27906  -1.46522  -1.37443  -1.16370
 Alpha  occ. eigenvalues --   -1.12155  -0.94177  -0.93112  -0.81050  -0.75774
 Alpha  occ. eigenvalues --   -0.69988  -0.67015  -0.65801  -0.63180  -0.59992
 Alpha  occ. eigenvalues --   -0.53420  -0.53036  -0.46342  -0.43373  -0.36814
 Alpha virt. eigenvalues --    0.02666   0.03372   0.03772   0.04641   0.05614
 Alpha virt. eigenvalues --    0.09319   0.10167   0.10640   0.10683   0.12009
 Alpha virt. eigenvalues --    0.12301   0.13476   0.13943   0.14351   0.14812

 Mulliken charges:
               1
     1  C    0.746021
     2  C    0.561672
     3  C   -0.696499
     4  C    0.575365
     5  N    0.173831
     6  N    0.297817
     7  O   -1.317218
     8  H   -0.181495
     9  H   -0.173888
    10  H   -0.117358
    11  H    0.131750
 Sum of Mulliken charges =  -0.00000

 Dipole moment (field-independent basis, Debye):
    X=              2.2338    Y=             -3.5675    Z=              0.0000  Tot=              4.2091

 Test job not archived.
 1\1\GINC-SE190\SP\RHF\Aug-CC-pVDZ\C4H4N2O1\OHZDE\05-Apr-2025\0\\#t hf
 aug-cc-pvdz iop(5/13=1,5/36=2,99/5=2) pseudo=read geom=check guess=(re
 ad,tcheck) scf=(maxcycle=1)\\title\\0,1\C,0,1.231266,-1.0502,0.\C,0,1.
 247252,0.302719,0.\C,0,-0.01401,-1.744866,0.\C,0,0.,1.044703,0.\N,0,-1
 .158816,-1.129309,0.\N,0,-1.120005,0.204852,0.\O,0,-0.133213,2.257718,
 0.\H,0,2.151945,-1.618873,0.\H,0,2.161023,0.878599,0.\H,0,-0.060616,-2
 .824365,0.\H,0,-2.021955,0.659959,0.\\Version=ES64L-G16RevC.01\State=1
 -A'\HF=-337.9162851\RMSD=5.208e-02\Dipole=0.8788388,-1.4035616,0.\Quad

 Normal termination of Gaussian 16 at Sat Apr  5 22:43:17 2025.
