 Gaussian 16, Revision C.01,

 ----------------------------------------------------------------------
 #t hf aug-cc-pvdz symm=none int=(grid=ultrafine) guess=(read,tcheck) s
 table=(opt,rrhf)
 ----------------------------------------------------------------------
 -----
 title
 -----
 Symbolic Z-matrix:
 Charge =  0 Multiplicity = 1

 SCF Done:  E(RHF) =  -663.081177978     A.U. after   13 cycles
 Normal termination of Gaussian 16 at Sat Apr  5 22:42:29 2025.
 Gaussian 16:  ES64L-G16RevC.01  3-Jul-2019

 ----------------------------------------------------------------------
 #t hf aug-cc-pvdz iop(5/13=1,5/36=2,99/5=2) pseudo=read geom=check gue
 ss=(read,tcheck) scf=(maxcycle=1)
 ----------------------------------------------------------------------
 -----
 title
 -----
 Structure from the checkpoint file:  "2H-thiete-1-1-dioxide.chk"
 Charge =  0 Multiplicity = 1

                         Standard orientation:
 ---------------------------------------------------------------------
 Center     Atomic      Atomic             Coordinates (Angstroms)
 Number     Number       Type             X           Y           Z
 ---------------------------------------------------------------------
      1          8           0        1.238707   -1.255661    0.004628
      2         16           0        0.503569   -0.000001    0.014979
      3          8           0        1.238698    1.255665    0.004692
      4          6           0       -0.961544    0.000030   -1.129930
      5          6           0       -1.794509   -0.000009    0.132105
      6          6           0       -0.911283   -0.000031    1.127195
      7          1           0       -1.013806   -0.899488   -1.740062
      8          1           0       -1.013804    0.899596   -1.739990
      9          1           0       -2.873692   -0.000011    0.186098
     10          1           0       -0.971028   -0.000045    2.203515
 ---------------------------------------------------------------------

 SCF Done:  E(RHF) =  -663.412930051     A.U. after    2 cycles

 The electronic state is 1-A.
 Alpha  occ. eigenvalues --  -94.19719 -20.54164 -20.54163 -11.31245 -11.30818
 Alpha  occ. eigenvalues --  -11.30349  -8.44927  -6.43016  -6.42841  -6.42719
 Alpha  occ. eigenvalues --   -1.55167  -1.43286  -1.20480  -0.98130  -0.91978
 Alpha  occ. eigenvalues --   -0.77651  -0.73676  -0.68809  -0.67735  -0.63521
 Alpha  occ. eigenvalues --   -0.62112  -0.59436  -0.50058  -0.48064  -0.47118
 Alpha  occ. eigenvalues --   -0.43849  -0.42482
 Alpha virt. eigenvalues --    0.02269   0.03594   0.04426   0.04637   0.07689
 Alpha virt. eigenvalues --    0.09445   0.10107   0.10731   0.11626   0.12617
 Alpha virt. eigenvalues --    0.13602   0.13787   0.14813   0.15290   0.16542

 Mulliken charges:
               1
     1  O   -1.575796
     2  S    3.690023
     3  O   -1.575796
     4  C   -0.843176
     5  C    0.752251
     6  C   -0.590600
     7  H    0.138218
     8  H    0.138232
     9  H   -0.036996
    10  H   -0.096360
 Sum of Mulliken charges =  -0.00000

 Dipole moment (field-independent basis, Debye):
    X=             -5.7000    Y=              0.0000    Z=             -0.2108  Tot=              5.7039

 Test job not archived.
 1\1\GINC-SE194\SP\RHF\Aug-CC-pVDZ\C3H4O2S1\OHZDE\05-Apr-2025\0\\#t hf
 aug-cc-pvdz iop(5/13=1,5/36=2,99/5=2) pseudo=read geom=check guess=(re
 ad,tcheck) scf=(maxcycle=1)\\title\\0,1\O,0,1.238707,-1.255661,0.00462
 8\S,0,0.503569,-0.000001,0.014979\O,0,1.238698,1.255665,0.004692\C,0,-
 0.961544,0.00003,-1.12993\C,0,-1.794509,-0.000009,0.132105\C,0,-0.9112
 83,-0.000031,1.127195\H,0,-1.013806,-0.899488,-1.740062\H,0,-1.013804,
 0.899596,-1.73999\H,0,-2.873692,-0.000011,0.186098\H,0,-0.971028,-0.00
 0045,2.203515\\Version=ES64L-G16RevC.01\State=1-A\HF=-663.4129301\RMSD

 Normal termination of Gaussian 16 at Sat Apr  5 22:43:16 2025.
