 Gaussian 16, Revision C.01,

 ----------------------------------------------------------------------
 #t hf aug-cc-pvdz symm=none int=(grid=ultrafine) guess=(read,tcheck) s
 table=(opt,rrhf)
 ----------------------------------------------------------------------
 -----
 title
 -----
 Symbolic Z-matrix:
 Charge =  0 Multiplicity = 1

 SCF Done:  E(RHF) =  -489.773927759     A.U. after   12 cycles
 Normal termination of Gaussian 16 at Sat Apr  5 22:43:48 2025.
 Gaussian 16:  ES64L-G16RevC.01  3-Jul-2019

 ----------------------------------------------------------------------
 #t hf aug-cc-pvdz iop(5/13=1,5/36=2,99/5=2) pseudo=read geom=check gue
 ss=(read,tcheck) scf=(maxcycle=1)
 ----------------------------------------------------------------------
 -----
 title
 -----
 Structure from the checkpoint file:  "2S-1-1-1-trifluoro-2-propanol.chk"
 Charge =  0 Multiplicity = 1

                         Standard orientation:
 ---------------------------------------------------------------------
 Center     Atomic      Atomic             Coordinates (Angstroms)
 Number     Number       Type             X           Y           Z
 ---------------------------------------------------------------------
      1          6           0        1.691694   -1.059638    0.022200
      2          6           0        0.834706    0.103985   -0.438962
      3          6           0       -0.626301   -0.051282   -0.007120
      4          8           0        1.377143    1.294553    0.099907
      5          9           0       -1.202071   -1.107944   -0.616961
      6          9           0       -0.772758   -0.215589    1.316667
      7          9           0       -1.341353    1.047142   -0.354298
      8          1           0        1.723765   -1.097280    1.109737
      9          1           0        2.704918   -0.923401   -0.350521
     10          1           0        1.303296   -2.003475   -0.356524
     11          1           0        0.809896    0.144005   -1.533728
     12          1           0        0.886013    2.052862   -0.233600
 ---------------------------------------------------------------------

 SCF Done:  E(RHF) =  -490.242673022     A.U. after    2 cycles

 The electronic state is 1-A.
 Alpha  occ. eigenvalues --  -26.50847 -26.50783 -26.50558 -20.57700 -11.51592
 Alpha  occ. eigenvalues --  -11.33071 -11.24731  -1.71414  -1.61425  -1.61290
 Alpha  occ. eigenvalues --   -1.48104  -1.08076  -0.96793  -0.87887  -0.81318
 Alpha  occ. eigenvalues --   -0.80923  -0.78467  -0.72872  -0.69033  -0.67998
 Alpha  occ. eigenvalues --   -0.64151  -0.64033  -0.62363  -0.62118  -0.59931
 Alpha  occ. eigenvalues --   -0.56608  -0.55536  -0.52428  -0.47618
 Alpha virt. eigenvalues --    0.03485   0.04373   0.04891   0.05809   0.07304
 Alpha virt. eigenvalues --    0.08929   0.10774   0.11575   0.12423   0.14114
 Alpha virt. eigenvalues --    0.14994   0.15954   0.16252   0.17581   0.17912

 Mulliken charges:
               1
     1  C   -0.346859
     2  C    0.305524
     3  C    2.604317
     4  O   -1.249145
     5  F   -0.773222
     6  F   -0.772134
     7  F   -0.794569
     8  H    0.210077
     9  H    0.152722
    10  H    0.198932
    11  H    0.187912
    12  H    0.276445
 Sum of Mulliken charges =  -0.00000

 Dipole moment (field-independent basis, Debye):
    X=              1.1210    Y=             -0.0014    Z=             -1.4579  Tot=              1.8391

 Test job not archived.
 1\1\GINC-SE205\SP\RHF\Aug-CC-pVDZ\C3H5F3O1\OHZDE\05-Apr-2025\0\\#t hf
 aug-cc-pvdz iop(5/13=1,5/36=2,99/5=2) pseudo=read geom=check guess=(re
 ad,tcheck) scf=(maxcycle=1)\\title\\0,1\C,0,1.691694,-1.059638,0.0222\
 C,0,0.834706,0.103985,-0.438962\C,0,-0.626301,-0.051282,-0.00712\O,0,1
 .377143,1.294553,0.099907\F,0,-1.202071,-1.107944,-0.616961\F,0,-0.772
 758,-0.215589,1.316667\F,0,-1.341353,1.047142,-0.354298\H,0,1.723765,-
 1.09728,1.109737\H,0,2.704918,-0.9234,-0.350521\H,0,1.303296,-2.003475
 ,-0.356524\H,0,0.809896,0.144005,-1.533728\H,0,0.886012,2.052862,-0.23

 Normal termination of Gaussian 16 at Sat Apr  5 22:44:43 2025.
