 Gaussian 16, Revision C.01,

 ----------------------------------------------------------------------
 #t hf aug-cc-pvdz symm=none int=(grid=ultrafine) guess=(read,tcheck) s
 table=(opt,rrhf)
 ----------------------------------------------------------------------
 -----
 title
 -----
 Symbolic Z-matrix:
 Charge =  0 Multiplicity = 1

 SCF Done:  E(RHF) =  -233.022806427     A.U. after   13 cycles
 Normal termination of Gaussian 16 at Sat Apr  5 22:43:39 2025.
 Gaussian 16:  ES64L-G16RevC.01  3-Jul-2019

 ----------------------------------------------------------------------
 #t hf aug-cc-pvdz iop(5/13=1,5/36=2,99/5=2) pseudo=read geom=check gue
 ss=(read,tcheck) scf=(maxcycle=1)
 ----------------------------------------------------------------------
 -----
 title
 -----
 Structure from the checkpoint file:  "2Z-4E-hexa-2-4-diene.chk"
 Charge =  0 Multiplicity = 1

                         Standard orientation:
 ---------------------------------------------------------------------
 Center     Atomic      Atomic             Coordinates (Angstroms)
 Number     Number       Type             X           Y           Z
 ---------------------------------------------------------------------
      1          6           0        0.295502    2.961166    0.000000
      2          1           0        1.366295    2.756811    0.000000
      3          1           0        0.066568    3.574997    0.875789
      4          1           0        0.066568    3.574997   -0.875789
      5          6           0        1.035454   -2.497577    0.000000
      6          1           0        1.764853   -1.690390    0.000000
      7          1           0        1.228827   -3.123576   -0.875540
      8          1           0        1.228827   -3.123576    0.875540
      9          6           0       -0.380018   -2.011080    0.000000
     10          1           0       -1.135032   -2.790309    0.000000
     11          6           0       -0.810657   -0.742182    0.000000
     12          1           0       -1.883957   -0.578533    0.000000
     13          6           0       -0.000000    0.461923    0.000000
     14          1           0        1.078980    0.347754    0.000000
     15          6           0       -0.506126    1.700221    0.000000
     16          1           0       -1.586860    1.816991    0.000000
 ---------------------------------------------------------------------

 SCF Done:  E(RHF) =  -233.277819180     A.U. after    2 cycles

 The electronic state is 1-A'.
 Alpha  occ. eigenvalues --  -11.23861 -11.23592 -11.23172 -11.23137 -11.23089
 Alpha  occ. eigenvalues --  -11.23031  -1.10178  -1.04827  -0.96767  -0.90777
 Alpha  occ. eigenvalues --   -0.78518  -0.73678  -0.65828  -0.62932  -0.58043
 Alpha  occ. eigenvalues --   -0.57428  -0.57072  -0.54878  -0.52779  -0.51680
 Alpha  occ. eigenvalues --   -0.48102  -0.43131  -0.30922
 Alpha virt. eigenvalues --    0.03581   0.03687   0.03876   0.05169   0.05623
 Alpha virt. eigenvalues --    0.05701   0.06181   0.07950   0.08511   0.08935
 Alpha virt. eigenvalues --    0.10133   0.12951   0.13324   0.13494   0.13840

 Mulliken charges:
               1
     1  C   -0.831054
     2  H    0.088696
     3  H    0.242643
     4  H    0.242643
     5  C   -0.642042
     6  H    0.087220
     7  H    0.254517
     8  H    0.254517
     9  C   -0.284490
    10  H   -0.223067
    11  C    0.603465
    12  H   -0.286430
    13  C    1.082348
    14  H   -0.256399
    15  C   -0.144868
    16  H   -0.187700
 Sum of Mulliken charges =  -0.00000

 Dipole moment (field-independent basis, Debye):
    X=              0.2576    Y=              0.1821    Z=              0.0000  Tot=              0.3154

 Test job not archived.
 1\1\GINC-SE175\SP\RHF\Aug-CC-pVDZ\C6H10\OHZDE\05-Apr-2025\0\\#t hf aug
 -cc-pvdz iop(5/13=1,5/36=2,99/5=2) pseudo=read geom=check guess=(read,
 tcheck) scf=(maxcycle=1)\\title\\0,1\C,0,0.295502,2.961166,0.\H,0,1.36
 6295,2.756811,0.\H,0,0.066568,3.574997,0.875789\H,0,0.066568,3.574997,
 -0.875789\C,0,1.035454,-2.497577,0.\H,0,1.764853,-1.69039,0.\H,0,1.228
 827,-3.123576,-0.87554\H,0,1.228827,-3.123576,0.87554\C,0,-0.380018,-2
 .01108,0.\H,0,-1.135032,-2.790309,0.\C,0,-0.810657,-0.742182,0.\H,0,-1
 .883957,-0.578533,0.\C,0,0.,0.461923,0.\H,0,1.07898,0.347754,0.\C,0,-0

 Normal termination of Gaussian 16 at Sat Apr  5 22:43:51 2025.
