 Gaussian 16, Revision C.01,

 ----------------------------------------------------------------------
 #t hf aug-cc-pvdz symm=none int=(grid=ultrafine) guess=(read,tcheck) s
 table=(opt,rrhf)
 ----------------------------------------------------------------------
 -----
 title
 -----
 Symbolic Z-matrix:
 Charge =  0 Multiplicity = 1

 SCF Done:  E(RHF) =  -233.019921754     A.U. after   12 cycles
 Normal termination of Gaussian 16 at Sat Apr  5 22:42:49 2025.
 Gaussian 16:  ES64L-G16RevC.01  3-Jul-2019

 ----------------------------------------------------------------------
 #t hf aug-cc-pvdz iop(5/13=1,5/36=2,99/5=2) pseudo=read geom=check gue
 ss=(read,tcheck) scf=(maxcycle=1)
 ----------------------------------------------------------------------
 -----
 title
 -----
 Structure from the checkpoint file:  "2Z-4Z-2-4-hexadiene.chk"
 Charge =  0 Multiplicity = 1

                         Standard orientation:
 ---------------------------------------------------------------------
 Center     Atomic      Atomic             Coordinates (Angstroms)
 Number     Number       Type             X           Y           Z
 ---------------------------------------------------------------------
      1          1           0        0.310543    2.728828    0.000000
      2          6           0       -0.313196    1.840812    0.000000
      3          1           0        1.396218    0.676680    0.000000
      4          6           0        0.313196    0.654900    0.000000
      5          1           0       -1.396218   -0.676680    0.000000
      6          6           0       -0.313196   -0.654900    0.000000
      7          1           0       -0.310543   -2.728828    0.000000
      8          6           0        0.313196   -1.840812    0.000000
      9          1           0        2.383856   -1.194467    0.000000
     10          1           0        2.072264   -2.692860    0.875470
     11          1           0        2.072264   -2.692860   -0.875470
     12          6           0        1.786306   -2.103254    0.000000
     13          1           0       -2.383856    1.194467    0.000000
     14          1           0       -2.072264    2.692860    0.875470
     15          1           0       -2.072264    2.692860   -0.875470
     16          6           0       -1.786306    2.103254    0.000000
 ---------------------------------------------------------------------

 SCF Done:  E(RHF) =  -233.275055426     A.U. after    2 cycles

 The electronic state is 1-AG.
 Alpha  occ. eigenvalues --  -11.23866 -11.23859 -11.23123 -11.23110 -11.23096
 Alpha  occ. eigenvalues --  -11.23070  -1.10150  -1.04676  -0.96364  -0.91596
 Alpha  occ. eigenvalues --   -0.79505  -0.71145  -0.67740  -0.61688  -0.59712
 Alpha  occ. eigenvalues --   -0.57469  -0.57095  -0.53514  -0.53017  -0.52847
 Alpha  occ. eigenvalues --   -0.47331  -0.43000  -0.30972
 Alpha virt. eigenvalues --    0.03655   0.03837   0.03858   0.05162   0.05460
 Alpha virt. eigenvalues --    0.05935   0.06130   0.08117   0.08617   0.09072
 Alpha virt. eigenvalues --    0.10343   0.12916   0.13610   0.13846   0.14174

 Mulliken charges:
               1
     1  H   -0.223328
     2  C   -0.343753
     3  H   -0.318048
     4  C    0.938516
     5  H   -0.318048
     6  C    0.938516
     7  H   -0.223328
     8  C   -0.343753
     9  H    0.095037
    10  H    0.257111
    11  H    0.257111
    12  C   -0.662647
    13  H    0.095037
    14  H    0.257111
    15  H    0.257111
    16  C   -0.662647
 Sum of Mulliken charges =  -0.00000

 Dipole moment (field-independent basis, Debye):
    X=             -0.0000    Y=              0.0000    Z=             -0.0000  Tot=              0.0000

 Test job not archived.
 1\1\GINC-SE179\SP\RHF\Aug-CC-pVDZ\C6H10\OHZDE\05-Apr-2025\0\\#t hf aug
 -cc-pvdz iop(5/13=1,5/36=2,99/5=2) pseudo=read geom=check guess=(read,
 tcheck) scf=(maxcycle=1)\\title\\0,1\H,0,0.310543,2.728828,0.\C,0,-0.3
 13196,1.840812,0.\H,0,1.396218,0.67668,0.\C,0,0.313196,0.6549,0.\H,0,-
 1.396218,-0.67668,0.\C,0,-0.313196,-0.6549,0.\H,0,-0.310543,-2.728828,
 0.\C,0,0.313196,-1.840812,0.\H,0,2.383856,-1.194467,0.\H,0,2.072264,-2
 .69286,0.87547\H,0,2.072264,-2.69286,-0.87547\C,0,1.786306,-2.103254,0
 .\H,0,-2.383856,1.194467,0.\H,0,-2.072264,2.69286,0.87547\H,0,-2.07226

 Normal termination of Gaussian 16 at Sat Apr  5 22:43:17 2025.
