 Gaussian 16, Revision C.01,

 ----------------------------------------------------------------------
 #t hf aug-cc-pvdz symm=none int=(grid=ultrafine) guess=(read,tcheck) s
 table=(opt,rrhf)
 ----------------------------------------------------------------------
 -----
 title
 -----
 Symbolic Z-matrix:
 Charge =  0 Multiplicity = 1

 SCF Done:  E(RHF) =  -599.979840689     A.U. after   16 cycles
 Normal termination of Gaussian 16 at Sat Apr  5 22:44:41 2025.
 Gaussian 16:  ES64L-G16RevC.01  3-Jul-2019

 ----------------------------------------------------------------------
 #t hf aug-cc-pvdz iop(5/13=1,5/36=2,99/5=2) pseudo=read geom=check gue
 ss=(read,tcheck) scf=(maxcycle=1)
 ----------------------------------------------------------------------
 -----
 title
 -----
 Structure from the checkpoint file:  "2Z-hydroxyimino-1-2-oxazol-5-yl-acetic_acid.chk"
 Charge =  0 Multiplicity = 1

                         Standard orientation:
 ---------------------------------------------------------------------
 Center     Atomic      Atomic             Coordinates (Angstroms)
 Number     Number       Type             X           Y           Z
 ---------------------------------------------------------------------
      1          8           0       -1.386694   -0.955842   -0.030927
      2          8           0        1.673838   -1.363612    1.177598
      3          8           0        1.760784   -1.318632   -1.074923
      4          8           0        2.466034    1.540093   -0.013587
      5          7           0        1.079600    1.577817   -0.028311
      6          7           0       -2.776900   -0.886607   -0.040218
      7          6           0       -0.883578    0.294634    0.005329
      8          6           0        0.564807    0.409695    0.011606
      9          6           0        1.394065   -0.855428    0.129539
     10          6           0       -1.901139    1.199961    0.020623
     11          6           0       -3.059097    0.390299   -0.009356
     12          1           0        2.283422   -2.124288   -0.935669
     13          1           0        2.715908    2.470145   -0.038919
     14          1           0       -1.826555    2.270621    0.050855
     15          1           0       -4.093711    0.694019   -0.008296
 ---------------------------------------------------------------------

 SCF Done:  E(RHF) =  -600.562636122     A.U. after    2 cycles

 The electronic state is 1-A.
 Alpha  occ. eigenvalues --  -20.64896 -20.62485 -20.62302 -20.56440 -15.61434
 Alpha  occ. eigenvalues --  -15.58071 -11.42766 -11.34902 -11.33727 -11.30126
 Alpha  occ. eigenvalues --  -11.26535  -1.59124  -1.57339  -1.54532  -1.48046
 Alpha  occ. eigenvalues --   -1.24052  -1.20217  -1.09810  -0.97911  -0.89276
 Alpha  occ. eigenvalues --   -0.85842  -0.81039  -0.78017  -0.74885  -0.73014
 Alpha  occ. eigenvalues --   -0.71991  -0.68608  -0.65886  -0.64550  -0.64052
 Alpha  occ. eigenvalues --   -0.63164  -0.60756  -0.58833  -0.54063  -0.53035
 Alpha  occ. eigenvalues --   -0.49732  -0.48686  -0.46337  -0.45112  -0.38273
 Alpha virt. eigenvalues --    0.02902   0.03303   0.03694   0.04261   0.04982
 Alpha virt. eigenvalues --    0.08225   0.09520   0.10102   0.10667   0.11450
 Alpha virt. eigenvalues --    0.11629   0.11834   0.13369   0.13619   0.14087

 Mulliken charges:
               1
     1  O   -1.732531
     2  O   -1.241373
     3  O   -1.224109
     4  O   -1.131680
     5  N    1.836955
     6  N    1.192700
     7  C    1.398937
     8  C   -1.717273
     9  C    2.398186
    10  C    0.851672
    11  C   -0.941502
    12  H    0.373563
    13  H    0.285938
    14  H   -0.199852
    15  H   -0.149632
 Sum of Mulliken charges =  -0.00000

 Dipole moment (field-independent basis, Debye):
    X=              0.7748    Y=              3.3256    Z=             -1.4190  Tot=              3.6978

 Test job not archived.
 1\1\GINC-SE180\SP\RHF\Aug-CC-pVDZ\C5H4N2O4\OHZDE\05-Apr-2025\0\\#t hf
 aug-cc-pvdz iop(5/13=1,5/36=2,99/5=2) pseudo=read geom=check guess=(re
 ad,tcheck) scf=(maxcycle=1)\\title\\0,1\O,0,-1.386694,-0.955842,-0.030
 927\O,0,1.673838,-1.363612,1.177598\O,0,1.760784,-1.318632,-1.074923\O
 ,0,2.466034,1.540093,-0.013587\N,0,1.0796,1.577817,-0.028311\N,0,-2.77
 69,-0.886607,-0.040218\C,0,-0.883578,0.294634,0.005329\C,0,0.564807,0.
 409695,0.011606\C,0,1.394065,-0.855428,0.129539\C,0,-1.901139,1.199961
 ,0.020623\C,0,-3.059097,0.390299,-0.009356\H,0,2.283422,-2.124288,-0.9

 Normal termination of Gaussian 16 at Sat Apr  5 22:45:00 2025.
