 Gaussian 16, Revision C.01,

 ----------------------------------------------------------------------
 #t hf aug-cc-pvdz symm=none int=(grid=ultrafine) guess=(read,tcheck) s
 table=(opt,rrhf)
 ----------------------------------------------------------------------
 -----
 title
 -----
 Symbolic Z-matrix:
 Charge =  0 Multiplicity = 1

 SCF Done:  E(RHF) =  -309.101409897     A.U. after   14 cycles

 1\1\GINC-SE225\Stability\RHF\Aug-CC-pVDZ\C6H12O1\OHZDE\05-Apr-2025\0\\
 #t hf aug-cc-pvdz symm=none int=(grid=ultrafine) guess=(read,tcheck) s
 table=(opt,rrhf)\\title\\0,1\C,0,0.906853,0.321148,-0.017128\C,0,1.943
 934,-0.786999,-0.005884\C,0,-0.933612,-0.544883,1.418768\C,0,-0.861053
 ,-1.193432,-1.015538\C,0,-1.437212,1.161991,-0.352359\C,0,-0.585568,-0
 .063766,-0.006852\O,0,1.259489,1.479477,-0.029986\H,0,2.897115,-0.3776
 09,0.318312\H,0,1.660429,-1.625395,0.628697\H,0,2.062196,-1.175511,-1.
 020006\H,0,-0.366445,-1.430877,1.70481\H,0,-0.740904,0.236991,2.154158

 Normal termination of Gaussian 16 at Sat Apr  5 22:44:25 2025.
 Gaussian 16:  ES64L-G16RevC.01  3-Jul-2019

 ----------------------------------------------------------------------
 #t hf aug-cc-pvdz iop(5/13=1,5/36=2,99/5=2) pseudo=read geom=check gue
 ss=(read,tcheck) scf=(maxcycle=1)
 ----------------------------------------------------------------------
 -----
 title
 -----
 Structure from the checkpoint file:  "3-3-dimethyl-2-butanone.chk"
 Charge =  0 Multiplicity = 1

                         Standard orientation:
 ---------------------------------------------------------------------
 Center     Atomic      Atomic             Coordinates (Angstroms)
 Number     Number       Type             X           Y           Z
 ---------------------------------------------------------------------
      1          6           0        0.906853    0.321148   -0.017128
      2          6           0        1.943934   -0.786999   -0.005884
      3          6           0       -0.933612   -0.544883    1.418768
      4          6           0       -0.861053   -1.193432   -1.015538
      5          6           0       -1.437212    1.161991   -0.352359
      6          6           0       -0.585568   -0.063766   -0.006852
      7          8           0        1.259489    1.479477   -0.029986
      8          1           0        2.897115   -0.377609    0.318312
      9          1           0        1.660428   -1.625395    0.628697
     10          1           0        2.062196   -1.175511   -1.020006
     11          1           0       -0.366445   -1.430877    1.704810
     12          1           0       -0.740904    0.236991    2.154158
     13          1           0       -1.993325   -0.800365    1.469308
     14          1           0       -0.315822   -2.105697   -0.774352
     15          1           0       -0.592539   -0.894537   -2.030268
     16          1           0       -1.924863   -1.435702   -1.013178
     17          1           0       -1.207435    1.532654   -1.351356
     18          1           0       -1.258629    1.976552    0.346678
     19          1           0       -2.495732    0.899321   -0.318958
 ---------------------------------------------------------------------

 SCF Done:  E(RHF) =  -309.432306273     A.U. after    2 cycles

 The electronic state is 1-A.
 Alpha  occ. eigenvalues --  -20.52960 -11.33210 -11.25460 -11.24098 -11.23643
 Alpha  occ. eigenvalues --  -11.23611 -11.21991  -1.46544  -1.11475  -1.00812
 Alpha  occ. eigenvalues --   -0.94858  -0.93647  -0.84277  -0.71288  -0.67162
 Alpha  occ. eigenvalues --   -0.63920  -0.62641  -0.60242  -0.59807  -0.57197
 Alpha  occ. eigenvalues --   -0.55251  -0.54992  -0.53004  -0.51811  -0.50067
 Alpha  occ. eigenvalues --   -0.48303  -0.47266  -0.39663
 Alpha virt. eigenvalues --    0.03344   0.03478   0.03776   0.04398   0.05953
 Alpha virt. eigenvalues --    0.06118   0.06266   0.06765   0.07391   0.09501
 Alpha virt. eigenvalues --    0.09519   0.09767   0.11393   0.13125   0.13797

 Mulliken charges:
               1
     1  C    1.630265
     2  C   -0.631050
     3  C    0.122379
     4  C    0.221346
     5  C    0.262974
     6  C   -2.402656
     7  O   -1.458874
     8  H    0.080383
     9  H    0.180797
    10  H    0.316160
    11  H    0.156561
    12  H    0.171768
    13  H    0.201099
    14  H    0.181384
    15  H    0.203774
    16  H    0.187571
    17  H    0.166560
    18  H    0.218879
    19  H    0.190681
 Sum of Mulliken charges =   0.00000

 Dipole moment (field-independent basis, Debye):
    X=             -1.0231    Y=             -2.8740    Z=              0.0556  Tot=              3.0512

 Test job not archived.
 1\1\GINC-SE225\SP\RHF\Aug-CC-pVDZ\C6H12O1\OHZDE\05-Apr-2025\0\\#t hf a
 ug-cc-pvdz iop(5/13=1,5/36=2,99/5=2) pseudo=read geom=check guess=(rea
 d,tcheck) scf=(maxcycle=1)\\title\\0,1\C,0,0.906853,0.321148,-0.017128
 \C,0,1.943934,-0.786999,-0.005884\C,0,-0.933612,-0.544883,1.418768\C,0
 ,-0.861053,-1.193432,-1.015538\C,0,-1.437212,1.161991,-0.352359\C,0,-0
 .585568,-0.063766,-0.006852\O,0,1.259489,1.479477,-0.029986\H,0,2.8971
 15,-0.377609,0.318312\H,0,1.660429,-1.625395,0.628697\H,0,2.062196,-1.
 175511,-1.020006\H,0,-0.366445,-1.430877,1.70481\H,0,-0.740904,0.23699

 Normal termination of Gaussian 16 at Sat Apr  5 22:45:00 2025.
