 Gaussian 16, Revision C.01,

 ----------------------------------------------------------------------
 #t hf aug-cc-pvdz symm=none int=(grid=ultrafine) guess=(read,tcheck) s
 table=(opt,rrhf)
 ----------------------------------------------------------------------
 -----
 title
 -----
 Symbolic Z-matrix:
 Charge =  0 Multiplicity = 1

 SCF Done:  E(RHF) =  -964.849635478     A.U. after   15 cycles
 Normal termination of Gaussian 16 at Sat Apr  5 22:42:29 2025.
 Gaussian 16:  ES64L-G16RevC.01  3-Jul-2019

 ----------------------------------------------------------------------
 #t hf aug-cc-pvdz iop(5/13=1,5/36=2,99/5=2) pseudo=read geom=check gue
 ss=(read,tcheck) scf=(maxcycle=1)
 ----------------------------------------------------------------------
 -----
 title
 -----
 Structure from the checkpoint file:  "3-3-disulfanylacrylonitrile.chk"
 Charge =  0 Multiplicity = 1

                         Standard orientation:
 ---------------------------------------------------------------------
 Center     Atomic      Atomic             Coordinates (Angstroms)
 Number     Number       Type             X           Y           Z
 ---------------------------------------------------------------------
      1         16           0       -2.060348   -0.589692   -0.009626
      2         16           0       -0.161916    1.601569    0.011242
      3          7           0        3.126547   -0.356597    0.009543
      4          6           0       -0.350403   -0.148815   -0.003521
      5          6           0        0.655072   -1.051986   -0.012853
      6          6           0        2.016548   -0.678636    0.001914
      7          1           0        0.437308   -2.110497   -0.041709
      8          1           0       -1.873141   -1.910659    0.164177
      9          1           0        1.178921    1.603923   -0.128368
 ---------------------------------------------------------------------

 SCF Done:  E(RHF) =  -965.132101599     A.U. after    2 cycles

 The electronic state is 1-A.
 Alpha  occ. eigenvalues --  -94.00681 -94.00110 -15.52287 -11.36849 -11.29466
 Alpha  occ. eigenvalues --  -11.29382  -8.28813  -8.28265  -6.26665  -6.26497
 Alpha  occ. eigenvalues --   -6.26261  -6.26117  -6.25949  -6.25721  -1.24515
 Alpha  occ. eigenvalues --   -1.18572  -1.05122  -1.04113  -0.84080  -0.73401
 Alpha  occ. eigenvalues --   -0.70180  -0.61701  -0.58329  -0.57054  -0.53547
 Alpha  occ. eigenvalues --   -0.52833  -0.51174  -0.50774  -0.41270  -0.36243
 Alpha virt. eigenvalues --    0.02653   0.04598   0.04890   0.04975   0.07658
 Alpha virt. eigenvalues --    0.08263   0.08714   0.10348   0.10864   0.12000
 Alpha virt. eigenvalues --    0.12385   0.13260   0.14092   0.14722   0.15672

 Mulliken charges:
               1
     1  S   -0.032275
     2  S    0.018003
     3  N    0.872331
     4  C   -0.660730
     5  C    1.606552
     6  C   -2.415814
     7  H   -0.204953
     8  H    0.374304
     9  H    0.442583
 Sum of Mulliken charges =  -0.00000

 Dipole moment (field-independent basis, Debye):
    X=             -3.9335    Y=             -1.5705    Z=             -0.0133  Tot=              4.2355

 Test job not archived.
 1\1\GINC-SE146\SP\RHF\Aug-CC-pVDZ\C3H3N1S2\OHZDE\05-Apr-2025\0\\#t hf
 aug-cc-pvdz iop(5/13=1,5/36=2,99/5=2) pseudo=read geom=check guess=(re
 ad,tcheck) scf=(maxcycle=1)\\title\\0,1\S,0,-2.060348,-0.589692,-0.009
 626\S,0,-0.161916,1.601569,0.011242\N,0,3.126547,-0.356597,0.009543\C,
 0,-0.350403,-0.148815,-0.003521\C,0,0.655072,-1.051986,-0.012853\C,0,2
 .016548,-0.678636,0.001914\H,0,0.437308,-2.110497,-0.041709\H,0,-1.873
 141,-1.910659,0.164177\H,0,1.178921,1.603923,-0.128368\\Version=ES64L-
 G16RevC.01\State=1-A\HF=-965.1321016\RMSD=2.315e-02\Dipole=-1.5475777,

 Normal termination of Gaussian 16 at Sat Apr  5 22:43:16 2025.
