 Gaussian 16, Revision C.01,

 ----------------------------------------------------------------------
 #t hf aug-cc-pvdz symm=none int=(grid=ultrafine) guess=(read,tcheck) s
 table=(opt,rrhf)
 ----------------------------------------------------------------------
 -----
 title
 -----
 Symbolic Z-matrix:
 Charge =  0 Multiplicity = 1

 SCF Done:  E(RHF) =  -270.016802251     A.U. after   12 cycles

 1\1\GINC-SE042\Stability\RHF\Aug-CC-pVDZ\C5H10O1\OHZDE\05-Apr-2025\0\\
 #t hf aug-cc-pvdz symm=none int=(grid=ultrafine) guess=(read,tcheck) s
 table=(opt,rrhf)\\title\\0,1\C,0,-1.264788,1.284808,0.\H,0,-1.28355,1.
 930106,0.88113\H,0,-1.28355,1.930106,-0.88113\H,0,-2.179327,0.690156,0
 .\C,0,1.255285,1.225783,0.\H,0,2.138334,0.585269,0.\H,0,1.305127,1.868
 005,-0.8821\H,0,1.305127,1.868005,0.8821\C,0,-0.026045,0.399811,0.\C,0
 ,-0.026045,-0.75163,1.036255\C,0,-0.026045,-0.75163,-1.036255\H,0,0.81
 7961,-0.777877,1.729654\H,0,0.817961,-0.777877,-1.729654\H,0,-0.958286

 Normal termination of Gaussian 16 at Sat Apr  5 22:42:54 2025.
 Gaussian 16:  ES64L-G16RevC.01  3-Jul-2019

 ----------------------------------------------------------------------
 #t hf aug-cc-pvdz iop(5/13=1,5/36=2,99/5=2) pseudo=read geom=check gue
 ss=(read,tcheck) scf=(maxcycle=1)
 ----------------------------------------------------------------------
 -----
 title
 -----
 Structure from the checkpoint file:  "3-3-dimethyloxetane.chk"
 Charge =  0 Multiplicity = 1

                         Standard orientation:
 ---------------------------------------------------------------------
 Center     Atomic      Atomic             Coordinates (Angstroms)
 Number     Number       Type             X           Y           Z
 ---------------------------------------------------------------------
      1          6           0       -1.264788    1.284808    0.000000
      2          1           0       -1.283550    1.930106    0.881130
      3          1           0       -1.283550    1.930106   -0.881130
      4          1           0       -2.179327    0.690156    0.000000
      5          6           0        1.255285    1.225783    0.000000
      6          1           0        2.138334    0.585269    0.000000
      7          1           0        1.305127    1.868005   -0.882100
      8          1           0        1.305127    1.868005    0.882100
      9          6           0       -0.026045    0.399811    0.000000
     10          6           0       -0.026045   -0.751630    1.036255
     11          6           0       -0.026045   -0.751630   -1.036255
     12          1           0        0.817961   -0.777877    1.729654
     13          1           0        0.817961   -0.777877   -1.729654
     14          1           0       -0.958286   -0.870369    1.595908
     15          1           0       -0.958286   -0.870369   -1.595908
     16          8           0        0.100540   -1.752252    0.000000
 ---------------------------------------------------------------------

 SCF Done:  E(RHF) =  -270.306771179     A.U. after    2 cycles

 The electronic state is 1-A'.
 Alpha  occ. eigenvalues --  -20.53211 -11.28007 -11.27919 -11.24600 -11.23080
 Alpha  occ. eigenvalues --  -11.23006  -1.45202  -1.08915  -0.94569  -0.93544
 Alpha  occ. eigenvalues --   -0.90603  -0.74106  -0.67656  -0.65275  -0.63323
 Alpha  occ. eigenvalues --   -0.58177  -0.57848  -0.55701  -0.55345  -0.53714
 Alpha  occ. eigenvalues --   -0.49631  -0.44869  -0.44165  -0.40551
 Alpha virt. eigenvalues --    0.03479   0.03817   0.04003   0.04486   0.06226
 Alpha virt. eigenvalues --    0.06236   0.06582   0.06632   0.09500   0.09690
 Alpha virt. eigenvalues --    0.10197   0.13252   0.13736   0.14002   0.15113

 Mulliken charges:
               1
     1  C   -0.245956
     2  H    0.200620
     3  H    0.200620
     4  H    0.112097
     5  C   -0.230136
     6  H    0.116267
     7  H    0.188790
     8  H    0.188790
     9  C   -1.575014
    10  C    1.065202
    11  C    1.065202
    12  H    0.076070
    13  H    0.076070
    14  H    0.042229
    15  H    0.042229
    16  O   -1.323081
 Sum of Mulliken charges =  -0.00000

 Dipole moment (field-independent basis, Debye):
    X=             -0.2233    Y=              2.1654    Z=             -0.0000  Tot=              2.1769

 Test job not archived.
 1\1\GINC-SE042\SP\RHF\Aug-CC-pVDZ\C5H10O1\OHZDE\05-Apr-2025\0\\#t hf a
 ug-cc-pvdz iop(5/13=1,5/36=2,99/5=2) pseudo=read geom=check guess=(rea
 d,tcheck) scf=(maxcycle=1)\\title\\0,1\C,0,-1.264788,1.284808,0.\H,0,-
 1.28355,1.930106,0.88113\H,0,-1.28355,1.930106,-0.88113\H,0,-2.179327,
 0.690156,0.\C,0,1.255285,1.225783,0.\H,0,2.138334,0.585269,0.\H,0,1.30
 5127,1.868005,-0.8821\H,0,1.305127,1.868005,0.8821\C,0,-0.026045,0.399
 811,0.\C,0,-0.026045,-0.75163,1.036255\C,0,-0.026045,-0.75163,-1.03625
 5\H,0,0.817961,-0.777877,1.729654\H,0,0.817961,-0.777877,-1.729654\H,0

 Normal termination of Gaussian 16 at Sat Apr  5 22:43:17 2025.
