 Gaussian 16, Revision C.01,

 ----------------------------------------------------------------------
 #t hf aug-cc-pvdz symm=none int=(grid=ultrafine) guess=(read,tcheck) s
 table=(opt,rrhf)
 ----------------------------------------------------------------------
 -----
 title
 -----
 Symbolic Z-matrix:
 Charge =  0 Multiplicity = 1

 SCF Done:  E(RHF) =  -232.995180097     A.U. after   12 cycles
 Normal termination of Gaussian 16 at Sat Apr  5 22:42:49 2025.
 Gaussian 16:  ES64L-G16RevC.01  3-Jul-2019

 ----------------------------------------------------------------------
 #t hf aug-cc-pvdz iop(5/13=1,5/36=2,99/5=2) pseudo=read geom=check gue
 ss=(read,tcheck) scf=(maxcycle=1)
 ----------------------------------------------------------------------
 -----
 title
 -----
 Structure from the checkpoint file:  "3-3-dimethylbutyne.chk"
 Charge =  0 Multiplicity = 1

                         Standard orientation:
 ---------------------------------------------------------------------
 Center     Atomic      Atomic             Coordinates (Angstroms)
 Number     Number       Type             X           Y           Z
 ---------------------------------------------------------------------
      1          6           0       -0.000000    1.171492    0.000000
      2          6           0       -0.000000   -0.297053   -0.000000
      3          6           0        1.456381   -0.805220   -0.000000
      4          6           0       -0.728190   -0.805220    1.261263
      5          6           0       -0.728190   -0.805220   -1.261263
      6          6           0       -0.000000    2.371824    0.000000
      7          1           0       -0.000000    3.433077    0.000000
      8          1           0        1.469839   -1.896499   -0.000000
      9          1           0       -0.734919   -1.896499    1.272918
     10          1           0       -0.734919   -1.896499   -1.272918
     11          1           0        1.990948   -0.454532   -0.882465
     12          1           0        1.990948   -0.454532    0.882465
     13          1           0       -0.231237   -0.454532    2.165444
     14          1           0       -1.759711   -0.454532    1.282979
     15          1           0       -1.759711   -0.454532   -1.282979
     16          1           0       -0.231237   -0.454532   -2.165444
 ---------------------------------------------------------------------

 SCF Done:  E(RHF) =  -233.250186956     A.U. after    2 cycles

 The electronic state is 1-A'.
 Alpha  occ. eigenvalues --  -11.26793 -11.23524 -11.22956 -11.22956 -11.22928
 Alpha  occ. eigenvalues --  -11.22636  -1.12239  -1.00845  -0.94122  -0.94122
 Alpha  occ. eigenvalues --   -0.82526  -0.71316  -0.65873  -0.61490  -0.61490
 Alpha  occ. eigenvalues --   -0.55704  -0.55704  -0.52736  -0.51996  -0.49217
 Alpha  occ. eigenvalues --   -0.49217  -0.39098  -0.39098
 Alpha virt. eigenvalues --    0.03518   0.03801   0.04294   0.04294   0.05600
 Alpha virt. eigenvalues --    0.06646   0.06646   0.07433   0.07433   0.09970
 Alpha virt. eigenvalues --    0.10985   0.12117   0.12117   0.13264   0.14939

 Mulliken charges:
               1
     1  C    1.064572
     2  C   -3.093474
     3  C    0.206606
     4  C    0.206606
     5  C    0.206606
     6  C    0.205438
     7  H   -0.477304
     8  H    0.187646
     9  H    0.187646
    10  H    0.187646
    11  H    0.186335
    12  H    0.186335
    13  H    0.186334
    14  H    0.186336
    15  H    0.186336
    16  H    0.186334
 Sum of Mulliken charges =  -0.00000

 Dipole moment (field-independent basis, Debye):
    X=              0.0000    Y=             -0.7071    Z=             -0.0000  Tot=              0.7071

 Test job not archived.
 1\1\GINC-SE232\SP\RHF\Aug-CC-pVDZ\C6H10\OHZDE\05-Apr-2025\0\\#t hf aug
 -cc-pvdz iop(5/13=1,5/36=2,99/5=2) pseudo=read geom=check guess=(read,
 tcheck) scf=(maxcycle=1)\\title\\0,1\C,0,0.,0.,1.171492\C,0,0.,0.,-0.2
 97053\C,0,0.,1.456381,-0.80522\C,0,1.261263,-0.72819,-0.80522\C,0,-1.2
 61263,-0.72819,-0.80522\C,0,0.,0.,2.371824\H,0,0.,0.,3.433077\H,0,0.,1
 .469839,-1.896499\H,0,1.272918,-0.734919,-1.896499\H,0,-1.272918,-0.73
 4919,-1.896499\H,0,-0.882465,1.990948,-0.454532\H,0,0.882465,1.990948,
 -0.454532\H,0,2.165444,-0.231237,-0.454532\H,0,1.282979,-1.759711,-0.4

 Normal termination of Gaussian 16 at Sat Apr  5 22:43:16 2025.
