 Gaussian 16, Revision C.01,

 ----------------------------------------------------------------------
 #t hf aug-cc-pvdz symm=none int=(grid=ultrafine) guess=(read,tcheck) s
 table=(opt,rrhf)
 ----------------------------------------------------------------------
 -----
 title
 -----
 Symbolic Z-matrix:
 Charge =  0 Multiplicity = 1

 SCF Done:  E(RHF) =  -413.707110001     A.U. after   13 cycles
 Normal termination of Gaussian 16 at Sat Apr  5 22:43:21 2025.
 Gaussian 16:  ES64L-G16RevC.01  3-Jul-2019

 ----------------------------------------------------------------------
 #t hf aug-cc-pvdz iop(5/13=1,5/36=2,99/5=2) pseudo=read geom=check gue
 ss=(read,tcheck) scf=(maxcycle=1)
 ----------------------------------------------------------------------
 -----
 title
 -----
 Structure from the checkpoint file:  "3-3-3-trifluoropropene.chk"
 Charge =  0 Multiplicity = 1

                         Standard orientation:
 ---------------------------------------------------------------------
 Center     Atomic      Atomic             Coordinates (Angstroms)
 Number     Number       Type             X           Y           Z
 ---------------------------------------------------------------------
      1          6           0        0.296563   -2.092194    0.000000
      2          1           0        1.369761   -1.964827    0.000000
      3          1           0       -0.086440   -3.102651    0.000000
      4          6           0       -0.524953   -1.056203    0.000000
      5          1           0       -1.601322   -1.166159    0.000000
      6          6           0       -0.061543    0.365426    0.000000
      7          9           0        1.278529    0.488309    0.000000
      8          9           0       -0.524953    1.029816    1.084366
      9          9           0       -0.524953    1.029816   -1.084366
 ---------------------------------------------------------------------

 SCF Done:  E(RHF) =  -414.096534150     A.U. after    2 cycles

 The electronic state is 1-A'.
 Alpha  occ. eigenvalues --  -26.50522 -26.50004 -26.50001 -11.52076 -11.27940
 Alpha  occ. eigenvalues --  -11.27792  -1.70879  -1.61021  -1.60443  -1.10975
 Alpha  occ. eigenvalues --   -0.96421  -0.86133  -0.80772  -0.80287  -0.75915
 Alpha  occ. eigenvalues --   -0.69031  -0.68156  -0.65812  -0.63038  -0.62729
 Alpha  occ. eigenvalues --   -0.61499  -0.61146  -0.54604  -0.42731
 Alpha virt. eigenvalues --    0.03237   0.04417   0.05383   0.08302   0.09049
 Alpha virt. eigenvalues --    0.10439   0.10857   0.13162   0.13602   0.15227
 Alpha virt. eigenvalues --    0.15570   0.15863   0.17081   0.18245   0.21311

 Mulliken charges:
               1
     1  C   -0.033065
     2  H   -0.030474
     3  H   -0.050893
     4  C    0.094353
     5  H   -0.145635
     6  C    2.431262
     7  F   -0.807664
     8  F   -0.728942
     9  F   -0.728942
 Sum of Mulliken charges =  -0.00000

 Dipole moment (field-independent basis, Debye):
    X=             -0.3212    Y=             -2.6225    Z=              0.0000  Tot=              2.6421

 Test job not archived.
 1\1\GINC-SE199\SP\RHF\Aug-CC-pVDZ\C3H3F3\OHZDE\05-Apr-2025\0\\#t hf au
 g-cc-pvdz iop(5/13=1,5/36=2,99/5=2) pseudo=read geom=check guess=(read
 ,tcheck) scf=(maxcycle=1)\\title\\0,1\C,0,0.296563,-2.092194,0.\H,0,1.
 369761,-1.964827,0.\H,0,-0.08644,-3.102651,0.\C,0,-0.524953,-1.056203,
 0.\H,0,-1.601322,-1.166159,0.\C,0,-0.061543,0.365426,0.\F,0,1.278529,0
 .488309,0.\F,0,-0.524953,1.029816,1.084366\F,0,-0.524953,1.029816,-1.0
 84366\\Version=ES64L-G16RevC.01\State=1-A'\HF=-414.0965342\RMSD=1.058e
 -02\Dipole=-0.1263581,-1.0317603,0.\Quadrupole=0.5846724,2.0566562,-2.

 Normal termination of Gaussian 16 at Sat Apr  5 22:43:24 2025.
