 Gaussian 16, Revision C.01,

 ----------------------------------------------------------------------
 #t hf aug-cc-pvdz symm=none int=(grid=ultrafine) guess=(read,tcheck) s
 table=(opt,rrhf)
 ----------------------------------------------------------------------
 -----
 title
 -----
 Symbolic Z-matrix:
 Charge =  0 Multiplicity = 1

 SCF Done:  E(RHF) =  -274.423899655     A.U. after   12 cycles
 Normal termination of Gaussian 16 at Sat Apr  5 22:44:33 2025.
 Gaussian 16:  ES64L-G16RevC.01  3-Jul-2019

 ----------------------------------------------------------------------
 #t hf aug-cc-pvdz iop(5/13=1,5/36=2,99/5=2) pseudo=read geom=check gue
 ss=(read,tcheck) scf=(maxcycle=1)
 ----------------------------------------------------------------------
 -----
 title
 -----
 Structure from the checkpoint file:  "3-3-dimethylpentane.chk"
 Charge =  0 Multiplicity = 1

                         Standard orientation:
 ---------------------------------------------------------------------
 Center     Atomic      Atomic             Coordinates (Angstroms)
 Number     Number       Type             X           Y           Z
 ---------------------------------------------------------------------
      1          6           0        0.000000   -0.000000    0.065284
      2          6           0       -0.000119    1.241984   -0.861684
      3          6           0        0.000119   -1.241984   -0.861684
      4          6           0       -0.000000    2.618031   -0.193199
      5          6           0       -0.000000   -2.618031   -0.193199
      6          6           0        1.255287    0.000120    0.952178
      7          6           0       -1.255287   -0.000120    0.952178
      8          1           0        0.872906    1.172573   -1.518050
      9          1           0       -0.873342    1.172588   -1.517788
     10          1           0       -0.872906   -1.172573   -1.518050
     11          1           0        0.873342   -1.172588   -1.517788
     12          1           0       -0.000193    3.402590   -0.951355
     13          1           0        0.000193   -3.402590   -0.951355
     14          1           0       -0.880980    2.772125    0.430603
     15          1           0        0.881256    2.772164    0.430201
     16          1           0        0.880980   -2.772125    0.430603
     17          1           0       -0.881256   -2.772164    0.430201
     18          1           0       -1.284762   -0.876517    1.599898
     19          1           0       -2.165042   -0.000409    0.347245
     20          1           0       -1.285140    0.876465    1.599626
     21          1           0        1.284762    0.876517    1.599898
     22          1           0        2.165042    0.000409    0.347245
     23          1           0        1.285140   -0.876465    1.599626
 ---------------------------------------------------------------------

 SCF Done:  E(RHF) =  -274.735168496     A.U. after    2 cycles

 The electronic state is 1-A.
 Alpha  occ. eigenvalues --  -11.23301 -11.22037 -11.21999 -11.21755 -11.21749
 Alpha  occ. eigenvalues --  -11.21424 -11.21398  -1.11331  -1.01445  -0.97513
 Alpha  occ. eigenvalues --   -0.92977  -0.88624  -0.82039  -0.72565  -0.63977
 Alpha  occ. eigenvalues --   -0.63521  -0.60739  -0.59708  -0.55740  -0.55508
 Alpha  occ. eigenvalues --   -0.54234  -0.53061  -0.52440  -0.49855  -0.49656
 Alpha  occ. eigenvalues --   -0.48075  -0.45400  -0.44352  -0.44107
 Alpha virt. eigenvalues --    0.03495   0.03515   0.03773   0.04101   0.05618
 Alpha virt. eigenvalues --    0.05691   0.06042   0.06203   0.06364   0.09043
 Alpha virt. eigenvalues --    0.09104   0.09130   0.09416   0.09914   0.10814

 Mulliken charges:
               1
     1  C   -2.725791
     2  C    0.454200
     3  C    0.454200
     4  C   -0.399526
     5  C   -0.399526
     6  C    0.080194
     7  C    0.080194
     8  H    0.106701
     9  H    0.106628
    10  H    0.106701
    11  H    0.106628
    12  H    0.119858
    13  H    0.119858
    14  H    0.173611
    15  H    0.173606
    16  H    0.173611
    17  H    0.173606
    18  H    0.172224
    19  H    0.203383
    20  H    0.172017
    21  H    0.172224
    22  H    0.203383
    23  H    0.172017
 Sum of Mulliken charges =  -0.00000

 Dipole moment (field-independent basis, Debye):
    X=             -0.0000    Y=              0.0000    Z=             -0.0818  Tot=              0.0818

 Test job not archived.
 1\1\GINC-SE145\SP\RHF\Aug-CC-pVDZ\C7H16\OHZDE\05-Apr-2025\0\\#t hf aug
 -cc-pvdz iop(5/13=1,5/36=2,99/5=2) pseudo=read geom=check guess=(read,
 tcheck) scf=(maxcycle=1)\\title\\0,1\C,0,0.,0.,0.065284\C,0,-0.000119,
 1.241984,-0.861684\C,0,0.000119,-1.241984,-0.861684\C,0,0.,2.618031,-0
 .193199\C,0,0.,-2.618031,-0.193199\C,0,1.255287,0.00012,0.952178\C,0,-
 1.255287,-0.00012,0.952178\H,0,0.872906,1.172573,-1.51805\H,0,-0.87334
 2,1.172588,-1.517788\H,0,-0.872906,-1.172573,-1.51805\H,0,0.873342,-1.
 172588,-1.517788\H,0,-0.000193,3.40259,-0.951355\H,0,0.000193,-3.40259

 Normal termination of Gaussian 16 at Sat Apr  5 22:44:59 2025.
