 Gaussian 16, Revision C.01,

 ----------------------------------------------------------------------
 #t hf aug-cc-pvdz symm=none int=(grid=ultrafine) guess=(read,tcheck) s
 table=(opt,rrhf)
 ----------------------------------------------------------------------
 -----
 title
 -----
 Symbolic Z-matrix:
 Charge =  0 Multiplicity = 1

 SCF Done:  E(RHF) =  -1033.70680617     A.U. after   14 cycles

 1\1\GINC-SE226\Stability\RHF\Aug-CC-pVDZ\C3H2Cl2\OHZDE\05-Apr-2025\0\\
 #t hf aug-cc-pvdz symm=none int=(grid=ultrafine) guess=(read,tcheck) s
 table=(opt,rrhf)\\title\\0,1\Cl,0,0.811282,1.486375,-0.113059\Cl,0,0.8
 11397,-1.486324,-0.112983\C,0,-0.023639,0.000009,0.490782\C,0,-1.41426
 6,-0.000051,0.121661\C,0,-2.577535,-0.000087,-0.162983\H,0,0.115063,0.
 00004,1.565162\H,0,-3.607963,-0.000119,-0.419211\\Version=ES64L-G16Rev
 C.01\HF=-1033.7068062\RMSD=4.704e-09\Dipole=-0.7037267,-0.0000089,0.37
 88441\Quadrupole=3.5291438,-3.0698692,-0.4592747,0.0002063,1.1157627,0

 Normal termination of Gaussian 16 at Sat Apr  5 22:42:25 2025.
 Gaussian 16:  ES64L-G16RevC.01  3-Jul-2019

 ----------------------------------------------------------------------
 #t hf aug-cc-pvdz iop(5/13=1,5/36=2,99/5=2) pseudo=read geom=check gue
 ss=(read,tcheck) scf=(maxcycle=1)
 ----------------------------------------------------------------------
 -----
 title
 -----
 Structure from the checkpoint file:  "3-3-dichloropropyne.chk"
 Charge =  0 Multiplicity = 1

                         Standard orientation:
 ---------------------------------------------------------------------
 Center     Atomic      Atomic             Coordinates (Angstroms)
 Number     Number       Type             X           Y           Z
 ---------------------------------------------------------------------
      1         17           0        0.811283    1.486374   -0.113059
      2         17           0        0.811396   -1.486325   -0.112983
      3          6           0       -0.023639    0.000009    0.490782
      4          6           0       -1.414266   -0.000050    0.121661
      5          6           0       -2.577535   -0.000085   -0.162983
      6          1           0        0.115063    0.000040    1.565162
      7          1           0       -3.607963   -0.000117   -0.419211
 ---------------------------------------------------------------------

 SCF Done:  E(RHF) =  -1033.97474801     A.U. after    2 cycles

 The electronic state is 1-A.
 Alpha  occ. eigenvalues -- -105.58763-105.58763 -11.41111 -11.27726 -11.27360
 Alpha  occ. eigenvalues --  -10.63541 -10.63537  -7.80486  -7.80482  -7.80068
 Alpha  occ. eigenvalues --   -7.80066  -7.80060  -7.80058  -1.18733  -1.05851
 Alpha  occ. eigenvalues --   -1.05533  -0.92750  -0.76726  -0.71954  -0.64675
 Alpha  occ. eigenvalues --   -0.61593  -0.49937  -0.49338  -0.47018  -0.46213
 Alpha  occ. eigenvalues --   -0.43241  -0.42890
 Alpha virt. eigenvalues --    0.03309   0.03965   0.07364   0.07972   0.08749
 Alpha virt. eigenvalues --    0.08909   0.09881   0.12221   0.14180   0.14309
 Alpha virt. eigenvalues --    0.14340   0.15448   0.15852   0.16168   0.17656

 Mulliken charges:
               1
     1  Cl   0.076987
     2  Cl   0.076989
     3  C   -1.323463
     4  C    0.933441
     5  C    0.185025
     6  H    0.356877
     7  H   -0.305855
 Sum of Mulliken charges =  -0.00000

 Dipole moment (field-independent basis, Debye):
    X=             -1.7947    Y=             -0.0000    Z=              0.9615  Tot=              2.0360

 Test job not archived.
 1\1\GINC-SE226\SP\RHF\Aug-CC-pVDZ\C3H2Cl2\OHZDE\05-Apr-2025\0\\#t hf a
 ug-cc-pvdz iop(5/13=1,5/36=2,99/5=2) pseudo=read geom=check guess=(rea
 d,tcheck) scf=(maxcycle=1)\\title\\0,1\Cl,0,0.811282,1.486375,-0.11305
 9\Cl,0,0.811397,-1.486324,-0.112983\C,0,-0.023639,0.000009,0.490782\C,
 0,-1.414266,-0.000051,0.121661\C,0,-2.577535,-0.000087,-0.162983\H,0,0
 .115063,0.00004,1.565162\H,0,-3.607963,-0.000119,-0.419211\\Version=ES
 64L-G16RevC.01\State=1-A\HF=-1033.974748\RMSD=1.876e-02\Dipole=-0.7061
 015,-0.000009,0.378272\Quadrupole=3.6334199,-3.1025888,-0.5308311,0.00

 Normal termination of Gaussian 16 at Sat Apr  5 22:43:15 2025.
