 Gaussian 16, Revision C.01,

 ----------------------------------------------------------------------
 #t hf aug-cc-pvdz symm=none int=(grid=ultrafine) guess=(read,tcheck) s
 table=(opt,rrhf)
 ----------------------------------------------------------------------
 -----
 title
 -----
 Symbolic Z-matrix:
 Charge =  0 Multiplicity = 1

 SCF Done:  E(RHF) =  -512.681056028     A.U. after   14 cycles
 Normal termination of Gaussian 16 at Sat Apr  5 22:44:39 2025.
 Gaussian 16:  ES64L-G16RevC.01  3-Jul-2019

 ----------------------------------------------------------------------
 #t hf aug-cc-pvdz iop(5/13=1,5/36=2,99/5=2) pseudo=read geom=check gue
 ss=(read,tcheck) scf=(maxcycle=1)
 ----------------------------------------------------------------------
 -----
 title
 -----
 Structure from the checkpoint file:  "3-3-3-trimethoxypropanenitrile.chk"
 Charge =  0 Multiplicity = 1

                         Standard orientation:
 ---------------------------------------------------------------------
 Center     Atomic      Atomic             Coordinates (Angstroms)
 Number     Number       Type             X           Y           Z
 ---------------------------------------------------------------------
      1          6           0        2.151772   -0.572496   -0.560545
      2          6           0       -2.062713   -0.100817   -1.587752
      3          6           0        0.451205    2.241234    0.698532
      4          6           0       -1.313679   -1.261876    1.680440
      5          6           0        0.859422   -0.182791   -1.105501
      6          6           0       -0.223077    0.034236   -0.014933
      7          7           0        3.188160   -0.864297   -0.158479
      8          8           0       -1.377593    0.628217   -0.574436
      9          8           0        0.199911    0.871969    1.008392
     10          8           0       -0.475157   -1.218770    0.519329
     11          1           0       -2.222341   -1.139012   -1.294351
     12          1           0       -1.527238   -0.071217   -2.540553
     13          1           0       -3.024533    0.389798   -1.715392
     14          1           0        1.291753    2.348187    0.008318
     15          1           0        0.717315    2.710667    1.641691
     16          1           0       -0.432534    2.723319    0.283632
     17          1           0       -2.243086   -0.715593    1.516465
     18          1           0       -0.797455   -0.851306    2.545921
     19          1           0       -1.529699   -2.314243    1.843635
     20          1           0        0.519543   -0.961831   -1.786348
     21          1           0        0.976294    0.735039   -1.681386
 ---------------------------------------------------------------------

 SCF Done:  E(RHF) =  -513.201136922     A.U. after    2 cycles

 The electronic state is 1-A.
 Alpha  occ. eigenvalues --  -20.57027 -20.56611 -20.56601 -15.50644 -11.42361
 Alpha  occ. eigenvalues --  -11.30118 -11.29366 -11.29245 -11.28686 -11.27705
 Alpha  occ. eigenvalues --   -1.55870  -1.45939  -1.45752  -1.22988  -1.08134
 Alpha  occ. eigenvalues --   -0.99033  -0.95552  -0.94654  -0.82133  -0.74835
 Alpha  occ. eigenvalues --   -0.73551  -0.72670  -0.68202  -0.66052  -0.64307
 Alpha  occ. eigenvalues --   -0.62375  -0.61587  -0.60364  -0.59929  -0.59437
 Alpha  occ. eigenvalues --   -0.58145  -0.54238  -0.51417  -0.50608  -0.49113
 Alpha  occ. eigenvalues --   -0.48904  -0.46008  -0.45272  -0.44351
 Alpha virt. eigenvalues --    0.02832   0.03528   0.03640   0.04223   0.05264
 Alpha virt. eigenvalues --    0.05549   0.06569   0.06716   0.07258   0.08846
 Alpha virt. eigenvalues --    0.08893   0.10620   0.11307   0.13009   0.13102

 Mulliken charges:
               1
     1  C   -1.814936
     2  C    0.254318
     3  C    0.073595
     4  C    0.159892
     5  C   -0.035606
     6  C    3.972482
     7  N    1.022391
     8  O   -1.763027
     9  O   -1.747179
    10  O   -1.658735
    11  H    0.188298
    12  H    0.133516
    13  H   -0.006359
    14  H    0.163055
    15  H   -0.013367
    16  H    0.173231
    17  H    0.181321
    18  H    0.177112
    19  H    0.009781
    20  H    0.215003
    21  H    0.315215
 Sum of Mulliken charges =  -0.00000

 Dipole moment (field-independent basis, Debye):
    X=             -5.0265    Y=              1.7889    Z=             -2.1227  Tot=              5.7421

 Test job not archived.
 1\1\GINC-SE198\SP\RHF\Aug-CC-pVDZ\C6H11N1O3\OHZDE\05-Apr-2025\0\\#t hf
  aug-cc-pvdz iop(5/13=1,5/36=2,99/5=2) pseudo=read geom=check guess=(r
 ead,tcheck) scf=(maxcycle=1)\\title\\0,1\C,0,2.151772,-0.572496,-0.560
 545\C,0,-2.062713,-0.100817,-1.587752\C,0,0.451205,2.241234,0.698532\C
 ,0,-1.313679,-1.261876,1.68044\C,0,0.859422,-0.182791,-1.105501\C,0,-0
 .223077,0.034236,-0.014933\N,0,3.18816,-0.864297,-0.158479\O,0,-1.3775
 93,0.628217,-0.574436\O,0,0.199911,0.871969,1.008392\O,0,-0.475157,-1.
 21877,0.519329\H,0,-2.222341,-1.139012,-1.294351\H,0,-1.527238,-0.0712

 Normal termination of Gaussian 16 at Sat Apr  5 22:45:04 2025.
