 Gaussian 16, Revision C.01,

 ----------------------------------------------------------------------
 #t hf aug-cc-pvdz symm=none int=(grid=ultrafine) guess=(read,tcheck) s
 table=(opt,rrhf)
 ----------------------------------------------------------------------
 -----
 title
 -----
 Symbolic Z-matrix:
 Charge =  0 Multiplicity = 1

 SCF Done:  E(RHF) =  -582.807136513     A.U. after   15 cycles
 Normal termination of Gaussian 16 at Sat Apr  5 22:43:55 2025.
 Gaussian 16:  ES64L-G16RevC.01  3-Jul-2019

 ----------------------------------------------------------------------
 #t hf aug-cc-pvdz iop(5/13=1,5/36=2,99/5=2) pseudo=read geom=check gue
 ss=(read,tcheck) scf=(maxcycle=1)
 ----------------------------------------------------------------------
 -----
 title
 -----
 Structure from the checkpoint file:  "3-3--iminobis2-propynoic_acid.chk"
 Charge =  0 Multiplicity = 1

                         Standard orientation:
 ---------------------------------------------------------------------
 Center     Atomic      Atomic             Coordinates (Angstroms)
 Number     Number       Type             X           Y           Z
 ---------------------------------------------------------------------
      1          8           0       -3.552425    1.677314   -0.000076
      2          8           0        3.552425    1.677314   -0.000133
      3          8           0       -4.601741   -0.288643    0.000051
      4          8           0        4.601741   -0.288643   -0.000016
      5          7           0        0.000000   -1.455001    0.000098
      6          6           0       -3.482204    0.481149   -0.000003
      7          6           0        3.482204    0.481149   -0.000058
      8          6           0       -2.240625   -0.251308    0.000033
      9          6           0        2.240624   -0.251308   -0.000006
     10          6           0       -1.181312   -0.822939    0.000062
     11          6           0        1.181312   -0.822939    0.000041
     12          1           0       -4.369566   -1.225617    0.000108
     13          1           0        4.369566   -1.225617    0.000046
     14          1           0        0.000000   -2.465308    0.000146
 ---------------------------------------------------------------------

 SCF Done:  E(RHF) =  -583.374915349     A.U. after    2 cycles

 The electronic state is 1-A.
 Alpha  occ. eigenvalues --  -20.62148 -20.62148 -20.55447 -20.55445 -15.63971
 Alpha  occ. eigenvalues --  -11.43456 -11.43451 -11.34880 -11.34852 -11.29188
 Alpha  occ. eigenvalues --  -11.29182  -1.56291  -1.56238  -1.47501  -1.47473
 Alpha  occ. eigenvalues --   -1.35453  -1.11386  -1.08537  -0.96423  -0.92825
 Alpha  occ. eigenvalues --   -0.88614  -0.86725  -0.82348  -0.82140  -0.68510
 Alpha  occ. eigenvalues --   -0.68420  -0.68405  -0.65304  -0.64543  -0.61799
 Alpha  occ. eigenvalues --   -0.61696  -0.50671  -0.49783  -0.49251  -0.48976
 Alpha  occ. eigenvalues --   -0.46603  -0.46567  -0.45545  -0.40141
 Alpha virt. eigenvalues --    0.00191   0.02717   0.03913   0.06782   0.07733
 Alpha virt. eigenvalues --    0.07808   0.08308   0.09138   0.09326   0.09366
 Alpha virt. eigenvalues --    0.10486   0.11405   0.11480   0.11707   0.12972

 Mulliken charges:
               1
     1  O   -1.201530
     2  O   -1.201530
     3  O   -1.238851
     4  O   -1.238851
     5  N    1.452766
     6  C    2.282416
     7  C    2.282415
     8  C    0.903577
     9  C    0.903576
    10  C   -2.035867
    11  C   -2.035866
    12  H    0.443039
    13  H    0.443039
    14  H    0.241668
 Sum of Mulliken charges =   0.00000

 Dipole moment (field-independent basis, Debye):
    X=              0.0000    Y=             -9.3435    Z=              0.0006  Tot=              9.3435

 Test job not archived.
 1\1\GINC-SE180\SP\RHF\Aug-CC-pVDZ\C6H3N1O4\OHZDE\05-Apr-2025\0\\#t hf
 aug-cc-pvdz iop(5/13=1,5/36=2,99/5=2) pseudo=read geom=check guess=(re
 ad,tcheck) scf=(maxcycle=1)\\title\\0,1\O,0,3.552425,-1.677314,-0.0000
 76\O,0,-3.552425,-1.677314,-0.000133\O,0,4.601741,0.288643,0.000051\O,
 0,-4.601741,0.288643,-0.000016\N,0,0.,1.455001,0.000098\C,0,3.482204,-
 0.481149,-0.000003\C,0,-3.482204,-0.481149,-0.000058\C,0,2.240625,0.25
 1308,0.000033\C,0,-2.240624,0.251308,-0.000006\C,0,1.181312,0.822939,0
 .000062\C,0,-1.181312,0.822939,0.000041\H,0,4.369566,1.225617,0.000108

 Normal termination of Gaussian 16 at Sat Apr  5 22:44:44 2025.
