 Gaussian 16, Revision C.01,

 ----------------------------------------------------------------------
 #t hf aug-cc-pvdz symm=none int=(grid=ultrafine) guess=(read,tcheck) s
 table=(opt,rrhf)
 ----------------------------------------------------------------------
 -----
 title
 -----
 Symbolic Z-matrix:
 Charge =  0 Multiplicity = 1

 SCF Done:  E(RHF) =  -1180.51759384     A.U. after   16 cycles
 Normal termination of Gaussian 16 at Sat Apr  5 22:42:44 2025.
 Gaussian 16:  ES64L-G16RevC.01  3-Jul-2019

 ----------------------------------------------------------------------
 #t hf aug-cc-pvdz iop(5/13=1,5/36=2,99/5=2) pseudo=read geom=check gue
 ss=(read,tcheck) scf=(maxcycle=1)
 ----------------------------------------------------------------------
 -----
 title
 -----
 Structure from the checkpoint file:  "3-4-dichloropyridazine.chk"
 Charge =  0 Multiplicity = 1

                         Standard orientation:
 ---------------------------------------------------------------------
 Center     Atomic      Atomic             Coordinates (Angstroms)
 Number     Number       Type             X           Y           Z
 ---------------------------------------------------------------------
      1         17           0       -1.455409   -1.648364    0.000000
      2         17           0       -1.486903    1.583880    0.000000
      3          7           0        1.107307    1.406825   -0.000000
      4          7           0        2.295689    0.818349   -0.000000
      5          6           0       -0.000224   -0.713003    0.000000
      6          6           0        1.231764   -1.327063   -0.000000
      7          6           0       -0.000000    0.689684   -0.000000
      8          6           0        2.356394   -0.507545   -0.000000
      9          1           0        1.317692   -2.403602   -0.000000
     10          1           0        3.353030   -0.928841   -0.000000
 ---------------------------------------------------------------------

 SCF Done:  E(RHF) =  -1180.92687595     A.U. after    2 cycles

 The electronic state is 1-A'.
 Alpha  occ. eigenvalues -- -105.60958-105.59437 -15.58076 -15.57440 -11.37326
 Alpha  occ. eigenvalues --  -11.36217 -11.31425 -11.30529 -10.65774 -10.64270
 Alpha  occ. eigenvalues --   -7.82750  -7.82310  -7.82306  -7.81241  -7.80799
 Alpha  occ. eigenvalues --   -7.80799  -1.38078  -1.20873  -1.17646  -1.09391
 Alpha  occ. eigenvalues --   -1.06809  -0.93324  -0.92440  -0.78416  -0.74685
 Alpha  occ. eigenvalues --   -0.68075  -0.65750  -0.63919  -0.63142  -0.55707
 Alpha  occ. eigenvalues --   -0.55323  -0.52317  -0.51307  -0.48065  -0.47701
 Alpha  occ. eigenvalues --   -0.43497  -0.40611
 Alpha virt. eigenvalues --    0.02667   0.02818   0.04236   0.06254   0.06472
 Alpha virt. eigenvalues --    0.08482   0.08862   0.10458   0.11525   0.11642
 Alpha virt. eigenvalues --    0.12113   0.12952   0.13167   0.14064   0.15279

 Mulliken charges:
               1
     1  Cl  -0.173100
     2  Cl  -0.022899
     3  N    0.370423
     4  N    0.080529
     5  C    0.761851
     6  C    0.905704
     7  C   -1.066749
     8  C   -0.690613
     9  H   -0.079921
    10  H   -0.085226
 Sum of Mulliken charges =  -0.00000

 Dipole moment (field-independent basis, Debye):
    X=              0.0361    Y=             -4.5600    Z=              0.0000  Tot=              4.5601

 Test job not archived.
 1\1\GINC-SE204\SP\RHF\Aug-CC-pVDZ\C4H2Cl2N2\OHZDE\05-Apr-2025\0\\#t hf
  aug-cc-pvdz iop(5/13=1,5/36=2,99/5=2) pseudo=read geom=check guess=(r
 ead,tcheck) scf=(maxcycle=1)\\title\\0,1\Cl,0,-1.455409,-1.648364,0.\C
 l,0,-1.486903,1.58388,0.\N,0,1.107307,1.406825,0.\N,0,2.295689,0.81834
 9,0.\C,0,-0.000224,-0.713003,0.\C,0,1.231764,-1.327063,0.\C,0,0.,0.689
 684,0.\C,0,2.356394,-0.507545,0.\H,0,1.317692,-2.403602,0.\H,0,3.35303
 ,-0.928842,0.\\Version=ES64L-G16RevC.01\State=1-A'\HF=-1180.926876\RMS
 D=7.177e-02\Dipole=0.0141956,-1.7940303,0.\Quadrupole=1.1278683,-0.513

 Normal termination of Gaussian 16 at Sat Apr  5 22:43:18 2025.
