 Gaussian 16, Revision C.01,

 ----------------------------------------------------------------------
 #t hf aug-cc-pvdz symm=none int=(grid=ultrafine) guess=(read,tcheck) s
 table=(opt,rrhf)
 ----------------------------------------------------------------------
 -----
 title
 -----
 Symbolic Z-matrix:
 Charge =  0 Multiplicity = 1

 SCF Done:  E(RHF) =  -383.681563978     A.U. after   15 cycles

 1\1\GINC-SE085\Stability\RHF\Aug-CC-pVDZ\C8H10O1\OHZDE\05-Apr-2025\0\\
 #t hf aug-cc-pvdz symm=none int=(grid=ultrafine) guess=(read,tcheck) s
 table=(opt,rrhf)\\title\\0,1\C,0,1.129792,-1.107674,0.\C,0,-0.086067,-
 1.782624,0.\C,0,-1.216225,0.338498,0.\C,0,1.202373,0.281815,0.\C,0,0.,
 1.01365,0.\C,0,-1.265989,-1.051728,0.\C,0,2.538691,0.976753,0.\C,0,0.0
 14913,2.519608,0.\O,0,-2.504718,-1.638916,0.\H,0,2.046577,-1.683971,0.
 \H,0,-0.110692,-2.865937,0.\H,0,-2.147731,0.888906,0.\H,0,2.663768,1.6
 16923,0.876838\H,0,3.353135,0.253692,0.\H,0,2.663768,1.616923,-0.87683

 Normal termination of Gaussian 16 at Sat Apr  5 22:45:08 2025.
 Gaussian 16:  ES64L-G16RevC.01  3-Jul-2019

 ----------------------------------------------------------------------
 #t hf aug-cc-pvdz iop(5/13=1,5/36=2,99/5=2) pseudo=read geom=check gue
 ss=(read,tcheck) scf=(maxcycle=1)
 ----------------------------------------------------------------------
 -----
 title
 -----
 Structure from the checkpoint file:  "3-4-dimethylphenol.chk"
 Charge =  0 Multiplicity = 1

                         Standard orientation:
 ---------------------------------------------------------------------
 Center     Atomic      Atomic             Coordinates (Angstroms)
 Number     Number       Type             X           Y           Z
 ---------------------------------------------------------------------
      1          6           0        1.129792   -1.107674    0.000000
      2          6           0       -0.086067   -1.782624    0.000000
      3          6           0       -1.216225    0.338498    0.000000
      4          6           0        1.202373    0.281815    0.000000
      5          6           0        0.000000    1.013650    0.000000
      6          6           0       -1.265989   -1.051728    0.000000
      7          6           0        2.538691    0.976753    0.000000
      8          6           0        0.014913    2.519608    0.000000
      9          8           0       -2.504718   -1.638916    0.000000
     10          1           0        2.046577   -1.683971    0.000000
     11          1           0       -0.110692   -2.865937    0.000000
     12          1           0       -2.147731    0.888906    0.000000
     13          1           0        2.663768    1.616923    0.876838
     14          1           0        3.353135    0.253692    0.000000
     15          1           0        2.663768    1.616923   -0.876838
     16          1           0       -0.996299    2.922450    0.000000
     17          1           0        0.534083    2.914310    0.876468
     18          1           0        0.534083    2.914310   -0.876468
     19          1           0       -2.407882   -2.596061    0.000000
 ---------------------------------------------------------------------

 SCF Done:  E(RHF) =  -384.081499407     A.U. after    2 cycles

 The electronic state is 1-A'.
 Alpha  occ. eigenvalues --  -20.57500 -11.30111 -11.24696 -11.24024 -11.23308
 Alpha  occ. eigenvalues --  -11.23271 -11.23265 -11.23049 -11.22696  -1.48664
 Alpha  occ. eigenvalues --   -1.15708  -1.04974  -1.03497  -0.95416  -0.91923
 Alpha  occ. eigenvalues --   -0.83369  -0.80797  -0.71952  -0.68644  -0.65033
 Alpha  occ. eigenvalues --   -0.61658  -0.60192  -0.58524  -0.57641  -0.57559
 Alpha  occ. eigenvalues --   -0.55740  -0.54842  -0.53524  -0.50574  -0.49064
 Alpha  occ. eigenvalues --   -0.46727  -0.34056  -0.30928
 Alpha virt. eigenvalues --    0.03154   0.03556   0.03784   0.04848   0.05179
 Alpha virt. eigenvalues --    0.05301   0.07508   0.07632   0.08064   0.10021
 Alpha virt. eigenvalues --    0.10354   0.10810   0.11705   0.12800   0.13592

 Mulliken charges:
               1
     1  C    0.372837
     2  C   -0.473126
     3  C    0.195260
     4  C    0.457781
     5  C    0.481816
     6  C    1.434983
     7  C   -0.634636
     8  C   -0.695052
     9  O   -1.791818
    10  H   -0.300062
    11  H   -0.331756
    12  H   -0.277915
    13  H    0.300932
    14  H   -0.038405
    15  H    0.300932
    16  H   -0.027286
    17  H    0.314686
    18  H    0.314686
    19  H    0.396145
 Sum of Mulliken charges =  -0.00000

 Dipole moment (field-independent basis, Debye):
    X=              1.0963    Y=             -0.4940    Z=             -0.0000  Tot=              1.2024

 Test job not archived.
 1\1\GINC-SE085\SP\RHF\Aug-CC-pVDZ\C8H10O1\OHZDE\05-Apr-2025\0\\#t hf a
 ug-cc-pvdz iop(5/13=1,5/36=2,99/5=2) pseudo=read geom=check guess=(rea
 d,tcheck) scf=(maxcycle=1)\\title\\0,1\C,0,1.129792,-1.107674,0.\C,0,-
 0.086067,-1.782624,0.\C,0,-1.216225,0.338498,0.\C,0,1.202373,0.281815,
 0.\C,0,0.,1.01365,0.\C,0,-1.265989,-1.051728,0.\C,0,2.538691,0.976753,
 0.\C,0,0.014913,2.519608,0.\O,0,-2.504718,-1.638916,0.\H,0,2.046577,-1
 .683971,0.\H,0,-0.110692,-2.865937,0.\H,0,-2.147731,0.888906,0.\H,0,2.
 663768,1.616923,0.876838\H,0,3.353135,0.253692,0.\H,0,2.663768,1.61692

 Normal termination of Gaussian 16 at Sat Apr  5 22:45:43 2025.
