 Gaussian 16, Revision C.01,

 ----------------------------------------------------------------------
 #t hf aug-cc-pvdz symm=none int=(grid=ultrafine) guess=(read,tcheck) s
 table=(opt,rrhf)
 ----------------------------------------------------------------------
 -----
 title
 -----
 Symbolic Z-matrix:
 Charge =  0 Multiplicity = 1

 SCF Done:  E(RHF) =  -324.807151375     A.U. after   15 cycles
 Normal termination of Gaussian 16 at Sat Apr  5 22:44:16 2025.
 Gaussian 16:  ES64L-G16RevC.01  3-Jul-2019

 ----------------------------------------------------------------------
 #t hf aug-cc-pvdz iop(5/13=1,5/36=2,99/5=2) pseudo=read geom=check gue
 ss=(read,tcheck) scf=(maxcycle=1)
 ----------------------------------------------------------------------
 -----
 title
 -----
 Structure from the checkpoint file:  "3-4-dimethylpyridine.chk"
 Charge =  0 Multiplicity = 1

                         Standard orientation:
 ---------------------------------------------------------------------
 Center     Atomic      Atomic             Coordinates (Angstroms)
 Number     Number       Type             X           Y           Z
 ---------------------------------------------------------------------
      1          6           0        0.121338   -1.552985    0.000000
      2          6           0       -1.266480   -1.587989    0.000000
      3          6           0       -1.384777    0.677563    0.000000
      4          6           0        0.784658   -0.329802    0.000000
      5          6           0        0.000000    0.833406    0.000000
      6          6           0        2.286145   -0.262994    0.000000
      7          6           0        0.610891    2.207110    0.000000
      8          7           0       -2.022279   -0.492366    0.000000
      9          1           0        0.683596   -2.478145    0.000000
     10          1           0       -1.790838   -2.537250    0.000000
     11          1           0       -2.015999    1.561189    0.000000
     12          1           0        2.660028    0.271394    0.876276
     13          1           0        2.724758   -1.259274    0.000000
     14          1           0        2.660028    0.271394   -0.876276
     15          1           0        1.242218    2.367833   -0.877127
     16          1           0       -0.160709    2.975727    0.000000
     17          1           0        1.242218    2.367833    0.877127
 ---------------------------------------------------------------------

 SCF Done:  E(RHF) =  -325.147703067     A.U. after    2 cycles

 The electronic state is 1-A'.
 Alpha  occ. eigenvalues --  -15.49514 -11.27083 -11.26930 -11.26369 -11.24545
 Alpha  occ. eigenvalues --  -11.24485 -11.24041 -11.23858  -1.25386  -1.11751
 Alpha  occ. eigenvalues --   -1.05257  -0.98096  -0.95001  -0.85431  -0.82456
 Alpha  occ. eigenvalues --   -0.70681  -0.70162  -0.63895  -0.61226  -0.59252
 Alpha  occ. eigenvalues --   -0.57198  -0.56964  -0.56645  -0.55476  -0.54137
 Alpha  occ. eigenvalues --   -0.51176  -0.44315  -0.38245  -0.34459
 Alpha virt. eigenvalues --    0.03207   0.03396   0.03782   0.04651   0.05325
 Alpha virt. eigenvalues --    0.05758   0.07158   0.07611   0.08947   0.09125
 Alpha virt. eigenvalues --    0.09751   0.10843   0.12096   0.12654   0.13529

 Mulliken charges:
               1
     1  C    0.620317
     2  C   -1.150567
     3  C   -1.214961
     4  C    0.381907
     5  C    0.919652
     6  C   -0.668893
     7  C   -0.626906
     8  N    1.114544
     9  H   -0.253639
    10  H   -0.199637
    11  H   -0.210911
    12  H    0.318918
    13  H   -0.003708
    14  H    0.318918
    15  H    0.319097
    16  H    0.016774
    17  H    0.319097
 Sum of Mulliken charges =  -0.00000

 Dipole moment (field-independent basis, Debye):
    X=              3.3603    Y=              0.5417    Z=             -0.0000  Tot=              3.4036

 Test job not archived.
 1\1\GINC-SE104\SP\RHF\Aug-CC-pVDZ\C7H9N1\OHZDE\05-Apr-2025\0\\#t hf au
 g-cc-pvdz iop(5/13=1,5/36=2,99/5=2) pseudo=read geom=check guess=(read
 ,tcheck) scf=(maxcycle=1)\\title\\0,1\C,0,0.121338,-1.552985,0.\C,0,-1
 .26648,-1.587989,0.\C,0,-1.384777,0.677563,0.\C,0,0.784658,-0.329802,0
 .\C,0,0.,0.833406,0.\C,0,2.286145,-0.262994,0.\C,0,0.610891,2.20711,0.
 \N,0,-2.022279,-0.492366,0.\H,0,0.683596,-2.478145,0.\H,0,-1.790838,-2
 .53725,0.\H,0,-2.015999,1.561189,0.\H,0,2.660028,0.271394,0.876276\H,0
 ,2.724758,-1.259274,0.\H,0,2.660028,0.271394,-0.876276\H,0,1.242218,2.

 Normal termination of Gaussian 16 at Sat Apr  5 22:44:45 2025.
