 Gaussian 16, Revision C.01,

 ----------------------------------------------------------------------
 #t hf aug-cc-pvdz symm=none int=(grid=ultrafine) guess=(read,tcheck) s
 table=(opt,rrhf)
 ----------------------------------------------------------------------
 -----
 title
 -----
 Symbolic Z-matrix:
 Charge =  0 Multiplicity = 1

 SCF Done:  E(RHF) =  -1221.39537034     A.U. after   15 cycles
 Normal termination of Gaussian 16 at Sat Apr  5 22:43:30 2025.
 Gaussian 16:  ES64L-G16RevC.01  3-Jul-2019

 ----------------------------------------------------------------------
 #t hf aug-cc-pvdz iop(5/13=1,5/36=2,99/5=2) pseudo=read geom=check gue
 ss=(read,tcheck) scf=(maxcycle=1)
 ----------------------------------------------------------------------
 -----
 title
 -----
 Structure from the checkpoint file:  "3-4-dichloro-25H-furanone.chk"
 Charge =  0 Multiplicity = 1

                         Standard orientation:
 ---------------------------------------------------------------------
 Center     Atomic      Atomic             Coordinates (Angstroms)
 Number     Number       Type             X           Y           Z
 ---------------------------------------------------------------------
      1         17           0        2.402272   -0.042851    0.000005
      2         17           0       -0.367558    2.071610   -0.000009
      3          8           0       -1.150297   -1.778025    0.000004
      4          8           0       -2.691642   -0.125826   -0.000006
      5          6           0        0.277440   -1.865987    0.000008
      6          6           0        0.741846   -0.443902    0.000003
      7          6           0       -0.314842    0.367425   -0.000002
      8          6           0       -1.548384   -0.464124   -0.000002
      9          1           0        0.604507   -2.409284   -0.888461
     10          1           0        0.604503   -2.409277    0.888482
 ---------------------------------------------------------------------

 SCF Done:  E(RHF) =  -1221.84148771     A.U. after    2 cycles

 The electronic state is 1-A.
 Alpha  occ. eigenvalues -- -105.62577-105.60710 -20.61867 -20.55569 -11.41950
 Alpha  occ. eigenvalues --  -11.36679 -11.35205 -11.34617 -10.67370 -10.65503
 Alpha  occ. eigenvalues --   -7.84355  -7.83906  -7.83900  -7.82496  -7.82034
 Alpha  occ. eigenvalues --   -7.82033  -1.56827  -1.48424  -1.22098  -1.13908
 Alpha  occ. eigenvalues --   -1.06124  -1.00969  -0.85123  -0.80565  -0.72746
 Alpha  occ. eigenvalues --   -0.72569  -0.67873  -0.65914  -0.61063  -0.60338
 Alpha  occ. eigenvalues --   -0.59177  -0.58064  -0.52558  -0.50882  -0.50048
 Alpha  occ. eigenvalues --   -0.47683  -0.46121  -0.40072
 Alpha virt. eigenvalues --    0.02999   0.04140   0.05989   0.06414   0.07095
 Alpha virt. eigenvalues --    0.08613   0.09135   0.11107   0.11419   0.12817
 Alpha virt. eigenvalues --    0.13114   0.13571   0.14387   0.15598   0.15796

 Mulliken charges:
               1
     1  Cl  -0.053662
     2  Cl  -0.087240
     3  O   -1.292246
     4  O   -1.251739
     5  C    0.557228
     6  C    0.002861
     7  C    0.258369
     8  C    1.468374
     9  H    0.199028
    10  H    0.199027
 Sum of Mulliken charges =  -0.00000

 Dipole moment (field-independent basis, Debye):
    X=              4.0183    Y=             -1.6098    Z=              0.0000  Tot=              4.3288

 Test job not archived.
 1\1\GINC-SE168\SP\RHF\Aug-CC-pVDZ\C4H2Cl2O2\OHZDE\05-Apr-2025\0\\#t hf
  aug-cc-pvdz iop(5/13=1,5/36=2,99/5=2) pseudo=read geom=check guess=(r
 ead,tcheck) scf=(maxcycle=1)\\title\\0,1\Cl,0,2.402272,-0.042853,0.000
 005\Cl,0,-0.367556,2.07161,-0.000009\O,0,-1.150299,-1.778024,0.000004\
 O,0,-2.691642,-0.125824,-0.000006\C,0,0.277438,-1.865987,0.000008\C,0,
 0.741846,-0.443903,0.000003\C,0,-0.314842,0.367425,-0.000002\C,0,-1.54
 8384,-0.464123,-0.000002\H,0,0.604505,-2.409285,-0.888461\H,0,0.604501
 ,-2.409278,0.888482\\Version=ES64L-G16RevC.01\State=1-A\HF=-1221.84148

 Normal termination of Gaussian 16 at Sat Apr  5 22:43:51 2025.
