 Gaussian 16, Revision C.01,

 ----------------------------------------------------------------------
 #t hf aug-cc-pvdz symm=none int=(grid=ultrafine) guess=(read,tcheck) s
 table=(opt,rrhf)
 ----------------------------------------------------------------------
 -----
 title
 -----
 Symbolic Z-matrix:
 Charge =  0 Multiplicity = 1

 SCF Done:  E(RHF) =  -426.358450734     A.U. after   13 cycles
 Normal termination of Gaussian 16 at Sat Apr  5 22:43:23 2025.
 Gaussian 16:  ES64L-G16RevC.01  3-Jul-2019

 ----------------------------------------------------------------------
 #t hf aug-cc-pvdz iop(5/13=1,5/36=2,99/5=2) pseudo=read geom=check gue
 ss=(read,tcheck) scf=(maxcycle=1)
 ----------------------------------------------------------------------
 -----
 title
 -----
 Structure from the checkpoint file:  "3-4-difluorofuran.chk"
 Charge =  0 Multiplicity = 1

                         Standard orientation:
 ---------------------------------------------------------------------
 Center     Atomic      Atomic             Coordinates (Angstroms)
 Number     Number       Type             X           Y           Z
 ---------------------------------------------------------------------
      1          9           0        1.398463    1.484940   -0.000003
      2          9           0        1.398463   -1.484940   -0.000003
      3          8           0       -1.779157    0.000000    0.000004
      4          6           0        0.314030    0.712057   -0.000000
      5          6           0        0.314030   -0.712057   -0.000000
      6          6           0       -0.981873    1.104503    0.000002
      7          6           0       -0.981873   -1.104503    0.000002
      8          1           0       -1.462488    2.064029    0.000004
      9          1           0       -1.462488   -2.064029    0.000003
 ---------------------------------------------------------------------

 SCF Done:  E(RHF) =  -426.764435011     A.U. after    2 cycles

 The electronic state is 1-A.
 Alpha  occ. eigenvalues --  -26.50183 -26.50181 -20.63619 -11.35063 -11.35014
 Alpha  occ. eigenvalues --  -11.32108 -11.32037  -1.63711  -1.62720  -1.56989
 Alpha  occ. eigenvalues --   -1.12392  -1.04024  -0.86100  -0.85154  -0.79619
 Alpha  occ. eigenvalues --   -0.72812  -0.71897  -0.71852  -0.68415  -0.64904
 Alpha  occ. eigenvalues --   -0.64484  -0.64472  -0.62965  -0.54268  -0.41289
 Alpha  occ. eigenvalues --   -0.35458
 Alpha virt. eigenvalues --    0.03541   0.03905   0.07126   0.08150   0.08686
 Alpha virt. eigenvalues --    0.10176   0.12311   0.12813   0.12854   0.13932
 Alpha virt. eigenvalues --    0.14570   0.14929   0.15367   0.15791   0.15913

 Mulliken charges:
               1
     1  F   -0.904185
     2  F   -0.904185
     3  O   -1.261482
     4  C    0.973756
     5  C    0.973756
     6  C    0.633573
     7  C    0.633573
     8  H   -0.072404
     9  H   -0.072404
 Sum of Mulliken charges =  -0.00000

 Dipole moment (field-independent basis, Debye):
    X=             -1.6736    Y=             -0.0000    Z=              0.0000  Tot=              1.6736

 Test job not archived.
 1\1\GINC-SE203\SP\RHF\Aug-CC-pVDZ\C4H2F2O1\OHZDE\05-Apr-2025\0\\#t hf
 aug-cc-pvdz iop(5/13=1,5/36=2,99/5=2) pseudo=read geom=check guess=(re
 ad,tcheck) scf=(maxcycle=1)\\title\\0,1\F,0,1.398463,1.48494,-0.000003
 \F,0,1.398463,-1.48494,-0.000003\O,0,-1.779157,0.,0.000004\C,0,0.31403
 ,0.712057,0.\C,0,0.31403,-0.712057,0.\C,0,-0.981873,1.104503,0.000002\
 C,0,-0.981873,-1.104503,0.000002\H,0,-1.462488,2.064029,0.000004\H,0,-
 1.462488,-2.064029,0.000003\\Version=ES64L-G16RevC.01\State=1-A\HF=-42
 6.764435\RMSD=1.645e-02\Dipole=-0.6584451,0.,0.0000018\Quadrupole=-1.7

 Normal termination of Gaussian 16 at Sat Apr  5 22:43:27 2025.
