 Gaussian 16, Revision C.01,

 ----------------------------------------------------------------------
 #t hf aug-cc-pvdz symm=none int=(grid=ultrafine) guess=(read,tcheck) s
 table=(opt,rrhf)
 ----------------------------------------------------------------------
 -----
 title
 -----
 Symbolic Z-matrix:
 Charge =  0 Multiplicity = 1

 SCF Done:  E(RHF) =  -268.867099192     A.U. after   13 cycles
 Normal termination of Gaussian 16 at Sat Apr  5 22:43:42 2025.
 Gaussian 16:  ES64L-G16RevC.01  3-Jul-2019

 ----------------------------------------------------------------------
 #t hf aug-cc-pvdz iop(5/13=1,5/36=2,99/5=2) pseudo=read geom=check gue
 ss=(read,tcheck) scf=(maxcycle=1)
 ----------------------------------------------------------------------
 -----
 title
 -----
 Structure from the checkpoint file:  "3-4-dihydro-2H-pyran.chk"
 Charge =  0 Multiplicity = 1

                         Standard orientation:
 ---------------------------------------------------------------------
 Center     Atomic      Atomic             Coordinates (Angstroms)
 Number     Number       Type             X           Y           Z
 ---------------------------------------------------------------------
      1          1           0        1.698238    1.800485   -0.192826
      2          6           0        0.918237    1.060294   -0.079962
      3          1           0       -0.642305    2.415460    0.088334
      4          6           0       -0.370105    1.369715    0.059818
      5          1           0       -2.282342    0.596748   -0.513812
      6          1           0       -1.850400    0.242473    1.140159
      7          6           0       -1.442186    0.317252    0.126593
      8          1           0       -0.784776   -1.061303   -1.405706
      9          1           0       -1.516006   -1.859353   -0.019166
     10          6           0       -0.868229   -1.033211   -0.317152
     11          1           0        0.970892   -2.166720   -0.038422
     12          1           0        0.456412   -1.234431    1.379263
     13          6           0        0.514350   -1.233647    0.285501
     14          8           0        1.429736   -0.201972   -0.110826
 ---------------------------------------------------------------------

 SCF Done:  E(RHF) =  -269.150546635     A.U. after    2 cycles

 The electronic state is 1-A.
 Alpha  occ. eigenvalues --  -20.56042 -11.28869 -11.28799 -11.23673 -11.23495
 Alpha  occ. eigenvalues --  -11.22087  -1.48365  -1.08819  -1.03530  -0.90098
 Alpha  occ. eigenvalues --   -0.86193  -0.73467  -0.70811  -0.64158  -0.63581
 Alpha  occ. eigenvalues --   -0.60182  -0.58221  -0.56126  -0.53995  -0.48661
 Alpha  occ. eigenvalues --   -0.47172  -0.46151  -0.33253
 Alpha virt. eigenvalues --    0.03674   0.03881   0.04217   0.04283   0.05883
 Alpha virt. eigenvalues --    0.06527   0.06998   0.07226   0.11777   0.12421
 Alpha virt. eigenvalues --    0.13795   0.13911   0.14431   0.14891   0.15327

 Mulliken charges:
               1
     1  H   -0.106210
     2  C    0.925899
     3  H   -0.183125
     4  C    0.432672
     5  H    0.175910
     6  H    0.181859
     7  C   -0.505798
     8  H    0.096681
     9  H    0.186498
    10  C   -0.397466
    11  H    0.005703
    12  H    0.141168
    13  C    0.535832
    14  O   -1.489623
 Sum of Mulliken charges =  -0.00000

 Dipole moment (field-independent basis, Debye):
    X=             -1.2639    Y=             -0.5298    Z=              0.2784  Tot=              1.3984

 Test job not archived.
 1\1\GINC-SE040\SP\RHF\Aug-CC-pVDZ\C5H8O1\OHZDE\05-Apr-2025\0\\#t hf au
 g-cc-pvdz iop(5/13=1,5/36=2,99/5=2) pseudo=read geom=check guess=(read
 ,tcheck) scf=(maxcycle=1)\\title\\0,1\H,0,1.698238,1.800485,-0.192826\
 C,0,0.918237,1.060294,-0.079962\H,0,-0.642305,2.41546,0.088334\C,0,-0.
 370105,1.369715,0.059818\H,0,-2.282342,0.596748,-0.513812\H,0,-1.8504,
 0.242473,1.140159\C,0,-1.442186,0.317252,0.126593\H,0,-0.784776,-1.061
 303,-1.405706\H,0,-1.516006,-1.859353,-0.019166\C,0,-0.868229,-1.03321
 1,-0.317152\H,0,0.970892,-2.16672,-0.038422\H,0,0.456412,-1.234431,1.3

 Normal termination of Gaussian 16 at Sat Apr  5 22:43:50 2025.
