 Gaussian 16, Revision C.01,

 ----------------------------------------------------------------------
 #t hf aug-cc-pvdz symm=none int=(grid=ultrafine) guess=(read,tcheck) s
 table=(opt,rrhf)
 ----------------------------------------------------------------------
 -----
 title
 -----
 Symbolic Z-matrix:
 Charge =  0 Multiplicity = 1

 SCF Done:  E(RHF) =  -284.883255128     A.U. after   13 cycles
 Normal termination of Gaussian 16 at Sat Apr  5 22:43:40 2025.
 Gaussian 16:  ES64L-G16RevC.01  3-Jul-2019

 ----------------------------------------------------------------------
 #t hf aug-cc-pvdz iop(5/13=1,5/36=2,99/5=2) pseudo=read geom=check gue
 ss=(read,tcheck) scf=(maxcycle=1)
 ----------------------------------------------------------------------
 -----
 title
 -----
 Structure from the checkpoint file:  "3-4-dihydro-2H-pyrrol-2-ol.chk"
 Charge =  0 Multiplicity = 1

                         Standard orientation:
 ---------------------------------------------------------------------
 Center     Atomic      Atomic             Coordinates (Angstroms)
 Number     Number       Type             X           Y           Z
 ---------------------------------------------------------------------
      1          8           0        1.940466    0.100077   -0.356377
      2          1           0        2.421588   -0.726471   -0.237956
      3          7           0        0.023471   -1.215094    0.138296
      4          6           0       -1.181592   -0.930797   -0.131038
      5          1           0       -1.898279   -1.715924   -0.357940
      6          6           0        0.758775    0.029689    0.415101
      7          1           0        1.011317    0.022646    1.482130
      8          6           0       -1.554766    0.529531   -0.103113
      9          1           0       -2.214713    0.732484    0.745109
     10          1           0       -2.099834    0.828700   -0.999730
     11          6           0       -0.174244    1.197650    0.045596
     12          1           0       -0.160808    1.988315    0.792056
     13          1           0        0.163676    1.618849   -0.900003
 ---------------------------------------------------------------------

 SCF Done:  E(RHF) =  -285.179327915     A.U. after    2 cycles

 The electronic state is 1-A.
 Alpha  occ. eigenvalues --  -20.54678 -15.49711 -11.31324 -11.28708 -11.24900
 Alpha  occ. eigenvalues --  -11.23573  -1.45434  -1.25190  -1.04584  -0.97422
 Alpha  occ. eigenvalues --   -0.83287  -0.77944  -0.70755  -0.69129  -0.65672
 Alpha  occ. eigenvalues --   -0.61000  -0.56128  -0.53291  -0.52438  -0.51784
 Alpha  occ. eigenvalues --   -0.46610  -0.44563  -0.43266
 Alpha virt. eigenvalues --    0.03489   0.04206   0.04437   0.04868   0.05896
 Alpha virt. eigenvalues --    0.06149   0.07210   0.09876   0.10806   0.12496
 Alpha virt. eigenvalues --    0.13287   0.13951   0.14712   0.15334   0.15950

 Mulliken charges:
               1
     1  O   -1.349202
     2  H    0.276746
     3  N    0.692740
     4  C   -0.649826
     5  H   -0.046414
     6  C    1.000661
     7  H    0.070431
     8  C   -0.093241
     9  H    0.174512
    10  H    0.151711
    11  C   -0.532481
    12  H    0.171646
    13  H    0.132718
 Sum of Mulliken charges =  -0.00000

 Dipole moment (field-independent basis, Debye):
    X=             -2.2340    Y=              0.8898    Z=              0.6105  Tot=              2.4809

 Test job not archived.
 1\1\GINC-SE050\SP\RHF\Aug-CC-pVDZ\C4H7N1O1\OHZDE\05-Apr-2025\0\\#t hf
 aug-cc-pvdz iop(5/13=1,5/36=2,99/5=2) pseudo=read geom=check guess=(re
 ad,tcheck) scf=(maxcycle=1)\\title\\0,1\O,0,1.940466,0.100077,-0.35637
 7\H,0,2.421588,-0.726471,-0.237956\N,0,0.023471,-1.215094,0.138296\C,0
 ,-1.181592,-0.930797,-0.131038\H,0,-1.898279,-1.715924,-0.35794\C,0,0.
 758775,0.029689,0.415101\H,0,1.011317,0.022646,1.48213\C,0,-1.554766,0
 .529531,-0.103113\H,0,-2.214713,0.732484,0.745109\H,0,-2.099834,0.8287
 ,-0.99973\C,0,-0.174244,1.19765,0.045596\H,0,-0.160808,1.988315,0.7920

 Normal termination of Gaussian 16 at Sat Apr  5 22:43:50 2025.
