 Gaussian 16, Revision C.01,

 ----------------------------------------------------------------------
 #t hf aug-cc-pvdz symm=none int=(grid=ultrafine) guess=(read,tcheck) s
 table=(opt,rrhf)
 ----------------------------------------------------------------------
 -----
 title
 -----
 Symbolic Z-matrix:
 Charge =  0 Multiplicity = 1

 SCF Done:  E(RHF) =  -766.125419804     A.U. after   15 cycles
 Normal termination of Gaussian 16 at Sat Apr  5 22:43:45 2025.
 Gaussian 16:  ES64L-G16RevC.01  3-Jul-2019

 ----------------------------------------------------------------------
 #t hf aug-cc-pvdz iop(5/13=1,5/36=2,99/5=2) pseudo=read geom=check gue
 ss=(read,tcheck) scf=(maxcycle=1)
 ----------------------------------------------------------------------
 -----
 title
 -----
 Structure from the checkpoint file:  "3-4-difluoro-2-3-dihydro-1-3-thiazole.chk"
 Charge =  0 Multiplicity = 1

                         Standard orientation:
 ---------------------------------------------------------------------
 Center     Atomic      Atomic             Coordinates (Angstroms)
 Number     Number       Type             X           Y           Z
 ---------------------------------------------------------------------
      1         16           0       -1.754466   -0.335189   -0.197249
      2          9           0        1.013789    1.522561   -0.771068
      3          9           0        2.045030   -1.036519    0.178958
      4          7           0        0.632941    0.772412    0.482854
      5          6           0        0.799133   -0.571033    0.149039
      6          6           0       -0.780143    1.004087    0.668274
      7          6           0       -0.280485   -1.267924   -0.221740
      8          1           0       -0.988442    0.907291    1.731910
      9          1           0       -1.050908    1.989954    0.309837
     10          1           0       -0.280179   -2.306271   -0.510189
 ---------------------------------------------------------------------

 SCF Done:  E(RHF) =  -766.535620598     A.U. after    2 cycles

 The electronic state is 1-A.
 Alpha  occ. eigenvalues --  -93.98630 -26.50222 -26.46564 -15.64064 -11.38227
 Alpha  occ. eigenvalues --  -11.33879 -11.31128  -8.26783  -6.24567  -6.24452
 Alpha  occ. eigenvalues --   -6.24184  -1.63852  -1.55590  -1.28607  -1.10868
 Alpha  occ. eigenvalues --   -1.04781  -0.90523  -0.83163  -0.77599  -0.73735
 Alpha  occ. eigenvalues --   -0.71509  -0.68129  -0.67495  -0.64315  -0.60742
 Alpha  occ. eigenvalues --   -0.58659  -0.56467  -0.54938  -0.49079  -0.46773
 Alpha  occ. eigenvalues --   -0.34655
 Alpha virt. eigenvalues --    0.03421   0.03753   0.05135   0.06595   0.07355
 Alpha virt. eigenvalues --    0.08733   0.08882   0.11221   0.11511   0.12131
 Alpha virt. eigenvalues --    0.13193   0.13656   0.15375   0.15705   0.16006

 Mulliken charges:
               1
     1  S    0.470441
     2  F   -0.684125
     3  F   -0.859276
     4  N    1.131775
     5  C    0.783824
     6  C   -0.702309
     7  C   -0.326590
     8  H    0.143581
     9  H    0.157203
    10  H   -0.114524
 Sum of Mulliken charges =  -0.00000

 Dipole moment (field-independent basis, Debye):
    X=             -2.3360    Y=             -0.9123    Z=              0.9818  Tot=              2.6932

 Test job not archived.
 1\1\GINC-SE176\SP\RHF\Aug-CC-pVDZ\C3H3F2N1S1\OHZDE\05-Apr-2025\0\\#t h
 f aug-cc-pvdz iop(5/13=1,5/36=2,99/5=2) pseudo=read geom=check guess=(
 read,tcheck) scf=(maxcycle=1)\\title\\0,1\S,0,-1.754466,-0.335189,-0.1
 97249\F,0,1.013789,1.522561,-0.771068\F,0,2.04503,-1.036519,0.178958\N
 ,0,0.632941,0.772412,0.482854\C,0,0.799133,-0.571033,0.149039\C,0,-0.7
 80143,1.004087,0.668274\C,0,-0.280485,-1.267924,-0.22174\H,0,-0.988442
 ,0.907291,1.73191\H,0,-1.050908,1.989954,0.309837\H,0,-0.280179,-2.306
 271,-0.510189\\Version=ES64L-G16RevC.01\State=1-A\HF=-766.5356206\RMSD

 Normal termination of Gaussian 16 at Sat Apr  5 22:43:51 2025.
