 Gaussian 16, Revision C.01,

 ----------------------------------------------------------------------
 #t hf aug-cc-pvdz symm=none int=(grid=ultrafine) guess=(read,tcheck) s
 table=(opt,rrhf)
 ----------------------------------------------------------------------
 -----
 title
 -----
 Symbolic Z-matrix:
 Charge =  0 Multiplicity = 1

 SCF Done:  E(RHF) =  -631.954288072     A.U. after   15 cycles
 Normal termination of Gaussian 16 at Sat Apr  5 22:44:40 2025.
 Gaussian 16:  ES64L-G16RevC.01  3-Jul-2019

 ----------------------------------------------------------------------
 #t hf aug-cc-pvdz iop(5/13=1,5/36=2,99/5=2) pseudo=read geom=check gue
 ss=(read,tcheck) scf=(maxcycle=1)
 ----------------------------------------------------------------------
 -----
 title
 -----
 Structure from the checkpoint file:  "3-5-difluoronitrobenzene.chk"
 Charge =  0 Multiplicity = 1

                         Standard orientation:
 ---------------------------------------------------------------------
 Center     Atomic      Atomic             Coordinates (Angstroms)
 Number     Number       Type             X           Y           Z
 ---------------------------------------------------------------------
      1          9           0        0.000000    2.343179   -1.982060
      2          9           0       -0.000000   -2.343179   -1.982060
      3          8           0        0.000003   -1.083137    2.779892
      4          8           0       -0.000003    1.083137    2.779892
      5          7           0        0.000000   -0.000000    2.217668
      6          6           0        0.000000   -0.000000    0.737023
      7          6           0        0.000000    1.183547   -1.305000
      8          6           0       -0.000000   -1.183547   -1.305000
      9          6           0       -0.000000   -1.219150    0.077114
     10          6           0        0.000000    1.219150    0.077114
     11          6           0       -0.000000    0.000000   -2.024499
     12          1           0       -0.000000   -2.150455    0.619296
     13          1           0        0.000000    2.150455    0.619296
     14          1           0       -0.000000    0.000000   -3.103967
 ---------------------------------------------------------------------

 SCF Done:  E(RHF) =  -632.556990051     A.U. after    2 cycles

 The electronic state is 1-A.
 Alpha  occ. eigenvalues --  -26.51240 -26.51240 -20.60796 -20.60792 -15.81147
 Alpha  occ. eigenvalues --  -11.38426 -11.38421 -11.34794 -11.29959 -11.29802
 Alpha  occ. eigenvalues --  -11.29799  -1.69059  -1.64484  -1.64371  -1.52716
 Alpha  occ. eigenvalues --   -1.23360  -1.13441  -1.07653  -1.02022  -0.90565
 Alpha  occ. eigenvalues --   -0.88542  -0.83229  -0.79174  -0.76592  -0.75800
 Alpha  occ. eigenvalues --   -0.75440  -0.74338  -0.71956  -0.71570  -0.70366
 Alpha  occ. eigenvalues --   -0.67246  -0.62416  -0.60367  -0.59979  -0.55794
 Alpha  occ. eigenvalues --   -0.51784  -0.50529  -0.46742  -0.41098  -0.39000
 Alpha virt. eigenvalues --    0.00416   0.03171   0.03885   0.04675   0.08142
 Alpha virt. eigenvalues --    0.08352   0.08647   0.09403   0.09704   0.11007
 Alpha virt. eigenvalues --    0.12441   0.12675   0.12789   0.13448   0.13966

 Mulliken charges:
               1
     1  F   -0.990454
     2  F   -0.990454
     3  O   -1.483694
     4  O   -1.483694
     5  N    3.032377
     6  C    0.006431
     7  C    1.496111
     8  C    1.496111
     9  C   -0.116265
    10  C   -0.116265
    11  C   -0.427236
    12  H   -0.147509
    13  H   -0.147509
    14  H   -0.127948
 Sum of Mulliken charges =  -0.00000

 Dipole moment (field-independent basis, Debye):
    X=             -0.0000    Y=             -0.0000    Z=             -3.0291  Tot=              3.0291

 Test job not archived.
 1\1\GINC-SE199\SP\RHF\Aug-CC-pVDZ\C6H3F2N1O2\OHZDE\05-Apr-2025\0\\#t h
 f aug-cc-pvdz iop(5/13=1,5/36=2,99/5=2) pseudo=read geom=check guess=(
 read,tcheck) scf=(maxcycle=1)\\title\\0,1\F,0,0.,2.343179,-1.98206\F,0
 ,0.,-2.343179,-1.98206\O,0,0.000003,-1.083137,2.779892\O,0,-0.000003,1
 .083137,2.779892\N,0,0.,0.,2.217668\C,0,0.,0.,0.737023\C,0,0.,1.183547
 ,-1.305\C,0,0.,-1.183547,-1.305\C,0,0.,-1.21915,0.077114\C,0,0.,1.2191
 5,0.077114\C,0,0.,0.,-2.024499\H,0,0.,-2.150455,0.619296\H,0,0.,2.1504
 55,0.619296\H,0,0.,0.,-3.103967\\Version=ES64L-G16RevC.01\State=1-A\HF

 Normal termination of Gaussian 16 at Sat Apr  5 22:44:57 2025.
