 Gaussian 16, Revision C.01,

 ----------------------------------------------------------------------
 #t hf aug-cc-pvdz symm=none int=(grid=ultrafine) guess=(read,tcheck) s
 table=(opt,rrhf)
 ----------------------------------------------------------------------
 -----
 title
 -----
 Symbolic Z-matrix:
 Charge =  0 Multiplicity = 1

 SCF Done:  E(RHF) =  -363.852621995     A.U. after   15 cycles

 1\1\GINC-SE206\Stability\RHF\Aug-CC-pVDZ\C8H11N1\OHZDE\05-Apr-2025\0\\
 #t hf aug-cc-pvdz symm=none int=(grid=ultrafine) guess=(read,tcheck) s
 table=(opt,rrhf)\\title\\0,1\C,0,2.517544,-1.43663,-0.005275\C,0,1.212
 17,-0.683611,0.014104\C,0,-0.002777,-1.367699,0.003328\C,0,-1.215431,-
 0.678269,-0.013052\C,0,-2.523027,-1.427228,0.01334\C,0,-1.202251,0.712
 541,-0.023179\C,0,0.003078,1.420199,-0.008027\C,0,1.204894,0.707957,0.
 012682\N,0,0.006024,2.814868,-0.071872\H,0,2.865912,-1.586339,-1.03047
 6\H,0,2.415107,-2.420997,0.45101\H,0,3.299264,-0.894762,0.52751\H,0,-0

 Normal termination of Gaussian 16 at Sat Apr  5 22:44:58 2025.
 Gaussian 16:  ES64L-G16RevC.01  3-Jul-2019

 ----------------------------------------------------------------------
 #t hf aug-cc-pvdz iop(5/13=1,5/36=2,99/5=2) pseudo=read geom=check gue
 ss=(read,tcheck) scf=(maxcycle=1)
 ----------------------------------------------------------------------
 -----
 title
 -----
 Structure from the checkpoint file:  "3-5-dimethylaniline.chk"
 Charge =  0 Multiplicity = 1

                         Standard orientation:
 ---------------------------------------------------------------------
 Center     Atomic      Atomic             Coordinates (Angstroms)
 Number     Number       Type             X           Y           Z
 ---------------------------------------------------------------------
      1          6           0        2.517547   -1.436625   -0.005275
      2          6           0        1.212171   -0.683608    0.014104
      3          6           0       -0.002774   -1.367699    0.003328
      4          6           0       -1.215430   -0.678272   -0.013052
      5          6           0       -2.523024   -1.427233    0.013340
      6          6           0       -1.202253    0.712538   -0.023179
      7          6           0        0.003075    1.420199   -0.008027
      8          6           0        1.204892    0.707960    0.012682
      9          7           0        0.006018    2.814868   -0.071872
     10          1           0        2.865915   -1.586333   -1.030476
     11          1           0        2.415112   -2.420992    0.451010
     12          1           0        3.299266   -0.894755    0.527510
     13          1           0       -0.005112   -2.450862    0.008225
     14          1           0       -3.318319   -0.859429   -0.469576
     15          1           0       -2.839475   -1.624375    1.040910
     16          1           0       -2.438847   -2.390056   -0.490594
     17          1           0       -2.138290    1.258867   -0.046205
     18          1           0        2.143576    1.250292    0.019305
     19          1           0        0.839812    3.263376    0.270906
     20          1           0       -0.830996    3.266632    0.258566
 ---------------------------------------------------------------------

 SCF Done:  E(RHF) =  -364.238063585     A.U. after    2 cycles

 The electronic state is 1-A.
 Alpha  occ. eigenvalues --  -15.50449 -11.27775 -11.24300 -11.24296 -11.22850
 Alpha  occ. eigenvalues --  -11.22844 -11.21654 -11.21636 -11.21134  -1.22046
 Alpha  occ. eigenvalues --   -1.13531  -1.05337  -1.00351  -0.93595  -0.92947
 Alpha  occ. eigenvalues --   -0.81950  -0.79893  -0.71569  -0.69690  -0.66582
 Alpha  occ. eigenvalues --   -0.63405  -0.58642  -0.58261  -0.57040  -0.56722
 Alpha  occ. eigenvalues --   -0.55465  -0.54199  -0.52844  -0.50423  -0.48665
 Alpha  occ. eigenvalues --   -0.44931  -0.32701  -0.30337
 Alpha virt. eigenvalues --    0.03091   0.03651   0.03947   0.04851   0.04951
 Alpha virt. eigenvalues --    0.05012   0.05955   0.07313   0.07923   0.09262
 Alpha virt. eigenvalues --    0.09922   0.10554   0.11529   0.11964   0.12973

 Mulliken charges:
               1
     1  C   -0.828853
     2  C    0.318853
     3  C    0.495802
     4  C    0.321351
     5  C   -0.823688
     6  C    0.731236
     7  C   -1.890694
     8  C    0.745021
     9  N    0.731046
    10  H    0.287340
    11  H    0.124462
    12  H    0.130795
    13  H   -0.324909
    14  H    0.112539
    15  H    0.288242
    16  H    0.140367
    17  H   -0.301657
    18  H   -0.304698
    19  H    0.017398
    20  H    0.030046
 Sum of Mulliken charges =  -0.00000

 Dipole moment (field-independent basis, Debye):
    X=             -0.0063    Y=              0.4998    Z=              0.9882  Tot=              1.1074

 Test job not archived.
 1\1\GINC-SE206\SP\RHF\Aug-CC-pVDZ\C8H11N1\OHZDE\05-Apr-2025\0\\#t hf a
 ug-cc-pvdz iop(5/13=1,5/36=2,99/5=2) pseudo=read geom=check guess=(rea
 d,tcheck) scf=(maxcycle=1)\\title\\0,1\C,0,2.517544,-1.43663,-0.005275
 \C,0,1.21217,-0.683611,0.014104\C,0,-0.002777,-1.367699,0.003328\C,0,-
 1.215431,-0.678269,-0.013052\C,0,-2.523027,-1.427228,0.01334\C,0,-1.20
 2251,0.712541,-0.023179\C,0,0.003078,1.420199,-0.008027\C,0,1.204894,0
 .707957,0.012682\N,0,0.006024,2.814868,-0.071872\H,0,2.865912,-1.58633
 9,-1.030476\H,0,2.415107,-2.420997,0.45101\H,0,3.299264,-0.894762,0.52

 Normal termination of Gaussian 16 at Sat Apr  5 22:45:08 2025.
