 Gaussian 16, Revision C.01,

 ----------------------------------------------------------------------
 #t hf aug-cc-pvdz symm=none int=(grid=ultrafine) guess=(read,tcheck) s
 table=(opt,rrhf)
 ----------------------------------------------------------------------
 -----
 title
 -----
 Symbolic Z-matrix:
 Charge =  0 Multiplicity = 1

 SCF Done:  E(RHF) =  -536.179497216     A.U. after   16 cycles
 Normal termination of Gaussian 16 at Sat Apr  5 22:43:52 2025.
 Gaussian 16:  ES64L-G16RevC.01  3-Jul-2019

 ----------------------------------------------------------------------
 #t hf aug-cc-pvdz iop(5/13=1,5/36=2,99/5=2) pseudo=read geom=check gue
 ss=(read,tcheck) scf=(maxcycle=1)
 ----------------------------------------------------------------------
 -----
 title
 -----
 Structure from the checkpoint file:  "3-5-difluoro-2-pyridinecarbonitrile.chk"
 Charge =  0 Multiplicity = 1

                         Standard orientation:
 ---------------------------------------------------------------------
 Center     Atomic      Atomic             Coordinates (Angstroms)
 Number     Number       Type             X           Y           Z
 ---------------------------------------------------------------------
      1          9           0       -1.107399    1.972598   -0.000008
      2          9           0        3.142849   -0.010796    0.000001
      3          7           0       -0.115794   -1.478474    0.000005
      4          7           0       -3.450688   -0.659364    0.000001
      5          6           0       -0.881069   -0.381590    0.000001
      6          6           0       -0.318666    0.896498   -0.000003
      7          6           0        1.807176   -0.095422    0.000001
      8          6           0        1.053220    1.060726   -0.000003
      9          6           0        1.201271   -1.347746    0.000005
     10          6           0       -2.305482   -0.546687    0.000001
     11          1           0        1.504868    2.041454   -0.000006
     12          1           0        1.802744   -2.247483    0.000009
 ---------------------------------------------------------------------

 SCF Done:  E(RHF) =  -536.688503993     A.U. after    2 cycles

 The electronic state is 1-A.
 Alpha  occ. eigenvalues --  -26.52683 -26.52535 -15.57185 -15.53455 -11.39928
 Alpha  occ. eigenvalues --  -11.39346 -11.35314 -11.32640 -11.31426 -11.29833
 Alpha  occ. eigenvalues --   -1.66117  -1.65797  -1.32750  -1.25011  -1.15338
 Alpha  occ. eigenvalues --   -1.10803  -0.96935  -0.94406  -0.83595  -0.82074
 Alpha  occ. eigenvalues --   -0.80594  -0.74178  -0.73265  -0.71725  -0.70181
 Alpha  occ. eigenvalues --   -0.67930  -0.65923  -0.62788  -0.62009  -0.61166
 Alpha  occ. eigenvalues --   -0.53525  -0.52727  -0.51773  -0.45237  -0.39555
 Alpha virt. eigenvalues --    0.02067   0.02730   0.03362   0.06046   0.06435
 Alpha virt. eigenvalues --    0.07764   0.08433   0.08693   0.09383   0.10758
 Alpha virt. eigenvalues --    0.11990   0.12716   0.12985   0.13194   0.13665

 Mulliken charges:
               1
     1  F   -1.000556
     2  F   -0.943493
     3  N    1.184967
     4  N    1.070233
     5  C   -0.161606
     6  C    1.580609
     7  C    1.386820
     8  C    0.007596
     9  C   -0.574135
    10  C   -2.323977
    11  H   -0.094277
    12  H   -0.132181
 Sum of Mulliken charges =  -0.00000

 Dipole moment (field-independent basis, Debye):
    X=              5.6154    Y=              1.8009    Z=             -0.0000  Tot=              5.8971

 Test job not archived.
 1\1\GINC-SE158\SP\RHF\Aug-CC-pVDZ\C6H2F2N2\OHZDE\05-Apr-2025\0\\#t hf
 aug-cc-pvdz iop(5/13=1,5/36=2,99/5=2) pseudo=read geom=check guess=(re
 ad,tcheck) scf=(maxcycle=1)\\title\\0,1\F,0,-1.107399,1.972598,-0.0000
 08\F,0,3.142849,-0.010796,0.000001\N,0,-0.115794,-1.478474,0.000005\N,
 0,-3.450688,-0.659364,0.000001\C,0,-0.881069,-0.38159,0.000001\C,0,-0.
 318666,0.896498,-0.000003\C,0,1.807176,-0.095422,0.000001\C,0,1.05322,
 1.060726,-0.000003\C,0,1.201271,-1.347746,0.000005\C,0,-2.305482,-0.54
 6687,0.000001\H,0,1.504868,2.041454,-0.000006\H,0,1.802744,-2.247483,0

 Normal termination of Gaussian 16 at Sat Apr  5 22:44:46 2025.
