 Gaussian 16, Revision C.01,

 ----------------------------------------------------------------------
 #t hf aug-cc-pvdz symm=none int=(grid=ultrafine) guess=(read,tcheck) s
 table=(opt,rrhf)
 ----------------------------------------------------------------------
 -----
 title
 -----
 Symbolic Z-matrix:
 Charge =  0 Multiplicity = 1

 SCF Done:  E(RHF) =  -324.806105066     A.U. after   14 cycles
 Normal termination of Gaussian 16 at Sat Apr  5 22:45:53 2025.
 Gaussian 16:  ES64L-G16RevC.01  3-Jul-2019

 ----------------------------------------------------------------------
 #t hf aug-cc-pvdz iop(5/13=1,5/36=2,99/5=2) pseudo=read geom=check gue
 ss=(read,tcheck) scf=(maxcycle=1)
 ----------------------------------------------------------------------
 -----
 title
 -----
 Structure from the checkpoint file:  "3-5-dimethylpyridine.chk"
 Charge =  0 Multiplicity = 1

                         Standard orientation:
 ---------------------------------------------------------------------
 Center     Atomic      Atomic             Coordinates (Angstroms)
 Number     Number       Type             X           Y           Z
 ---------------------------------------------------------------------
      1          6           0       -0.000000   -0.000000   -0.952610
      2          6           0        0.000001    1.139799    1.130184
      3          6           0       -0.000001   -1.139799    1.130184
      4          6           0       -0.000000    1.209041   -0.263066
      5          6           0       -0.000000   -1.209041   -0.263066
      6          6           0       -0.000008    2.530903   -0.981213
      7          6           0        0.000008   -2.530903   -0.981213
      8          7           0        0.000000    0.000000    1.817942
      9          1           0       -0.000000   -0.000000   -2.037504
     10          1           0        0.000003    2.053289    1.716116
     11          1           0       -0.000003   -2.053289    1.716116
     12          1           0        0.000077    3.361966   -0.277021
     13          1           0        0.878860    2.634607   -1.620442
     14          1           0       -0.878973    2.634672   -1.620300
     15          1           0        0.878973   -2.634672   -1.620300
     16          1           0       -0.000077   -3.361966   -0.277021
     17          1           0       -0.878860   -2.634607   -1.620442
 ---------------------------------------------------------------------

 SCF Done:  E(RHF) =  -325.146898880     A.U. after    2 cycles

 The electronic state is 1-A.
 Alpha  occ. eigenvalues --  -15.49860 -11.26645 -11.26644 -11.25155 -11.24953
 Alpha  occ. eigenvalues --  -11.24932 -11.24035 -11.24033  -1.25405  -1.10626
 Alpha  occ. eigenvalues --   -1.07117  -0.95693  -0.95639  -0.85973  -0.82336
 Alpha  occ. eigenvalues --   -0.71567  -0.70437  -0.61407  -0.60159  -0.58480
 Alpha  occ. eigenvalues --   -0.58419  -0.58275  -0.56637  -0.55389  -0.53465
 Alpha  occ. eigenvalues --   -0.51481  -0.44128  -0.38666  -0.33869
 Alpha virt. eigenvalues --    0.03304   0.03440   0.03965   0.04258   0.05164
 Alpha virt. eigenvalues --    0.05383   0.06293   0.07940   0.08013   0.08390
 Alpha virt. eigenvalues --    0.09925   0.11335   0.11986   0.12638   0.13330

 Mulliken charges:
               1
     1  C   -0.215626
     2  C   -0.910126
     3  C   -0.910126
     4  C    1.011796
     5  C    1.011796
     6  C   -0.727873
     7  C   -0.727873
     8  N    0.989620
     9  H   -0.284715
    10  H   -0.215822
    11  H   -0.215822
    12  H    0.092739
    13  H    0.252308
    14  H    0.252339
    15  H    0.252339
    16  H    0.092739
    17  H    0.252308
 Sum of Mulliken charges =   0.00000

 Dipole moment (field-independent basis, Debye):
    X=              0.0000    Y=              0.0000    Z=             -3.1227  Tot=              3.1227

 Test job not archived.
 1\1\GINC-SE052\SP\RHF\Aug-CC-pVDZ\C7H9N1\OHZDE\05-Apr-2025\0\\#t hf au
 g-cc-pvdz iop(5/13=1,5/36=2,99/5=2) pseudo=read geom=check guess=(read
 ,tcheck) scf=(maxcycle=1)\\title\\0,1\C,0,0.,0.,-0.95261\C,0,0.000001,
 1.139799,1.130184\C,0,-0.000001,-1.139799,1.130184\C,0,0.,1.209041,-0.
 263066\C,0,0.,-1.209041,-0.263066\C,0,-0.000008,2.530903,-0.981213\C,0
 ,0.000008,-2.530903,-0.981213\N,0,0.,0.,1.817942\H,0,0.,0.,-2.037504\H
 ,0,0.000003,2.053289,1.716116\H,0,-0.000003,-2.053289,1.716116\H,0,0.0
 00077,3.361966,-0.277021\H,0,0.87886,2.634607,-1.620442\H,0,-0.878973,

 Normal termination of Gaussian 16 at Sat Apr  5 22:47:06 2025.
