 Gaussian 16, Revision C.01,

 ----------------------------------------------------------------------
 #t hf aug-cc-pvdz symm=none int=(grid=ultrafine) guess=(read,tcheck) s
 table=(opt,rrhf)
 ----------------------------------------------------------------------
 -----
 title
 -----
 Symbolic Z-matrix:
 Charge =  0 Multiplicity = 1

 SCF Done:  E(RHF) =  -383.684003248     A.U. after   15 cycles

 1\1\GINC-SE053\Stability\RHF\Aug-CC-pVDZ\C8H10O1\OHZDE\05-Apr-2025\0\\
 #t hf aug-cc-pvdz symm=none int=(grid=ultrafine) guess=(read,tcheck) s
 table=(opt,rrhf)\\title\\0,1\C,0,0.135051,-1.341137,-0.005889\C,0,-1.2
 64169,0.607942,0.005249\C,0,1.13957,0.84094,-0.006939\C,0,-1.138604,-0
 .78321,0.00133\C,0,1.282088,-0.540466,-0.008323\C,0,-0.131706,1.410882
 ,0.000566\C,0,-2.369752,-1.651925,0.000466\C,0,2.650233,-1.171347,0.00
 6646\O,0,-0.202773,2.77877,0.000841\H,0,0.240904,-2.419111,-0.011504\H
 ,0,-2.248573,1.063933,0.008732\H,0,2.003339,1.491882,-0.01272\H,0,-2.9

 Normal termination of Gaussian 16 at Sat Apr  5 22:45:07 2025.
 Gaussian 16:  ES64L-G16RevC.01  3-Jul-2019

 ----------------------------------------------------------------------
 #t hf aug-cc-pvdz iop(5/13=1,5/36=2,99/5=2) pseudo=read geom=check gue
 ss=(read,tcheck) scf=(maxcycle=1)
 ----------------------------------------------------------------------
 -----
 title
 -----
 Structure from the checkpoint file:  "3-5-dimethylphenol.chk"
 Charge =  0 Multiplicity = 1

                         Standard orientation:
 ---------------------------------------------------------------------
 Center     Atomic      Atomic             Coordinates (Angstroms)
 Number     Number       Type             X           Y           Z
 ---------------------------------------------------------------------
      1          6           0        0.135051   -1.341137   -0.005889
      2          6           0       -1.264169    0.607941    0.005249
      3          6           0        1.139570    0.840940   -0.006939
      4          6           0       -1.138604   -0.783210    0.001330
      5          6           0        1.282088   -0.540466   -0.008323
      6          6           0       -0.131706    1.410882    0.000566
      7          6           0       -2.369751   -1.651926    0.000466
      8          6           0        2.650233   -1.171346    0.006646
      9          8           0       -0.202774    2.778770    0.000841
     10          1           0        0.240905   -2.419111   -0.011504
     11          1           0       -2.248573    1.063932    0.008732
     12          1           0        2.003339    1.491882   -0.012720
     13          1           0       -2.995986   -1.450771    0.871977
     14          1           0       -2.981562   -1.469037   -0.885355
     15          1           0       -2.107932   -2.708819    0.013301
     16          1           0        3.426357   -0.446249   -0.234263
     17          1           0        2.878025   -1.585951    0.991583
     18          1           0        2.715993   -1.990402   -0.710787
     19          1           0       -1.124646    3.054300    0.003665
 ---------------------------------------------------------------------

 SCF Done:  E(RHF) =  -384.084208568     A.U. after    2 cycles

 The electronic state is 1-A.
 Alpha  occ. eigenvalues --  -20.57661 -11.30502 -11.25121 -11.24938 -11.23484
 Alpha  occ. eigenvalues --  -11.23212 -11.22766 -11.22286 -11.22068  -1.48867
 Alpha  occ. eigenvalues --   -1.15618  -1.06053  -1.02287  -0.94322  -0.93868
 Alpha  occ. eigenvalues --   -0.82925  -0.80254  -0.71902  -0.68981  -0.66299
 Alpha  occ. eigenvalues --   -0.59707  -0.59564  -0.58049  -0.57713  -0.57563
 Alpha  occ. eigenvalues --   -0.57067  -0.55995  -0.52772  -0.51015  -0.49254
 Alpha  occ. eigenvalues --   -0.46430  -0.33366  -0.31609
 Alpha virt. eigenvalues --    0.03164   0.03644   0.03821   0.04879   0.04938
 Alpha virt. eigenvalues --    0.05324   0.05903   0.07363   0.08187   0.09869
 Alpha virt. eigenvalues --    0.10190   0.11275   0.11753   0.12497   0.13214

 Mulliken charges:
               1
     1  C    0.529409
     2  C    0.103774
     3  C    0.418620
     4  C    0.069117
     5  C    0.466477
     6  C    1.217680
     7  C   -0.749710
     8  C   -0.825549
     9  O   -1.788498
    10  H   -0.303528
    11  H   -0.348848
    12  H   -0.267880
    13  H    0.257232
    14  H    0.265980
    15  H    0.038099
    16  H    0.059052
    17  H    0.275348
    18  H    0.190050
    19  H    0.393175
 Sum of Mulliken charges =  -0.00000

 Dipole moment (field-independent basis, Debye):
    X=             -1.2489    Y=             -0.7192    Z=              0.0249  Tot=              1.4414

 Test job not archived.
 1\1\GINC-SE053\SP\RHF\Aug-CC-pVDZ\C8H10O1\OHZDE\05-Apr-2025\0\\#t hf a
 ug-cc-pvdz iop(5/13=1,5/36=2,99/5=2) pseudo=read geom=check guess=(rea
 d,tcheck) scf=(maxcycle=1)\\title\\0,1\C,0,0.135051,-1.341137,-0.00588
 9\C,0,-1.264169,0.607942,0.005249\C,0,1.13957,0.84094,-0.006939\C,0,-1
 .138604,-0.78321,0.00133\C,0,1.282088,-0.540466,-0.008323\C,0,-0.13170
 6,1.410882,0.000566\C,0,-2.369752,-1.651925,0.000466\C,0,2.650233,-1.1
 71347,0.006646\O,0,-0.202773,2.77877,0.000841\H,0,0.240904,-2.419111,-
 0.011504\H,0,-2.248573,1.063933,0.008732\H,0,2.003339,1.491882,-0.0127

 Normal termination of Gaussian 16 at Sat Apr  5 22:45:43 2025.
