 Gaussian 16, Revision C.01,

 ----------------------------------------------------------------------
 #t hf aug-cc-pvdz symm=none int=(grid=ultrafine) guess=(read,tcheck) s
 table=(opt,rrhf)
 ----------------------------------------------------------------------
 -----
 title
 -----
 Symbolic Z-matrix:
 Charge =  0 Multiplicity = 1

 SCF Done:  E(RHF) =  -1203.61535533     A.U. after   15 cycles
 Normal termination of Gaussian 16 at Sat Apr  5 22:44:19 2025.
 Gaussian 16:  ES64L-G16RevC.01  3-Jul-2019

 ----------------------------------------------------------------------
 #t hf aug-cc-pvdz iop(5/13=1,5/36=2,99/5=2) pseudo=read geom=check gue
 ss=(read,tcheck) scf=(maxcycle=1)
 ----------------------------------------------------------------------
 -----
 title
 -----
 Structure from the checkpoint file:  "3-5-dichloroaniline.chk"
 Charge =  0 Multiplicity = 1

                         Standard orientation:
 ---------------------------------------------------------------------
 Center     Atomic      Atomic             Coordinates (Angstroms)
 Number     Number       Type             X           Y           Z
 ---------------------------------------------------------------------
      1          6           0       -0.002879    1.733711    0.000000
      2          6           0       -0.000835    1.024148    1.207301
      3          6           0        0.003546   -0.359322    1.183235
      4          6           0        0.006022   -1.085093   -0.000000
      5          6           0        0.003546   -0.359322   -1.183235
      6          6           0       -0.000835    1.024148   -1.207301
      7          7           0        0.050317    3.119086    0.000000
      8          1           0        0.002441    1.548698    2.151914
      9         17           0        0.003546   -1.229071    2.704581
     10          1           0        0.008856   -2.162499   -0.000000
     11         17           0        0.003546   -1.229071   -2.704581
     12          1           0        0.002441    1.548698   -2.151914
     13          1           0       -0.268948    3.575143   -0.838380
     14          1           0       -0.268948    3.575143    0.838380
 ---------------------------------------------------------------------

 SCF Done:  E(RHF) =  -1204.05763196     A.U. after    2 cycles

 The electronic state is 1-A'.
 Alpha  occ. eigenvalues -- -105.57871-105.57871 -15.52978 -11.32566 -11.32562
 Alpha  occ. eigenvalues --  -11.31401 -11.25525 -11.25524 -11.25517 -10.62672
 Alpha  occ. eigenvalues --  -10.62672  -7.79639  -7.79639  -7.79237  -7.79235
 Alpha  occ. eigenvalues --   -7.79221  -7.79221  -1.25344  -1.19056  -1.13122
 Alpha  occ. eigenvalues --   -1.06829  -1.00763  -0.99505  -0.86060  -0.84041
 Alpha  occ. eigenvalues --   -0.75058  -0.73249  -0.70208  -0.66297  -0.62191
 Alpha  occ. eigenvalues --   -0.60946  -0.59533  -0.56580  -0.53892  -0.53513
 Alpha  occ. eigenvalues --   -0.51840  -0.47850  -0.46679  -0.44904  -0.35639
 Alpha  occ. eigenvalues --   -0.33513
 Alpha virt. eigenvalues --    0.02409   0.04146   0.04910   0.05478   0.06921
 Alpha virt. eigenvalues --    0.07986   0.09091   0.09625   0.09787   0.09863
 Alpha virt. eigenvalues --    0.10783   0.11660   0.13004   0.14206   0.14735

 Mulliken charges:
               1
     1  C   -1.157999
     2  C    0.606065
     3  C    0.027623
     4  C    0.325134
     5  C    0.027623
     6  C    0.606065
     7  N    0.765821
     8  H   -0.215378
     9  Cl  -0.331585
    10  H   -0.145402
    11  Cl  -0.331585
    12  H   -0.215378
    13  H    0.019499
    14  H    0.019499
 Sum of Mulliken charges =  -0.00000

 Dipole moment (field-independent basis, Debye):
    X=             -0.9518    Y=              3.0404    Z=              0.0000  Tot=              3.1859

 Test job not archived.
 1\1\GINC-SE179\SP\RHF\Aug-CC-pVDZ\C6H5Cl2N1\OHZDE\05-Apr-2025\0\\#t hf
  aug-cc-pvdz iop(5/13=1,5/36=2,99/5=2) pseudo=read geom=check guess=(r
 ead,tcheck) scf=(maxcycle=1)\\title\\0,1\C,0,-0.002611,-1.733711,0.\C,
 0,-0.002408,-1.024146,1.207301\C,0,-0.002408,0.359331,1.183235\C,0,-0.
 002586,1.085107,0.\C,0,-0.002408,0.359331,-1.183235\C,0,-0.002408,-1.0
 24146,-1.207301\N,0,-0.060193,-3.118911,0.\H,0,-0.007345,-1.548683,2.1
 51914\Cl,0,0.000346,1.229076,2.704581\H,0,-0.002009,2.162516,0.\Cl,0,0
 .000346,1.229076,-2.704581\H,0,-0.007345,-1.548683,-2.151914\H,0,0.257

 Normal termination of Gaussian 16 at Sat Apr  5 22:44:44 2025.
