 Gaussian 16, Revision C.01,

 ----------------------------------------------------------------------
 #t hf aug-cc-pvdz symm=none int=(grid=ultrafine) guess=(read,tcheck) s
 table=(opt,rrhf)
 ----------------------------------------------------------------------
 -----
 title
 -----
 Symbolic Z-matrix:
 Charge =  0 Multiplicity = 1

 SCF Done:  E(RHF) =  -1056.53129289     A.U. after   15 cycles
 Normal termination of Gaussian 16 at Sat Apr  5 22:44:06 2025.
 Gaussian 16:  ES64L-G16RevC.01  3-Jul-2019

 ----------------------------------------------------------------------
 #t hf aug-cc-pvdz iop(5/13=1,5/36=2,99/5=2) pseudo=read geom=check gue
 ss=(read,tcheck) scf=(maxcycle=1)
 ----------------------------------------------------------------------
 -----
 title
 -----
 Structure from the checkpoint file:  "3-7lambda4-dithia-6-8-diazabicyclo3-3-0octa-1-4-6-7-tetraene.chk"
 Charge =  0 Multiplicity = 1

                         Standard orientation:
 ---------------------------------------------------------------------
 Center     Atomic      Atomic             Coordinates (Angstroms)
 Number     Number       Type             X           Y           Z
 ---------------------------------------------------------------------
      1         16           0        0.000000   -0.000000    2.365328
      2         16           0        0.000000    0.000000   -2.307684
      3          7           0        0.000000    1.264006   -1.291328
      4          7           0       -0.000000   -1.264006   -1.291328
      5          6           0        0.000000    0.729665   -0.053183
      6          6           0       -0.000000   -0.729665   -0.053183
      7          6           0        0.000000    1.267958    1.226307
      8          6           0       -0.000000   -1.267958    1.226307
      9          1           0        0.000000    2.296156    1.539395
     10          1           0       -0.000000   -2.296156    1.539395
 ---------------------------------------------------------------------

 SCF Done:  E(RHF) =  -1056.90458346     A.U. after    2 cycles

 The electronic state is 1-A1.
 Alpha  occ. eigenvalues --  -94.07459 -94.02401 -15.55608 -15.55517 -11.29896
 Alpha  occ. eigenvalues --  -11.29833 -11.28802 -11.28754  -8.34803  -8.30370
 Alpha  occ. eigenvalues --   -6.32505  -6.32333  -6.32241  -6.28115  -6.28025
 Alpha  occ. eigenvalues --   -6.27881  -1.36024  -1.20588  -1.20281  -1.04631
 Alpha  occ. eigenvalues --   -1.00003  -0.89089  -0.81443  -0.80536  -0.69811
 Alpha  occ. eigenvalues --   -0.66774  -0.64531  -0.58873  -0.58369  -0.52765
 Alpha  occ. eigenvalues --   -0.52246  -0.52228  -0.50185  -0.48931  -0.36297
 Alpha  occ. eigenvalues --   -0.31693
 Alpha virt. eigenvalues --   -0.02340   0.03807   0.03816   0.06431   0.07379
 Alpha virt. eigenvalues --    0.08001   0.09253   0.09935   0.10445   0.10900
 Alpha virt. eigenvalues --    0.12227   0.12874   0.12988   0.13839   0.15258

 Mulliken charges:
               1
     1  S    1.110305
     2  S    0.746519
     3  N    0.341037
     4  N    0.341037
     5  C   -0.969054
     6  C   -0.969054
     7  C   -0.172265
     8  C   -0.172265
     9  H   -0.128130
    10  H   -0.128130
 Sum of Mulliken charges =  -0.00000

 Dipole moment (field-independent basis, Debye):
    X=              0.0000    Y=              0.0000    Z=              1.5709  Tot=              1.5709

 Test job not archived.
 1\1\GINC-SE173\SP\RHF\Aug-CC-pVDZ\C4H2N2S2\OHZDE\05-Apr-2025\0\\#t hf
 aug-cc-pvdz iop(5/13=1,5/36=2,99/5=2) pseudo=read geom=check guess=(re
 ad,tcheck) scf=(maxcycle=1)\\title\\0,1\S,0,0.,0.,2.365328\S,0,0.,0.,-
 2.307684\N,0,0.,1.264006,-1.291328\N,0,0.,-1.264006,-1.291328\C,0,0.,0
 .729665,-0.053183\C,0,0.,-0.729665,-0.053183\C,0,0.,1.267958,1.226307\
 C,0,0.,-1.267958,1.226307\H,0,0.,2.296156,1.539395\H,0,0.,-2.296156,1.
 539395\\Version=ES64L-G16RevC.01\State=1-A1\HF=-1056.9045835\RMSD=4.47
 8e-02\Dipole=0.,0.,0.6180225\Quadrupole=-2.9190206,-1.1455431,4.064563

 Normal termination of Gaussian 16 at Sat Apr  5 22:44:43 2025.
