 Gaussian 16, Revision C.01,

 ----------------------------------------------------------------------
 #t hf aug-cc-pvdz symm=none int=(grid=ultrafine) guess=(read,tcheck) s
 table=(opt,rrhf)
 ----------------------------------------------------------------------
 -----
 title
 -----
 Symbolic Z-matrix:
 Charge =  0 Multiplicity = 1

 SCF Done:  E(RHF) =  -319.513714952     A.U. after   15 cycles
 Normal termination of Gaussian 16 at Sat Apr  5 22:45:00 2025.
 Gaussian 16:  ES64L-G16RevC.01  3-Jul-2019

 ----------------------------------------------------------------------
 #t hf aug-cc-pvdz iop(5/13=1,5/36=2,99/5=2) pseudo=read geom=check gue
 ss=(read,tcheck) scf=(maxcycle=1)
 ----------------------------------------------------------------------
 -----
 title
 -----
 Structure from the checkpoint file:  "3-amino-2-propynoic_acid.chk"
 Charge =  0 Multiplicity = 1

                         Standard orientation:
 ---------------------------------------------------------------------
 Center     Atomic      Atomic             Coordinates (Angstroms)
 Number     Number       Type             X           Y           Z
 ---------------------------------------------------------------------
      1          8           0        1.772604   -1.164175    0.005094
      2          8           0        1.810770    1.063763    0.003743
      3          7           0       -2.805856    0.007250   -0.044985
      4          6           0        1.155229   -0.132919    0.000440
      5          6           0       -0.273472   -0.038262   -0.008028
      6          6           0       -1.481370   -0.002709   -0.003032
      7          1           0        1.173225    1.788219   -0.008235
      8          1           0       -3.302718   -0.848895    0.140583
      9          1           0       -3.298834    0.856562    0.175579
 ---------------------------------------------------------------------

 SCF Done:  E(RHF) =  -319.830414281     A.U. after    2 cycles

 The electronic state is 1-A.
 Alpha  occ. eigenvalues --  -20.60077 -20.53174 -15.57300 -11.41265 -11.32220
 Alpha  occ. eigenvalues --  -11.25596  -1.54007  -1.45155  -1.27396  -1.06224
 Alpha  occ. eigenvalues --   -0.91094  -0.82893  -0.79553  -0.78669  -0.66237
 Alpha  occ. eigenvalues --   -0.63406  -0.59773  -0.59155  -0.47852  -0.46490
 Alpha  occ. eigenvalues --   -0.43134  -0.39188
 Alpha virt. eigenvalues --    0.01213   0.03969   0.04956   0.08911   0.09352
 Alpha virt. eigenvalues --    0.10546   0.11508   0.11572   0.12743   0.13479
 Alpha virt. eigenvalues --    0.14049   0.14928   0.16123   0.17614   0.18835

 Mulliken charges:
               1
     1  O   -1.173963
     2  O   -1.210127
     3  N    1.054833
     4  C    2.091370
     5  C    1.156345
     6  C   -2.593183
     7  H    0.433022
     8  H    0.127960
     9  H    0.113742
 Sum of Mulliken charges =  -0.00000

 Dipole moment (field-independent basis, Debye):
    X=             -6.0573    Y=              2.8215    Z=              0.6378  Tot=              6.7126

 Test job not archived.
 1\1\GINC-SE194\SP\RHF\Aug-CC-pVDZ\C3H3N1O2\OHZDE\05-Apr-2025\0\\#t hf
 aug-cc-pvdz iop(5/13=1,5/36=2,99/5=2) pseudo=read geom=check guess=(re
 ad,tcheck) scf=(maxcycle=1)\\title\\0,1\O,0,1.772604,-1.164175,0.00509
 4\O,0,1.81077,1.063763,0.003743\N,0,-2.805856,0.00725,-0.044985\C,0,1.
 155229,-0.132919,0.00044\C,0,-0.273472,-0.038262,-0.008028\C,0,-1.4813
 7,-0.002709,-0.003032\H,0,1.173225,1.788219,-0.008235\H,0,-3.302718,-0
 .848895,0.140583\H,0,-3.298834,0.856562,0.175579\\Version=ES64L-G16Rev
 C.01\State=1-A\HF=-319.8304143\RMSD=4.016e-02\Dipole=-2.3831435,1.1100

 Normal termination of Gaussian 16 at Sat Apr  5 22:45:36 2025.
