 Gaussian 16, Revision C.01,

 ----------------------------------------------------------------------
 #t hf aug-cc-pvdz symm=none int=(grid=ultrafine) guess=(read,tcheck) s
 table=(opt,rrhf)
 ----------------------------------------------------------------------
 -----
 title
 -----
 Symbolic Z-matrix:
 Charge =  0 Multiplicity = 1

 SCF Done:  E(RHF) =  -226.017144338     A.U. after   14 cycles
 Normal termination of Gaussian 16 at Sat Apr  5 22:45:01 2025.
 Gaussian 16:  ES64L-G16RevC.01  3-Jul-2019

 ----------------------------------------------------------------------
 #t hf aug-cc-pvdz iop(5/13=1,5/36=2,99/5=2) pseudo=read geom=check gue
 ss=(read,tcheck) scf=(maxcycle=1)
 ----------------------------------------------------------------------
 -----
 title
 -----
 Structure from the checkpoint file:  "3-aminopropionitrile.chk"
 Charge =  0 Multiplicity = 1

                         Standard orientation:
 ---------------------------------------------------------------------
 Center     Atomic      Atomic             Coordinates (Angstroms)
 Number     Number       Type             X           Y           Z
 ---------------------------------------------------------------------
      1          1           0        2.562959   -0.097562    0.819589
      2          1           0        2.562959   -0.097562   -0.819589
      3          7           0        2.216312   -0.578879    0.000000
      4          1           0        0.469894   -1.278430    0.874317
      5          1           0        0.469894   -1.278430   -0.874317
      6          6           0        0.770226   -0.700586    0.000000
      7          1           0        0.275992    1.231576    0.878759
      8          1           0        0.275992    1.231576   -0.878759
      9          6           0        0.000000    0.644465    0.000000
     10          7           0       -2.581961    0.274773    0.000000
     11          6           0       -1.446584    0.459050    0.000000
 ---------------------------------------------------------------------

 SCF Done:  E(RHF) =  -226.252297536     A.U. after    2 cycles

 The electronic state is 1-A'.
 Alpha  occ. eigenvalues --  -15.51278 -15.50722 -11.29228 -11.29035 -11.28190
 Alpha  occ. eigenvalues --   -1.23731  -1.20690  -1.06231  -0.89886  -0.73351
 Alpha  occ. eigenvalues --   -0.71915  -0.65754  -0.64920  -0.60739  -0.58511
 Alpha  occ. eigenvalues --   -0.54430  -0.50832  -0.49260  -0.44649
 Alpha virt. eigenvalues --    0.02464   0.04090   0.04477   0.04975   0.06019
 Alpha virt. eigenvalues --    0.07331   0.08755   0.10090   0.12174   0.12663
 Alpha virt. eigenvalues --    0.13559   0.14495   0.15626   0.15868   0.16770

 Mulliken charges:
               1
     1  H    0.163623
     2  H    0.163623
     3  N    0.254691
     4  H    0.117522
     5  H    0.117522
     6  C   -0.861037
     7  H    0.227818
     8  H    0.227818
     9  C    0.219051
    10  N    0.883377
    11  C   -1.514007
 Sum of Mulliken charges =  -0.00000

 Dipole moment (field-independent basis, Debye):
    X=              4.4094    Y=              1.6404    Z=              0.0000  Tot=              4.7047

 Test job not archived.
 1\1\GINC-SE176\SP\RHF\Aug-CC-pVDZ\C3H6N2\OHZDE\05-Apr-2025\0\\#t hf au
 g-cc-pvdz iop(5/13=1,5/36=2,99/5=2) pseudo=read geom=check guess=(read
 ,tcheck) scf=(maxcycle=1)\\title\\0,1\H,0,2.562959,-0.097562,0.819589\
 H,0,2.562959,-0.097562,-0.819589\N,0,2.216312,-0.578879,0.\H,0,0.46989
 4,-1.27843,0.874317\H,0,0.469894,-1.27843,-0.874317\C,0,0.770226,-0.70
 0586,0.\H,0,0.275992,1.231576,0.878759\H,0,0.275992,1.231576,-0.878759
 \C,0,0.,0.644465,0.\N,0,-2.581961,0.274773,0.\C,0,-1.446584,0.45905,0.
 \\Version=ES64L-G16RevC.01\State=1-A'\HF=-226.2522975\RMSD=2.016e-02\D

 Normal termination of Gaussian 16 at Sat Apr  5 22:45:36 2025.
