 Gaussian 16, Revision C.01,

 ----------------------------------------------------------------------
 #t hf aug-cc-pvdz symm=none int=(grid=ultrafine) guess=(read,tcheck) s
 table=(opt,rrhf)
 ----------------------------------------------------------------------
 -----
 title
 -----
 Symbolic Z-matrix:
 Charge =  0 Multiplicity = 1

 SCF Done:  E(RHF) =  -265.060475679     A.U. after   14 cycles
 Normal termination of Gaussian 16 at Sat Apr  5 22:45:21 2025.
 Gaussian 16:  ES64L-G16RevC.01  3-Jul-2019

 ----------------------------------------------------------------------
 #t hf aug-cc-pvdz iop(5/13=1,5/36=2,99/5=2) pseudo=read geom=check gue
 ss=(read,tcheck) scf=(maxcycle=1)
 ----------------------------------------------------------------------
 -----
 title
 -----
 Structure from the checkpoint file:  "3-aminobutyronitrile.chk"
 Charge =  0 Multiplicity = 1

                         Standard orientation:
 ---------------------------------------------------------------------
 Center     Atomic      Atomic             Coordinates (Angstroms)
 Number     Number       Type             X           Y           Z
 ---------------------------------------------------------------------
      1          7           0        2.719618    0.153377   -0.188334
      2          6           0        1.682004   -0.289004    0.037142
      3          6           0        0.346430   -0.814715    0.299669
      4          6           0       -0.763293    0.051501   -0.329333
      5          6           0       -2.127718   -0.576818   -0.072382
      6          7           0       -0.717065    1.384780    0.269645
      7          1           0        0.293437   -1.831487   -0.093339
      8          1           0        0.196590   -0.861421    1.380188
      9          1           0       -0.587244    0.069181   -1.413475
     10          1           0       -2.916735    0.027258   -0.522652
     11          1           0       -2.188243   -1.576132   -0.504413
     12          1           0       -2.323569   -0.642517    0.998642
     13          1           0        0.153061    1.858327    0.055880
     14          1           0       -1.469698    1.963912   -0.080591
 ---------------------------------------------------------------------

 SCF Done:  E(RHF) =  -265.338787613     A.U. after    2 cycles

 The electronic state is 1-A.
 Alpha  occ. eigenvalues --  -15.51084 -15.49816 -11.29192 -11.28670 -11.28015
 Alpha  occ. eigenvalues --  -11.24363  -1.23728  -1.20657  -1.06761  -0.99195
 Alpha  occ. eigenvalues --   -0.83710  -0.71883  -0.71038  -0.70333  -0.61298
 Alpha  occ. eigenvalues --   -0.60582  -0.59697  -0.55634  -0.54503  -0.54257
 Alpha  occ. eigenvalues --   -0.49293  -0.48930  -0.44230
 Alpha virt. eigenvalues --    0.03095   0.03639   0.04034   0.04374   0.05855
 Alpha virt. eigenvalues --    0.06626   0.07468   0.07791   0.10393   0.11536
 Alpha virt. eigenvalues --    0.12349   0.13529   0.14669   0.14797   0.14974

 Mulliken charges:
               1
     1  N    0.976744
     2  C   -1.718743
     3  C    0.584151
     4  C   -1.780676
     5  C    0.049532
     6  N    0.500990
     7  H    0.240596
     8  H    0.247380
     9  H    0.079729
    10  H    0.112262
    11  H    0.154097
    12  H    0.234727
    13  H    0.188387
    14  H    0.130823
 Sum of Mulliken charges =  -0.00000

 Dipole moment (field-independent basis, Debye):
    X=             -4.5375    Y=             -1.4104    Z=             -0.5386  Tot=              4.7820

 Test job not archived.
 1\1\GINC-SE165\SP\RHF\Aug-CC-pVDZ\C4H8N2\OHZDE\05-Apr-2025\0\\#t hf au
 g-cc-pvdz iop(5/13=1,5/36=2,99/5=2) pseudo=read geom=check guess=(read
 ,tcheck) scf=(maxcycle=1)\\title\\0,1\N,0,2.719618,0.153377,-0.188334\
 C,0,1.682004,-0.289004,0.037142\C,0,0.34643,-0.814715,0.299669\C,0,-0.
 763293,0.051501,-0.329333\C,0,-2.127718,-0.576818,-0.072382\N,0,-0.717
 065,1.38478,0.269645\H,0,0.293437,-1.831487,-0.093339\H,0,0.19659,-0.8
 61421,1.380188\H,0,-0.587244,0.069181,-1.413475\H,0,-2.916735,0.027258
 ,-0.522652\H,0,-2.188243,-1.576132,-0.504413\H,0,-2.323569,-0.642517,0

 Normal termination of Gaussian 16 at Sat Apr  5 22:45:38 2025.
