 Gaussian 16, Revision C.01,

 ----------------------------------------------------------------------
 #t hf aug-cc-pvdz symm=none int=(grid=ultrafine) guess=(read,tcheck) s
 table=(opt,rrhf)
 ----------------------------------------------------------------------
 -----
 title
 -----
 Symbolic Z-matrix:
 Charge =  0 Multiplicity = 1

 SCF Done:  E(RHF) =  -467.513362469     A.U. after   15 cycles
 Normal termination of Gaussian 16 at Sat Apr  5 22:46:20 2025.
 Gaussian 16:  ES64L-G16RevC.01  3-Jul-2019

 ----------------------------------------------------------------------
 #t hf aug-cc-pvdz iop(5/13=1,5/36=2,99/5=2) pseudo=read geom=check gue
 ss=(read,tcheck) scf=(maxcycle=1)
 ----------------------------------------------------------------------
 -----
 title
 -----
 Structure from the checkpoint file:  "3-amino-3-cyano-2-iminopropanoic_acid.chk"
 Charge =  0 Multiplicity = 1

                         Standard orientation:
 ---------------------------------------------------------------------
 Center     Atomic      Atomic             Coordinates (Angstroms)
 Number     Number       Type             X           Y           Z
 ---------------------------------------------------------------------
      1          8           0       -1.415386    1.150290    1.034869
      2          8           0       -2.526884   -0.061738   -0.504591
      3          7           0       -0.329637   -1.734260   -0.686231
      4          7           0        2.142867   -1.152163    0.543205
      5          7           0        1.836613    1.901711   -0.939641
      6          6           0       -0.259663   -0.639128   -0.066281
      7          6           0       -1.442454    0.263798    0.223360
      8          6           0        1.089974   -0.157905    0.501868
      9          6           0        1.523271    1.007131   -0.290019
     10          1           0       -3.243142    0.541726   -0.256306
     11          1           0       -1.276668   -1.925711   -1.010760
     12          1           0        2.219932   -1.620473   -0.352294
     13          1           0        1.916260   -1.862476    1.227909
     14          1           0        0.906095    0.208124    1.514324
 ---------------------------------------------------------------------

 SCF Done:  E(RHF) =  -467.973955071     A.U. after    2 cycles

 The electronic state is 1-A.
 Alpha  occ. eigenvalues --  -20.64018 -20.58380 -15.55233 -15.52074 -15.51999
 Alpha  occ. eigenvalues --  -11.43838 -11.34553 -11.34152 -11.28622  -1.59006
 Alpha  occ. eigenvalues --   -1.49791  -1.28795  -1.24506  -1.21434  -1.03894
 Alpha  occ. eigenvalues --   -0.95295  -0.85133  -0.78985  -0.76456  -0.74861
 Alpha  occ. eigenvalues --   -0.69679  -0.69053  -0.67174  -0.64267  -0.62815
 Alpha  occ. eigenvalues --   -0.60776  -0.55902  -0.53120  -0.51144  -0.51055
 Alpha  occ. eigenvalues --   -0.50577  -0.49191  -0.46067
 Alpha virt. eigenvalues --    0.02435   0.03362   0.03684   0.04694   0.05652
 Alpha virt. eigenvalues --    0.06403   0.07945   0.09036   0.10071   0.11199
 Alpha virt. eigenvalues --    0.12361   0.12662   0.13291   0.13687   0.14671

 Mulliken charges:
               1
     1  O   -1.270645
     2  O   -1.459426
     3  N    0.941804
     4  N    0.598135
     5  N    0.984432
     6  C   -1.362037
     7  C    2.631221
     8  C   -1.130411
     9  C   -1.318944
    10  H    0.486912
    11  H    0.205222
    12  H    0.303052
    13  H    0.190177
    14  H    0.200509
 Sum of Mulliken charges =  -0.00000

 Dipole moment (field-independent basis, Debye):
    X=             -4.2639    Y=             -3.6010    Z=              1.6561  Tot=              5.8216

 Test job not archived.
 1\1\GINC-SE164\SP\RHF\Aug-CC-pVDZ\C4H5N3O2\OHZDE\05-Apr-2025\0\\#t hf
 aug-cc-pvdz iop(5/13=1,5/36=2,99/5=2) pseudo=read geom=check guess=(re
 ad,tcheck) scf=(maxcycle=1)\\title\\0,1\O,0,-1.415386,1.15029,1.034869
 \O,0,-2.526884,-0.061738,-0.504591\N,0,-0.329637,-1.73426,-0.686231\N,
 0,2.142867,-1.152163,0.543205\N,0,1.836613,1.901711,-0.939641\C,0,-0.2
 59663,-0.639128,-0.066281\C,0,-1.442454,0.263798,0.22336\C,0,1.089974,
 -0.157905,0.501868\C,0,1.523271,1.007131,-0.290019\H,0,-3.243142,0.541
 726,-0.256306\H,0,-1.276668,-1.925711,-1.01076\H,0,2.219932,-1.620473,

 Normal termination of Gaussian 16 at Sat Apr  5 22:47:07 2025.
