 Gaussian 16, Revision C.01,

 ----------------------------------------------------------------------
 #t hf aug-cc-pvdz symm=none int=(grid=ultrafine) guess=(read,tcheck) s
 table=(opt,rrhf)
 ----------------------------------------------------------------------
 -----
 title
 -----
 Symbolic Z-matrix:
 Charge =  0 Multiplicity = 1

 SCF Done:  E(RHF) =  -519.655797858     A.U. after   14 cycles
 Normal termination of Gaussian 16 at Sat Apr  5 22:45:25 2025.
 Gaussian 16:  ES64L-G16RevC.01  3-Jul-2019

 ----------------------------------------------------------------------
 #t hf aug-cc-pvdz iop(5/13=1,5/36=2,99/5=2) pseudo=read geom=check gue
 ss=(read,tcheck) scf=(maxcycle=1)
 ----------------------------------------------------------------------
 -----
 title
 -----
 Structure from the checkpoint file:  "3-amino-2-2-difluoropropanoic_acid.chk"
 Charge =  0 Multiplicity = 1

                         Standard orientation:
 ---------------------------------------------------------------------
 Center     Atomic      Atomic             Coordinates (Angstroms)
 Number     Number       Type             X           Y           Z
 ---------------------------------------------------------------------
      1          9           0        0.465018    1.425630    0.535618
      2          9           0        0.389467   -0.599318    1.371080
      3          8           0       -1.954835    0.979221   -0.552404
      4          8           0       -1.763085   -1.212817   -0.059693
      5          7           0        2.517481   -0.276918   -0.574374
      6          6           0        0.176013    0.131313    0.230920
      7          6           0       -1.311942    0.050048   -0.156467
      8          6           0        1.107414   -0.362137   -0.884322
      9          1           0       -2.687110   -1.216711   -0.352628
     10          1           0        2.799763    0.676454   -0.387399
     11          1           0        2.755145   -0.838551    0.232905
     12          1           0        0.841761   -1.396806   -1.101889
     13          1           0        0.892172    0.230650   -1.774659
 ---------------------------------------------------------------------

 SCF Done:  E(RHF) =  -520.157388207     A.U. after    2 cycles

 The electronic state is 1-A.
 Alpha  occ. eigenvalues --  -26.49453 -26.49227 -20.63093 -20.57278 -15.50780
 Alpha  occ. eigenvalues --  -11.44472 -11.42693 -11.29714  -1.66174  -1.59253
 Alpha  occ. eigenvalues --   -1.57841  -1.48784  -1.21075  -1.05482  -0.93647
 Alpha  occ. eigenvalues --   -0.85832  -0.78912  -0.76721  -0.75626  -0.73326
 Alpha  occ. eigenvalues --   -0.71843  -0.67092  -0.65817  -0.64956  -0.63575
 Alpha  occ. eigenvalues --   -0.61888  -0.60272  -0.57240  -0.56815  -0.50559
 Alpha  occ. eigenvalues --   -0.48598  -0.44793
 Alpha virt. eigenvalues --    0.03147   0.03816   0.05474   0.05797   0.07373
 Alpha virt. eigenvalues --    0.08844   0.10005   0.10782   0.11449   0.12247
 Alpha virt. eigenvalues --    0.12378   0.13909   0.14598   0.15654   0.16481

 Mulliken charges:
               1
     1  F   -0.897157
     2  F   -0.862114
     3  O   -1.235024
     4  O   -1.248214
     5  N    0.269585
     6  C    2.239513
     7  C    1.879446
     8  C   -1.166707
     9  H    0.386995
    10  H    0.179077
    11  H    0.183122
    12  H    0.141130
    13  H    0.130349
 Sum of Mulliken charges =  -0.00000

 Dipole moment (field-independent basis, Debye):
    X=             -0.3987    Y=             -1.8214    Z=             -0.5201  Tot=              1.9357

 Test job not archived.
 1\1\GINC-SE185\SP\RHF\Aug-CC-pVDZ\C3H5F2N1O2\OHZDE\05-Apr-2025\0\\#t h
 f aug-cc-pvdz iop(5/13=1,5/36=2,99/5=2) pseudo=read geom=check guess=(
 read,tcheck) scf=(maxcycle=1)\\title\\0,1\F,0,0.465018,1.42563,0.53561
 8\F,0,0.389467,-0.599318,1.37108\O,0,-1.954835,0.979221,-0.552404\O,0,
 -1.763085,-1.212817,-0.059693\N,0,2.517481,-0.276918,-0.574374\C,0,0.1
 76013,0.131313,0.23092\C,0,-1.311942,0.050048,-0.156467\C,0,1.107414,-
 0.362137,-0.884322\H,0,-2.68711,-1.216711,-0.352628\H,0,2.799763,0.676
 454,-0.387399\H,0,2.755145,-0.838551,0.232905\H,0,0.841761,-1.396806,-

 Normal termination of Gaussian 16 at Sat Apr  5 22:45:38 2025.
