 Gaussian 16, Revision C.01,

 ----------------------------------------------------------------------
 #t hf aug-cc-pvdz symm=none int=(grid=ultrafine) guess=(read,tcheck) s
 table=(opt,rrhf)
 ----------------------------------------------------------------------
 -----
 title
 -----
 Symbolic Z-matrix:
 Charge =  0 Multiplicity = 1

 SCF Done:  E(RHF) =  -506.461745590     A.U. after   16 cycles
 Normal termination of Gaussian 16 at Sat Apr  5 22:45:10 2025.
 Gaussian 16:  ES64L-G16RevC.01  3-Jul-2019

 ----------------------------------------------------------------------
 #t hf aug-cc-pvdz iop(5/13=1,5/36=2,99/5=2) pseudo=read geom=check gue
 ss=(read,tcheck) scf=(maxcycle=1)
 ----------------------------------------------------------------------
 -----
 title
 -----
 Structure from the checkpoint file:  "3-azidotetrahydropyran-4-one.chk"
 Charge =  0 Multiplicity = 1

                         Standard orientation:
 ---------------------------------------------------------------------
 Center     Atomic      Atomic             Coordinates (Angstroms)
 Number     Number       Type             X           Y           Z
 ---------------------------------------------------------------------
      1          8           0       -2.132717   -1.095340    0.252518
      2          8           0        0.610471    1.752049   -0.467087
      3          7           0        1.491407   -0.901688   -0.337217
      4          7           0        2.510476   -0.318967    0.031214
      5          7           0        3.520422    0.108687    0.290218
      6          6           0        0.232239   -0.500781    0.281776
      7          6           0       -1.595681    1.278882    0.363472
      8          6           0       -0.861691   -1.447344   -0.252856
      9          6           0       -0.161431    0.954486    0.005105
     10          6           0       -2.543735    0.195754   -0.169896
     11          1           0        0.271704   -0.619788    1.372356
     12          1           0       -1.844528    2.263920   -0.029043
     13          1           0       -1.679931    1.309068    1.453493
     14          1           0       -0.657202   -2.466746    0.065853
     15          1           0       -0.850944   -1.418392   -1.349027
     16          1           0       -3.551721    0.340673    0.213185
     17          1           0       -2.583755    0.235389   -1.265368
 ---------------------------------------------------------------------

 SCF Done:  E(RHF) =  -506.967146164     A.U. after    2 cycles

 The electronic state is 1-A.
 Alpha  occ. eigenvalues --  -20.57089 -20.55651 -15.72503 -15.61023 -15.54928
 Alpha  occ. eigenvalues --  -11.35571 -11.31265 -11.31090 -11.30870 -11.26321
 Alpha  occ. eigenvalues --   -1.51920  -1.49417  -1.48856  -1.33325  -1.10317
 Alpha  occ. eigenvalues --   -1.07453  -0.93264  -0.88689  -0.82451  -0.77559
 Alpha  occ. eigenvalues --   -0.76302  -0.74670  -0.72408  -0.70077  -0.68044
 Alpha  occ. eigenvalues --   -0.66784  -0.65052  -0.61807  -0.60691  -0.57681
 Alpha  occ. eigenvalues --   -0.54792  -0.52110  -0.50298  -0.49192  -0.45249
 Alpha  occ. eigenvalues --   -0.44157  -0.41097
 Alpha virt. eigenvalues --    0.03128   0.03452   0.03980   0.04747   0.05432
 Alpha virt. eigenvalues --    0.06159   0.07278   0.07966   0.09485   0.09871
 Alpha virt. eigenvalues --    0.10424   0.10906   0.11357   0.12448   0.13440

 Mulliken charges:
               1
     1  O   -1.302923
     2  O   -1.423788
     3  N    0.400265
     4  N   -1.155498
     5  N    1.084589
     6  C   -1.333172
     7  C   -0.192785
     8  C    0.807339
     9  C    1.470209
    10  C    0.529636
    11  H    0.255409
    12  H    0.139477
    13  H    0.235575
    14  H    0.018874
    15  H    0.297512
    16  H   -0.026084
    17  H    0.195364
 Sum of Mulliken charges =  -0.00000

 Dipole moment (field-independent basis, Debye):
    X=             -3.2675    Y=             -0.4149    Z=              1.1695  Tot=              3.4952

 Test job not archived.
 1\1\GINC-SE146\SP\RHF\Aug-CC-pVDZ\C5H7N3O2\OHZDE\05-Apr-2025\0\\#t hf
 aug-cc-pvdz iop(5/13=1,5/36=2,99/5=2) pseudo=read geom=check guess=(re
 ad,tcheck) scf=(maxcycle=1)\\title\\0,1\O,0,-2.132717,-1.09534,0.25251
 8\O,0,0.610471,1.752049,-0.467087\N,0,1.491407,-0.901688,-0.337217\N,0
 ,2.510476,-0.318967,0.031214\N,0,3.520422,0.108687,0.290218\C,0,0.2322
 39,-0.500781,0.281776\C,0,-1.595681,1.278882,0.363472\C,0,-0.861691,-1
 .447344,-0.252856\C,0,-0.161431,0.954486,0.005105\C,0,-2.543735,0.1957
 54,-0.169896\H,0,0.271704,-0.619788,1.372356\H,0,-1.844528,2.26392,-0.

 Normal termination of Gaussian 16 at Sat Apr  5 22:45:42 2025.
