 Gaussian 16, Revision C.01,

 ----------------------------------------------------------------------
 #t hf aug-cc-pvdz symm=none int=(grid=ultrafine) guess=(read,tcheck) s
 table=(opt,rrhf)
 ----------------------------------------------------------------------
 -----
 title
 -----
 Symbolic Z-matrix:
 Charge =  0 Multiplicity = 1

 SCF Done:  E(RHF) =  -429.551014518     A.U. after   16 cycles
 Normal termination of Gaussian 16 at Sat Apr  5 22:45:28 2025.
 Gaussian 16:  ES64L-G16RevC.01  3-Jul-2019

 ----------------------------------------------------------------------
 #t hf aug-cc-pvdz iop(5/13=1,5/36=2,99/5=2) pseudo=read geom=check gue
 ss=(read,tcheck) scf=(maxcycle=1)
 ----------------------------------------------------------------------
 -----
 title
 -----
 Structure from the checkpoint file:  "3-azido-2-hydroxypropanal.chk"
 Charge =  0 Multiplicity = 1

                         Standard orientation:
 ---------------------------------------------------------------------
 Center     Atomic      Atomic             Coordinates (Angstroms)
 Number     Number       Type             X           Y           Z
 ---------------------------------------------------------------------
      1          8           0       -0.600225   -0.593424    1.360417
      2          8           0       -2.161412   -0.986180   -0.769034
      3          7           0        1.130210    0.592913   -0.768875
      4          7           0        1.938772   -0.211377   -0.307642
      5          7           0        2.733579   -0.958359   -0.022308
      6          6           0       -0.951945    0.534649    0.607097
      7          6           0        0.297309    1.321982    0.196777
      8          6           0       -1.791724    0.146454   -0.592557
      9          1           0       -1.576131    1.219785    1.205469
     10          1           0        0.000108    2.247521   -0.295100
     11          1           0        0.858777    1.579106    1.096908
     12          1           0       -2.066282    0.961562   -1.285775
     13          1           0       -1.063155   -1.351900    0.971304
 ---------------------------------------------------------------------

 SCF Done:  E(RHF) =  -429.975937030     A.U. after    2 cycles

 The electronic state is 1-A.
 Alpha  occ. eigenvalues --  -20.57527 -20.56723 -15.72633 -15.61180 -15.55228
 Alpha  occ. eigenvalues --  -11.36556 -11.32401 -11.30822  -1.52070  -1.51414
 Alpha  occ. eigenvalues --   -1.46988  -1.33460  -1.09140  -0.96503  -0.84343
 Alpha  occ. eigenvalues --   -0.77973  -0.76967  -0.76073  -0.74297  -0.71780
 Alpha  occ. eigenvalues --   -0.69406  -0.67304  -0.61451  -0.59575  -0.55868
 Alpha  occ. eigenvalues --   -0.54237  -0.50450  -0.47908  -0.44426  -0.43053
 Alpha virt. eigenvalues --    0.02848   0.04029   0.04189   0.05281   0.06037
 Alpha virt. eigenvalues --    0.07295   0.09001   0.09179   0.10371   0.10528
 Alpha virt. eigenvalues --    0.11726   0.12720   0.13186   0.14209   0.14565

 Mulliken charges:
               1
     1  O   -1.321725
     2  O   -1.096966
     3  N    0.305448
     4  N   -1.306027
     5  N    1.038691
     6  C    0.546183
     7  C   -0.310116
     8  C    1.101788
     9  H    0.284294
    10  H    0.082053
    11  H    0.201702
    12  H    0.126245
    13  H    0.348429
 Sum of Mulliken charges =  -0.00000

 Dipole moment (field-independent basis, Debye):
    X=             -1.2337    Y=              3.4240    Z=              0.6812  Tot=              3.7027

 Test job not archived.
 1\1\GINC-SE196\SP\RHF\Aug-CC-pVDZ\C3H5N3O2\OHZDE\05-Apr-2025\0\\#t hf
 aug-cc-pvdz iop(5/13=1,5/36=2,99/5=2) pseudo=read geom=check guess=(re
 ad,tcheck) scf=(maxcycle=1)\\title\\0,1\O,0,-0.600225,-0.593424,1.3604
 17\O,0,-2.161412,-0.98618,-0.769034\N,0,1.13021,0.592913,-0.768875\N,0
 ,1.938772,-0.211377,-0.307642\N,0,2.733579,-0.958359,-0.022308\C,0,-0.
 951945,0.534649,0.607097\C,0,0.297309,1.321982,0.196777\C,0,-1.791724,
 0.146454,-0.592557\H,0,-1.576131,1.219785,1.205469\H,0,0.000108,2.2475
 21,-0.2951\H,0,0.858777,1.579106,1.096908\H,0,-2.066282,0.961562,-1.28

 Normal termination of Gaussian 16 at Sat Apr  5 22:45:38 2025.
