 Gaussian 16, Revision C.01,

 ----------------------------------------------------------------------
 #t hf aug-cc-pvdz symm=none int=(grid=ultrafine) guess=(read,tcheck) s
 table=(opt,rrhf)
 ----------------------------------------------------------------------
 -----
 title
 -----
 Symbolic Z-matrix:
 Charge =  0 Multiplicity = 1

 SCF Done:  E(RHF) =  -378.652866102     A.U. after   15 cycles
 Normal termination of Gaussian 16 at Sat Apr  5 22:44:06 2025.
 Gaussian 16:  ES64L-G16RevC.01  3-Jul-2019

 ----------------------------------------------------------------------
 #t hf aug-cc-pvdz iop(5/13=1,5/36=2,99/5=2) pseudo=read geom=check gue
 ss=(read,tcheck) scf=(maxcycle=1)
 ----------------------------------------------------------------------
 -----
 title
 -----
 Structure from the checkpoint file:  "3-azido-2-fluoro-1-propene.chk"
 Charge =  0 Multiplicity = 1

                         Standard orientation:
 ---------------------------------------------------------------------
 Center     Atomic      Atomic             Coordinates (Angstroms)
 Number     Number       Type             X           Y           Z
 ---------------------------------------------------------------------
      1          9           0       -1.641036   -0.642024   -0.961587
      2          7           0        1.087050   -0.943365    0.151427
      3          7           0        1.749753    0.051367   -0.134059
      4          7           0        2.441943    0.885774   -0.448358
      5          6           0       -0.170884   -0.683104    0.894190
      6          6           0       -1.185976    0.068769    0.096722
      7          6           0       -1.642697    1.288657    0.320483
      8          1           0       -0.554963   -1.669771    1.144246
      9          1           0        0.032320   -0.144959    1.821789
     10          1           0       -2.385849    1.733728   -0.323978
     11          1           0       -1.276059    1.856850    1.160784
 ---------------------------------------------------------------------

 SCF Done:  E(RHF) =  -379.022763717     A.U. after    2 cycles

 The electronic state is 1-A.
 Alpha  occ. eigenvalues --  -26.47995 -15.72750 -15.61418 -15.55428 -11.34973
 Alpha  occ. eigenvalues --  -11.31175 -11.25618  -1.61014  -1.52207  -1.33690
 Alpha  occ. eigenvalues --   -1.10338  -1.01503  -0.83718  -0.78664  -0.76984
 Alpha  occ. eigenvalues --   -0.76539  -0.72984  -0.70687  -0.68952  -0.66622
 Alpha  occ. eigenvalues --   -0.60964  -0.58929  -0.57893  -0.49851  -0.44186
 Alpha  occ. eigenvalues --   -0.39897
 Alpha virt. eigenvalues --    0.03338   0.04027   0.04701   0.06012   0.07113
 Alpha virt. eigenvalues --    0.07582   0.08861   0.10031   0.10331   0.11410
 Alpha virt. eigenvalues --    0.13535   0.14053   0.14945   0.15180   0.15954

 Mulliken charges:
               1
     1  F   -0.921461
     2  N    0.277894
     3  N   -1.373387
     4  N    1.059337
     5  C   -0.485169
     6  C    1.259676
     7  C    0.101267
     8  H    0.109085
     9  H    0.141742
    10  H   -0.113858
    11  H   -0.055124
 Sum of Mulliken charges =   0.00000

 Dipole moment (field-independent basis, Debye):
    X=             -1.3011    Y=              1.0391    Z=              2.2544  Tot=              2.8027

 Test job not archived.
 1\1\GINC-SE177\SP\RHF\Aug-CC-pVDZ\C3H4F1N3\OHZDE\05-Apr-2025\0\\#t hf
 aug-cc-pvdz iop(5/13=1,5/36=2,99/5=2) pseudo=read geom=check guess=(re
 ad,tcheck) scf=(maxcycle=1)\\title\\0,1\F,0,-1.641036,-0.642024,-0.961
 587\N,0,1.08705,-0.943365,0.151427\N,0,1.749753,0.051367,-0.134059\N,0
 ,2.441943,0.885774,-0.448358\C,0,-0.170884,-0.683104,0.89419\C,0,-1.18
 5976,0.068769,0.096722\C,0,-1.642697,1.288657,0.320483\H,0,-0.554963,-
 1.669771,1.144246\H,0,0.03232,-0.144959,1.821789\H,0,-2.385849,1.73372
 8,-0.323978\H,0,-1.276059,1.85685,1.160784\\Version=ES64L-G16RevC.01\S

 Normal termination of Gaussian 16 at Sat Apr  5 22:44:44 2025.
