 Gaussian 16, Revision C.01,

 ----------------------------------------------------------------------
 #t hf aug-cc-pvdz symm=none int=(grid=ultrafine) guess=(read,tcheck) s
 table=(opt,rrhf)
 ----------------------------------------------------------------------
 -----
 title
 -----
 Symbolic Z-matrix:
 Charge =  0 Multiplicity = 1

 SCF Done:  E(RHF) =  -278.571326885     A.U. after   16 cycles
 Normal termination of Gaussian 16 at Sat Apr  5 22:45:01 2025.
 Gaussian 16:  ES64L-G16RevC.01  3-Jul-2019

 ----------------------------------------------------------------------
 #t hf aug-cc-pvdz iop(5/13=1,5/36=2,99/5=2) pseudo=read geom=check gue
 ss=(read,tcheck) scf=(maxcycle=1)
 ----------------------------------------------------------------------
 -----
 title
 -----
 Structure from the checkpoint file:  "3-azidoprop-1-yne.chk"
 Charge =  0 Multiplicity = 1

                         Standard orientation:
 ---------------------------------------------------------------------
 Center     Atomic      Atomic             Coordinates (Angstroms)
 Number     Number       Type             X           Y           Z
 ---------------------------------------------------------------------
      1          7           0       -0.530767   -0.509584   -0.000040
      2          7           0       -1.711032   -0.172686    0.000014
      3          7           0       -2.824957    0.016559    0.000057
      4          6           0        0.434644    0.619527    0.000002
      5          6           0        1.797538    0.114494   -0.000012
      6          6           0        2.931476   -0.269581   -0.000026
      7          1           0        0.275495    1.245353    0.883766
      8          1           0        0.275500    1.245412   -0.883722
      9          1           0        3.934346   -0.617438   -0.000035
 ---------------------------------------------------------------------

 SCF Done:  E(RHF) =  -278.849446760     A.U. after    2 cycles

 The electronic state is 1-A.
 Alpha  occ. eigenvalues --  -15.72978 -15.61554 -15.55767 -11.32575 -11.25681
 Alpha  occ. eigenvalues --  -11.25007  -1.52375  -1.33997  -1.09462  -1.00281
 Alpha  occ. eigenvalues --   -0.80464  -0.77922  -0.77252  -0.73388  -0.72733
 Alpha  occ. eigenvalues --   -0.65817  -0.64611  -0.50601  -0.44741  -0.42150
 Alpha  occ. eigenvalues --   -0.40875
 Alpha virt. eigenvalues --    0.03387   0.03718   0.05190   0.06653   0.07249
 Alpha virt. eigenvalues --    0.09350   0.09767   0.10554   0.11433   0.11548
 Alpha virt. eigenvalues --    0.13270   0.13989   0.14840   0.16082   0.17121

 Mulliken charges:
               1
     1  N    0.439845
     2  N   -1.593080
     3  N    1.012473
     4  C   -0.568691
     5  C    0.318935
     6  C    0.343989
     7  H    0.219773
     8  H    0.219776
     9  H   -0.393019
 Sum of Mulliken charges =   0.00000

 Dipole moment (field-independent basis, Debye):
    X=              1.2879    Y=              1.6277    Z=              0.0001  Tot=              2.0756

 Test job not archived.
 1\1\GINC-SE145\SP\RHF\Aug-CC-pVDZ\C3H3N3\OHZDE\05-Apr-2025\0\\#t hf au
 g-cc-pvdz iop(5/13=1,5/36=2,99/5=2) pseudo=read geom=check guess=(read
 ,tcheck) scf=(maxcycle=1)\\title\\0,1\N,0,-0.530767,-0.509584,-0.00004
 \N,0,-1.711032,-0.172686,0.000014\N,0,-2.824957,0.016559,0.000057\C,0,
 0.434644,0.619527,0.000002\C,0,1.797538,0.114494,-0.000012\C,0,2.93147
 6,-0.269581,-0.000026\H,0,0.275495,1.245353,0.883766\H,0,0.2755,1.2454
 12,-0.883722\H,0,3.934346,-0.617438,-0.000035\\Version=ES64L-G16RevC.0
 1\State=1-A\HF=-278.8494468\RMSD=8.901e-02\Dipole=0.5066953,0.6404033,

 Normal termination of Gaussian 16 at Sat Apr  5 22:45:36 2025.
