 Gaussian 16, Revision C.01,

 ----------------------------------------------------------------------
 #t hf aug-cc-pvdz symm=none int=(grid=ultrafine) guess=(read,tcheck) s
 table=(opt,rrhf)
 ----------------------------------------------------------------------
 -----
 title
 -----
 Symbolic Z-matrix:
 Charge =  0 Multiplicity = 1

 SCF Done:  E(RHF) =  -229.825240753     A.U. after   14 cycles
 Normal termination of Gaussian 16 at Sat Apr  5 22:45:01 2025.
 Gaussian 16:  ES64L-G16RevC.01  3-Jul-2019

 ----------------------------------------------------------------------
 #t hf aug-cc-pvdz iop(5/13=1,5/36=2,99/5=2) pseudo=read geom=check gue
 ss=(read,tcheck) scf=(maxcycle=1)
 ----------------------------------------------------------------------
 -----
 title
 -----
 Structure from the checkpoint file:  "3-butenal.chk"
 Charge =  0 Multiplicity = 1

                         Standard orientation:
 ---------------------------------------------------------------------
 Center     Atomic      Atomic             Coordinates (Angstroms)
 Number     Number       Type             X           Y           Z
 ---------------------------------------------------------------------
      1          6           0       -2.171508   -0.232104   -0.260028
      2          1           0       -2.449028    0.531540   -0.977091
      3          1           0       -2.897472   -1.011714   -0.074136
      4          6           0       -0.999134   -0.216949    0.359116
      5          1           0       -0.751263   -1.006444    1.058838
      6          6           0        0.047693    0.833307    0.160729
      7          1           0       -0.219239    1.524237   -0.645289
      8          1           0        0.146644    1.464630    1.055798
      9          6           0        1.439026    0.311691   -0.117058
     10          1           0        2.190418    1.104526   -0.313882
     11          8           0        1.760435   -0.847806   -0.120099
 ---------------------------------------------------------------------

 SCF Done:  E(RHF) =  -230.062680783     A.U. after    2 cycles

 The electronic state is 1-A.
 Alpha  occ. eigenvalues --  -20.55120 -11.34812 -11.26211 -11.25107 -11.23961
 Alpha  occ. eigenvalues --   -1.48319  -1.09616  -0.99290  -0.83055  -0.76316
 Alpha  occ. eigenvalues --   -0.69010  -0.66741  -0.63311  -0.60246  -0.58302
 Alpha  occ. eigenvalues --   -0.51334  -0.50874  -0.42671  -0.37999
 Alpha virt. eigenvalues --    0.03239   0.03913   0.04288   0.05171   0.06147
 Alpha virt. eigenvalues --    0.07131   0.09926   0.10683   0.11564   0.12606
 Alpha virt. eigenvalues --    0.12887   0.14238   0.14981   0.15802   0.16151

 Mulliken charges:
               1
     1  C   -0.112043
     2  H   -0.071931
     3  H   -0.080108
     4  C    0.828660
     5  H   -0.156912
     6  C   -0.893012
     7  H    0.181356
     8  H    0.319090
     9  C    0.995842
    10  H    0.113135
    11  O   -1.124077
 Sum of Mulliken charges =   0.00000

 Dipole moment (field-independent basis, Debye):
    X=             -1.0441    Y=              2.6849    Z=              0.1722  Tot=              2.8859

 Test job not archived.
 1\1\GINC-SE187\SP\RHF\Aug-CC-pVDZ\C4H6O1\OHZDE\05-Apr-2025\0\\#t hf au
 g-cc-pvdz iop(5/13=1,5/36=2,99/5=2) pseudo=read geom=check guess=(read
 ,tcheck) scf=(maxcycle=1)\\title\\0,1\C,0,-2.171508,-0.232104,-0.26002
 8\H,0,-2.449028,0.53154,-0.977091\H,0,-2.897472,-1.011714,-0.074136\C,
 0,-0.999134,-0.216949,0.359116\H,0,-0.751263,-1.006444,1.058838\C,0,0.
 047693,0.833307,0.160729\H,0,-0.219239,1.524237,-0.645289\H,0,0.146644
 ,1.46463,1.055798\C,0,1.439026,0.311691,-0.117058\H,0,2.190418,1.10452
 6,-0.313882\O,0,1.760435,-0.847806,-0.120099\\Version=ES64L-G16RevC.01

 Normal termination of Gaussian 16 at Sat Apr  5 22:45:36 2025.
