 Gaussian 16, Revision C.01,

 ----------------------------------------------------------------------
 #t hf aug-cc-pvdz symm=none int=(grid=ultrafine) guess=(read,tcheck) s
 table=(opt,rrhf)
 ----------------------------------------------------------------------
 -----
 title
 -----
 Symbolic Z-matrix:
 Charge =  0 Multiplicity = 1

 SCF Done:  E(RHF) =  -744.693952068     A.U. after   15 cycles
 Normal termination of Gaussian 16 at Sat Apr  5 22:45:41 2025.
 Gaussian 16:  ES64L-G16RevC.01  3-Jul-2019

 ----------------------------------------------------------------------
 #t hf aug-cc-pvdz iop(5/13=1,5/36=2,99/5=2) pseudo=read geom=check gue
 ss=(read,tcheck) scf=(maxcycle=1)
 ----------------------------------------------------------------------
 -----
 title
 -----
 Structure from the checkpoint file:  "3-chloroaniline.chk"
 Charge =  0 Multiplicity = 1

                         Standard orientation:
 ---------------------------------------------------------------------
 Center     Atomic      Atomic             Coordinates (Angstroms)
 Number     Number       Type             X           Y           Z
 ---------------------------------------------------------------------
      1          6           0       -0.725688    1.839957    0.003904
      2          6           0       -1.772672    0.931790   -0.002269
      3          6           0        0.599144    1.416167    0.004591
      4          6           0       -0.184148   -0.880797   -0.007062
      5          6           0       -1.513782   -0.444159   -0.007235
      6          6           0        0.841141    0.050127   -0.000913
      7          7           0       -2.554624   -1.364322   -0.068662
      8         17           0        2.499376   -0.526961    0.002399
      9          1           0       -0.942366    2.899755    0.008952
     10          1           0       -2.796213    1.283658   -0.007912
     11          1           0        1.416937    2.119885    0.009926
     12          1           0        0.045646   -1.937052   -0.016153
     13          1           0       -3.451270   -1.039482    0.252768
     14          1           0       -2.343722   -2.296693    0.246175
 ---------------------------------------------------------------------

 SCF Done:  E(RHF) =  -745.064699769     A.U. after    2 cycles

 The electronic state is 1-A.
 Alpha  occ. eigenvalues -- -105.56849 -15.51928 -11.31125 -11.29897 -11.25659
 Alpha  occ. eigenvalues --  -11.24496 -11.24071 -11.24053 -10.61653  -7.78618
 Alpha  occ. eigenvalues --   -7.78223  -7.78207  -1.23928  -1.16637  -1.08682
 Alpha  occ. eigenvalues --   -1.01663  -0.98444  -0.85602  -0.83570  -0.73829
 Alpha  occ. eigenvalues --   -0.72512  -0.68823  -0.64198  -0.62355  -0.59811
 Alpha  occ. eigenvalues --   -0.57629  -0.54500  -0.52209  -0.51847  -0.46246
 Alpha  occ. eigenvalues --   -0.45781  -0.35188  -0.32257
 Alpha virt. eigenvalues --    0.02706   0.03690   0.04411   0.05340   0.06055
 Alpha virt. eigenvalues --    0.08428   0.09103   0.09884   0.10387   0.10659
 Alpha virt. eigenvalues --    0.11793   0.12282   0.13473   0.13929   0.14492

 Mulliken charges:
               1
     1  C    0.502889
     2  C    0.386117
     3  C   -0.068294
     4  C    0.647803
     5  C   -1.100899
     6  C    0.105398
     7  N    0.762128
     8  Cl  -0.350781
     9  H   -0.226829
    10  H   -0.285085
    11  H   -0.184290
    12  H   -0.203872
    13  H    0.010967
    14  H    0.004748
 Sum of Mulliken charges =  -0.00000

 Dipole moment (field-independent basis, Debye):
    X=             -2.7273    Y=             -0.0082    Z=              0.9461  Tot=              2.8867

 Test job not archived.
 1\1\GINC-SE045\SP\RHF\Aug-CC-pVDZ\C6H6Cl1N1\OHZDE\05-Apr-2025\0\\#t hf
  aug-cc-pvdz iop(5/13=1,5/36=2,99/5=2) pseudo=read geom=check guess=(r
 ead,tcheck) scf=(maxcycle=1)\\title\\0,1\C,0,-0.725688,1.839957,0.0039
 04\C,0,-1.772672,0.93179,-0.002269\C,0,0.599144,1.416167,0.004591\C,0,
 -0.184148,-0.880797,-0.007062\C,0,-1.513782,-0.444159,-0.007235\C,0,0.
 841141,0.050127,-0.000913\N,0,-2.554624,-1.364322,-0.068662\Cl,0,2.499
 376,-0.526961,0.002399\H,0,-0.942366,2.899755,0.008952\H,0,-2.796213,1
 .283658,-0.007912\H,0,1.416937,2.119885,0.009926\H,0,0.045646,-1.93705

 Normal termination of Gaussian 16 at Sat Apr  5 22:45:48 2025.
