 Gaussian 16, Revision C.01,

 ----------------------------------------------------------------------
 #t hf aug-cc-pvdz symm=none int=(grid=ultrafine) guess=(read,tcheck) s
 table=(opt,rrhf)
 ----------------------------------------------------------------------
 -----
 title
 -----
 Symbolic Z-matrix:
 Charge =  0 Multiplicity = 1

 SCF Done:  E(RHF) =  -576.011544457     A.U. after   13 cycles

 1\1\GINC-SE204\Stability\RHF\Aug-CC-pVDZ\C3H5Cl1\OHZDE\05-Apr-2025\0\\
 #t hf aug-cc-pvdz symm=none int=(grid=ultrafine) guess=(read,tcheck) s
 table=(opt,rrhf)\\title\\0,1\C,0,2.222154,-0.206522,-0.305896\C,0,1.13
 535,-0.117984,0.450291\C,0,-0.025341,0.749869,0.122211\Cl,0,-1.546037,
 -0.242264,-0.108197\H,0,3.058152,-0.830798,-0.022178\H,0,2.314549,0.34
 4401,-1.233886\H,0,1.060566,-0.687381,1.369728\H,0,-0.264925,1.439219,
 0.927711\H,0,0.121308,1.30088,-0.801666\\Version=ES64L-G16RevC.01\HF=-
 576.0115445\RMSD=4.869e-09\Dipole=0.8165442,0.4387547,0.1082731\Quadru

 Normal termination of Gaussian 16 at Sat Apr  5 22:44:59 2025.
 Gaussian 16:  ES64L-G16RevC.01  3-Jul-2019

 ----------------------------------------------------------------------
 #t hf aug-cc-pvdz iop(5/13=1,5/36=2,99/5=2) pseudo=read geom=check gue
 ss=(read,tcheck) scf=(maxcycle=1)
 ----------------------------------------------------------------------
 -----
 title
 -----
 Structure from the checkpoint file:  "3-chloro-1-propene.chk"
 Charge =  0 Multiplicity = 1

                         Standard orientation:
 ---------------------------------------------------------------------
 Center     Atomic      Atomic             Coordinates (Angstroms)
 Number     Number       Type             X           Y           Z
 ---------------------------------------------------------------------
      1          6           0        2.222154   -0.206522   -0.305896
      2          6           0        1.135350   -0.117984    0.450291
      3          6           0       -0.025341    0.749869    0.122211
      4         17           0       -1.546037   -0.242264   -0.108197
      5          1           0        3.058152   -0.830798   -0.022178
      6          1           0        2.314549    0.344401   -1.233886
      7          1           0        1.060566   -0.687381    1.369728
      8          1           0       -0.264925    1.439219    0.927711
      9          1           0        0.121308    1.300880   -0.801666
 ---------------------------------------------------------------------

 SCF Done:  E(RHF) =  -576.214430578     A.U. after    2 cycles

 The electronic state is 1-A.
 Alpha  occ. eigenvalues -- -105.55370 -11.31290 -11.26068 -11.25287 -10.60159
 Alpha  occ. eigenvalues --   -7.77090  -7.76723  -7.76714  -1.12572  -1.03991
 Alpha  occ. eigenvalues --   -0.91165  -0.78850  -0.68169  -0.63789  -0.60276
 Alpha  occ. eigenvalues --   -0.55226  -0.53434  -0.44860  -0.44332  -0.39096
 Alpha virt. eigenvalues --    0.03610   0.04169   0.04257   0.06165   0.06837
 Alpha virt. eigenvalues --    0.08446   0.09427   0.12359   0.13423   0.14793
 Alpha virt. eigenvalues --    0.15329   0.15795   0.16568   0.16688   0.16998

 Mulliken charges:
               1
     1  C   -0.104434
     2  C    0.797462
     3  C   -0.803786
     4  Cl  -0.091623
     5  H   -0.073533
     6  H   -0.051606
     7  H   -0.096336
     8  H    0.244609
     9  H    0.179247
 Sum of Mulliken charges =  -0.00000

 Dipole moment (field-independent basis, Debye):
    X=              2.0813    Y=              1.1175    Z=              0.2715  Tot=              2.3778

 Test job not archived.
 1\1\GINC-SE204\SP\RHF\Aug-CC-pVDZ\C3H5Cl1\OHZDE\05-Apr-2025\0\\#t hf a
 ug-cc-pvdz iop(5/13=1,5/36=2,99/5=2) pseudo=read geom=check guess=(rea
 d,tcheck) scf=(maxcycle=1)\\title\\0,1\C,0,2.222154,-0.206522,-0.30589
 6\C,0,1.13535,-0.117984,0.450291\C,0,-0.025341,0.749869,0.122211\Cl,0,
 -1.546037,-0.242264,-0.108197\H,0,3.058152,-0.830798,-0.022178\H,0,2.3
 14549,0.344401,-1.233886\H,0,1.060566,-0.687381,1.369728\H,0,-0.264925
 ,1.439219,0.927711\H,0,0.121308,1.30088,-0.801666\\Version=ES64L-G16Re
 vC.01\State=1-A\HF=-576.2144306\RMSD=1.063e-02\Dipole=0.8188291,0.4396

 Normal termination of Gaussian 16 at Sat Apr  5 22:45:36 2025.
