 Gaussian 16, Revision C.01,

 ----------------------------------------------------------------------
 #t hf aug-cc-pvdz symm=none int=(grid=ultrafine) guess=(read,tcheck) s
 table=(opt,rrhf)
 ----------------------------------------------------------------------
 -----
 title
 -----
 Symbolic Z-matrix:
 Charge =  0 Multiplicity = 1

 SCF Done:  E(RHF) =  -744.916160163     A.U. after   14 cycles
 Normal termination of Gaussian 16 at Sat Apr  5 22:46:14 2025.
 Gaussian 16:  ES64L-G16RevC.01  3-Jul-2019

 ----------------------------------------------------------------------
 #t hf aug-cc-pvdz iop(5/13=1,5/36=2,99/5=2) pseudo=read geom=check gue
 ss=(read,tcheck) scf=(maxcycle=1)
 ----------------------------------------------------------------------
 -----
 title
 -----
 Structure from the checkpoint file:  "3-chloro-1-3-oxazinane.chk"
 Charge =  0 Multiplicity = 1

                         Standard orientation:
 ---------------------------------------------------------------------
 Center     Atomic      Atomic             Coordinates (Angstroms)
 Number     Number       Type             X           Y           Z
 ---------------------------------------------------------------------
      1         17           0        2.255385    0.055886   -0.086072
      2          8           0       -1.387172   -1.150321    0.406249
      3          7           0        0.508488    0.064813   -0.326125
      4          6           0       -1.587319    1.218175   -0.062742
      5          6           0       -0.127098    1.153328    0.423310
      6          6           0       -2.077147   -0.196737   -0.403529
      7          6           0       -0.016309   -1.252187    0.102890
      8          1           0       -1.663879    1.854374   -0.945176
      9          1           0       -2.199448    1.662233    0.722962
     10          1           0        0.401358    2.076079    0.198723
     11          1           0       -0.078803    0.986178    1.505841
     12          1           0       -1.918611   -0.422066   -1.462420
     13          1           0       -3.133523   -0.327195   -0.179940
     14          1           0        0.473099   -1.609500    1.013006
     15          1           0        0.163451   -1.956766   -0.716465
 ---------------------------------------------------------------------

 SCF Done:  E(RHF) =  -745.288334598     A.U. after    2 cycles

 The electronic state is 1-A.
 Alpha  occ. eigenvalues -- -105.58422 -20.55831 -15.56304 -11.32630 -11.29422
 Alpha  occ. eigenvalues --  -11.27662 -11.24496 -10.62974  -7.79920  -7.79491
 Alpha  occ. eigenvalues --   -7.79455  -1.48238  -1.24968  -1.07491  -1.02007
 Alpha  occ. eigenvalues --   -0.93168  -0.90240  -0.77541  -0.71979  -0.70486
 Alpha  occ. eigenvalues --   -0.69180  -0.61673  -0.60683  -0.58871  -0.57508
 Alpha  occ. eigenvalues --   -0.55548  -0.53261  -0.49220  -0.47841  -0.46375
 Alpha  occ. eigenvalues --   -0.42871  -0.40818
 Alpha virt. eigenvalues --    0.03690   0.04240   0.04410   0.04702   0.05871
 Alpha virt. eigenvalues --    0.06271   0.06447   0.08016   0.09472   0.10319
 Alpha virt. eigenvalues --    0.11298   0.13257   0.13839   0.14860   0.15470

 Mulliken charges:
               1
     1  Cl  -0.017825
     2  O   -1.279237
     3  N    0.300124
     4  C   -0.367847
     5  C   -0.287834
     6  C    0.474042
     7  C    0.468594
     8  H    0.161194
     9  H    0.170109
    10  H    0.015693
    11  H    0.094769
    12  H    0.229719
    13  H   -0.035734
    14  H    0.035673
    15  H    0.038560
 Sum of Mulliken charges =  -0.00000

 Dipole moment (field-independent basis, Debye):
    X=             -1.4923    Y=              0.9446    Z=              0.1082  Tot=              1.7694

 Test job not archived.
 1\1\GINC-SE188\SP\RHF\Aug-CC-pVDZ\C4H8Cl1N1O1\OHZDE\05-Apr-2025\0\\#t
 hf aug-cc-pvdz iop(5/13=1,5/36=2,99/5=2) pseudo=read geom=check guess=
 (read,tcheck) scf=(maxcycle=1)\\title\\0,1\Cl,0,2.255385,0.055886,-0.0
 86072\O,0,-1.387172,-1.150321,0.406249\N,0,0.508488,0.064813,-0.326125
 \C,0,-1.587319,1.218175,-0.062742\C,0,-0.127098,1.153328,0.42331\C,0,-
 2.077147,-0.196737,-0.403529\C,0,-0.016309,-1.252187,0.10289\H,0,-1.66
 3879,1.854374,-0.945176\H,0,-2.199448,1.662233,0.722962\H,0,0.401358,2
 .076079,0.198723\H,0,-0.078803,0.986178,1.505841\H,0,-1.918611,-0.4220

 Normal termination of Gaussian 16 at Sat Apr  5 22:47:07 2025.
