 Gaussian 16, Revision C.01,

 ----------------------------------------------------------------------
 #t hf aug-cc-pvdz symm=none int=(grid=ultrafine) guess=(read,tcheck) s
 table=(opt,rrhf)
 ----------------------------------------------------------------------
 -----
 title
 -----
 Symbolic Z-matrix:
 Charge =  0 Multiplicity = 1

 SCF Done:  E(RHF) =  -1160.01208068     A.U. after   14 cycles
 Normal termination of Gaussian 16 at Sat Apr  5 22:45:15 2025.
 Gaussian 16:  ES64L-G16RevC.01  3-Jul-2019

 ----------------------------------------------------------------------
 #t hf aug-cc-pvdz iop(5/13=1,5/36=2,99/5=2) pseudo=read geom=check gue
 ss=(read,tcheck) scf=(maxcycle=1)
 ----------------------------------------------------------------------
 -----
 title
 -----
 Structure from the checkpoint file:  "3-chloro-4-sulfanyl-25H-furanone.chk"
 Charge =  0 Multiplicity = 1

                         Standard orientation:
 ---------------------------------------------------------------------
 Center     Atomic      Atomic             Coordinates (Angstroms)
 Number     Number       Type             X           Y           Z
 ---------------------------------------------------------------------
      1         17           0       -0.294091    2.071082   -0.000003
      2         16           0        2.440221   -0.174158    0.000001
      3          8           0       -1.231701   -1.742984    0.000002
      4          8           0       -2.709242   -0.031226   -0.000000
      5          6           0       -0.315568    0.356447   -0.000000
      6          6           0        0.729367   -0.479618    0.000001
      7          6           0       -1.577506   -0.412007   -0.000000
      8          6           0        0.190783   -1.883495    0.000003
      9          1           0        2.338062    1.169453   -0.000000
     10          1           0        0.491516   -2.442798    0.888008
     11          1           0        0.491516   -2.442801   -0.888000
 ---------------------------------------------------------------------

 SCF Done:  E(RHF) =  -1160.44231478     A.U. after    2 cycles

 The electronic state is 1-A.
 Alpha  occ. eigenvalues -- -105.60341 -94.01147 -20.61024 -20.54600 -11.41004
 Alpha  occ. eigenvalues --  -11.34636 -11.33996 -11.33162 -10.65128  -8.29282
 Alpha  occ. eigenvalues --   -7.82115  -7.81682  -7.81665  -6.27136  -6.26974
 Alpha  occ. eigenvalues --   -6.26751  -1.55909  -1.47448  -1.20237  -1.11504
 Alpha  occ. eigenvalues --   -1.04118  -1.00127  -0.83813  -0.79896  -0.71896
 Alpha  occ. eigenvalues --   -0.71562  -0.67780  -0.65306  -0.59590  -0.59423
 Alpha  occ. eigenvalues --   -0.56421  -0.55721  -0.54676  -0.49668  -0.48392
 Alpha  occ. eigenvalues --   -0.45996  -0.45433  -0.37098
 Alpha virt. eigenvalues --    0.02957   0.03905   0.04288   0.06392   0.07003
 Alpha virt. eigenvalues --    0.07990   0.08366   0.09570   0.10944   0.11509
 Alpha virt. eigenvalues --    0.11787   0.13030   0.13690   0.14137   0.15419

 Mulliken charges:
               1
     1  Cl  -0.224482
     2  S    0.235753
     3  O   -1.301122
     4  O   -1.269227
     5  C    0.050298
     6  C    0.024022
     7  C    1.494903
     8  C    0.223511
     9  H    0.375936
    10  H    0.195204
    11  H    0.195203
 Sum of Mulliken charges =  -0.00000

 Dipole moment (field-independent basis, Debye):
    X=              4.8924    Y=             -0.9502    Z=              0.0000  Tot=              4.9838

 Test job not archived.
 1\1\GINC-SE012\SP\RHF\Aug-CC-pVDZ\C4H3Cl1O2S1\OHZDE\05-Apr-2025\0\\#t
 hf aug-cc-pvdz iop(5/13=1,5/36=2,99/5=2) pseudo=read geom=check guess=
 (read,tcheck) scf=(maxcycle=1)\\title\\0,1\Cl,0,-0.29409,2.071082,-0.0
 00003\S,0,2.440221,-0.174159,0.000001\O,0,-1.231702,-1.742984,0.000002
 \O,0,-2.709242,-0.031225,0.\C,0,-0.315568,0.356447,0.\C,0,0.729367,-0.
 479618,0.000001\C,0,-1.577506,-0.412007,0.\C,0,0.190782,-1.883495,0.00
 0003\H,0,2.338062,1.169452,0.\H,0,0.491515,-2.442798,0.888008\H,0,0.49
 1515,-2.442801,-0.888\\Version=ES64L-G16RevC.01\State=1-A\HF=-1160.442

 Normal termination of Gaussian 16 at Sat Apr  5 22:45:39 2025.
