 Gaussian 16, Revision C.01,

 ----------------------------------------------------------------------
 #t hf aug-cc-pvdz symm=none int=(grid=ultrafine) guess=(read,tcheck) s
 table=(opt,rrhf)
 ----------------------------------------------------------------------
 -----
 title
 -----
 Symbolic Z-matrix:
 Charge =  0 Multiplicity = 1

 SCF Done:  E(RHF) =  -764.524094832     A.U. after   15 cycles
 Normal termination of Gaussian 16 at Sat Apr  5 22:45:32 2025.
 Gaussian 16:  ES64L-G16RevC.01  3-Jul-2019

 ----------------------------------------------------------------------
 #t hf aug-cc-pvdz iop(5/13=1,5/36=2,99/5=2) pseudo=read geom=check gue
 ss=(read,tcheck) scf=(maxcycle=1)
 ----------------------------------------------------------------------
 -----
 title
 -----
 Structure from the checkpoint file:  "3-chlorophenol.chk"
 Charge =  0 Multiplicity = 1

                         Standard orientation:
 ---------------------------------------------------------------------
 Center     Atomic      Atomic             Coordinates (Angstroms)
 Number     Number       Type             X           Y           Z
 ---------------------------------------------------------------------
      1          6           0        1.869828   -0.647799   -0.000000
      2          6           0        1.019117   -1.742447   -0.000000
      3          6           0        1.374486    0.652998    0.000000
      4          6           0       -0.877502   -0.243979    0.000000
      5          6           0       -0.358346   -1.536330   -0.000000
      6          6           0       -0.000000    0.831402    0.000000
      7          8           0       -1.160637   -2.640733   -0.000000
      8         17           0       -0.660272    2.455830    0.000000
      9          1           0        2.939624   -0.806173   -0.000000
     10          1           0        1.400483   -2.753177   -0.000000
     11          1           0        2.036335    1.505248    0.000000
     12          1           0       -1.945745   -0.074236    0.000000
     13          1           0       -2.086473   -2.377981   -0.000000
 ---------------------------------------------------------------------

 SCF Done:  E(RHF) =  -764.909497344     A.U. after    2 cycles

 The electronic state is 1-A'.
 Alpha  occ. eigenvalues -- -105.57614 -20.59281 -11.32627 -11.31972 -11.26349
 Alpha  occ. eigenvalues --  -11.25762 -11.25077 -11.24744 -10.62417  -7.79383
 Alpha  occ. eigenvalues --   -7.78984  -7.78967  -1.50667  -1.18783  -1.10014
 Alpha  occ. eigenvalues --   -1.03311  -0.99646  -0.87171  -0.83367  -0.75389
 Alpha  occ. eigenvalues --   -0.71291  -0.67971  -0.63292  -0.60837  -0.60507
 Alpha  occ. eigenvalues --   -0.59094  -0.55200  -0.54097  -0.52251  -0.46990
 Alpha  occ. eigenvalues --   -0.46959  -0.36036  -0.33575
 Alpha virt. eigenvalues --    0.03122   0.03585   0.04361   0.05763   0.06134
 Alpha virt. eigenvalues --    0.08530   0.09653   0.10485   0.10591   0.11601
 Alpha virt. eigenvalues --    0.12568   0.13233   0.13327   0.13896   0.15139

 Mulliken charges:
               1
     1  C    0.745182
     2  C   -0.176868
     3  C    0.033692
     4  C   -0.115420
     5  C    1.962116
     6  C    0.064438
     7  O   -1.751725
     8  Cl  -0.337340
     9  H   -0.213040
    10  H   -0.221492
    11  H   -0.168934
    12  H   -0.240779
    13  H    0.420169
 Sum of Mulliken charges =  -0.00000

 Dipole moment (field-independent basis, Debye):
    X=             -0.2151    Y=             -0.9421    Z=             -0.0000  Tot=              0.9663

 Test job not archived.
 1\1\GINC-SE047\SP\RHF\Aug-CC-pVDZ\C6H5Cl1O1\OHZDE\05-Apr-2025\0\\#t hf
  aug-cc-pvdz iop(5/13=1,5/36=2,99/5=2) pseudo=read geom=check guess=(r
 ead,tcheck) scf=(maxcycle=1)\\title\\0,1\C,0,1.869828,-0.647799,0.\C,0
 ,1.019117,-1.742447,0.\C,0,1.374486,0.652998,0.\C,0,-0.877502,-0.24397
 9,0.\C,0,-0.358346,-1.53633,0.\C,0,0.,0.831402,0.\O,0,-1.160637,-2.640
 733,0.\Cl,0,-0.660272,2.45583,0.\H,0,2.939624,-0.806173,0.\H,0,1.40048
 3,-2.753177,0.\H,0,2.036335,1.505248,0.\H,0,-1.945745,-0.074236,0.\H,0
 ,-2.086473,-2.377981,0.\\Version=ES64L-G16RevC.01\State=1-A'\HF=-764.9

 Normal termination of Gaussian 16 at Sat Apr  5 22:45:38 2025.
