 Gaussian 16, Revision C.01,

 ----------------------------------------------------------------------
 #t hf aug-cc-pvdz symm=none int=(grid=ultrafine) guess=(read,tcheck) s
 table=(opt,rrhf)
 ----------------------------------------------------------------------
 -----
 title
 -----
 Symbolic Z-matrix:
 Charge =  0 Multiplicity = 1

 SCF Done:  E(RHF) =  -1081.28280474     A.U. after   15 cycles
 Normal termination of Gaussian 16 at Sat Apr  5 22:45:48 2025.
 Gaussian 16:  ES64L-G16RevC.01  3-Jul-2019

 ----------------------------------------------------------------------
 #t hf aug-cc-pvdz iop(5/13=1,5/36=2,99/5=2) pseudo=read geom=check gue
 ss=(read,tcheck) scf=(maxcycle=1)
 ----------------------------------------------------------------------
 -----
 title
 -----
 Structure from the checkpoint file:  "3-chloromethyl-1-2-5-thiadiazole.chk"
 Charge =  0 Multiplicity = 1

                         Standard orientation:
 ---------------------------------------------------------------------
 Center     Atomic      Atomic             Coordinates (Angstroms)
 Number     Number       Type             X           Y           Z
 ---------------------------------------------------------------------
      1         17           0        2.634618    0.089972   -0.472541
      2         16           0       -2.226941   -0.407927   -0.293740
      3          7           0       -0.782002   -1.097257    0.085205
      4          7           0       -1.805293    1.168792   -0.048337
      5          6           0        0.046472   -0.123793    0.406185
      6          6           0       -0.547869    1.172036    0.326492
      7          6           0        1.448200   -0.422078    0.812171
      8          1           0       -0.047158    2.105902    0.539835
      9          1           0        1.735384    0.120694    1.707773
     10          1           0        1.584567   -1.487017    0.958257
 ---------------------------------------------------------------------

 SCF Done:  E(RHF) =  -1081.64243603     A.U. after    2 cycles

 The electronic state is 1-A.
 Alpha  occ. eigenvalues -- -105.57346 -94.04653 -15.56682 -15.56586 -11.33358
 Alpha  occ. eigenvalues --  -11.31988 -11.31104 -10.62115  -8.32296  -7.79054
 Alpha  occ. eigenvalues --   -7.78674  -7.78663  -6.30030  -6.29853  -6.29658
 Alpha  occ. eigenvalues --   -1.36502  -1.21756  -1.13234  -1.05900  -0.94448
 Alpha  occ. eigenvalues --   -0.87470  -0.82434  -0.72895  -0.65917  -0.65528
 Alpha  occ. eigenvalues --   -0.63599  -0.57954  -0.57108  -0.52943  -0.52351
 Alpha  occ. eigenvalues --   -0.47605  -0.46527  -0.46120  -0.38395
 Alpha virt. eigenvalues --    0.03054   0.03373   0.04291   0.05226   0.07414
 Alpha virt. eigenvalues --    0.07534   0.07929   0.09053   0.10412   0.11460
 Alpha virt. eigenvalues --    0.11903   0.13234   0.14140   0.14467   0.15273

 Mulliken charges:
               1
     1  Cl  -0.017429
     2  S    0.721374
     3  N    0.389496
     4  N    0.168993
     5  C   -0.566038
     6  C   -0.510641
     7  C   -0.506710
     8  H   -0.072406
     9  H    0.219862
    10  H    0.173498
 Sum of Mulliken charges =  -0.00000

 Dipole moment (field-independent basis, Debye):
    X=              0.6225    Y=              0.2480    Z=              2.0197  Tot=              2.1279

 Test job not archived.
 1\1\GINC-SE046\SP\RHF\Aug-CC-pVDZ\C3H3Cl1N2S1\OHZDE\05-Apr-2025\0\\#t
 hf aug-cc-pvdz iop(5/13=1,5/36=2,99/5=2) pseudo=read geom=check guess=
 (read,tcheck) scf=(maxcycle=1)\\title\\0,1\Cl,0,2.634618,0.089972,-0.4
 72541\S,0,-2.226941,-0.407927,-0.29374\N,0,-0.782002,-1.097257,0.08520
 5\N,0,-1.805293,1.168792,-0.048337\C,0,0.046472,-0.123793,0.406185\C,0
 ,-0.547869,1.172036,0.326492\C,0,1.4482,-0.422078,0.812171\H,0,-0.0471
 58,2.105902,0.539835\H,0,1.735384,0.120694,1.707773\H,0,1.584567,-1.48
 7017,0.958257\\Version=ES64L-G16RevC.01\State=1-A\HF=-1081.642436\RMSD

 Normal termination of Gaussian 16 at Sat Apr  5 22:47:05 2025.
