 Gaussian 16, Revision C.01,

 ----------------------------------------------------------------------
 #t hf aug-cc-pvdz symm=none int=(grid=ultrafine) guess=(read,tcheck) s
 table=(opt,rrhf)
 ----------------------------------------------------------------------
 -----
 title
 -----
 Symbolic Z-matrix:
 Charge =  0 Multiplicity = 1

 SCF Done:  E(RHF) =  -1140.16071406     A.U. after   16 cycles
 Normal termination of Gaussian 16 at Sat Apr  5 22:45:16 2025.
 Gaussian 16:  ES64L-G16RevC.01  3-Jul-2019

 ----------------------------------------------------------------------
 #t hf aug-cc-pvdz iop(5/13=1,5/36=2,99/5=2) pseudo=read geom=check gue
 ss=(read,tcheck) scf=(maxcycle=1)
 ----------------------------------------------------------------------
 -----
 title
 -----
 Structure from the checkpoint file:  "3-chloro-2-isothiocyanatopropanal.chk"
 Charge =  0 Multiplicity = 1

                         Standard orientation:
 ---------------------------------------------------------------------
 Center     Atomic      Atomic             Coordinates (Angstroms)
 Number     Number       Type             X           Y           Z
 ---------------------------------------------------------------------
      1         17           0       -3.091891   -0.553378   -0.200574
      2         16           0        3.632310   -0.266570   -0.128147
      3          8           0       -0.699111    2.368642   -0.205516
      4          7           0        0.897212   -0.474689    0.245548
      5          6           0       -0.405066   -0.025285   -0.173044
      6          6           0       -1.436255   -1.039052    0.315660
      7          6           0       -0.633145    1.364267    0.442426
      8          6           0        2.069088   -0.345652    0.048062
      9          1           0       -0.443611    0.071906   -1.258723
     10          1           0       -1.234330   -2.019402   -0.103642
     11          1           0       -1.437139   -1.102639    1.400744
     12          1           0       -0.695064    1.370700    1.548388
 ---------------------------------------------------------------------

 SCF Done:  E(RHF) =  -1140.57307206     A.U. after    2 cycles

 The electronic state is 1-A.
 Alpha  occ. eigenvalues -- -105.58514 -93.96708 -20.58128 -15.56926 -11.40763
 Alpha  occ. eigenvalues --  -11.37413 -11.34989 -11.34166 -10.63307  -8.24987
 Alpha  occ. eigenvalues --   -7.80252  -7.79871  -7.79859  -6.22878  -6.22453
 Alpha  occ. eigenvalues --   -6.22416  -1.51365  -1.32610  -1.16555  -1.10149
 Alpha  occ. eigenvalues --   -1.05398  -0.92125  -0.87256  -0.80204  -0.71516
 Alpha  occ. eigenvalues --   -0.69928  -0.66611  -0.64292  -0.63213  -0.60382
 Alpha  occ. eigenvalues --   -0.57730  -0.56988  -0.54999  -0.47931  -0.47329
 Alpha  occ. eigenvalues --   -0.45211  -0.40552  -0.39349
 Alpha virt. eigenvalues --    0.02926   0.03829   0.04642   0.05822   0.06228
 Alpha virt. eigenvalues --    0.06563   0.07220   0.08284   0.09261   0.10223
 Alpha virt. eigenvalues --    0.11038   0.11390   0.11855   0.13613   0.13654

 Mulliken charges:
               1
     1  Cl  -0.019756
     2  S    0.332015
     3  O   -1.066835
     4  N    0.945861
     5  C   -0.883885
     6  C   -0.217392
     7  C    1.271477
     8  C   -1.049060
     9  H   -0.011304
    10  H    0.233771
    11  H    0.276275
    12  H    0.188832
 Sum of Mulliken charges =  -0.00000

 Dipole moment (field-independent basis, Debye):
    X=             -0.1441    Y=             -2.2255    Z=              1.0986  Tot=              2.4861

 Test job not archived.
 1\1\GINC-SE010\SP\RHF\Aug-CC-pVDZ\C4H4Cl1N1O1S1\OHZDE\05-Apr-2025\0\\#
 t hf aug-cc-pvdz iop(5/13=1,5/36=2,99/5=2) pseudo=read geom=check gues
 s=(read,tcheck) scf=(maxcycle=1)\\title\\0,1\Cl,0,-3.091891,-0.553378,
 -0.200574\S,0,3.63231,-0.26657,-0.128147\O,0,-0.699111,2.368642,-0.205
 516\N,0,0.897212,-0.474689,0.245548\C,0,-0.405066,-0.025285,-0.173044\
 C,0,-1.436255,-1.039052,0.31566\C,0,-0.633145,1.364267,0.442426\C,0,2.
 069088,-0.345652,0.048062\H,0,-0.443611,0.071906,-1.258723\H,0,-1.2343
 3,-2.019402,-0.103642\H,0,-1.437139,-1.102639,1.400744\H,0,-0.695064,1

 Normal termination of Gaussian 16 at Sat Apr  5 22:45:39 2025.
