 Gaussian 16, Revision C.01,

 ----------------------------------------------------------------------
 #t hf aug-cc-pvdz symm=none int=(grid=ultrafine) guess=(read,tcheck) s
 table=(opt,rrhf)
 ----------------------------------------------------------------------
 -----
 title
 -----
 Symbolic Z-matrix:
 Charge =  0 Multiplicity = 1

 SCF Done:  E(RHF) =  -705.644976464     A.U. after   15 cycles
 Normal termination of Gaussian 16 at Sat Apr  5 22:45:07 2025.
 Gaussian 16:  ES64L-G16RevC.01  3-Jul-2019

 ----------------------------------------------------------------------
 #t hf aug-cc-pvdz iop(5/13=1,5/36=2,99/5=2) pseudo=read geom=check gue
 ss=(read,tcheck) scf=(maxcycle=1)
 ----------------------------------------------------------------------
 -----
 title
 -----
 Structure from the checkpoint file:  "3-chloropyridine.chk"
 Charge =  0 Multiplicity = 1

                         Standard orientation:
 ---------------------------------------------------------------------
 Center     Atomic      Atomic             Coordinates (Angstroms)
 Number     Number       Type             X           Y           Z
 ---------------------------------------------------------------------
      1          6           0        1.207137   -1.555590    0.000000
      2          6           0        1.220086   -0.167956    0.000000
      3          6           0       -0.016035   -2.214360    0.000000
      4          6           0       -1.179306   -0.248424   -0.000000
      5          6           0        0.000000    0.488855   -0.000000
      6          7           0       -1.187738   -1.578485    0.000000
      7         17           0       -0.068149    2.235327   -0.000000
      8          1           0        2.132085   -2.115420    0.000000
      9          1           0        2.145085    0.390219    0.000000
     10          1           0       -0.058137   -3.297055    0.000000
     11          1           0       -2.137626    0.255941   -0.000000
 ---------------------------------------------------------------------

 SCF Done:  E(RHF) =  -705.971001342     A.U. after    2 cycles

 The electronic state is 1-A'.
 Alpha  occ. eigenvalues -- -105.58305 -15.52112 -11.31818 -11.29773 -11.29298
 Alpha  occ. eigenvalues --  -11.28328 -11.26532 -10.63106  -7.80076  -7.79672
 Alpha  occ. eigenvalues --   -7.79653  -1.28025  -1.15017  -1.08632  -1.01694
 Alpha  occ. eigenvalues --   -0.89691  -0.87251  -0.74701  -0.71952  -0.66241
 Alpha  occ. eigenvalues --   -0.61892  -0.61550  -0.59243  -0.55771  -0.51134
 Alpha  occ. eigenvalues --   -0.48849  -0.46064  -0.41454  -0.36228
 Alpha virt. eigenvalues --    0.03086   0.04008   0.04699   0.05538   0.06498
 Alpha virt. eigenvalues --    0.08410   0.08471   0.10105   0.10247   0.11689
 Alpha virt. eigenvalues --    0.12341   0.12833   0.13797   0.14157   0.14642

 Mulliken charges:
               1
     1  C    0.516280
     2  C    0.693771
     3  C   -0.799267
     4  C   -0.544580
     5  C    0.125645
     6  N    0.872854
     7  Cl  -0.286355
     8  H   -0.168259
     9  H   -0.120066
    10  H   -0.165846
    11  H   -0.124178
 Sum of Mulliken charges =   0.00000

 Dipole moment (field-independent basis, Debye):
    X=              2.3989    Y=             -0.5369    Z=              0.0000  Tot=              2.4582

 Test job not archived.
 1\1\GINC-SE106\SP\RHF\Aug-CC-pVDZ\C5H4Cl1N1\OHZDE\05-Apr-2025\0\\#t hf
  aug-cc-pvdz iop(5/13=1,5/36=2,99/5=2) pseudo=read geom=check guess=(r
 ead,tcheck) scf=(maxcycle=1)\\title\\0,1\C,0,1.207137,-1.55559,0.\C,0,
 1.220086,-0.167956,0.\C,0,-0.016035,-2.21436,0.\C,0,-1.179306,-0.24842
 4,0.\C,0,0.,0.488855,0.\N,0,-1.187738,-1.578485,0.\Cl,0,-0.068149,2.23
 5327,0.\H,0,2.132085,-2.11542,0.\H,0,2.145085,0.390219,0.\H,0,-0.05813
 7,-3.297055,0.\H,0,-2.137626,0.255941,0.\\Version=ES64L-G16RevC.01\Sta
 te=1-A'\HF=-705.9710013\RMSD=2.989e-02\Dipole=0.9437997,-0.2112317,0.\

 Normal termination of Gaussian 16 at Sat Apr  5 22:45:39 2025.
