 Gaussian 16, Revision C.01,

 ----------------------------------------------------------------------
 #t hf aug-cc-pvdz symm=none int=(grid=ultrafine) guess=(read,tcheck) s
 table=(opt,rrhf)
 ----------------------------------------------------------------------
 -----
 title
 -----
 Symbolic Z-matrix:
 Charge =  0 Multiplicity = 1

 SCF Done:  E(RHF) =  -336.354921393     A.U. after   16 cycles
 Normal termination of Gaussian 16 at Sat Apr  5 22:43:59 2025.
 Gaussian 16:  ES64L-G16RevC.01  3-Jul-2019

 ----------------------------------------------------------------------
 #t hf aug-cc-pvdz iop(5/13=1,5/36=2,99/5=2) pseudo=read geom=check gue
 ss=(read,tcheck) scf=(maxcycle=1)
 ----------------------------------------------------------------------
 -----
 title
 -----
 Structure from the checkpoint file:  "3-cyanoisoxazole.chk"
 Charge =  0 Multiplicity = 1

                         Standard orientation:
 ---------------------------------------------------------------------
 Center     Atomic      Atomic             Coordinates (Angstroms)
 Number     Number       Type             X           Y           Z
 ---------------------------------------------------------------------
      1          8           0       -1.681498   -0.743311    0.000016
      2          7           0       -0.355469   -1.123275    0.000007
      3          7           0        2.897391    0.029139   -0.000024
      4          6           0        0.323220    0.004011   -0.000002
      5          6           0       -0.528654    1.144183    0.000000
      6          6           0       -1.764853    0.597636    0.000012
      7          6           0        1.747751   -0.010163   -0.000014
      8          1           0       -0.247836    2.180702   -0.000006
      9          1           0       -2.758422    1.010746    0.000018
 ---------------------------------------------------------------------

 SCF Done:  E(RHF) =  -336.682171775     A.U. after    2 cycles

 The electronic state is 1-A.
 Alpha  occ. eigenvalues --  -20.67391 -15.61351 -15.54590 -11.35829 -11.35040
 Alpha  occ. eigenvalues --  -11.30915 -11.28735  -1.61803  -1.26828  -1.22871
 Alpha  occ. eigenvalues --   -1.12246  -0.94544  -0.89201  -0.80844  -0.70976
 Alpha  occ. eigenvalues --   -0.70779  -0.66334  -0.63180  -0.61516  -0.57092
 Alpha  occ. eigenvalues --   -0.56624  -0.52930  -0.46119  -0.42505
 Alpha virt. eigenvalues --    0.02413   0.03677   0.03926   0.06640   0.08851
 Alpha virt. eigenvalues --    0.08892   0.09541   0.09917   0.11492   0.12586
 Alpha virt. eigenvalues --    0.13155   0.13427   0.13950   0.14570   0.15204

 Mulliken charges:
               1
     1  O   -1.550506
     2  N    1.448153
     3  N    1.045043
     4  C    0.180535
     5  C    0.399387
     6  C    0.811701
     7  C   -2.111740
     8  H   -0.173028
     9  H   -0.049545
 Sum of Mulliken charges =  -0.00000

 Dipole moment (field-independent basis, Debye):
    X=             -4.6771    Y=              3.5461    Z=              0.0000  Tot=              5.8694

 Test job not archived.
 1\1\GINC-SE106\SP\RHF\Aug-CC-pVDZ\C4H2N2O1\OHZDE\05-Apr-2025\0\\#t hf
 aug-cc-pvdz iop(5/13=1,5/36=2,99/5=2) pseudo=read geom=check guess=(re
 ad,tcheck) scf=(maxcycle=1)\\title\\0,1\O,0,-1.681498,-0.743311,0.0000
 16\N,0,-0.355469,-1.123275,0.000007\N,0,2.897391,0.029139,-0.000024\C,
 0,0.32322,0.004011,-0.000002\C,0,-0.528654,1.144183,0.\C,0,-1.764853,0
 .597636,0.000012\C,0,1.747751,-0.010163,-0.000014\H,0,-0.247836,2.1807
 02,-0.000006\H,0,-2.758422,1.010746,0.000018\\Version=ES64L-G16RevC.01
 \State=1-A\HF=-336.6821718\RMSD=6.714e-02\Dipole=-1.8401033,1.3951438,

 Normal termination of Gaussian 16 at Sat Apr  5 22:44:55 2025.
