 Gaussian 16, Revision C.01,

 ----------------------------------------------------------------------
 #t hf aug-cc-pvdz symm=none int=(grid=ultrafine) guess=(read,tcheck) s
 table=(opt,rrhf)
 ----------------------------------------------------------------------
 -----
 title
 -----
 Symbolic Z-matrix:
 Charge =  0 Multiplicity = 1

 SCF Done:  E(RHF) =  -278.645641562     A.U. after   17 cycles
 Normal termination of Gaussian 16 at Sat Apr  5 22:45:43 2025.
 Gaussian 16:  ES64L-G16RevC.01  3-Jul-2019

 ----------------------------------------------------------------------
 #t hf aug-cc-pvdz iop(5/13=1,5/36=2,99/5=2) pseudo=read geom=check gue
 ss=(read,tcheck) scf=(maxcycle=1)
 ----------------------------------------------------------------------
 -----
 title
 -----
 Structure from the checkpoint file:  "3-diazopropanenitrile.chk"
 Charge =  0 Multiplicity = 1

                         Standard orientation:
 ---------------------------------------------------------------------
 Center     Atomic      Atomic             Coordinates (Angstroms)
 Number     Number       Type             X           Y           Z
 ---------------------------------------------------------------------
      1          7           0       -1.616715   -0.101498    0.115335
      2          7           0       -2.512940   -0.696208   -0.240366
      3          7           0        2.592445   -0.787850    0.164792
      4          6           0       -0.601166    0.598614    0.503988
      5          6           0        0.580873    0.787284   -0.409301
      6          6           0        1.711258   -0.097097   -0.096653
      7          1           0       -0.609112    0.927289    1.529719
      8          1           0        0.289318    0.620071   -1.447202
      9          1           0        0.934469    1.818720   -0.349050
 ---------------------------------------------------------------------

 SCF Done:  E(RHF) =  -278.917394856     A.U. after    2 cycles

 The electronic state is 1-A.
 Alpha  occ. eigenvalues --  -15.69160 -15.61653 -15.51920 -11.32060 -11.30388
 Alpha  occ. eigenvalues --  -11.28806  -1.49571  -1.24339  -1.19432  -1.05427
 Alpha  occ. eigenvalues --   -0.79670  -0.76124  -0.74006  -0.72450  -0.69840
 Alpha  occ. eigenvalues --   -0.64357  -0.60953  -0.59390  -0.50603  -0.50304
 Alpha  occ. eigenvalues --   -0.37692
 Alpha virt. eigenvalues --    0.02740   0.04014   0.04252   0.05874   0.06595
 Alpha virt. eigenvalues --    0.08274   0.09234   0.10686   0.11277   0.11774
 Alpha virt. eigenvalues --    0.12894   0.14202   0.14274   0.14940   0.15926

 Mulliken charges:
               1
     1  N   -0.780173
     2  N    0.974847
     3  N    0.809043
     4  C   -0.054654
     5  C   -0.153977
     6  C   -1.356663
     7  H    0.023442
     8  H    0.267393
     9  H    0.270743
 Sum of Mulliken charges =   0.00000

 Dipole moment (field-independent basis, Debye):
    X=             -1.8782    Y=              3.7752    Z=             -0.3432  Tot=              4.2305

 Test job not archived.
 1\1\GINC-SE108\SP\RHF\Aug-CC-pVDZ\C3H3N3\OHZDE\05-Apr-2025\0\\#t hf au
 g-cc-pvdz iop(5/13=1,5/36=2,99/5=2) pseudo=read geom=check guess=(read
 ,tcheck) scf=(maxcycle=1)\\title\\0,1\N,0,-1.616715,-0.101498,0.115335
 \N,0,-2.51294,-0.696208,-0.240366\N,0,2.592445,-0.78785,0.164792\C,0,-
 0.601166,0.598614,0.503988\C,0,0.580873,0.787284,-0.409301\C,0,1.71125
 8,-0.097097,-0.096653\H,0,-0.609112,0.927289,1.529719\H,0,0.289318,0.6
 20071,-1.447202\H,0,0.934469,1.81872,-0.34905\\Version=ES64L-G16RevC.0
 1\State=1-A\HF=-278.9173949\RMSD=5.319e-02\Dipole=-0.7389275,1.4852735

 Normal termination of Gaussian 16 at Sat Apr  5 22:45:46 2025.
