 Gaussian 16, Revision C.01,

 ----------------------------------------------------------------------
 #t hf aug-cc-pvdz symm=none int=(grid=ultrafine) guess=(read,tcheck) s
 table=(opt,rrhf)
 ----------------------------------------------------------------------
 -----
 title
 -----
 Symbolic Z-matrix:
 Charge =  0 Multiplicity = 1

 SCF Done:  E(RHF) =  -423.607547054     A.U. after   15 cycles
 Normal termination of Gaussian 16 at Sat Apr  5 22:45:15 2025.
 Gaussian 16:  ES64L-G16RevC.01  3-Jul-2019

 ----------------------------------------------------------------------
 #t hf aug-cc-pvdz iop(5/13=1,5/36=2,99/5=2) pseudo=read geom=check gue
 ss=(read,tcheck) scf=(maxcycle=1)
 ----------------------------------------------------------------------
 -----
 title
 -----
 Structure from the checkpoint file:  "3-difluoroaminopropanenitrile.chk"
 Charge =  0 Multiplicity = 1

                         Standard orientation:
 ---------------------------------------------------------------------
 Center     Atomic      Atomic             Coordinates (Angstroms)
 Number     Number       Type             X           Y           Z
 ---------------------------------------------------------------------
      1          9           0        2.284114   -0.947156   -0.058625
      2          9           0        1.675956    1.135447   -0.349163
      3          7           0        1.368083   -0.002087    0.430483
      4          7           0       -3.383243   -0.343586   -0.277416
      5          6           0        0.067845   -0.461845   -0.080232
      6          6           0       -1.014437    0.516543    0.390152
      7          6           0       -2.342864    0.043335    0.020269
      8          1           0       -0.078651   -1.445718    0.361181
      9          1           0        0.101207   -0.548538   -1.166096
     10          1           0       -0.967408    0.631463    1.474281
     11          1           0       -0.852917    1.499687   -0.051863
 ---------------------------------------------------------------------

 SCF Done:  E(RHF) =  -424.011481611     A.U. after    2 cycles

 The electronic state is 1-A.
 Alpha  occ. eigenvalues --  -26.52081 -26.51904 -15.73571 -15.53265 -11.33184
 Alpha  occ. eigenvalues --  -11.32175 -11.30122  -1.68035  -1.59332  -1.25689
 Alpha  occ. eigenvalues --   -1.20929  -1.08078  -0.93332  -0.79748  -0.78929
 Alpha  occ. eigenvalues --   -0.76910  -0.72179  -0.70404  -0.66903  -0.63887
 Alpha  occ. eigenvalues --   -0.62537  -0.62031  -0.61346  -0.59023  -0.52958
 Alpha  occ. eigenvalues --   -0.51512  -0.51308
 Alpha virt. eigenvalues --    0.03259   0.04430   0.04544   0.05622   0.07205
 Alpha virt. eigenvalues --    0.09699   0.11366   0.11742   0.11957   0.12857
 Alpha virt. eigenvalues --    0.14261   0.14570   0.15018   0.16058   0.16326

 Mulliken charges:
               1
     1  F   -0.664614
     2  F   -0.651698
     3  N    1.527041
     4  N    0.913396
     5  C   -0.541825
     6  C    0.078033
     7  C   -1.501898
     8  H    0.108178
     9  H    0.184438
    10  H    0.274705
    11  H    0.274242
 Sum of Mulliken charges =  -0.00000

 Dipole moment (field-independent basis, Debye):
    X=              1.6829    Y=              0.6967    Z=              0.7665  Tot=              1.9761

 Test job not archived.
 1\1\GINC-SE168\SP\RHF\Aug-CC-pVDZ\C3H4F2N2\OHZDE\05-Apr-2025\0\\#t hf
 aug-cc-pvdz iop(5/13=1,5/36=2,99/5=2) pseudo=read geom=check guess=(re
 ad,tcheck) scf=(maxcycle=1)\\title\\0,1\F,0,2.284114,-0.947156,-0.0586
 25\F,0,1.675956,1.135447,-0.349163\N,0,1.368083,-0.002087,0.430483\N,0
 ,-3.383243,-0.343586,-0.277416\C,0,0.067845,-0.461845,-0.080232\C,0,-1
 .014437,0.516543,0.390152\C,0,-2.342864,0.043335,0.020269\H,0,-0.07865
 1,-1.445718,0.361181\H,0,0.101207,-0.548538,-1.166096\H,0,-0.967408,0.
 631463,1.474281\H,0,-0.852917,1.499687,-0.051863\\Version=ES64L-G16Rev

 Normal termination of Gaussian 16 at Sat Apr  5 22:45:37 2025.
