 Gaussian 16, Revision C.01,

 ----------------------------------------------------------------------
 #t hf aug-cc-pvdz symm=none int=(grid=ultrafine) guess=(read,tcheck) s
 table=(opt,rrhf)
 ----------------------------------------------------------------------
 -----
 title
 -----
 Symbolic Z-matrix:
 Charge =  0 Multiplicity = 1

 SCF Done:  E(RHF) =  -461.607795183     A.U. after   14 cycles
 Normal termination of Gaussian 16 at Sat Apr  5 22:45:12 2025.
 Gaussian 16:  ES64L-G16RevC.01  3-Jul-2019

 ----------------------------------------------------------------------
 #t hf aug-cc-pvdz iop(5/13=1,5/36=2,99/5=2) pseudo=read geom=check gue
 ss=(read,tcheck) scf=(maxcycle=1)
 ----------------------------------------------------------------------
 -----
 title
 -----
 Structure from the checkpoint file:  "3-difluoromethyl-1H-pyrazole.chk"
 Charge =  0 Multiplicity = 1

                         Standard orientation:
 ---------------------------------------------------------------------
 Center     Atomic      Atomic             Coordinates (Angstroms)
 Number     Number       Type             X           Y           Z
 ---------------------------------------------------------------------
      1          9           0        1.978702    0.162047    1.097252
      2          9           0        1.978699    0.162110   -1.097247
      3          7           0       -0.935444   -1.145511   -0.000034
      4          7           0       -2.145699   -0.572385   -0.000016
      5          6           0       -0.086571   -0.124026   -0.000003
      6          6           0        1.374341   -0.401214   -0.000013
      7          6           0       -0.758309    1.116762    0.000036
      8          6           0       -2.090320    0.782498    0.000026
      9          1           0       -2.962960   -1.156749   -0.000033
     10          1           0        1.588333   -1.468840   -0.000044
     11          1           0       -0.328803    2.101756    0.000066
     12          1           0       -2.980019    1.387567    0.000046
 ---------------------------------------------------------------------

 SCF Done:  E(RHF) =  -462.055993261     A.U. after    2 cycles

 The electronic state is 1-A.
 Alpha  occ. eigenvalues --  -26.47024 -26.47023 -15.59972 -15.55275 -11.42052
 Alpha  occ. eigenvalues --  -11.30102 -11.28153 -11.24705  -1.63348  -1.56473
 Alpha  occ. eigenvalues --   -1.39677  -1.14793  -1.08831  -0.98134  -0.87390
 Alpha  occ. eigenvalues --   -0.83744  -0.79416  -0.75357  -0.73345  -0.72657
 Alpha  occ. eigenvalues --   -0.66593  -0.63422  -0.63089  -0.62514  -0.59815
 Alpha  occ. eigenvalues --   -0.59302  -0.54126  -0.51831  -0.41710  -0.38837
 Alpha virt. eigenvalues --    0.02544   0.04347   0.04751   0.05340   0.08608
 Alpha virt. eigenvalues --    0.09035   0.10274   0.10535   0.11862   0.12688
 Alpha virt. eigenvalues --    0.12948   0.13466   0.13982   0.15485   0.16506

 Mulliken charges:
               1
     1  F   -0.726342
     2  F   -0.726342
     3  N    0.126208
     4  N    0.293481
     5  C   -0.849971
     6  C    1.940474
     7  C    0.518794
     8  C   -0.276453
     9  H    0.070859
    10  H    0.007322
    11  H   -0.159447
    12  H   -0.218583
 Sum of Mulliken charges =  -0.00000

 Dipole moment (field-independent basis, Debye):
    X=             -3.7634    Y=              0.8445    Z=              0.0000  Tot=              3.8570

 Test job not archived.
 1\1\GINC-SE169\SP\RHF\Aug-CC-pVDZ\C4H4F2N2\OHZDE\05-Apr-2025\0\\#t hf
 aug-cc-pvdz iop(5/13=1,5/36=2,99/5=2) pseudo=read geom=check guess=(re
 ad,tcheck) scf=(maxcycle=1)\\title\\0,1\F,0,1.978702,0.162047,1.097252
 \F,0,1.978699,0.16211,-1.097247\N,0,-0.935444,-1.145511,-0.000034\N,0,
 -2.145699,-0.572385,-0.000016\C,0,-0.086571,-0.124026,-0.000003\C,0,1.
 374341,-0.401214,-0.000013\C,0,-0.758309,1.116762,0.000036\C,0,-2.0903
 2,0.782498,0.000026\H,0,-2.96296,-1.156749,-0.000033\H,0,1.588333,-1.4
 6884,-0.000044\H,0,-0.328803,2.101756,0.000066\H,0,-2.980019,1.387567,

 Normal termination of Gaussian 16 at Sat Apr  5 22:45:39 2025.
