 Gaussian 16, Revision C.01,

 ----------------------------------------------------------------------
 #t hf aug-cc-pvdz symm=none int=(grid=ultrafine) guess=(read,tcheck) s
 table=(opt,rrhf)
 ----------------------------------------------------------------------
 -----
 title
 -----
 Symbolic Z-matrix:
 Charge =  0 Multiplicity = 1

 SCF Done:  E(RHF) =  -592.689061645     A.U. after   13 cycles

 1\1\GINC-SE221\Stability\RHF\Aug-CC-pVDZ\C5H10S1\OHZDE\05-Apr-2025\0\\
 #t hf aug-cc-pvdz symm=none int=(grid=ultrafine) guess=(read,tcheck) s
 table=(opt,rrhf)\\title\\0,1\H,0,-3.802515,-1.239154,0.\H,0,-2.689478,
 0.229953,0.\C,0,-2.794898,-0.846771,0.\H,0,-1.915495,-2.733395,0.\C,0,
 -1.747715,-1.660126,0.\H,0,0.189038,-1.709801,0.877836\H,0,0.189038,-1
 .709801,-0.877836\C,0,-0.299553,-1.277902,0.\S,0,0.,0.525942,0.\H,0,2.
 174574,-0.032527,0.883368\H,0,2.174574,-0.032527,-0.883368\C,0,1.83148
 5,0.507447,0.\H,0,3.459524,1.92213,0.\H,0,2.036376,2.479514,-0.882479\

 Normal termination of Gaussian 16 at Sat Apr  5 22:45:42 2025.
 Gaussian 16:  ES64L-G16RevC.01  3-Jul-2019

 ----------------------------------------------------------------------
 #t hf aug-cc-pvdz iop(5/13=1,5/36=2,99/5=2) pseudo=read geom=check gue
 ss=(read,tcheck) scf=(maxcycle=1)
 ----------------------------------------------------------------------
 -----
 title
 -----
 Structure from the checkpoint file:  "3-ethylthio-1-propene.chk"
 Charge =  0 Multiplicity = 1

                         Standard orientation:
 ---------------------------------------------------------------------
 Center     Atomic      Atomic             Coordinates (Angstroms)
 Number     Number       Type             X           Y           Z
 ---------------------------------------------------------------------
      1          1           0       -3.802515   -1.239154    0.000000
      2          1           0       -2.689478    0.229953    0.000000
      3          6           0       -2.794898   -0.846771    0.000000
      4          1           0       -1.915495   -2.733395    0.000000
      5          6           0       -1.747715   -1.660126    0.000000
      6          1           0        0.189038   -1.709801    0.877836
      7          1           0        0.189038   -1.709801   -0.877836
      8          6           0       -0.299553   -1.277902    0.000000
      9         16           0        0.000000    0.525942    0.000000
     10          1           0        2.174574   -0.032527    0.883368
     11          1           0        2.174574   -0.032527   -0.883368
     12          6           0        1.831485    0.507447    0.000000
     13          1           0        3.459524    1.922130    0.000000
     14          1           0        2.036376    2.479514   -0.882479
     15          1           0        2.036376    2.479514    0.882479
     16          6           0        2.368679    1.932523    0.000000
 ---------------------------------------------------------------------

 SCF Done:  E(RHF) =  -592.964500133     A.U. after    2 cycles

 The electronic state is 1-A'.
 Alpha  occ. eigenvalues --  -93.93445 -11.27034 -11.26649 -11.24820 -11.23463
 Alpha  occ. eigenvalues --  -11.23162  -8.21556  -6.19375  -6.19231  -6.19000
 Alpha  occ. eigenvalues --   -1.11076  -1.06211  -0.98352  -0.89978  -0.82010
 Alpha  occ. eigenvalues --   -0.74902  -0.65977  -0.64109  -0.60911  -0.60282
 Alpha  occ. eigenvalues --   -0.58744  -0.54244  -0.52416  -0.51544  -0.47430
 Alpha  occ. eigenvalues --   -0.43373  -0.37478  -0.34244
 Alpha virt. eigenvalues --    0.03394   0.03571   0.04194   0.04412   0.05428
 Alpha virt. eigenvalues --    0.05612   0.06693   0.07847   0.08687   0.08794
 Alpha virt. eigenvalues --    0.10545   0.11468   0.13318   0.14066   0.14362

 Mulliken charges:
               1
     1  H   -0.125843
     2  H    0.010219
     3  C   -0.064245
     4  H   -0.195532
     5  C    0.716889
     6  H    0.261148
     7  H    0.261148
     8  C   -1.086219
     9  S    0.511029
    10  H    0.130690
    11  H    0.130690
    12  C   -0.668384
    13  H    0.147921
    14  H    0.174369
    15  H    0.174369
    16  C   -0.378248
 Sum of Mulliken charges =  -0.00000

 Dipole moment (field-independent basis, Debye):
    X=              1.5071    Y=             -1.2835    Z=              0.0000  Tot=              1.9796

 Test job not archived.
 1\1\GINC-SE221\SP\RHF\Aug-CC-pVDZ\C5H10S1\OHZDE\05-Apr-2025\0\\#t hf a
 ug-cc-pvdz iop(5/13=1,5/36=2,99/5=2) pseudo=read geom=check guess=(rea
 d,tcheck) scf=(maxcycle=1)\\title\\0,1\H,0,-3.802515,-1.239154,0.\H,0,
 -2.689478,0.229953,0.\C,0,-2.794898,-0.846771,0.\H,0,-1.915495,-2.7333
 95,0.\C,0,-1.747715,-1.660126,0.\H,0,0.189038,-1.709801,0.877836\H,0,0
 .189038,-1.709801,-0.877836\C,0,-0.299553,-1.277902,0.\S,0,0.,0.525942
 ,0.\H,0,2.174574,-0.032527,0.883368\H,0,2.174574,-0.032527,-0.883368\C
 ,0,1.831485,0.507447,0.\H,0,3.459524,1.92213,0.\H,0,2.036376,2.479514,

 Normal termination of Gaussian 16 at Sat Apr  5 22:45:47 2025.
