 Gaussian 16, Revision C.01,

 ----------------------------------------------------------------------
 #t hf aug-cc-pvdz symm=none int=(grid=ultrafine) guess=(read,tcheck) s
 table=(opt,rrhf)
 ----------------------------------------------------------------------
 -----
 title
 -----
 Symbolic Z-matrix:
 Charge =  0 Multiplicity = 1

 SCF Done:  E(RHF) =  -324.803893341     A.U. after   14 cycles
 Normal termination of Gaussian 16 at Sat Apr  5 22:45:45 2025.
 Gaussian 16:  ES64L-G16RevC.01  3-Jul-2019

 ----------------------------------------------------------------------
 #t hf aug-cc-pvdz iop(5/13=1,5/36=2,99/5=2) pseudo=read geom=check gue
 ss=(read,tcheck) scf=(maxcycle=1)
 ----------------------------------------------------------------------
 -----
 title
 -----
 Structure from the checkpoint file:  "3-ethylpyridine.chk"
 Charge =  0 Multiplicity = 1

                         Standard orientation:
 ---------------------------------------------------------------------
 Center     Atomic      Atomic             Coordinates (Angstroms)
 Number     Number       Type             X           Y           Z
 ---------------------------------------------------------------------
      1          6           0        1.635229    1.169984    0.080429
      2          6           0        0.276934    1.186693   -0.201516
      3          6           0        2.267258   -0.057658    0.237114
      4          6           0        0.324908   -1.186647   -0.148460
      5          6           0       -0.416052   -0.015986   -0.320449
      6          6           0       -2.745423    0.061771    0.682967
      7          6           0       -1.897892   -0.062347   -0.591011
      8          7           0        1.628799   -1.222087    0.123692
      9          1           0        2.197669    2.088931    0.173539
     10          1           0       -0.242156    2.128401   -0.334054
     11          1           0        3.327219   -0.108700    0.457919
     12          1           0       -0.166546   -2.150313   -0.242291
     13          1           0       -2.523086   -0.747211    1.379701
     14          1           0       -3.809451    0.022818    0.446195
     15          1           0       -2.548064    1.004033    1.195978
     16          1           0       -2.164854    0.740982   -1.281320
     17          1           0       -2.142103   -0.999187   -1.095962
 ---------------------------------------------------------------------

 SCF Done:  E(RHF) =  -325.144908599     A.U. after    2 cycles

 The electronic state is 1-A.
 Alpha  occ. eigenvalues --  -15.50126 -11.27346 -11.27252 -11.25860 -11.24839
 Alpha  occ. eigenvalues --  -11.24561 -11.24443 -11.23263  -1.25690  -1.10974
 Alpha  occ. eigenvalues --   -1.05968  -1.00429  -0.89227  -0.87108  -0.82468
 Alpha  occ. eigenvalues --   -0.72461  -0.69939  -0.64929  -0.61365  -0.60715
 Alpha  occ. eigenvalues --   -0.58984  -0.57395  -0.55303  -0.53013  -0.51230
 Alpha  occ. eigenvalues --   -0.49990  -0.44493  -0.39685  -0.34694
 Alpha virt. eigenvalues --    0.03246   0.03431   0.03880   0.04213   0.05229
 Alpha virt. eigenvalues --    0.05727   0.06799   0.07567   0.08397   0.08546
 Alpha virt. eigenvalues --    0.10187   0.10496   0.11220   0.12839   0.13476

 Mulliken charges:
               1
     1  C    0.418777
     2  C    0.222746
     3  C   -0.917919
     4  C   -1.220229
     5  C    1.731510
     6  C   -0.397338
     7  C   -0.703690
     8  N    1.077984
     9  H   -0.190246
    10  H   -0.262839
    11  H   -0.179885
    12  H   -0.239852
    13  H    0.169236
    14  H    0.110879
    15  H    0.159246
    16  H    0.116002
    17  H    0.105618
 Sum of Mulliken charges =   0.00000

 Dipole moment (field-independent basis, Debye):
    X=             -1.7830    Y=              2.3047    Z=             -0.3361  Tot=              2.9332

 Test job not archived.
 1\1\GINC-SE220\SP\RHF\Aug-CC-pVDZ\C7H9N1\OHZDE\05-Apr-2025\0\\#t hf au
 g-cc-pvdz iop(5/13=1,5/36=2,99/5=2) pseudo=read geom=check guess=(read
 ,tcheck) scf=(maxcycle=1)\\title\\0,1\C,0,1.635229,1.169984,0.080429\C
 ,0,0.276934,1.186693,-0.201516\C,0,2.267258,-0.057658,0.237114\C,0,0.3
 24908,-1.186647,-0.14846\C,0,-0.416052,-0.015986,-0.320449\C,0,-2.7454
 23,0.061771,0.682967\C,0,-1.897892,-0.062347,-0.591011\N,0,1.628799,-1
 .222087,0.123692\H,0,2.197669,2.088931,0.173539\H,0,-0.242156,2.128401
 ,-0.334054\H,0,3.327219,-0.1087,0.457919\H,0,-0.166546,-2.150313,-0.24

 Normal termination of Gaussian 16 at Sat Apr  5 22:47:08 2025.
