 Gaussian 16, Revision C.01,

 ----------------------------------------------------------------------
 #t hf aug-cc-pvdz symm=none int=(grid=ultrafine) guess=(read,tcheck) s
 table=(opt,rrhf)
 ----------------------------------------------------------------------
 -----
 title
 -----
 Symbolic Z-matrix:
 Charge =  0 Multiplicity = 1

 SCF Done:  E(RHF) =  -742.363128610     A.U. after   14 cycles
 Normal termination of Gaussian 16 at Sat Apr  5 22:46:38 2025.
 Gaussian 16:  ES64L-G16RevC.01  3-Jul-2019

 ----------------------------------------------------------------------
 #t hf aug-cc-pvdz iop(5/13=1,5/36=2,99/5=2) pseudo=read geom=check gue
 ss=(read,tcheck) scf=(maxcycle=1)
 ----------------------------------------------------------------------
 -----
 title
 -----
 Structure from the checkpoint file:  "3-ethylsulphonyl-1-propene.chk"
 Charge =  0 Multiplicity = 1

                         Standard orientation:
 ---------------------------------------------------------------------
 Center     Atomic      Atomic             Coordinates (Angstroms)
 Number     Number       Type             X           Y           Z
 ---------------------------------------------------------------------
      1          6           0       -3.048752   -0.233601    0.036674
      2          6           0       -1.747093   -0.694147   -0.606769
      3         16           0       -0.333206    0.184684    0.124046
      4          8           0       -0.241241   -0.192676    1.531689
      5          8           0       -0.432759    1.596855   -0.241566
      6          6           0        1.104634   -0.526657   -0.766862
      7          6           0        2.358790    0.197724   -0.407998
      8          6           0        3.357139   -0.350923    0.271282
      9          1           0       -3.045989   -0.433495    1.106557
     10          1           0       -3.203625    0.832669   -0.117926
     11          1           0       -3.884192   -0.770832   -0.411908
     12          1           0       -1.719025   -0.479926   -1.674605
     13          1           0       -1.562290   -1.755515   -0.442909
     14          1           0        1.142724   -1.579964   -0.494282
     15          1           0        0.862845   -0.421743   -1.825556
     16          1           0        2.417087    1.230864   -0.727347
     17          1           0        3.318293   -1.376763    0.615663
     18          1           0        4.249152    0.211954    0.508629
 ---------------------------------------------------------------------

 SCF Done:  E(RHF) =  -742.787045701     A.U. after    2 cycles

 The electronic state is 1-A.
 Alpha  occ. eigenvalues --  -94.17862 -20.52680 -20.52602 -11.29388 -11.29065
 Alpha  occ. eigenvalues --  -11.26206 -11.25293 -11.25038  -8.43255  -6.41347
 Alpha  occ. eigenvalues --   -6.41137  -6.41079  -1.53654  -1.41951  -1.11957
 Alpha  occ. eigenvalues --   -1.08888  -1.00520  -0.91661  -0.82276  -0.78669
 Alpha  occ. eigenvalues --   -0.70365  -0.68996  -0.67212  -0.65397  -0.63203
 Alpha  occ. eigenvalues --   -0.61872  -0.58846  -0.56834  -0.55996  -0.53649
 Alpha  occ. eigenvalues --   -0.52806  -0.48012  -0.47967  -0.44833  -0.43317
 Alpha  occ. eigenvalues --   -0.38501
 Alpha virt. eigenvalues --    0.02769   0.03564   0.03774   0.04234   0.05565
 Alpha virt. eigenvalues --    0.05647   0.06849   0.07342   0.07543   0.09221
 Alpha virt. eigenvalues --    0.09866   0.11263   0.12415   0.13003   0.13863

 Mulliken charges:
               1
     1  C   -0.398166
     2  C   -0.619196
     3  S    3.340275
     4  O   -1.584792
     5  O   -1.607780
     6  C   -0.921619
     7  C    1.031652
     8  C   -0.116637
     9  H    0.199606
    10  H    0.195369
    11  H    0.157321
    12  H    0.159175
    13  H    0.152868
    14  H    0.075675
    15  H    0.223889
    16  H   -0.155791
    17  H   -0.054182
    18  H   -0.077666
 Sum of Mulliken charges =   0.00000

 Dipole moment (field-independent basis, Debye):
    X=             -0.0910    Y=             -3.4452    Z=             -3.3021  Tot=              4.7730

 Test job not archived.
 1\1\GINC-SE221\SP\RHF\Aug-CC-pVDZ\C5H10O2S1\OHZDE\05-Apr-2025\0\\#t hf
  aug-cc-pvdz iop(5/13=1,5/36=2,99/5=2) pseudo=read geom=check guess=(r
 ead,tcheck) scf=(maxcycle=1)\\title\\0,1\C,0,-3.048752,-0.233601,0.036
 674\C,0,-1.747093,-0.694147,-0.606769\S,0,-0.333206,0.184684,0.124046\
 O,0,-0.241241,-0.192676,1.531689\O,0,-0.432759,1.596855,-0.241566\C,0,
 1.104634,-0.526657,-0.766862\C,0,2.35879,0.197724,-0.407998\C,0,3.3571
 39,-0.350923,0.271282\H,0,-3.045989,-0.433495,1.106557\H,0,-3.203625,0
 .832669,-0.117926\H,0,-3.884192,-0.770832,-0.411908\H,0,-1.719025,-0.4

 Normal termination of Gaussian 16 at Sat Apr  5 22:47:09 2025.
