 Gaussian 16, Revision C.01,

 ----------------------------------------------------------------------
 #t hf aug-cc-pvdz symm=none int=(grid=ultrafine) guess=(read,tcheck) s
 table=(opt,rrhf)
 ----------------------------------------------------------------------
 -----
 title
 -----
 Symbolic Z-matrix:
 Charge =  0 Multiplicity = 1

 SCF Done:  E(RHF) =  -714.034173701     A.U. after   16 cycles
 Normal termination of Gaussian 16 at Sat Apr  5 22:45:12 2025.
 Gaussian 16:  ES64L-G16RevC.01  3-Jul-2019

 ----------------------------------------------------------------------
 #t hf aug-cc-pvdz iop(5/13=1,5/36=2,99/5=2) pseudo=read geom=check gue
 ss=(read,tcheck) scf=(maxcycle=1)
 ----------------------------------------------------------------------
 -----
 title
 -----
 Structure from the checkpoint file:  "3-ethynylsulfanyl-1H-1-2-4-triazole.chk"
 Charge =  0 Multiplicity = 1

                         Standard orientation:
 ---------------------------------------------------------------------
 Center     Atomic      Atomic             Coordinates (Angstroms)
 Number     Number       Type             X           Y           Z
 ---------------------------------------------------------------------
      1         16           0       -1.131399   -1.070775   -0.000017
      2          7           0        1.538046   -1.000510   -0.000058
      3          7           0        0.653008    1.084197    0.000038
      4          7           0        2.510851   -0.057395   -0.000035
      5          6           0        0.445498   -0.256528   -0.000012
      6          6           0        1.967699    1.170963    0.000021
      7          6           0       -2.199076    0.233648    0.000030
      8          6           0       -3.054062    1.079168    0.000059
      9          1           0        3.478056   -0.332882   -0.000061
     10          1           0        2.546140    2.079525    0.000047
     11          1           0       -3.795499    1.838204    0.000079
 ---------------------------------------------------------------------

 SCF Done:  E(RHF) =  -714.409314469     A.U. after    2 cycles

 The electronic state is 1-A.
 Alpha  occ. eigenvalues --  -93.99890 -15.60836 -15.54787 -15.51370 -11.34183
 Alpha  occ. eigenvalues --  -11.33798 -11.26654 -11.24898  -8.27895  -6.25742
 Alpha  occ. eigenvalues --   -6.25542  -6.25305  -1.42808  -1.22808  -1.16756
 Alpha  occ. eigenvalues --   -1.10330  -1.00511  -0.91979  -0.86115  -0.82337
 Alpha  occ. eigenvalues --   -0.73403  -0.69413  -0.69147  -0.65113  -0.57689
 Alpha  occ. eigenvalues --   -0.53876  -0.51643  -0.51422  -0.46986  -0.43220
 Alpha  occ. eigenvalues --   -0.41146  -0.34270
 Alpha virt. eigenvalues --    0.02490   0.03984   0.04477   0.07707   0.07945
 Alpha virt. eigenvalues --    0.08152   0.09548   0.09803   0.10665   0.11045
 Alpha virt. eigenvalues --    0.11208   0.13641   0.13985   0.14210   0.14464

 Mulliken charges:
               1
     1  S    0.745581
     2  N    0.286340
     3  N    0.755777
     4  N    0.235869
     5  C   -1.856286
     6  C   -0.136283
     7  C   -0.038024
     8  C    0.303182
     9  H    0.058436
    10  H   -0.047664
    11  H   -0.306928
 Sum of Mulliken charges =  -0.00000

 Dipole moment (field-independent basis, Debye):
    X=              3.0794    Y=              2.0952    Z=              0.0000  Tot=              3.7245

 Test job not archived.
 1\1\GINC-SE223\SP\RHF\Aug-CC-pVDZ\C4H3N3S1\OHZDE\05-Apr-2025\0\\#t hf
 aug-cc-pvdz iop(5/13=1,5/36=2,99/5=2) pseudo=read geom=check guess=(re
 ad,tcheck) scf=(maxcycle=1)\\title\\0,1\S,0,-1.131399,-1.070775,-0.000
 017\N,0,1.538046,-1.00051,-0.000058\N,0,0.653008,1.084197,0.000038\N,0
 ,2.510851,-0.057395,-0.000035\C,0,0.445498,-0.256528,-0.000012\C,0,1.9
 67699,1.170963,0.000021\C,0,-2.199076,0.233648,0.00003\C,0,-3.054062,1
 .079168,0.000059\H,0,3.478056,-0.332882,-0.000061\H,0,2.54614,2.079525
 ,0.000047\H,0,-3.795499,1.838204,0.000079\\Version=ES64L-G16RevC.01\St

 Normal termination of Gaussian 16 at Sat Apr  5 22:45:38 2025.
