 Gaussian 16, Revision C.01,

 ----------------------------------------------------------------------
 #t hf aug-cc-pvdz symm=none int=(grid=ultrafine) guess=(read,tcheck) s
 table=(opt,rrhf)
 ----------------------------------------------------------------------
 -----
 title
 -----
 Symbolic Z-matrix:
 Charge =  0 Multiplicity = 1

 SCF Done:  E(RHF) =  -383.681417361     A.U. after   15 cycles

 1\1\GINC-SE171\Stability\RHF\Aug-CC-pVDZ\C8H10O1\OHZDE\05-Apr-2025\0\\
 #t hf aug-cc-pvdz symm=none int=(grid=ultrafine) guess=(read,tcheck) s
 table=(opt,rrhf)\\title\\0,1\C,0,-0.901148,1.795527,0.122367\C,0,0.418
 569,1.454846,-0.142196\C,0,-1.883647,0.815844,0.20091\C,0,-0.208669,-0
 .860797,-0.25698\C,0,0.778487,0.11851,-0.333408\C,0,-1.530238,-0.51657
 2,0.009051\C,0,2.984093,-0.57757,0.712281\C,0,2.217039,-0.266854,-0.58
 0918\O,0,-2.444462,-1.534667,0.066317\H,0,-1.173015,2.83292,0.265293\H
 ,0,1.172655,2.228454,-0.206139\H,0,-2.913718,1.08375,0.403866\H,0,0.03

 Normal termination of Gaussian 16 at Sat Apr  5 22:46:13 2025.
 Gaussian 16:  ES64L-G16RevC.01  3-Jul-2019

 ----------------------------------------------------------------------
 #t hf aug-cc-pvdz iop(5/13=1,5/36=2,99/5=2) pseudo=read geom=check gue
 ss=(read,tcheck) scf=(maxcycle=1)
 ----------------------------------------------------------------------
 -----
 title
 -----
 Structure from the checkpoint file:  "3-ethylphenol.chk"
 Charge =  0 Multiplicity = 1

                         Standard orientation:
 ---------------------------------------------------------------------
 Center     Atomic      Atomic             Coordinates (Angstroms)
 Number     Number       Type             X           Y           Z
 ---------------------------------------------------------------------
      1          6           0       -0.901148    1.795527    0.122367
      2          6           0        0.418569    1.454846   -0.142196
      3          6           0       -1.883647    0.815844    0.200910
      4          6           0       -0.208669   -0.860797   -0.256980
      5          6           0        0.778487    0.118510   -0.333408
      6          6           0       -1.530238   -0.516572    0.009051
      7          6           0        2.984093   -0.577570    0.712281
      8          6           0        2.217039   -0.266854   -0.580918
      9          8           0       -2.444462   -1.534667    0.066317
     10          1           0       -1.173015    2.832920    0.265293
     11          1           0        1.172655    2.228454   -0.206139
     12          1           0       -2.913718    1.083750    0.403866
     13          1           0        0.034043   -1.904816   -0.407043
     14          1           0        2.994645    0.286561    1.377704
     15          1           0        4.017795   -0.850368    0.494569
     16          1           0        2.521714   -1.405294    1.251253
     17          1           0        2.251433   -1.139150   -1.236927
     18          1           0        2.720909    0.543479   -1.111640
     19          1           0       -3.317676   -1.175798    0.251885
 ---------------------------------------------------------------------

 SCF Done:  E(RHF) =  -384.082026174     A.U. after    2 cycles

 The electronic state is 1-A.
 Alpha  occ. eigenvalues --  -20.57824 -11.30671 -11.24816 -11.24666 -11.23596
 Alpha  occ. eigenvalues --  -11.23527 -11.22811 -11.22738 -11.22612  -1.49047
 Alpha  occ. eigenvalues --   -1.15597  -1.06523  -1.01111  -0.98589  -0.87704
 Alpha  occ. eigenvalues --   -0.83388  -0.81645  -0.71930  -0.69321  -0.66813
 Alpha  occ. eigenvalues --   -0.62796  -0.60773  -0.59377  -0.58644  -0.56771
 Alpha  occ. eigenvalues --   -0.55707  -0.53050  -0.51575  -0.49316  -0.48487
 Alpha  occ. eigenvalues --   -0.47532  -0.34237  -0.31944
 Alpha virt. eigenvalues --    0.03096   0.03631   0.03844   0.04577   0.04937
 Alpha virt. eigenvalues --    0.05189   0.07137   0.07326   0.08650   0.08784
 Alpha virt. eigenvalues --    0.10377   0.10546   0.11453   0.12449   0.13572

 Mulliken charges:
               1
     1  C   -0.034565
     2  C    0.223665
     3  C   -0.164124
     4  C    0.220986
     5  C    1.468112
     6  C    1.524867
     7  C   -0.405550
     8  C   -0.800944
     9  O   -1.795686
    10  H   -0.226845
    11  H   -0.338450
    12  H   -0.323004
    13  H   -0.313990
    14  H    0.155715
    15  H    0.108965
    16  H    0.154061
    17  H    0.080461
    18  H    0.062476
    19  H    0.403852
 Sum of Mulliken charges =  -0.00000

 Dipole moment (field-independent basis, Debye):
    X=             -0.3767    Y=              0.9304    Z=              0.2188  Tot=              1.0274

 Test job not archived.
 1\1\GINC-SE171\SP\RHF\Aug-CC-pVDZ\C8H10O1\OHZDE\05-Apr-2025\0\\#t hf a
 ug-cc-pvdz iop(5/13=1,5/36=2,99/5=2) pseudo=read geom=check guess=(rea
 d,tcheck) scf=(maxcycle=1)\\title\\0,1\C,0,-0.901148,1.795527,0.122367
 \C,0,0.418569,1.454846,-0.142196\C,0,-1.883647,0.815844,0.20091\C,0,-0
 .208669,-0.860797,-0.25698\C,0,0.778487,0.11851,-0.333408\C,0,-1.53023
 8,-0.516572,0.009051\C,0,2.984093,-0.57757,0.712281\C,0,2.217039,-0.26
 6854,-0.580918\O,0,-2.444462,-1.534667,0.066317\H,0,-1.173015,2.83292,
 0.265293\H,0,1.172655,2.228454,-0.206139\H,0,-2.913718,1.08375,0.40386

 Normal termination of Gaussian 16 at Sat Apr  5 22:47:10 2025.
