 Gaussian 16, Revision C.01,

 ----------------------------------------------------------------------
 #t hf aug-cc-pvdz symm=none int=(grid=ultrafine) guess=(read,tcheck) s
 table=(opt,rrhf)
 ----------------------------------------------------------------------
 -----
 title
 -----
 Symbolic Z-matrix:
 Charge =  0 Multiplicity = 1

 SCF Done:  E(RHF) =  -214.733593976     A.U. after   13 cycles
 Normal termination of Gaussian 16 at Sat Apr  5 22:44:57 2025.
 Gaussian 16:  ES64L-G16RevC.01  3-Jul-2019

 ----------------------------------------------------------------------
 #t hf aug-cc-pvdz iop(5/13=1,5/36=2,99/5=2) pseudo=read geom=check gue
 ss=(read,tcheck) scf=(maxcycle=1)
 ----------------------------------------------------------------------
 -----
 title
 -----
 Structure from the checkpoint file:  "3-fluoro-propyne.chk"
 Charge =  0 Multiplicity = 1

                         Standard orientation:
 ---------------------------------------------------------------------
 Center     Atomic      Atomic             Coordinates (Angstroms)
 Number     Number       Type             X           Y           Z
 ---------------------------------------------------------------------
      1          9           0       -1.495654   -0.534690    0.000025
      2          6           0        0.759246    0.134886   -0.000021
      3          6           0       -0.629994    0.562044    0.000074
      4          6           0        1.910455   -0.197047   -0.000106
      5          1           0        2.928597   -0.497755   -0.000166
      6          1           0       -0.852940    1.155263    0.888657
      7          1           0       -0.853016    1.155403   -0.888397
 ---------------------------------------------------------------------

 SCF Done:  E(RHF) =  -214.945518502     A.U. after    2 cycles

 The electronic state is 1-A.
 Alpha  occ. eigenvalues --  -26.45743 -11.35696 -11.25984 -11.25614  -1.57651
 Alpha  occ. eigenvalues --   -1.07408  -0.97415  -0.76084  -0.71109  -0.70893
 Alpha  occ. eigenvalues --   -0.68610  -0.56846  -0.55401  -0.42705  -0.41651
 Alpha virt. eigenvalues --    0.03439   0.03738   0.05177   0.08537   0.09725
 Alpha virt. eigenvalues --    0.10375   0.11190   0.13418   0.15489   0.16159
 Alpha virt. eigenvalues --    0.16174   0.16525   0.17246   0.20238   0.21794

 Mulliken charges:
               1
     1  F   -0.675603
     2  C   -0.077638
     3  C    0.335526
     4  C    0.484323
     5  H   -0.354699
     6  H    0.144045
     7  H    0.144047
 Sum of Mulliken charges =  -0.00000

 Dipole moment (field-independent basis, Debye):
    X=              1.0828    Y=              1.5308    Z=              0.0001  Tot=              1.8750

 Test job not archived.
 1\1\GINC-SE151\SP\RHF\Aug-CC-pVDZ\C3H3F1\OHZDE\05-Apr-2025\0\\#t hf au
 g-cc-pvdz iop(5/13=1,5/36=2,99/5=2) pseudo=read geom=check guess=(read
 ,tcheck) scf=(maxcycle=1)\\title\\0,1\F,0,-1.495654,-0.53469,0.000025\
 C,0,0.759246,0.134886,-0.000021\C,0,-0.629994,0.562044,0.000074\C,0,1.
 910455,-0.197047,-0.000106\H,0,2.928597,-0.497755,-0.000166\H,0,-0.852
 94,1.155263,0.888657\H,0,-0.853016,1.155403,-0.888397\\Version=ES64L-G
 16RevC.01\State=1-A\HF=-214.9455185\RMSD=2.415e-02\Dipole=0.4260114,0.
 6022515,0.0000329\Quadrupole=1.5805151,-0.7037437,-0.8767714,-2.901380

 Normal termination of Gaussian 16 at Sat Apr  5 22:45:00 2025.
