 Gaussian 16, Revision C.01,

 ----------------------------------------------------------------------
 #t hf aug-cc-pvdz symm=none int=(grid=ultrafine) guess=(read,tcheck) s
 table=(opt,rrhf)
 ----------------------------------------------------------------------
 -----
 title
 -----
 Symbolic Z-matrix:
 Charge =  0 Multiplicity = 1

 SCF Done:  E(RHF) =  -549.074313137     A.U. after   17 cycles
 Normal termination of Gaussian 16 at Sat Apr  5 22:45:49 2025.
 Gaussian 16:  ES64L-G16RevC.01  3-Jul-2019

 ----------------------------------------------------------------------
 #t hf aug-cc-pvdz iop(5/13=1,5/36=2,99/5=2) pseudo=read geom=check gue
 ss=(read,tcheck) scf=(maxcycle=1)
 ----------------------------------------------------------------------
 -----
 title
 -----
 Structure from the checkpoint file:  "3-fluoro-2-nitropyridine.chk"
 Charge =  0 Multiplicity = 1

                         Standard orientation:
 ---------------------------------------------------------------------
 Center     Atomic      Atomic             Coordinates (Angstroms)
 Number     Number       Type             X           Y           Z
 ---------------------------------------------------------------------
      1          9           0        0.201937    2.092857   -0.235362
      2          8           0        2.218016   -1.126868   -0.702067
      3          8           0        2.244199    0.459327    0.785864
      4          7           0       -0.418686   -1.425726    0.129866
      5          7           0        1.685363   -0.319981    0.031773
      6          6           0        0.196563   -0.271665    0.023108
      7          6           0       -0.463634    0.946200   -0.091353
      8          6           0       -1.846644    0.947840   -0.089972
      9          6           0       -2.503225   -0.267010    0.041067
     10          6           0       -1.749398   -1.430562    0.150722
     11          1           0       -2.376584    1.884122   -0.192026
     12          1           0       -3.582748   -0.311349    0.052145
     13          1           0       -2.224534   -2.397029    0.254856
 ---------------------------------------------------------------------

 SCF Done:  E(RHF) =  -549.601281759     A.U. after    2 cycles

 The electronic state is 1-A.
 Alpha  occ. eigenvalues --  -26.51732 -20.60215 -20.59984 -15.80160 -15.56192
 Alpha  occ. eigenvalues --  -11.38936 -11.37147 -11.32192 -11.30892 -11.29931
 Alpha  occ. eigenvalues --   -1.68385  -1.65136  -1.52178  -1.32877  -1.14795
 Alpha  occ. eigenvalues --   -1.13491  -1.02023  -0.93834  -0.90311  -0.82490
 Alpha  occ. eigenvalues --   -0.79913  -0.77630  -0.76016  -0.73703  -0.71787
 Alpha  occ. eigenvalues --   -0.71537  -0.66662  -0.64464  -0.61179  -0.61016
 Alpha  occ. eigenvalues --   -0.52894  -0.50375  -0.49461  -0.45446  -0.44879
 Alpha  occ. eigenvalues --   -0.39953
 Alpha virt. eigenvalues --    0.02125   0.02276   0.03157   0.04321   0.05542
 Alpha virt. eigenvalues --    0.08348   0.08939   0.09140   0.09184   0.10878
 Alpha virt. eigenvalues --    0.11552   0.12493   0.12785   0.13175   0.13601

 Mulliken charges:
               1
     1  F   -0.974839
     2  O   -1.336502
     3  O   -1.315853
     4  N    1.068058
     5  N    2.640707
     6  C   -1.518457
     7  C    1.530997
     8  C    0.277856
     9  C    0.715466
    10  C   -0.554887
    11  H   -0.155359
    12  H   -0.182489
    13  H   -0.194698
 Sum of Mulliken charges =  -0.00000

 Dipole moment (field-independent basis, Debye):
    X=             -6.5427    Y=              1.1089    Z=             -0.1226  Tot=              6.6371

 Test job not archived.
 1\1\GINC-SE223\SP\RHF\Aug-CC-pVDZ\C5H3F1N2O2\OHZDE\05-Apr-2025\0\\#t h
 f aug-cc-pvdz iop(5/13=1,5/36=2,99/5=2) pseudo=read geom=check guess=(
 read,tcheck) scf=(maxcycle=1)\\title\\0,1\F,0,0.201937,2.092857,-0.235
 362\O,0,2.218016,-1.126868,-0.702067\O,0,2.244199,0.459327,0.785864\N,
 0,-0.418686,-1.425726,0.129866\N,0,1.685363,-0.319981,0.031773\C,0,0.1
 96563,-0.271665,0.023108\C,0,-0.463634,0.9462,-0.091353\C,0,-1.846644,
 0.94784,-0.089972\C,0,-2.503225,-0.26701,0.041067\C,0,-1.749398,-1.430
 562,0.150722\H,0,-2.376584,1.884122,-0.192026\H,0,-3.582748,-0.311349,

 Normal termination of Gaussian 16 at Sat Apr  5 22:47:07 2025.
