 Gaussian 16, Revision C.01,

 ----------------------------------------------------------------------
 #t hf aug-cc-pvdz symm=none int=(grid=ultrafine) guess=(read,tcheck) s
 table=(opt,rrhf)
 ----------------------------------------------------------------------
 -----
 title
 -----
 Symbolic Z-matrix:
 Charge =  0 Multiplicity = 1

 SCF Done:  E(RHF) =  -233.003150096     A.U. after   13 cycles
 Normal termination of Gaussian 16 at Sat Apr  5 22:45:20 2025.
 Gaussian 16:  ES64L-G16RevC.01  3-Jul-2019

 ----------------------------------------------------------------------
 #t hf aug-cc-pvdz iop(5/13=1,5/36=2,99/5=2) pseudo=read geom=check gue
 ss=(read,tcheck) scf=(maxcycle=1)
 ----------------------------------------------------------------------
 -----
 title
 -----
 Structure from the checkpoint file:  "3-hexyne.chk"
 Charge =  0 Multiplicity = 1

                         Standard orientation:
 ---------------------------------------------------------------------
 Center     Atomic      Atomic             Coordinates (Angstroms)
 Number     Number       Type             X           Y           Z
 ---------------------------------------------------------------------
      1          6           0       -0.218611   -2.656740    0.856457
      2          6           0        0.218611    2.656740    0.856457
      3          6           0        0.001222    2.061425   -0.542357
      4          6           0       -0.001222   -2.061425   -0.542357
      5          6           0        0.001222   -0.601199   -0.556308
      6          6           0       -0.001222    0.601199   -0.556308
      7          1           0       -0.212880   -3.746339    0.811070
      8          1           0        0.212880    3.746339    0.811070
      9          1           0        1.174145    2.335610    1.270132
     10          1           0       -0.567645    2.337886    1.540172
     11          1           0        0.567645   -2.337886    1.540172
     12          1           0       -1.174145   -2.335610    1.270132
     13          1           0        0.780734    2.424674   -1.217851
     14          1           0       -0.945635    2.426023   -0.950275
     15          1           0        0.945635   -2.426023   -0.950275
     16          1           0       -0.780734   -2.424674   -1.217851
 ---------------------------------------------------------------------

 SCF Done:  E(RHF) =  -233.260383350     A.U. after    2 cycles

 The electronic state is 1-A.
 Alpha  occ. eigenvalues --  -11.25321 -11.25284 -11.22955 -11.22949 -11.22183
 Alpha  occ. eigenvalues --  -11.21824  -1.08388  -1.05341  -0.97558  -0.88262
 Alpha  occ. eigenvalues --   -0.85415  -0.67126  -0.63933  -0.63138  -0.62199
 Alpha  occ. eigenvalues --   -0.55756  -0.55244  -0.52537  -0.52212  -0.51780
 Alpha  occ. eigenvalues --   -0.50878  -0.37064  -0.36848
 Alpha virt. eigenvalues --    0.03472   0.03881   0.04181   0.04291   0.05534
 Alpha virt. eigenvalues --    0.05683   0.06076   0.07122   0.08352   0.08647
 Alpha virt. eigenvalues --    0.11468   0.12454   0.13051   0.13906   0.14183

 Mulliken charges:
               1
     1  C   -0.326815
     2  C   -0.326815
     3  C   -0.884202
     4  C   -0.884202
     5  C    0.201584
     6  C    0.201584
     7  H    0.126700
     8  H    0.126700
     9  H    0.168216
    10  H    0.170197
    11  H    0.170197
    12  H    0.168216
    13  H    0.271494
    14  H    0.272826
    15  H    0.272826
    16  H    0.271494
 Sum of Mulliken charges =  -0.00000

 Dipole moment (field-independent basis, Debye):
    X=             -0.0000    Y=              0.0000    Z=              0.1182  Tot=              0.1182

 Test job not archived.
 1\1\GINC-SE153\SP\RHF\Aug-CC-pVDZ\C6H10\OHZDE\05-Apr-2025\0\\#t hf aug
 -cc-pvdz iop(5/13=1,5/36=2,99/5=2) pseudo=read geom=check guess=(read,
 tcheck) scf=(maxcycle=1)\\title\\0,1\C,0,-0.218611,-2.65674,0.856457\C
 ,0,0.218611,2.65674,0.856457\C,0,0.001222,2.061425,-0.542357\C,0,-0.00
 1222,-2.061425,-0.542357\C,0,0.001222,-0.601199,-0.556308\C,0,-0.00122
 2,0.601199,-0.556308\H,0,-0.21288,-3.746339,0.81107\H,0,0.21288,3.7463
 39,0.81107\H,0,1.174145,2.33561,1.270132\H,0,-0.567645,2.337886,1.5401
 72\H,0,0.567645,-2.337886,1.540172\H,0,-1.174145,-2.33561,1.270132\H,0

 Normal termination of Gaussian 16 at Sat Apr  5 22:45:37 2025.
