 Gaussian 16, Revision C.01,

 ----------------------------------------------------------------------
 #t hf aug-cc-pvdz symm=none int=(grid=ultrafine) guess=(read,tcheck) s
 table=(opt,rrhf)
 ----------------------------------------------------------------------
 -----
 title
 -----
 Symbolic Z-matrix:
 Charge =  0 Multiplicity = 1

 SCF Done:  E(RHF) =  -234.204870229     A.U. after   13 cycles
 Normal termination of Gaussian 16 at Sat Apr  5 22:45:29 2025.
 Gaussian 16:  ES64L-G16RevC.01  3-Jul-2019

 ----------------------------------------------------------------------
 #t hf aug-cc-pvdz iop(5/13=1,5/36=2,99/5=2) pseudo=read geom=check gue
 ss=(read,tcheck) scf=(maxcycle=1)
 ----------------------------------------------------------------------
 -----
 title
 -----
 Structure from the checkpoint file:  "3-hexene.chk"
 Charge =  0 Multiplicity = 1

                         Standard orientation:
 ---------------------------------------------------------------------
 Center     Atomic      Atomic             Coordinates (Angstroms)
 Number     Number       Type             X           Y           Z
 ---------------------------------------------------------------------
      1          6           0        0.392949    0.006753   -0.314271
      2          6           0        1.845922   -0.344618   -0.447971
      3          6           0        2.755670    0.526135    0.427735
      4          6           0       -2.464073    0.895132   -0.087612
      5          6           0       -2.023839   -0.525165    0.253168
      6          6           0       -0.559417   -0.825207    0.095654
      7          1           0        0.134394    1.030172   -0.571721
      8          1           0        2.150834   -0.225520   -1.493272
      9          1           0        1.992029   -1.398584   -0.200685
     10          1           0        2.631761    1.584844    0.191968
     11          1           0        2.523122    0.393155    1.485148
     12          1           0        3.806004    0.272696    0.276534
     13          1           0       -1.961620    1.631077    0.541868
     14          1           0       -2.247135    1.142851   -1.127808
     15          1           0       -3.538045    1.008319    0.062785
     16          1           0       -2.588225   -1.237015   -0.359875
     17          1           0       -2.312564   -0.756467    1.284752
     18          1           0       -0.273824   -1.843703    0.350091
 ---------------------------------------------------------------------

 SCF Done:  E(RHF) =  -234.467419337     A.U. after    2 cycles

 The electronic state is 1-A.
 Alpha  occ. eigenvalues --  -11.23131 -11.22881 -11.22721 -11.22420 -11.22153
 Alpha  occ. eigenvalues --  -11.22122  -1.09424  -1.03942  -0.96636  -0.87936
 Alpha  occ. eigenvalues --   -0.82411  -0.73597  -0.63984  -0.62130  -0.61475
 Alpha  occ. eigenvalues --   -0.59271  -0.55633  -0.53374  -0.51250  -0.50054
 Alpha  occ. eigenvalues --   -0.49936  -0.48283  -0.47012  -0.34986
 Alpha virt. eigenvalues --    0.03597   0.03705   0.04023   0.04045   0.05332
 Alpha virt. eigenvalues --    0.05901   0.06214   0.07110   0.07797   0.08513
 Alpha virt. eigenvalues --    0.09044   0.10510   0.12823   0.12999   0.13615

 Mulliken charges:
               1
     1  C    0.804573
     2  C   -0.810515
     3  C   -0.394634
     4  C   -0.255339
     5  C   -0.800117
     6  C    0.386369
     7  H   -0.327812
     8  H    0.212330
     9  H    0.098036
    10  H    0.168178
    11  H    0.151746
    12  H    0.100350
    13  H    0.208515
    14  H    0.218279
    15  H    0.051650
    16  H    0.230858
    17  H    0.232262
    18  H   -0.274732
 Sum of Mulliken charges =  -0.00000

 Dipole moment (field-independent basis, Debye):
    X=             -0.0993    Y=             -0.0658    Z=              0.0157  Tot=              0.1202

 Test job not archived.
 1\1\GINC-SE153\SP\RHF\Aug-CC-pVDZ\C6H12\OHZDE\05-Apr-2025\0\\#t hf aug
 -cc-pvdz iop(5/13=1,5/36=2,99/5=2) pseudo=read geom=check guess=(read,
 tcheck) scf=(maxcycle=1)\\title\\0,1\C,0,0.392949,0.006753,-0.314271\C
 ,0,1.845922,-0.344618,-0.447971\C,0,2.75567,0.526135,0.427735\C,0,-2.4
 64073,0.895132,-0.087612\C,0,-2.023839,-0.525165,0.253168\C,0,-0.55941
 7,-0.825207,0.095654\H,0,0.134394,1.030172,-0.571721\H,0,2.150834,-0.2
 2552,-1.493272\H,0,1.992029,-1.398584,-0.200685\H,0,2.631761,1.584844,
 0.191968\H,0,2.523122,0.393155,1.485148\H,0,3.806004,0.272696,0.276534

 Normal termination of Gaussian 16 at Sat Apr  5 22:45:39 2025.
