 Gaussian 16, Revision C.01,

 ----------------------------------------------------------------------
 #t hf aug-cc-pvdz symm=none int=(grid=ultrafine) guess=(read,tcheck) s
 table=(opt,rrhf)
 ----------------------------------------------------------------------
 -----
 title
 -----
 Symbolic Z-matrix:
 Charge =  0 Multiplicity = 1

 SCF Done:  E(RHF) =  -310.263254276     A.U. after   12 cycles

 1\1\GINC-SE152\Stability\RHF\Aug-CC-pVDZ\C6H14O1\OHZDE\05-Apr-2025\0\\
 #t hf aug-cc-pvdz symm=none int=(grid=ultrafine) guess=(read,tcheck) s
 table=(opt,rrhf)\\title\\0,1\C,0,-3.258638,-0.287523,0.090842\C,0,2.74
 971,-0.958717,-0.125572\C,0,-1.803228,-0.542577,-0.299578\C,0,1.324767
 ,-0.757447,0.38739\C,0,-0.859239,0.560574,0.183682\C,0,0.597669,0.4138
 2,-0.263537\O,0,1.346525,1.592486,0.069305\H,0,-3.369799,-0.222411,1.1
 74974\H,0,-3.623837,0.649674,-0.334114\H,0,-3.910731,-1.087613,-0.2617
 28\H,0,3.360328,-0.076592,0.059161\H,0,3.223088,-1.809507,0.366235\H,0

 Normal termination of Gaussian 16 at Sat Apr  5 22:45:55 2025.
 Gaussian 16:  ES64L-G16RevC.01  3-Jul-2019

 ----------------------------------------------------------------------
 #t hf aug-cc-pvdz iop(5/13=1,5/36=2,99/5=2) pseudo=read geom=check gue
 ss=(read,tcheck) scf=(maxcycle=1)
 ----------------------------------------------------------------------
 -----
 title
 -----
 Structure from the checkpoint file:  "3-hexanol.chk"
 Charge =  0 Multiplicity = 1

                         Standard orientation:
 ---------------------------------------------------------------------
 Center     Atomic      Atomic             Coordinates (Angstroms)
 Number     Number       Type             X           Y           Z
 ---------------------------------------------------------------------
      1          6           0       -3.258638   -0.287524    0.090842
      2          6           0        2.749710   -0.958717   -0.125572
      3          6           0       -1.803228   -0.542577   -0.299578
      4          6           0        1.324767   -0.757447    0.387390
      5          6           0       -0.859239    0.560574    0.183682
      6          6           0        0.597669    0.413820   -0.263537
      7          8           0        1.346525    1.592486    0.069305
      8          1           0       -3.369799   -0.222412    1.174974
      9          1           0       -3.623837    0.649673   -0.334114
     10          1           0       -3.910731   -1.087614   -0.261728
     11          1           0        3.360328   -0.076592    0.059161
     12          1           0        3.223088   -1.809507    0.366235
     13          1           0        2.756534   -1.152346   -1.200530
     14          1           0       -1.487941   -1.506260    0.106282
     15          1           0       -1.729119   -0.630970   -1.387734
     16          1           0        1.337132   -0.587285    1.467729
     17          1           0        0.744175   -1.665979    0.216421
     18          1           0       -1.230746    1.521745   -0.190767
     19          1           0       -0.885745    0.627798    1.275431
     20          1           0        0.618632    0.275514   -1.354253
     21          1           0        0.919582    2.355577   -0.330907
 ---------------------------------------------------------------------

 SCF Done:  E(RHF) =  -310.604094709     A.U. after    2 cycles

 The electronic state is 1-A.
 Alpha  occ. eigenvalues --  -20.53970 -11.28096 -11.23109 -11.22717 -11.22524
 Alpha  occ. eigenvalues --  -11.22220 -11.21362  -1.43873  -1.08635  -1.03755
 Alpha  occ. eigenvalues --   -0.96340  -0.87710  -0.82075  -0.78263  -0.70058
 Alpha  occ. eigenvalues --   -0.64339  -0.63008  -0.59225  -0.58482  -0.57008
 Alpha  occ. eigenvalues --   -0.55002  -0.53688  -0.51581  -0.50114  -0.49207
 Alpha  occ. eigenvalues --   -0.48246  -0.47269  -0.45686  -0.42630
 Alpha virt. eigenvalues --    0.03334   0.03532   0.03604   0.04308   0.05517
 Alpha virt. eigenvalues --    0.05835   0.06061   0.06537   0.07446   0.08461
 Alpha virt. eigenvalues --    0.08723   0.09069   0.10980   0.11084   0.12821

 Mulliken charges:
               1
     1  C   -0.376335
     2  C   -0.387920
     3  C   -0.239818
     4  C   -0.263092
     5  C   -0.337275
     6  C    0.885809
     7  O   -1.357239
     8  H    0.169450
     9  H    0.160958
    10  H    0.109560
    11  H    0.199539
    12  H    0.122334
    13  H    0.154988
    14  H    0.121630
    15  H    0.126733
    16  H    0.156013
    17  H    0.141482
    18  H    0.119006
    19  H    0.138984
    20  H    0.087710
    21  H    0.267484
 Sum of Mulliken charges =  -0.00000

 Dipole moment (field-independent basis, Debye):
    X=             -1.4862    Y=             -0.1686    Z=             -0.8199  Tot=              1.7058

 Test job not archived.
 1\1\GINC-SE152\SP\RHF\Aug-CC-pVDZ\C6H14O1\OHZDE\05-Apr-2025\0\\#t hf a
 ug-cc-pvdz iop(5/13=1,5/36=2,99/5=2) pseudo=read geom=check guess=(rea
 d,tcheck) scf=(maxcycle=1)\\title\\0,1\C,0,-3.258638,-0.287523,0.09084
 2\C,0,2.74971,-0.958717,-0.125572\C,0,-1.803228,-0.542577,-0.299578\C,
 0,1.324767,-0.757447,0.38739\C,0,-0.859239,0.560574,0.183682\C,0,0.597
 669,0.41382,-0.263537\O,0,1.346525,1.592486,0.069305\H,0,-3.369799,-0.
 222411,1.174974\H,0,-3.623837,0.649674,-0.334114\H,0,-3.910731,-1.0876
 13,-0.261728\H,0,3.360328,-0.076592,0.059161\H,0,3.223088,-1.809507,0.

 Normal termination of Gaussian 16 at Sat Apr  5 22:47:10 2025.
