 Gaussian 16, Revision C.01,

 ----------------------------------------------------------------------
 #t hf aug-cc-pvdz symm=none int=(grid=ultrafine) guess=(read,tcheck) s
 table=(opt,rrhf)
 ----------------------------------------------------------------------
 -----
 title
 -----
 Symbolic Z-matrix:
 Charge =  0 Multiplicity = 1

 SCF Done:  E(RHF) =  -580.089435933     A.U. after   16 cycles
 Normal termination of Gaussian 16 at Sat Apr  5 22:45:26 2025.
 Gaussian 16:  ES64L-G16RevC.01  3-Jul-2019

 ----------------------------------------------------------------------
 #t hf aug-cc-pvdz iop(5/13=1,5/36=2,99/5=2) pseudo=read geom=check gue
 ss=(read,tcheck) scf=(maxcycle=1)
 ----------------------------------------------------------------------
 -----
 title
 -----
 Structure from the checkpoint file:  "3-hydroxy-4a-7a-dihydrofuro2-3-d1-2-3triazin-43H-one.chk"
 Charge =  0 Multiplicity = 1

                         Standard orientation:
 ---------------------------------------------------------------------
 Center     Atomic      Atomic             Coordinates (Angstroms)
 Number     Number       Type             X           Y           Z
 ---------------------------------------------------------------------
      1          8           0       -2.290204   -0.882999   -0.151424
      2          8           0        1.444926    1.959948    0.003154
      3          8           0        2.919242   -0.207425   -0.239915
      4          7           0       -0.081213   -1.807611    0.272914
      5          7           0        1.538222   -0.300125   -0.183639
      6          7           0        1.139137   -1.556445    0.277999
      7          6           0       -0.561361    0.592228    0.420127
      8          6           0       -0.879772   -0.732796   -0.252028
      9          6           0       -1.815431    1.347987    0.067672
     10          6           0        0.851036    0.905794    0.038355
     11          6           0       -2.746502    0.420002   -0.163318
     12          1           0       -0.516052    0.455732    1.514116
     13          1           0       -0.629924   -0.648724   -1.323073
     14          1           0       -1.972359    2.408820    0.151036
     15          1           0       -3.804155    0.525826   -0.340190
     16          1           0        3.069933    0.752129   -0.132165
 ---------------------------------------------------------------------

 SCF Done:  E(RHF) =  -580.658586731     A.U. after    2 cycles

 The electronic state is 1-A.
 Alpha  occ. eigenvalues --  -20.62106 -20.60907 -20.57392 -15.65164 -15.64253
 Alpha  occ. eigenvalues --  -15.59620 -11.41558 -11.36431 -11.33698 -11.30148
 Alpha  occ. eigenvalues --  -11.27223  -1.56738  -1.54188  -1.50689  -1.43558
 Alpha  occ. eigenvalues --   -1.22123  -1.15673  -1.09021  -0.97878  -0.95795
 Alpha  occ. eigenvalues --   -0.84638  -0.82553  -0.78799  -0.78429  -0.73864
 Alpha  occ. eigenvalues --   -0.70521  -0.67922  -0.67200  -0.66098  -0.64661
 Alpha  occ. eigenvalues --   -0.61037  -0.59945  -0.59204  -0.57443  -0.54486
 Alpha  occ. eigenvalues --   -0.53493  -0.50116  -0.47789  -0.42899  -0.37941
 Alpha virt. eigenvalues --    0.02891   0.03824   0.03956   0.04209   0.04839
 Alpha virt. eigenvalues --    0.05587   0.08425   0.09286   0.09819   0.10370
 Alpha virt. eigenvalues --    0.11497   0.11758   0.12262   0.12900   0.13899

 Mulliken charges:
               1
     1  O   -1.656508
     2  O   -1.337721
     3  O   -1.330952
     4  N    0.170184
     5  N    1.782364
     6  N   -0.128209
     7  C   -0.445324
     8  C    0.354363
     9  C    0.431907
    10  C    0.502732
    11  C    1.038737
    12  H    0.273657
    13  H    0.241806
    14  H   -0.136903
    15  H   -0.086762
    16  H    0.326628
 Sum of Mulliken charges =   0.00000

 Dipole moment (field-independent basis, Debye):
    X=             -2.7140    Y=              2.7230    Z=             -0.0988  Tot=              3.8458

 Test job not archived.
 1\1\GINC-SE210\SP\RHF\Aug-CC-pVDZ\C5H5N3O3\OHZDE\05-Apr-2025\0\\#t hf
 aug-cc-pvdz iop(5/13=1,5/36=2,99/5=2) pseudo=read geom=check guess=(re
 ad,tcheck) scf=(maxcycle=1)\\title\\0,1\O,0,-2.290204,-0.882999,-0.151
 424\O,0,1.444926,1.959948,0.003154\O,0,2.919242,-0.207425,-0.239915\N,
 0,-0.081213,-1.807611,0.272914\N,0,1.538222,-0.300125,-0.183639\N,0,1.
 139137,-1.556445,0.277999\C,0,-0.561361,0.592228,0.420127\C,0,-0.87977
 2,-0.732796,-0.252028\C,0,-1.815431,1.347987,0.067672\C,0,0.851036,0.9
 05794,0.038355\C,0,-2.746502,0.420002,-0.163318\H,0,-0.516052,0.455732

 Normal termination of Gaussian 16 at Sat Apr  5 22:45:42 2025.
