 Gaussian 16, Revision C.01,

 ----------------------------------------------------------------------
 #t hf aug-cc-pvdz symm=none int=(grid=ultrafine) guess=(read,tcheck) s
 table=(opt,rrhf)
 ----------------------------------------------------------------------
 -----
 title
 -----
 Symbolic Z-matrix:
 Charge =  0 Multiplicity = 1

 SCF Done:  E(RHF) =  -397.344756225     A.U. after   17 cycles
 Normal termination of Gaussian 16 at Sat Apr  5 22:45:43 2025.
 Gaussian 16:  ES64L-G16RevC.01  3-Jul-2019

 ----------------------------------------------------------------------
 #t hf aug-cc-pvdz iop(5/13=1,5/36=2,99/5=2) pseudo=read geom=check gue
 ss=(read,tcheck) scf=(maxcycle=1)
 ----------------------------------------------------------------------
 -----
 title
 -----
 Structure from the checkpoint file:  "3-hydroxybenzonitrile.chk"
 Charge =  0 Multiplicity = 1

                         Standard orientation:
 ---------------------------------------------------------------------
 Center     Atomic      Atomic             Coordinates (Angstroms)
 Number     Number       Type             X           Y           Z
 ---------------------------------------------------------------------
      1          6           0        2.334677    0.206359    0.000000
      2          6           0       -0.822718   -1.740768   -0.000000
      3          6           0        0.532575   -1.450511    0.000000
      4          6           0       -1.767452   -0.721730   -0.000000
      5          6           0        0.000000    0.919953    0.000000
      6          6           0        0.939278   -0.111681    0.000000
      7          6           0       -1.355148    0.609356   -0.000000
      8          7           0        3.459374    0.456489    0.000000
      9          8           0       -2.231417    1.653230   -0.000000
     10          1           0       -1.151423   -2.770634   -0.000000
     11          1           0        1.270286   -2.238560    0.000000
     12          1           0       -2.824291   -0.959586   -0.000000
     13          1           0        0.311031    1.954012    0.000000
     14          1           0       -3.137157    1.327636   -0.000000
 ---------------------------------------------------------------------

 SCF Done:  E(RHF) =  -397.740792980     A.U. after    2 cycles

 The electronic state is 1-A'.
 Alpha  occ. eigenvalues --  -20.60247 -15.51771 -11.33683 -11.30185 -11.28512
 Alpha  occ. eigenvalues --  -11.27596 -11.27251 -11.27184 -11.27035  -1.51747
 Alpha  occ. eigenvalues --   -1.24014  -1.18788  -1.07014  -1.04578  -0.91443
 Alpha  occ. eigenvalues --   -0.86856  -0.80517  -0.72659  -0.70908  -0.68551
 Alpha  occ. eigenvalues --   -0.64407  -0.61612  -0.61021  -0.60462  -0.56844
 Alpha  occ. eigenvalues --   -0.55667  -0.54195  -0.50558  -0.49607  -0.38029
 Alpha  occ. eigenvalues --   -0.35107
 Alpha virt. eigenvalues --    0.02071   0.03073   0.04172   0.05121   0.05491
 Alpha virt. eigenvalues --    0.06253   0.08755   0.08891   0.09564   0.10492
 Alpha virt. eigenvalues --    0.12133   0.12191   0.12733   0.13046   0.13213

 Mulliken charges:
               1
     1  C   -3.077117
     2  C    0.222200
     3  C    0.096745
     4  C   -0.231005
     5  C    0.160020
     6  C    2.498952
     7  C    1.658911
     8  N    1.103597
     9  O   -1.790079
    10  H   -0.212081
    11  H   -0.287503
    12  H   -0.308383
    13  H   -0.249555
    14  H    0.415299
 Sum of Mulliken charges =   0.00000

 Dipole moment (field-independent basis, Debye):
    X=             -6.3381    Y=             -2.1696    Z=              0.0000  Tot=              6.6992

 Test job not archived.
 1\1\GINC-SE214\SP\RHF\Aug-CC-pVDZ\C7H5N1O1\OHZDE\05-Apr-2025\0\\#t hf
 aug-cc-pvdz iop(5/13=1,5/36=2,99/5=2) pseudo=read geom=check guess=(re
 ad,tcheck) scf=(maxcycle=1)\\title\\0,1\C,0,2.334677,0.20636,0.\C,0,-0
 .822717,-1.740768,0.\C,0,0.532576,-1.450511,0.\C,0,-1.767452,-0.72173,
 0.\C,0,0.,0.919953,0.\C,0,0.939278,-0.111681,0.\C,0,-1.355148,0.609356
 ,0.\N,0,3.459374,0.45649,0.\O,0,-2.231417,1.653229,0.\H,0,-1.151422,-2
 .770634,0.\H,0,1.270287,-2.23856,0.\H,0,-2.824291,-0.959587,0.\H,0,0.3
 11031,1.954012,0.\H,0,-3.137157,1.327635,0.\\Version=ES64L-G16RevC.01\

 Normal termination of Gaussian 16 at Sat Apr  5 22:45:49 2025.
