 Gaussian 16, Revision C.01,

 ----------------------------------------------------------------------
 #t hf aug-cc-pvdz symm=none int=(grid=ultrafine) guess=(read,tcheck) s
 table=(opt,rrhf)
 ----------------------------------------------------------------------
 -----
 title
 -----
 Symbolic Z-matrix:
 Charge =  0 Multiplicity = 1

 SCF Done:  E(RHF) =  -339.331857622     A.U. after   16 cycles
 Normal termination of Gaussian 16 at Sat Apr  5 22:45:41 2025.
 Gaussian 16:  ES64L-G16RevC.01  3-Jul-2019

 ----------------------------------------------------------------------
 #t hf aug-cc-pvdz iop(5/13=1,5/36=2,99/5=2) pseudo=read geom=check gue
 ss=(read,tcheck) scf=(maxcycle=1)
 ----------------------------------------------------------------------
 -----
 title
 -----
 Structure from the checkpoint file:  "3-hydroxy-2-propynoic_acid.chk"
 Charge =  0 Multiplicity = 1

                         Standard orientation:
 ---------------------------------------------------------------------
 Center     Atomic      Atomic             Coordinates (Angstroms)
 Number     Number       Type             X           Y           Z
 ---------------------------------------------------------------------
      1          8           0       -1.742727   -1.171659   -0.000001
      2          8           0       -1.798817    1.053904    0.000000
      3          8           0        2.791456    0.110796    0.000000
      4          6           0       -1.139153   -0.134860    0.000000
      5          6           0        0.298037   -0.026971    0.000000
      6          6           0        1.499219    0.000183    0.000000
      7          1           0       -1.166265    1.783255    0.000000
      8          1           0        3.218346   -0.757686    0.000000
 ---------------------------------------------------------------------

 SCF Done:  E(RHF) =  -339.661576941     A.U. after    2 cycles

 The electronic state is 1-A.
 Alpha  occ. eigenvalues --  -20.66380 -20.60944 -20.54395 -11.42362 -11.35810
 Alpha  occ. eigenvalues --  -11.26931  -1.58150  -1.55110  -1.46341  -1.08421
 Alpha  occ. eigenvalues --   -0.92220  -0.85279  -0.80902  -0.70605  -0.67280
 Alpha  occ. eigenvalues --   -0.66070  -0.63347  -0.60655  -0.48801  -0.47437
 Alpha  occ. eigenvalues --   -0.43448  -0.41603
 Alpha virt. eigenvalues --    0.01881   0.03804   0.08328   0.08491   0.09103
 Alpha virt. eigenvalues --    0.10876   0.10917   0.12310   0.12848   0.13059
 Alpha virt. eigenvalues --    0.15285   0.16498   0.17757   0.18259   0.21427

 Mulliken charges:
               1
     1  O   -1.137300
     2  O   -1.179355
     3  O   -1.241066
     4  C    1.892485
     5  C    0.584368
     6  C    0.295204
     7  H    0.435298
     8  H    0.350366
 Sum of Mulliken charges =  -0.00000

 Dipole moment (field-independent basis, Debye):
    X=              4.8647    Y=              1.3056    Z=              0.0000  Tot=              5.0369

 Test job not archived.
 1\1\GINC-SE212\SP\RHF\Aug-CC-pVDZ\C3H2O3\OHZDE\05-Apr-2025\0\\#t hf au
 g-cc-pvdz iop(5/13=1,5/36=2,99/5=2) pseudo=read geom=check guess=(read
 ,tcheck) scf=(maxcycle=1)\\title\\0,1\O,0,-1.742727,-1.171659,-0.00000
 1\O,0,-1.798817,1.053904,0.\O,0,2.791456,0.110796,0.\C,0,-1.139153,-0.
 13486,0.\C,0,0.298037,-0.026971,0.\C,0,1.499219,0.000183,0.\H,0,-1.166
 265,1.783255,0.\H,0,3.218346,-0.757686,0.\\Version=ES64L-G16RevC.01\St
 ate=1-A\HF=-339.6615769\RMSD=2.150e-02\Dipole=1.9139195,0.5136613,0.00
 00008\Quadrupole=0.2719549,0.5464821,-0.8184369,-6.6621334,-0.0000022,

 Normal termination of Gaussian 16 at Sat Apr  5 22:45:45 2025.
