 Gaussian 16, Revision C.01,

 ----------------------------------------------------------------------
 #t hf aug-cc-pvdz symm=none int=(grid=ultrafine) guess=(read,tcheck) s
 table=(opt,rrhf)
 ----------------------------------------------------------------------
 -----
 title
 -----
 Symbolic Z-matrix:
 Charge =  0 Multiplicity = 1

 SCF Done:  E(RHF) =  -733.947959510     A.U. after   16 cycles
 Normal termination of Gaussian 16 at Sat Apr  5 22:44:07 2025.
 Gaussian 16:  ES64L-G16RevC.01  3-Jul-2019

 ----------------------------------------------------------------------
 #t hf aug-cc-pvdz iop(5/13=1,5/36=2,99/5=2) pseudo=read geom=check gue
 ss=(read,tcheck) scf=(maxcycle=1)
 ----------------------------------------------------------------------
 -----
 title
 -----
 Structure from the checkpoint file:  "3-hydroxy-1-2-thiazole-4-carbonitrile.chk"
 Charge =  0 Multiplicity = 1

                         Standard orientation:
 ---------------------------------------------------------------------
 Center     Atomic      Atomic             Coordinates (Angstroms)
 Number     Number       Type             X           Y           Z
 ---------------------------------------------------------------------
      1         16           0       -1.919398   -0.623306   -0.000004
      2          8           0        0.684500    2.053364    0.000006
      3          7           0       -1.349126    0.945938    0.000001
      4          7           0        3.124988   -0.766794    0.000002
      5          6           0        0.587079   -0.360579    0.000000
      6          6           0       -0.044852    0.929530    0.000002
      7          6           0       -0.373055   -1.340201   -0.000004
      8          6           0        1.987770   -0.580577    0.000001
      9          1           0        0.082922    2.809754    0.000007
     10          1           0       -0.221242   -2.406813   -0.000007
 ---------------------------------------------------------------------

 SCF Done:  E(RHF) =  -734.334236515     A.U. after    2 cycles

 The electronic state is 1-A.
 Alpha  occ. eigenvalues --  -94.04022 -20.62107 -15.54746 -15.52772 -11.39018
 Alpha  occ. eigenvalues --  -11.34125 -11.31167 -11.29756  -8.31868  -6.29625
 Alpha  occ. eigenvalues --   -6.29486  -6.29272  -1.54739  -1.31927  -1.24678
 Alpha  occ. eigenvalues --   -1.13099  -1.06968  -0.89662  -0.87394  -0.80179
 Alpha  occ. eigenvalues --   -0.72696  -0.67201  -0.66879  -0.62851  -0.60852
 Alpha  occ. eigenvalues --   -0.56849  -0.55125  -0.54240  -0.54161  -0.50573
 Alpha  occ. eigenvalues --   -0.43076  -0.38118
 Alpha virt. eigenvalues --    0.02939   0.03671   0.03928   0.06221   0.06835
 Alpha virt. eigenvalues --    0.08234   0.08831   0.09553   0.11217   0.11907
 Alpha virt. eigenvalues --    0.12313   0.12529   0.13223   0.13341   0.14310

 Mulliken charges:
               1
     1  S    0.633634
     2  O   -1.475181
     3  N    0.346236
     4  N    0.978298
     5  C    2.019642
     6  C    0.079777
     7  C   -0.417625
     8  C   -2.400313
     9  H    0.373563
    10  H   -0.138031
 Sum of Mulliken charges =  -0.00000

 Dipole moment (field-independent basis, Debye):
    X=             -3.9244    Y=             -0.6781    Z=             -0.0000  Tot=              3.9826

 Test job not archived.
 1\1\GINC-SE154\SP\RHF\Aug-CC-pVDZ\C4H2N2O1S1\OHZDE\05-Apr-2025\0\\#t h
 f aug-cc-pvdz iop(5/13=1,5/36=2,99/5=2) pseudo=read geom=check guess=(
 read,tcheck) scf=(maxcycle=1)\\title\\0,1\S,0,-1.919398,-0.623306,-0.0
 00004\O,0,0.6845,2.053364,0.000006\N,0,-1.349126,0.945938,0.000001\N,0
 ,3.124988,-0.766794,0.000002\C,0,0.587079,-0.360579,0.\C,0,-0.044852,0
 .92953,0.000002\C,0,-0.373055,-1.340201,-0.000004\C,0,1.98777,-0.58057
 7,0.000001\H,0,0.082922,2.809754,0.000007\H,0,-0.221242,-2.406813,-0.0
 00007\\Version=ES64L-G16RevC.01\State=1-A\HF=-734.3342365\RMSD=3.588e-

 Normal termination of Gaussian 16 at Sat Apr  5 22:44:43 2025.
