 Gaussian 16, Revision C.01,

 ----------------------------------------------------------------------
 #t hf aug-cc-pvdz symm=none int=(grid=ultrafine) guess=(read,tcheck) s
 table=(opt,rrhf)
 ----------------------------------------------------------------------
 -----
 title
 -----
 Symbolic Z-matrix:
 Charge =  0 Multiplicity = 1

 SCF Done:  E(RHF) =  -418.345941327     A.U. after   16 cycles
 Normal termination of Gaussian 16 at Sat Apr  5 22:46:26 2025.
 Gaussian 16:  ES64L-G16RevC.01  3-Jul-2019

 ----------------------------------------------------------------------
 #t hf aug-cc-pvdz iop(5/13=1,5/36=2,99/5=2) pseudo=read geom=check gue
 ss=(read,tcheck) scf=(maxcycle=1)
 ----------------------------------------------------------------------
 -----
 title
 -----
 Structure from the checkpoint file:  "3-hydroxybenzaldehyde.chk"
 Charge =  0 Multiplicity = 1

                         Standard orientation:
 ---------------------------------------------------------------------
 Center     Atomic      Atomic             Coordinates (Angstroms)
 Number     Number       Type             X           Y           Z
 ---------------------------------------------------------------------
      1          6           0        1.664907   -0.863089    0.000000
      2          6           0        1.344951    0.483532   -0.000000
      3          6           0        0.661934   -1.830509    0.000000
      4          6           0       -1.007329   -0.096986   -0.000000
      5          6           0       -0.000000    0.864343   -0.000000
      6          6           0       -0.676595   -1.448300    0.000000
      7          6           0       -0.383063    2.293828   -0.000000
      8          8           0        0.394376    3.219298   -0.000000
      9          8           0       -1.703952   -2.348067    0.000000
     10          1           0        2.700183   -1.175867    0.000000
     11          1           0        2.108986    1.247054   -0.000000
     12          1           0        0.922410   -2.882429    0.000000
     13          1           0       -2.049997    0.193551   -0.000000
     14          1           0       -1.476268    2.476862   -0.000000
     15          1           0       -1.357530   -3.245935    0.000000
 ---------------------------------------------------------------------

 SCF Done:  E(RHF) =  -418.765405155     A.U. after    2 cycles

 The electronic state is 1-A'.
 Alpha  occ. eigenvalues --  -20.59509 -20.54745 -11.34609 -11.32644 -11.26432
 Alpha  occ. eigenvalues --  -11.26390 -11.26348 -11.26163 -11.25277  -1.50898
 Alpha  occ. eigenvalues --   -1.47697  -1.17656  -1.05910  -1.03226  -0.91613
 Alpha  occ. eigenvalues --   -0.85958  -0.82136  -0.74754  -0.71533  -0.68511
 Alpha  occ. eigenvalues --   -0.67261  -0.63492  -0.62528  -0.60703  -0.58770
 Alpha  occ. eigenvalues --   -0.55326  -0.55232  -0.52984  -0.49287  -0.42681
 Alpha  occ. eigenvalues --   -0.37050  -0.33947
 Alpha virt. eigenvalues --    0.02443   0.03521   0.04030   0.05256   0.05385
 Alpha virt. eigenvalues --    0.06064   0.07459   0.08496   0.10462   0.10501
 Alpha virt. eigenvalues --    0.11494   0.11961   0.12521   0.13534   0.13586

 Mulliken charges:
               1
     1  C    0.442556
     2  C   -0.156476
     3  C   -0.536463
     4  C   -0.074648
     5  C    1.802976
     6  C    1.820754
     7  C    0.514027
     8  O   -1.292884
     9  O   -1.803362
    10  H   -0.215702
    11  H   -0.308772
    12  H   -0.311709
    13  H   -0.255818
    14  H   -0.037310
    15  H    0.412831
 Sum of Mulliken charges =  -0.00000

 Dipole moment (field-independent basis, Debye):
    X=             -0.1667    Y=             -4.1397    Z=              0.0000  Tot=              4.1431

 Test job not archived.
 1\1\GINC-SE213\SP\RHF\Aug-CC-pVDZ\C7H6O2\OHZDE\05-Apr-2025\0\\#t hf au
 g-cc-pvdz iop(5/13=1,5/36=2,99/5=2) pseudo=read geom=check guess=(read
 ,tcheck) scf=(maxcycle=1)\\title\\0,1\C,0,1.664907,-0.863089,0.\C,0,1.
 344951,0.483532,0.\C,0,0.661934,-1.830509,0.\C,0,-1.007329,-0.096986,0
 .\C,0,0.,0.864343,0.\C,0,-0.676595,-1.4483,0.\C,0,-0.383063,2.293828,0
 .\O,0,0.394376,3.219298,0.\O,0,-1.703952,-2.348067,0.\H,0,2.700183,-1.
 175867,0.\H,0,2.108986,1.247054,0.\H,0,0.922411,-2.882429,0.\H,0,-2.04
 9997,0.193551,0.\H,0,-1.476268,2.476862,0.\H,0,-1.357529,-3.245935,0.\

 Normal termination of Gaussian 16 at Sat Apr  5 22:47:07 2025.
