 Gaussian 16, Revision C.01,

 ----------------------------------------------------------------------
 #t hf aug-cc-pvdz symm=none int=(grid=ultrafine) guess=(read,tcheck) s
 table=(opt,rrhf)
 ----------------------------------------------------------------------
 -----
 title
 -----
 Symbolic Z-matrix:
 Charge =  0 Multiplicity = 1

 SCF Done:  E(RHF) =  -1039.67997996     A.U. after   15 cycles
 Normal termination of Gaussian 16 at Sat Apr  5 22:45:09 2025.
 Gaussian 16:  ES64L-G16RevC.01  3-Jul-2019

 ----------------------------------------------------------------------
 #t hf aug-cc-pvdz iop(5/13=1,5/36=2,99/5=2) pseudo=read geom=check gue
 ss=(read,tcheck) scf=(maxcycle=1)
 ----------------------------------------------------------------------
 -----
 title
 -----
 Structure from the checkpoint file:  "3-hydroxy-1-3-thiazole-23H-thione.chk"
 Charge =  0 Multiplicity = 1

                         Standard orientation:
 ---------------------------------------------------------------------
 Center     Atomic      Atomic             Coordinates (Angstroms)
 Number     Number       Type             X           Y           Z
 ---------------------------------------------------------------------
      1         16           0        1.022965   -1.331872    0.000004
      2         16           0       -2.014356   -0.693644   -0.000004
      3          8           0       -0.819041    2.032145   -0.000005
      4          7           0        0.058506    0.978276   -0.000000
      5          6           0        1.414989    1.194251    0.000002
      6          6           0       -0.395063   -0.296584   -0.000000
      7          6           0        2.103807    0.039075    0.000005
      8          1           0        1.783115    2.205430    0.000001
      9          1           0        3.171199   -0.084468    0.000008
     10          1           0       -1.691668    1.561773   -0.000006
 ---------------------------------------------------------------------

 SCF Done:  E(RHF) =  -1040.03867936     A.U. after    2 cycles

 The electronic state is 1-A.
 Alpha  occ. eigenvalues --  -94.01766 -93.91578 -20.63322 -15.64993 -11.39054
 Alpha  occ. eigenvalues --  -11.32922 -11.30577  -8.29924  -8.19838  -6.27675
 Alpha  occ. eigenvalues --   -6.27574  -6.27338  -6.17722  -6.17351  -6.17309
 Alpha  occ. eigenvalues --   -1.56711  -1.31629  -1.11610  -1.11369  -0.98194
 Alpha  occ. eigenvalues --   -0.90146  -0.82746  -0.74923  -0.71806  -0.69327
 Alpha  occ. eigenvalues --   -0.67104  -0.60923  -0.55190  -0.54875  -0.53160
 Alpha  occ. eigenvalues --   -0.44310  -0.43473  -0.36341  -0.32292
 Alpha virt. eigenvalues --    0.02669   0.03741   0.05587   0.06260   0.07524
 Alpha virt. eigenvalues --    0.08487   0.08788   0.09298   0.10174   0.10318
 Alpha virt. eigenvalues --    0.12271   0.13769   0.14324   0.14587   0.14852

 Mulliken charges:
               1
     1  S    0.747336
     2  S    0.065149
     3  O   -1.454974
     4  N    1.756411
     5  C    0.042505
     6  C   -1.179960
     7  C   -0.176190
     8  H   -0.081415
     9  H   -0.128698
    10  H    0.409835
 Sum of Mulliken charges =  -0.00000

 Dipole moment (field-independent basis, Debye):
    X=              4.3118    Y=              1.3913    Z=              0.0000  Tot=              4.5307

 Test job not archived.
 1\1\GINC-SE209\SP\RHF\Aug-CC-pVDZ\C3H3N1O1S2\OHZDE\05-Apr-2025\0\\#t h
 f aug-cc-pvdz iop(5/13=1,5/36=2,99/5=2) pseudo=read geom=check guess=(
 read,tcheck) scf=(maxcycle=1)\\title\\0,1\S,0,1.022965,-1.331872,0.000
 004\S,0,-2.014356,-0.693644,-0.000004\O,0,-0.819041,2.032145,-0.000005
 \N,0,0.058506,0.978276,0.\C,0,1.414989,1.194251,0.000002\C,0,-0.395063
 ,-0.296584,0.\C,0,2.103807,0.039075,0.000005\H,0,1.783115,2.20543,0.00
 0001\H,0,3.171199,-0.084468,0.000008\H,0,-1.691668,1.561773,-0.000006\
 \Version=ES64L-G16RevC.01\State=1-A\HF=-1040.0386794\RMSD=1.684e-02\Di

 Normal termination of Gaussian 16 at Sat Apr  5 22:45:38 2025.
