 Gaussian 16, Revision C.01,

 ----------------------------------------------------------------------
 #t hf aug-cc-pvdz symm=none int=(grid=ultrafine) guess=(read,tcheck) s
 table=(opt,rrhf)
 ----------------------------------------------------------------------
 -----
 title
 -----
 Symbolic Z-matrix:
 Charge =  0 Multiplicity = 1

 SCF Done:  E(RHF) =  -434.587640422     A.U. after   14 cycles
 Normal termination of Gaussian 16 at Sat Apr  5 22:45:55 2025.
 Gaussian 16:  ES64L-G16RevC.01  3-Jul-2019

 ----------------------------------------------------------------------
 #t hf aug-cc-pvdz iop(5/13=1,5/36=2,99/5=2) pseudo=read geom=check gue
 ss=(read,tcheck) scf=(maxcycle=1)
 ----------------------------------------------------------------------
 -----
 title
 -----
 Structure from the checkpoint file:  "3-hydroxy-1-3-oxazinan-4-one.chk"
 Charge =  0 Multiplicity = 1

                         Standard orientation:
 ---------------------------------------------------------------------
 Center     Atomic      Atomic             Coordinates (Angstroms)
 Number     Number       Type             X           Y           Z
 ---------------------------------------------------------------------
      1          6           0       -0.625254    0.796229   -0.069321
      2          6           0        0.748082    1.424367   -0.171862
      3          6           0        1.831447    0.472172    0.325884
      4          6           0        0.493068   -1.432208    0.084495
      5          7           0       -0.642039   -0.552571   -0.197890
      6          8           0       -1.673211    1.417918    0.082626
      7          8           0        1.681886   -0.808195   -0.288855
      8          8           0       -1.868778   -1.171591    0.063455
      9          1           0        0.927139    1.687106   -1.216193
     10          1           0        0.732773    2.348662    0.404513
     11          1           0        2.826636    0.822193    0.062253
     12          1           0        1.780973    0.363978    1.416043
     13          1           0        0.486076   -1.691814    1.152629
     14          1           0        0.385932   -2.336757   -0.510335
     15          1           0       -2.448486   -0.393789    0.203331
 ---------------------------------------------------------------------

 SCF Done:  E(RHF) =  -435.025468020     A.U. after    2 cycles

 The electronic state is 1-A.
 Alpha  occ. eigenvalues --  -20.60019 -20.58032 -20.52887 -15.58653 -11.37464
 Alpha  occ. eigenvalues --  -11.34896 -11.31745 -11.26809  -1.53437  -1.50238
 Alpha  occ. eigenvalues --   -1.45948  -1.20446  -1.08634  -0.97095  -0.91547
 Alpha  occ. eigenvalues --   -0.80703  -0.74361  -0.73357  -0.70033  -0.68729
 Alpha  occ. eigenvalues --   -0.65417  -0.63282  -0.62310  -0.60762  -0.57310
 Alpha  occ. eigenvalues --   -0.55443  -0.51556  -0.50754  -0.46395  -0.44500
 Alpha  occ. eigenvalues --   -0.40387
 Alpha virt. eigenvalues --    0.03179   0.04005   0.04313   0.04969   0.05621
 Alpha virt. eigenvalues --    0.06273   0.06997   0.09763   0.10215   0.11689
 Alpha virt. eigenvalues --    0.12786   0.13356   0.13808   0.14553   0.14873

 Mulliken charges:
               1
     1  C    0.599135
     2  C   -0.284756
     3  C    0.452601
     4  C    0.606766
     5  N    1.399517
     6  O   -1.375633
     7  O   -1.274002
     8  O   -1.310754
     9  H    0.261962
    10  H    0.226071
    11  H   -0.008764
    12  H    0.215743
    13  H    0.102080
    14  H    0.028226
    15  H    0.361807
 Sum of Mulliken charges =  -0.00000

 Dipole moment (field-independent basis, Debye):
    X=              2.8714    Y=              0.1284    Z=              1.0541  Tot=              3.0615

 Test job not archived.
 1\1\GINC-SE208\SP\RHF\Aug-CC-pVDZ\C4H7N1O3\OHZDE\05-Apr-2025\0\\#t hf
 aug-cc-pvdz iop(5/13=1,5/36=2,99/5=2) pseudo=read geom=check guess=(re
 ad,tcheck) scf=(maxcycle=1)\\title\\0,1\C,0,-0.625254,0.796229,-0.0693
 21\C,0,0.748082,1.424367,-0.171862\C,0,1.831447,0.472172,0.325884\C,0,
 0.493068,-1.432208,0.084495\N,0,-0.642039,-0.552571,-0.19789\O,0,-1.67
 3211,1.417918,0.082626\O,0,1.681886,-0.808195,-0.288855\O,0,-1.868778,
 -1.171591,0.063455\H,0,0.927139,1.687106,-1.216193\H,0,0.732774,2.3486
 62,0.404513\H,0,2.826636,0.822192,0.062253\H,0,1.780973,0.363978,1.416

 Normal termination of Gaussian 16 at Sat Apr  5 22:47:07 2025.
