 Gaussian 16, Revision C.01,

 ----------------------------------------------------------------------
 #t hf aug-cc-pvdz symm=none int=(grid=ultrafine) guess=(read,tcheck) s
 table=(opt,rrhf)
 ----------------------------------------------------------------------
 -----
 title
 -----
 Symbolic Z-matrix:
 Charge =  0 Multiplicity = 1

 SCF Done:  E(RHF) =  -243.444584425     A.U. after   16 cycles
 Normal termination of Gaussian 16 at Sat Apr  5 22:45:37 2025.
 Gaussian 16:  ES64L-G16RevC.01  3-Jul-2019

 ----------------------------------------------------------------------
 #t hf aug-cc-pvdz iop(5/13=1,5/36=2,99/5=2) pseudo=read geom=check gue
 ss=(read,tcheck) scf=(maxcycle=1)
 ----------------------------------------------------------------------
 -----
 title
 -----
 Structure from the checkpoint file:  "3-imino-1-allenone.chk"
 Charge =  0 Multiplicity = 1

                         Standard orientation:
 ---------------------------------------------------------------------
 Center     Atomic      Atomic             Coordinates (Angstroms)
 Number     Number       Type             X           Y           Z
 ---------------------------------------------------------------------
      1          8           0        2.465982    0.020631   -0.000235
      2          7           0       -2.444823   -0.094872   -0.000289
      3          6           0        0.032526   -0.028629    0.000643
      4          6           0        1.301270   -0.000338   -0.000035
      5          6           0       -1.244363    0.008532    0.000055
      6          1           0       -3.150699    0.621669   -0.000074
 ---------------------------------------------------------------------

 SCF Done:  E(RHF) =  -243.680033153     A.U. after    2 cycles

 The electronic state is 1-A.
 Alpha  occ. eigenvalues --  -20.61749 -15.55060 -11.41738 -11.39561 -11.24663
 Alpha  occ. eigenvalues --   -1.55729  -1.28814  -1.09222  -0.93898  -0.83938
 Alpha  occ. eigenvalues --   -0.73877  -0.64624  -0.64176  -0.60301  -0.58903
 Alpha  occ. eigenvalues --   -0.40009  -0.38301
 Alpha virt. eigenvalues --    0.02587   0.04932   0.07205   0.07756   0.08385
 Alpha virt. eigenvalues --    0.08569   0.08696   0.11688   0.13201   0.13521
 Alpha virt. eigenvalues --    0.16059   0.17600   0.18183   0.21079   0.22846

 Mulliken charges:
               1
     1  O   -0.962347
     2  N    0.828134
     3  C    1.770370
     4  C    0.125345
     5  C   -1.906366
     6  H    0.144864
 Sum of Mulliken charges =   0.00000

 Dipole moment (field-independent basis, Debye):
    X=             -1.7096    Y=              1.4383    Z=             -0.0005  Tot=              2.2341

 Test job not archived.
 1\1\GINC-SE249\SP\RHF\Aug-CC-pVDZ\C3H1N1O1\OHZDE\05-Apr-2025\0\\#t hf
 aug-cc-pvdz iop(5/13=1,5/36=2,99/5=2) pseudo=read geom=check guess=(re
 ad,tcheck) scf=(maxcycle=1)\\title\\0,1\O,0,2.465982,0.020631,-0.00023
 5\N,0,-2.444823,-0.094872,-0.000289\C,0,0.032526,-0.028629,0.000643\C,
 0,1.30127,-0.000338,-0.000035\C,0,-1.244363,0.008532,0.000055\H,0,-3.1
 50699,0.621669,-0.000074\\Version=ES64L-G16RevC.01\State=1-A\HF=-243.6
 800332\RMSD=3.765e-02\Dipole=-0.6726116,0.565852,-0.0001808\Quadrupole
 =-0.2191483,0.5252115,-0.3060632,-3.5750086,-0.0011109,-0.0000086\PG=C

 Normal termination of Gaussian 16 at Sat Apr  5 22:45:40 2025.
