 Gaussian 16, Revision C.01,

 ----------------------------------------------------------------------
 #t hf aug-cc-pvdz symm=none int=(grid=ultrafine) guess=(read,tcheck) s
 table=(opt,rrhf)
 ----------------------------------------------------------------------
 -----
 title
 -----
 Symbolic Z-matrix:
 Charge =  0 Multiplicity = 1

 SCF Done:  E(RHF) =  -319.538718155     A.U. after   15 cycles
 Normal termination of Gaussian 16 at Sat Apr  5 22:45:02 2025.
 Gaussian 16:  ES64L-G16RevC.01  3-Jul-2019

 ----------------------------------------------------------------------
 #t hf aug-cc-pvdz iop(5/13=1,5/36=2,99/5=2) pseudo=read geom=check gue
 ss=(read,tcheck) scf=(maxcycle=1)
 ----------------------------------------------------------------------
 -----
 title
 -----
 Structure from the checkpoint file:  "3-imino-2-propenoicacid.chk"
 Charge =  0 Multiplicity = 1

                         Standard orientation:
 ---------------------------------------------------------------------
 Center     Atomic      Atomic             Coordinates (Angstroms)
 Number     Number       Type             X           Y           Z
 ---------------------------------------------------------------------
      1          8           0        0.832747    1.359187    0.006513
      2          8           0        2.144989   -0.432647   -0.013277
      3          7           0       -2.578092    0.122693   -0.135032
      4          6           0        0.917327    0.160721    0.006423
      5          6           0       -0.225737   -0.768608    0.030257
      6          6           0       -1.459445   -0.297235    0.010407
      7          1           0        2.070121   -1.393038   -0.029288
      8          1           0       -3.142970    0.393415    0.664093
      9          1           0       -0.095256   -1.840812    0.082007
 ---------------------------------------------------------------------

 SCF Done:  E(RHF) =  -319.854190076     A.U. after    2 cycles

 The electronic state is 1-A.
 Alpha  occ. eigenvalues --  -20.60396 -20.52913 -15.56469 -11.40587 -11.37292
 Alpha  occ. eigenvalues --  -11.27449  -1.54266  -1.45294  -1.29791  -1.08709
 Alpha  occ. eigenvalues --   -0.88007  -0.83689  -0.78184  -0.71734  -0.64356
 Alpha  occ. eigenvalues --   -0.64101  -0.61597  -0.59159  -0.54808  -0.48221
 Alpha  occ. eigenvalues --   -0.44975  -0.39661
 Alpha virt. eigenvalues --    0.02079   0.03380   0.05374   0.08567   0.08961
 Alpha virt. eigenvalues --    0.09971   0.10373   0.11354   0.11563   0.12679
 Alpha virt. eigenvalues --    0.12989   0.13139   0.13623   0.15832   0.16827

 Mulliken charges:
               1
     1  O   -1.147335
     2  O   -1.279996
     3  N    0.837617
     4  C    1.855822
     5  C    1.278878
     6  C   -1.920563
     7  H    0.432202
     8  H    0.170802
     9  H   -0.227427
 Sum of Mulliken charges =  -0.00000

 Dipole moment (field-independent basis, Debye):
    X=             -1.8477    Y=             -4.3425    Z=              1.5299  Tot=              4.9610

 Test job not archived.
 1\1\GINC-SE050\SP\RHF\Aug-CC-pVDZ\C3H3N1O2\OHZDE\05-Apr-2025\0\\#t hf
 aug-cc-pvdz iop(5/13=1,5/36=2,99/5=2) pseudo=read geom=check guess=(re
 ad,tcheck) scf=(maxcycle=1)\\title\\0,1\O,0,0.832747,1.359187,0.006513
 \O,0,2.144989,-0.432647,-0.013277\N,0,-2.578092,0.122693,-0.135032\C,0
 ,0.917327,0.160721,0.006423\C,0,-0.225737,-0.768608,0.030257\C,0,-1.45
 9445,-0.297235,0.010407\H,0,2.070121,-1.393038,-0.029288\H,0,-3.14297,
 0.393415,0.664093\H,0,-0.095256,-1.840812,0.082007\\Version=ES64L-G16R
 evC.01\State=1-A\HF=-319.8541901\RMSD=2.329e-02\Dipole=-0.7269413,-1.7

 Normal termination of Gaussian 16 at Sat Apr  5 22:45:37 2025.
