 Gaussian 16, Revision C.01,

 ----------------------------------------------------------------------
 #t hf aug-cc-pvdz symm=none int=(grid=ultrafine) guess=(read,tcheck) s
 table=(opt,rrhf)
 ----------------------------------------------------------------------
 -----
 title
 -----
 Symbolic Z-matrix:
 Charge =  0 Multiplicity = 1

 SCF Done:  E(RHF) =  -605.136636751     A.U. after   15 cycles
 Normal termination of Gaussian 16 at Sat Apr  5 22:45:44 2025.
 Gaussian 16:  ES64L-G16RevC.01  3-Jul-2019

 ----------------------------------------------------------------------
 #t hf aug-cc-pvdz iop(5/13=1,5/36=2,99/5=2) pseudo=read geom=check gue
 ss=(read,tcheck) scf=(maxcycle=1)
 ----------------------------------------------------------------------
 -----
 title
 -----
 Structure from the checkpoint file:  "3-isothiocyanato-1-propyne.chk"
 Charge =  0 Multiplicity = 1

                         Standard orientation:
 ---------------------------------------------------------------------
 Center     Atomic      Atomic             Coordinates (Angstroms)
 Number     Number       Type             X           Y           Z
 ---------------------------------------------------------------------
      1         16           0        2.304780    0.469076    0.000055
      2          7           0       -0.000276   -1.064889   -0.000264
      3          6           0       -1.440161   -1.078448    0.000154
      4          6           0       -2.045252    0.250085    0.000038
      5          6           0        0.961067   -0.361593   -0.000087
      6          6           0       -2.535008    1.342919   -0.000048
      7          1           0       -1.775353   -1.640578   -0.874688
      8          1           0       -1.774829   -1.640184    0.875452
      9          1           0       -2.968251    2.311985   -0.000143
 ---------------------------------------------------------------------

 SCF Done:  E(RHF) =  -605.402691132     A.U. after    2 cycles

 The electronic state is 1-A.
 Alpha  occ. eigenvalues --  -93.94851 -15.55241 -11.38771 -11.34681 -11.26659
 Alpha  occ. eigenvalues --  -11.26120  -8.23135  -6.21033  -6.20610  -6.20566
 Alpha  occ. eigenvalues --   -1.30721  -1.11095  -1.06520  -1.01324  -0.81239
 Alpha  occ. eigenvalues --   -0.74134  -0.70023  -0.68922  -0.61578  -0.57898
 Alpha  occ. eigenvalues --   -0.56529  -0.43452  -0.42512  -0.38970  -0.37613
 Alpha virt. eigenvalues --    0.02952   0.03441   0.04792   0.07126   0.07942
 Alpha virt. eigenvalues --    0.08342   0.08818   0.09904   0.10548   0.11415
 Alpha virt. eigenvalues --    0.12597   0.13209   0.13226   0.13790   0.15126

 Mulliken charges:
               1
     1  S    0.292992
     2  N    0.708815
     3  C   -0.723397
     4  C    0.233635
     5  C   -1.038514
     6  C    0.532695
     7  H    0.193853
     8  H    0.193930
     9  H   -0.394008
 Sum of Mulliken charges =  -0.00000

 Dipole moment (field-independent basis, Debye):
    X=             -2.7132    Y=             -0.2986    Z=              0.0006  Tot=              2.7295

 Test job not archived.
 1\1\GINC-SE028\SP\RHF\Aug-CC-pVDZ\C4H3N1S1\OHZDE\05-Apr-2025\0\\#t hf
 aug-cc-pvdz iop(5/13=1,5/36=2,99/5=2) pseudo=read geom=check guess=(re
 ad,tcheck) scf=(maxcycle=1)\\title\\0,1\S,0,2.30478,0.469076,0.000055\
 N,0,-0.000276,-1.064889,-0.000264\C,0,-1.440161,-1.078448,0.000154\C,0
 ,-2.045252,0.250085,0.000038\C,0,0.961067,-0.361593,-0.000087\C,0,-2.5
 35008,1.342919,-0.000048\H,0,-1.775353,-1.640578,-0.874688\H,0,-1.7748
 29,-1.640184,0.875452\H,0,-2.968251,2.311985,-0.000143\\Version=ES64L-
 G16RevC.01\State=1-A\HF=-605.4026911\RMSD=2.154e-02\Dipole=-1.0674376,

 Normal termination of Gaussian 16 at Sat Apr  5 22:45:57 2025.
