 Gaussian 16, Revision C.01,

 ----------------------------------------------------------------------
 #t hf aug-cc-pvdz symm=none int=(grid=ultrafine) guess=(read,tcheck) s
 table=(opt,rrhf)
 ----------------------------------------------------------------------
 -----
 title
 -----
 Symbolic Z-matrix:
 Charge =  0 Multiplicity = 1

 SCF Done:  E(RHF) =  -660.246624162     A.U. after   15 cycles
 Normal termination of Gaussian 16 at Sat Apr  5 22:46:08 2025.
 Gaussian 16:  ES64L-G16RevC.01  3-Jul-2019

 ----------------------------------------------------------------------
 #t hf aug-cc-pvdz iop(5/13=1,5/36=2,99/5=2) pseudo=read geom=check gue
 ss=(read,tcheck) scf=(maxcycle=1)
 ----------------------------------------------------------------------
 -----
 title
 -----
 Structure from the checkpoint file:  "3-isothiocyanatopropanenitrile.chk"
 Charge =  0 Multiplicity = 1

                         Standard orientation:
 ---------------------------------------------------------------------
 Center     Atomic      Atomic             Coordinates (Angstroms)
 Number     Number       Type             X           Y           Z
 ---------------------------------------------------------------------
      1         16           0        3.337777   -0.078999   -0.008241
      2          7           0        0.585203    0.215569    0.016899
      3          7           0       -4.172513   -0.426062   -0.009011
      4          6           0       -0.703901   -0.405684    0.011919
      5          6           0       -1.805058    0.666399   -0.001765
      6          6           0       -3.134377    0.067327   -0.005912
      7          6           0        1.762573    0.040262    0.005120
      8          1           0       -0.797866   -1.046210   -0.866960
      9          1           0       -0.809327   -1.034429    0.897962
     10          1           0       -1.695465    1.298430   -0.884021
     11          1           0       -1.706021    1.309821    0.873498
 ---------------------------------------------------------------------

 SCF Done:  E(RHF) =  -660.565365683     A.U. after    2 cycles

 The electronic state is 1-A.
 Alpha  occ. eigenvalues --  -93.95918 -15.56390 -15.53035 -11.39939 -11.34480
 Alpha  occ. eigenvalues --  -11.31607 -11.29808  -8.24198  -6.22094  -6.21666
 Alpha  occ. eigenvalues --   -6.21630  -1.31974  -1.25344  -1.13398  -1.08137
 Alpha  occ. eigenvalues --   -0.98370  -0.79655  -0.72391  -0.72341  -0.66298
 Alpha  occ. eigenvalues --   -0.63526  -0.62486  -0.61501  -0.57666  -0.55834
 Alpha  occ. eigenvalues --   -0.51156  -0.51017  -0.39883  -0.38854
 Alpha virt. eigenvalues --    0.02542   0.03938   0.04187   0.05323   0.05941
 Alpha virt. eigenvalues --    0.06956   0.07684   0.09258   0.09418   0.10716
 Alpha virt. eigenvalues --    0.11418   0.11515   0.12719   0.13071   0.13995

 Mulliken charges:
               1
     1  S    0.296330
     2  N    0.821482
     3  N    0.915163
     4  C   -0.222197
     5  C    0.215477
     6  C   -1.546588
     7  C   -1.110115
     8  H    0.065462
     9  H    0.068532
    10  H    0.247620
    11  H    0.248834
 Sum of Mulliken charges =  -0.00000

 Dipole moment (field-independent basis, Debye):
    X=              1.7117    Y=              0.9324    Z=              0.0101  Tot=              1.9492

 Test job not archived.
 1\1\GINC-SE036\SP\RHF\Aug-CC-pVDZ\C4H4N2S1\OHZDE\05-Apr-2025\0\\#t hf
 aug-cc-pvdz iop(5/13=1,5/36=2,99/5=2) pseudo=read geom=check guess=(re
 ad,tcheck) scf=(maxcycle=1)\\title\\0,1\S,0,3.337777,-0.078999,-0.0082
 41\N,0,0.585203,0.215569,0.016899\N,0,-4.172513,-0.426062,-0.009011\C,
 0,-0.703901,-0.405684,0.011919\C,0,-1.805058,0.666399,-0.001765\C,0,-3
 .134377,0.067327,-0.005912\C,0,1.762573,0.040262,0.00512\H,0,-0.797866
 ,-1.04621,-0.86696\H,0,-0.809327,-1.034429,0.897962\H,0,-1.695465,1.29
 843,-0.884021\H,0,-1.706021,1.309821,0.873498\\Version=ES64L-G16RevC.0

 Normal termination of Gaussian 16 at Sat Apr  5 22:47:05 2025.
