 Gaussian 16, Revision C.01,

 ----------------------------------------------------------------------
 #t hf aug-cc-pvdz symm=none int=(grid=ultrafine) guess=(read,tcheck) s
 table=(opt,rrhf)
 ----------------------------------------------------------------------
 -----
 title
 -----
 Symbolic Z-matrix:
 Charge =  0 Multiplicity = 1

 SCF Done:  E(RHF) =  -234.203551827     A.U. after   12 cycles
 Normal termination of Gaussian 16 at Sat Apr  5 22:47:36 2025.
 Gaussian 16:  ES64L-G16RevC.01  3-Jul-2019

 ----------------------------------------------------------------------
 #t hf aug-cc-pvdz iop(5/13=1,5/36=2,99/5=2) pseudo=read geom=check gue
 ss=(read,tcheck) scf=(maxcycle=1)
 ----------------------------------------------------------------------
 -----
 title
 -----
 Structure from the checkpoint file:  "3-methylenepentane.chk"
 Charge =  0 Multiplicity = 1

                         Standard orientation:
 ---------------------------------------------------------------------
 Center     Atomic      Atomic             Coordinates (Angstroms)
 Number     Number       Type             X           Y           Z
 ---------------------------------------------------------------------
      1          6           0       -0.000000    1.958176   -0.987741
      2          1           0        0.566649    1.430602   -1.755450
      3          1           0       -0.650438    2.672727   -1.493685
      4          1           0        0.707866    2.520346   -0.377078
      5          6           0       -0.827026    0.996208   -0.123763
      6          1           0       -1.529824    0.461466   -0.769662
      7          1           0       -1.433305    1.572550    0.576719
      8          6           0       -0.000000   -1.958176   -0.987741
      9          1           0       -0.566649   -1.430602   -1.755450
     10          1           0        0.650438   -2.672727   -1.493685
     11          1           0       -0.707866   -2.520346   -0.377078
     12          6           0        0.827026   -0.996208   -0.123763
     13          1           0        1.529824   -0.461466   -0.769662
     14          1           0        1.433305   -1.572550    0.576719
     15          6           0        0.000000    0.000000    0.656119
     16          6           0        0.000000    0.000000    1.987937
     17          1           0       -0.592649    0.706057    2.556012
     18          1           0        0.592649   -0.706057    2.556012
 ---------------------------------------------------------------------

 SCF Done:  E(RHF) =  -234.465285118     A.U. after    2 cycles

 The electronic state is 1-A.
 Alpha  occ. eigenvalues --  -11.23805 -11.23038 -11.23028 -11.22455 -11.22450
 Alpha  occ. eigenvalues --  -11.21636  -1.10631  -1.01797  -0.98122  -0.85750
 Alpha  occ. eigenvalues --   -0.85657  -0.71817  -0.64489  -0.64339  -0.58957
 Alpha  occ. eigenvalues --   -0.58361  -0.57900  -0.52940  -0.52615  -0.51317
 Alpha  occ. eigenvalues --   -0.49778  -0.48040  -0.46283  -0.35383
 Alpha virt. eigenvalues --    0.03549   0.03697   0.04017   0.04044   0.05809
 Alpha virt. eigenvalues --    0.05834   0.06450   0.06794   0.07415   0.09393
 Alpha virt. eigenvalues --    0.09675   0.10247   0.12027   0.13267   0.13819

 Mulliken charges:
               1
     1  C   -0.336529
     2  H    0.137736
     3  H    0.099637
     4  H    0.149959
     5  C   -0.566891
     6  H    0.175063
     7  H    0.075025
     8  C   -0.336529
     9  H    0.137736
    10  H    0.099637
    11  H    0.149959
    12  C   -0.566891
    13  H    0.175063
    14  H    0.075025
    15  C    0.682586
    16  C    0.190597
    17  H   -0.170592
    18  H   -0.170592
 Sum of Mulliken charges =  -0.00000

 Dipole moment (field-independent basis, Debye):
    X=              0.0000    Y=              0.0000    Z=             -0.5543  Tot=              0.5543

 Test job not archived.
 1\1\GINC-SE187\SP\RHF\Aug-CC-pVDZ\C6H12\OHZDE\05-Apr-2025\0\\#t hf aug
 -cc-pvdz iop(5/13=1,5/36=2,99/5=2) pseudo=read geom=check guess=(read,
 tcheck) scf=(maxcycle=1)\\title\\0,1\C,0,0.,1.958176,-0.987741\H,0,0.5
 66649,1.430602,-1.75545\H,0,-0.650438,2.672727,-1.493685\H,0,0.707866,
 2.520346,-0.377078\C,0,-0.827026,0.996208,-0.123763\H,0,-1.529824,0.46
 1466,-0.769662\H,0,-1.433305,1.57255,0.576719\C,0,0.,-1.958176,-0.9877
 41\H,0,-0.566649,-1.430602,-1.75545\H,0,0.650438,-2.672727,-1.493685\H
 ,0,-0.707866,-2.520346,-0.377078\C,0,0.827026,-0.996208,-0.123763\H,0,

 Normal termination of Gaussian 16 at Sat Apr  5 22:48:00 2025.
