 Gaussian 16, Revision C.01,

 ----------------------------------------------------------------------
 #t hf aug-cc-pvdz symm=none int=(grid=ultrafine) guess=(read,tcheck) s
 table=(opt,rrhf)
 ----------------------------------------------------------------------
 -----
 title
 -----
 Symbolic Z-matrix:
 Charge =  0 Multiplicity = 1

 SCF Done:  E(RHF) =  -195.164484775     A.U. after   13 cycles
 Normal termination of Gaussian 16 at Sat Apr  5 22:46:13 2025.
 Gaussian 16:  ES64L-G16RevC.01  3-Jul-2019

 ----------------------------------------------------------------------
 #t hf aug-cc-pvdz iop(5/13=1,5/36=2,99/5=2) pseudo=read geom=check gue
 ss=(read,tcheck) scf=(maxcycle=1)
 ----------------------------------------------------------------------
 -----
 title
 -----
 Structure from the checkpoint file:  "3-methyl-1-butene.chk"
 Charge =  0 Multiplicity = 1

                         Standard orientation:
 ---------------------------------------------------------------------
 Center     Atomic      Atomic             Coordinates (Angstroms)
 Number     Number       Type             X           Y           Z
 ---------------------------------------------------------------------
      1          6           0        0.038790   -2.151291   -0.000000
      2          6           0       -0.466392   -0.924162   -0.000000
      3          6           0        0.038790    1.174358    1.264341
      4          6           0        0.038790    1.174358   -1.264341
      5          6           0        0.328419    0.351813    0.000000
      6          1           0       -0.595889   -3.027411   -0.000000
      7          1           0        1.108765   -2.324083   -0.000000
      8          1           0       -1.547581   -0.800215   -0.000000
      9          1           0        0.621162    2.097450    1.268423
     10          1           0        0.283840    0.612320    2.165774
     11          1           0       -1.017756    1.447586    1.316867
     12          1           0       -1.017756    1.447586   -1.316867
     13          1           0        0.621162    2.097450   -1.268423
     14          1           0        0.283840    0.612320   -2.165774
     15          1           0        1.389834    0.086538    0.000000
 ---------------------------------------------------------------------

 SCF Done:  E(RHF) =  -195.382570241     A.U. after    2 cycles

 The electronic state is 1-A'.
 Alpha  occ. eigenvalues --  -11.23747 -11.23613 -11.22635 -11.22316 -11.22307
 Alpha  occ. eigenvalues --   -1.10037  -1.00514  -0.93177  -0.83121  -0.75624
 Alpha  occ. eigenvalues --   -0.64506  -0.63015  -0.59085  -0.57209  -0.54278
 Alpha  occ. eigenvalues --   -0.54152  -0.49282  -0.48077  -0.47178  -0.36749
 Alpha virt. eigenvalues --    0.03719   0.03932   0.04059   0.04356   0.06118
 Alpha virt. eigenvalues --    0.06461   0.06831   0.07352   0.07625   0.09344
 Alpha virt. eigenvalues --    0.12017   0.13544   0.14070   0.14494   0.15217

 Mulliken charges:
               1
     1  C   -0.225800
     2  C    1.012599
     3  C   -0.128699
     4  C   -0.128699
     5  C   -1.229814
     6  H   -0.103369
     7  H   -0.099465
     8  H   -0.194966
     9  H    0.131934
    10  H    0.142639
    11  H    0.217353
    12  H    0.217353
    13  H    0.131934
    14  H    0.142639
    15  H    0.114362
 Sum of Mulliken charges =  -0.00000

 Dipole moment (field-independent basis, Debye):
    X=              0.0964    Y=              0.3559    Z=             -0.0000  Tot=              0.3688

 Test job not archived.
 1\1\GINC-SE183\SP\RHF\Aug-CC-pVDZ\C5H10\OHZDE\05-Apr-2025\0\\#t hf aug
 -cc-pvdz iop(5/13=1,5/36=2,99/5=2) pseudo=read geom=check guess=(read,
 tcheck) scf=(maxcycle=1)\\title\\0,1\C,0,0.03879,-2.151291,0.\C,0,-0.4
 66392,-0.924162,0.\C,0,0.03879,1.174358,1.264341\C,0,0.03879,1.174358,
 -1.264341\C,0,0.328419,0.351813,0.\H,0,-0.595889,-3.027411,0.\H,0,1.10
 8765,-2.324083,0.\H,0,-1.547581,-0.800215,0.\H,0,0.621162,2.09745,1.26
 8423\H,0,0.28384,0.61232,2.165774\H,0,-1.017756,1.447586,1.316867\H,0,
 -1.017756,1.447586,-1.316867\H,0,0.621162,2.09745,-1.268423\H,0,0.2838

 Normal termination of Gaussian 16 at Sat Apr  5 22:47:04 2025.
