 Gaussian 16, Revision C.01,

 ----------------------------------------------------------------------
 #t hf aug-cc-pvdz symm=none int=(grid=ultrafine) guess=(read,tcheck) s
 table=(opt,rrhf)
 ----------------------------------------------------------------------
 -----
 title
 -----
 Symbolic Z-matrix:
 Charge =  0 Multiplicity = 1

 SCF Done:  E(RHF) =  -271.224306296     A.U. after   12 cycles

 1\1\GINC-SE196\Stability\RHF\Aug-CC-pVDZ\C5H12O1\OHZDE\05-Apr-2025\0\\
 #t hf aug-cc-pvdz symm=none int=(grid=ultrafine) guess=(read,tcheck) s
 table=(opt,rrhf)\\title\\0,1\C,0,-1.572019,-1.152435,0.064704\H,0,-2.5
 44151,-1.085014,-0.426242\H,0,-1.109397,-2.095497,-0.217069\H,0,-1.747
 322,-1.170696,1.143837\C,0,1.649859,1.062268,-0.055942\H,0,1.313035,2.
 014631,0.352183\H,0,2.646218,0.870729,0.349265\H,0,1.737758,1.156202,-
 1.139611\O,0,1.248482,-1.330506,-0.129077\H,0,2.137286,-1.421916,0.225
 802\C,0,0.703049,-0.076396,0.308494\H,0,0.58065,-0.102704,1.400853\C,0

 Normal termination of Gaussian 16 at Sat Apr  5 22:46:29 2025.
 Gaussian 16:  ES64L-G16RevC.01  3-Jul-2019

 ----------------------------------------------------------------------
 #t hf aug-cc-pvdz iop(5/13=1,5/36=2,99/5=2) pseudo=read geom=check gue
 ss=(read,tcheck) scf=(maxcycle=1)
 ----------------------------------------------------------------------
 -----
 title
 -----
 Structure from the checkpoint file:  "3-methyl-2-butanol.chk"
 Charge =  0 Multiplicity = 1

                         Standard orientation:
 ---------------------------------------------------------------------
 Center     Atomic      Atomic             Coordinates (Angstroms)
 Number     Number       Type             X           Y           Z
 ---------------------------------------------------------------------
      1          6           0       -1.572019   -1.152435    0.064704
      2          1           0       -2.544151   -1.085014   -0.426242
      3          1           0       -1.109397   -2.095497   -0.217069
      4          1           0       -1.747322   -1.170696    1.143837
      5          6           0        1.649859    1.062268   -0.055942
      6          1           0        1.313035    2.014631    0.352183
      7          1           0        2.646218    0.870729    0.349265
      8          1           0        1.737758    1.156202   -1.139611
      9          8           0        1.248482   -1.330506   -0.129077
     10          1           0        2.137286   -1.421916    0.225802
     11          6           0        0.703049   -0.076396    0.308494
     12          1           0        0.580650   -0.102704    1.400853
     13          6           0       -0.691524    0.040475   -0.320727
     14          1           0       -0.545223    0.020911   -1.406038
     15          6           0       -1.380726    1.356806    0.052990
     16          1           0       -1.468276    1.460678    1.137735
     17          1           0       -0.850062    2.229463   -0.326308
     18          1           0       -2.390195    1.382956   -0.358897
 ---------------------------------------------------------------------

 SCF Done:  E(RHF) =  -271.521117245     A.U. after    2 cycles

 The electronic state is 1-A.
 Alpha  occ. eigenvalues --  -20.54044 -11.28303 -11.22867 -11.22652 -11.22121
 Alpha  occ. eigenvalues --  -11.21070  -1.44003  -1.08611  -0.99498  -0.92668
 Alpha  occ. eigenvalues --   -0.86344  -0.76854  -0.68905  -0.63999  -0.62101
 Alpha  occ. eigenvalues --   -0.60008  -0.56224  -0.54647  -0.54242  -0.53032
 Alpha  occ. eigenvalues --   -0.51174  -0.48164  -0.47535  -0.45456  -0.43111
 Alpha virt. eigenvalues --    0.03346   0.03889   0.03969   0.04380   0.06144
 Alpha virt. eigenvalues --    0.06205   0.06655   0.06825   0.07426   0.09224
 Alpha virt. eigenvalues --    0.09751   0.10125   0.13204   0.14098   0.15191

 Mulliken charges:
               1
     1  C   -0.038482
     2  H    0.152751
     3  H    0.183750
     4  H    0.212304
     5  C   -0.314724
     6  H    0.188860
     7  H    0.074800
     8  H    0.227337
     9  O   -1.397493
    10  H    0.296544
    11  C    1.096343
    12  H    0.142971
    13  C   -1.551532
    14  H    0.171158
    15  C    0.056244
    16  H    0.224656
    17  H    0.138577
    18  H    0.135937
 Sum of Mulliken charges =  -0.00000

 Dipole moment (field-independent basis, Debye):
    X=              0.7624    Y=              1.1296    Z=              0.7875  Tot=              1.5740

 Test job not archived.
 1\1\GINC-SE196\SP\RHF\Aug-CC-pVDZ\C5H12O1\OHZDE\05-Apr-2025\0\\#t hf a
 ug-cc-pvdz iop(5/13=1,5/36=2,99/5=2) pseudo=read geom=check guess=(rea
 d,tcheck) scf=(maxcycle=1)\\title\\0,1\C,0,-1.572019,-1.152435,0.06470
 4\H,0,-2.544151,-1.085014,-0.426242\H,0,-1.109397,-2.095497,-0.217069\
 H,0,-1.747322,-1.170696,1.143837\C,0,1.649859,1.062268,-0.055942\H,0,1
 .313035,2.014631,0.352183\H,0,2.646218,0.870729,0.349265\H,0,1.737758,
 1.156202,-1.139611\O,0,1.248482,-1.330506,-0.129077\H,0,2.137286,-1.42
 1916,0.225802\C,0,0.703049,-0.076396,0.308494\H,0,0.58065,-0.102704,1.

 Normal termination of Gaussian 16 at Sat Apr  5 22:47:07 2025.
