 Gaussian 16, Revision C.01,

 ----------------------------------------------------------------------
 #t hf aug-cc-pvdz symm=none int=(grid=ultrafine) guess=(read,tcheck) s
 table=(opt,rrhf)
 ----------------------------------------------------------------------
 -----
 title
 -----
 Symbolic Z-matrix:
 Charge =  0 Multiplicity = 1

 SCF Done:  E(RHF) =  -399.667951245     A.U. after   15 cycles
 Normal termination of Gaussian 16 at Sat Apr  5 22:48:12 2025.
 Gaussian 16:  ES64L-G16RevC.01  3-Jul-2019

 ----------------------------------------------------------------------
 #t hf aug-cc-pvdz iop(5/13=1,5/36=2,99/5=2) pseudo=read geom=check gue
 ss=(read,tcheck) scf=(maxcycle=1)
 ----------------------------------------------------------------------
 -----
 title
 -----
 Structure from the checkpoint file:  "3-methoxyaniline.chk"
 Charge =  0 Multiplicity = 1

                         Standard orientation:
 ---------------------------------------------------------------------
 Center     Atomic      Atomic             Coordinates (Angstroms)
 Number     Number       Type             X           Y           Z
 ---------------------------------------------------------------------
      1          6           0       -0.533337    1.799111    0.003615
      2          6           0       -1.705095    1.064563   -0.002894
      3          6           0        0.717403    1.184420    0.004395
      4          6           0       -0.402266   -0.962277   -0.006106
      5          6           0       -1.646552   -0.337109   -0.007512
      6          6           0        0.770726   -0.209050   -0.000830
      7          6           0        3.162146   -0.235899    0.003261
      8          7           0       -2.816974   -1.091799   -0.070750
      9          8           0        1.927453   -0.933333    0.000800
     10          1           0       -0.586702    2.879891    0.008420
     11          1           0       -2.664991    1.564249   -0.010323
     12          1           0        1.613061    1.784526    0.009583
     13          1           0       -0.323439   -2.041438   -0.015180
     14          1           0        3.268427    0.385502    0.896029
     15          1           0        3.269501    0.389402   -0.886596
     16          1           0        3.936497   -0.998414    0.002060
     17          1           0       -3.647664   -0.634953    0.267787
     18          1           0       -2.743642   -2.042069    0.253499
 ---------------------------------------------------------------------

 SCF Done:  E(RHF) =  -400.081502390     A.U. after    2 cycles

 The electronic state is 1-A.
 Alpha  occ. eigenvalues --  -20.56765 -15.50738 -11.30395 -11.29065 -11.28433
 Alpha  occ. eigenvalues --  -11.24460 -11.22066 -11.22053 -11.21844  -1.49206
 Alpha  occ. eigenvalues --   -1.22387  -1.12745  -1.02196  -0.99212  -0.94329
 Alpha  occ. eigenvalues --   -0.84388  -0.81904  -0.73485  -0.72614  -0.67519
 Alpha  occ. eigenvalues --   -0.65786  -0.65279  -0.65071  -0.59927  -0.58002
 Alpha  occ. eigenvalues --   -0.55836  -0.53603  -0.52751  -0.50770  -0.48646
 Alpha  occ. eigenvalues --   -0.44590  -0.32664  -0.30694
 Alpha virt. eigenvalues --    0.03243   0.03686   0.03809   0.04973   0.05348
 Alpha virt. eigenvalues --    0.05585   0.07175   0.08255   0.09825   0.10611
 Alpha virt. eigenvalues --    0.10959   0.11920   0.12422   0.13264   0.13571

 Mulliken charges:
               1
     1  C    0.467707
     2  C    0.394544
     3  C   -0.512918
     4  C    0.416925
     5  C   -1.040686
     6  C    2.292034
     7  C    0.144017
     8  N    0.739579
     9  O   -1.921085
    10  H   -0.247103
    11  H   -0.292886
    12  H   -0.433941
    13  H   -0.323570
    14  H    0.175551
    15  H    0.177218
    16  H   -0.055737
    17  H    0.001656
    18  H    0.018694
 Sum of Mulliken charges =  -0.00000

 Dipole moment (field-independent basis, Debye):
    X=              0.1391    Y=              0.4352    Z=              0.9805  Tot=              1.0817

 Test job not archived.
 1\1\GINC-SE053\SP\RHF\Aug-CC-pVDZ\C7H9N1O1\OHZDE\05-Apr-2025\0\\#t hf
 aug-cc-pvdz iop(5/13=1,5/36=2,99/5=2) pseudo=read geom=check guess=(re
 ad,tcheck) scf=(maxcycle=1)\\title\\0,1\C,0,-0.533337,1.799111,0.00361
 5\C,0,-1.705095,1.064563,-0.002894\C,0,0.717403,1.18442,0.004395\C,0,-
 0.402266,-0.962277,-0.006106\C,0,-1.646552,-0.337109,-0.007512\C,0,0.7
 70726,-0.20905,-0.00083\C,0,3.162146,-0.235899,0.003261\N,0,-2.816974,
 -1.091799,-0.07075\O,0,1.927453,-0.933333,0.0008\H,0,-0.586702,2.87989
 1,0.00842\H,0,-2.664991,1.564249,-0.010323\H,0,1.613061,1.784526,0.009

 Normal termination of Gaussian 16 at Sat Apr  5 22:48:21 2025.
