 Gaussian 16, Revision C.01,

 ----------------------------------------------------------------------
 #t hf aug-cc-pvdz symm=none int=(grid=ultrafine) guess=(read,tcheck) s
 table=(opt,rrhf)
 ----------------------------------------------------------------------
 -----
 title
 -----
 Symbolic Z-matrix:
 Charge =  0 Multiplicity = 1

 SCF Done:  E(RHF) =  -193.960239032     A.U. after   12 cycles
 Normal termination of Gaussian 16 at Sat Apr  5 22:47:16 2025.
 Gaussian 16:  ES64L-G16RevC.01  3-Jul-2019

 ----------------------------------------------------------------------
 #t hf aug-cc-pvdz iop(5/13=1,5/36=2,99/5=2) pseudo=read geom=check gue
 ss=(read,tcheck) scf=(maxcycle=1)
 ----------------------------------------------------------------------
 -----
 title
 -----
 Structure from the checkpoint file:  "3-methyl-1-2-butadiene.chk"
 Charge =  0 Multiplicity = 1

                         Standard orientation:
 ---------------------------------------------------------------------
 Center     Atomic      Atomic             Coordinates (Angstroms)
 Number     Number       Type             X           Y           Z
 ---------------------------------------------------------------------
      1          6           0        0.000000    0.000000    2.232657
      2          6           0        0.000000    0.000000    0.930096
      3          1           0       -0.923706    0.000000    2.800709
      4          1           0        0.923706   -0.000000    2.800709
      5          6           0        0.000000    0.000000   -0.374142
      6          6           0        0.000000    1.284198   -1.168462
      7          6           0       -0.000000   -1.284198   -1.168462
      8          1           0        0.000000    2.158725   -0.521798
      9          1           0       -0.000000   -2.158725   -0.521798
     10          1           0        0.878905    1.332755   -1.816985
     11          1           0       -0.878905    1.332755   -1.816985
     12          1           0       -0.878905   -1.332755   -1.816985
     13          1           0        0.878905   -1.332755   -1.816985
 ---------------------------------------------------------------------

 SCF Done:  E(RHF) =  -194.171252841     A.U. after    2 cycles

 The electronic state is 1-A1.
 Alpha  occ. eigenvalues --  -11.24970 -11.24632 -11.23614 -11.23516 -11.23512
 Alpha  occ. eigenvalues --   -1.10487  -1.00915  -0.94697  -0.87676  -0.68700
 Alpha  occ. eigenvalues --   -0.63948  -0.61559  -0.59406  -0.58865  -0.54836
 Alpha  occ. eigenvalues --   -0.54044  -0.51669  -0.37568  -0.35571
 Alpha virt. eigenvalues --    0.03718   0.04013   0.04368   0.04513   0.06140
 Alpha virt. eigenvalues --    0.06634   0.06997   0.08006   0.09560   0.12104
 Alpha virt. eigenvalues --    0.12791   0.14206   0.14746   0.14826   0.15655

 Mulliken charges:
               1
     1  C   -0.133863
     2  C    0.355174
     3  H   -0.063969
     4  H   -0.063969
     5  C    0.197624
     6  C   -0.680436
     7  C   -0.680436
     8  H    0.106958
     9  H    0.106958
    10  H    0.213990
    11  H    0.213990
    12  H    0.213990
    13  H    0.213990
 Sum of Mulliken charges =  -0.00000

 Dipole moment (field-independent basis, Debye):
    X=              0.0000    Y=              0.0000    Z=             -0.6645  Tot=              0.6645

 Test job not archived.
 1\1\GINC-SE165\SP\RHF\Aug-CC-pVDZ\C5H8\OHZDE\05-Apr-2025\0\\#t hf aug-
 cc-pvdz iop(5/13=1,5/36=2,99/5=2) pseudo=read geom=check guess=(read,t
 check) scf=(maxcycle=1)\\title\\0,1\C,0,0.,0.,2.232657\C,0,0.,0.,0.930
 096\H,0,-0.923706,0.,2.800709\H,0,0.923706,0.,2.800709\C,0,0.,0.,-0.37
 4142\C,0,0.,1.284198,-1.168462\C,0,0.,-1.284198,-1.168462\H,0,0.,2.158
 725,-0.521798\H,0,0.,-2.158725,-0.521798\H,0,0.878905,1.332755,-1.8169
 85\H,0,-0.878905,1.332755,-1.816985\H,0,-0.878905,-1.332755,-1.816985\
 H,0,0.878905,-1.332755,-1.816985\\Version=ES64L-G16RevC.01\State=1-A1\

 Normal termination of Gaussian 16 at Sat Apr  5 22:47:20 2025.
