 Gaussian 16, Revision C.01,

 ----------------------------------------------------------------------
 #t hf aug-cc-pvdz symm=none int=(grid=ultrafine) guess=(read,tcheck) s
 table=(opt,rrhf)
 ----------------------------------------------------------------------
 -----
 title
 -----
 Symbolic Z-matrix:
 Charge =  0 Multiplicity = 1

 SCF Done:  E(RHF) =  -285.765444692     A.U. after   15 cycles
 Normal termination of Gaussian 16 at Sat Apr  5 22:46:23 2025.
 Gaussian 16:  ES64L-G16RevC.01  3-Jul-2019

 ----------------------------------------------------------------------
 #t hf aug-cc-pvdz iop(5/13=1,5/36=2,99/5=2) pseudo=read geom=check gue
 ss=(read,tcheck) scf=(maxcycle=1)
 ----------------------------------------------------------------------
 -----
 title
 -----
 Structure from the checkpoint file:  "3-methylpyridine.chk"
 Charge =  0 Multiplicity = 1

                         Standard orientation:
 ---------------------------------------------------------------------
 Center     Atomic      Atomic             Coordinates (Angstroms)
 Number     Number       Type             X           Y           Z
 ---------------------------------------------------------------------
      1          6           0       -1.174839   -1.203589    0.000000
      2          6           0       -1.199799    0.182128    0.000000
      3          6           0        0.057339   -1.847450    0.000000
      4          6           0        1.173702    0.138239    0.000000
      5          6           0       -0.000000    0.891573    0.000000
      6          6           0        0.034480    2.395305    0.000000
      7          7           0        1.217307   -1.194023    0.000000
      8          1           0       -2.090952   -1.778442    0.000000
      9          1           0       -2.144751    0.712153    0.000000
     10          1           0        0.113787   -2.930206    0.000000
     11          1           0        2.134084    0.644651    0.000000
     12          1           0       -0.468705    2.803456    0.878765
     13          1           0        1.058791    2.765852    0.000000
     14          1           0       -0.468705    2.803456   -0.878765
 ---------------------------------------------------------------------

 SCF Done:  E(RHF) =  -286.063083523     A.U. after    2 cycles

 The electronic state is 1-A'.
 Alpha  occ. eigenvalues --  -15.50152 -11.27398 -11.27256 -11.25912 -11.25190
 Alpha  occ. eigenvalues --  -11.24640 -11.24237  -1.25759  -1.10380  -1.05227
 Alpha  occ. eigenvalues --   -0.95934  -0.87161  -0.84541  -0.72586  -0.69779
 Alpha  occ. eigenvalues --   -0.64360  -0.59658  -0.59354  -0.59034  -0.56244
 Alpha  occ. eigenvalues --   -0.54673  -0.52492  -0.44699  -0.39728  -0.34764
 Alpha virt. eigenvalues --    0.03302   0.03579   0.04001   0.05002   0.05335
 Alpha virt. eigenvalues --    0.05843   0.07855   0.08208   0.10183   0.10777
 Alpha virt. eigenvalues --    0.11821   0.12234   0.12767   0.13774   0.14014

 Mulliken charges:
               1
     1  C    0.393786
     2  C    0.261036
     3  C   -0.885799
     4  C   -0.822825
     5  C    1.076172
     6  C   -0.765544
     7  N    0.939231
     8  H   -0.187146
     9  H   -0.228866
    10  H   -0.177949
    11  H   -0.194690
    12  H    0.244376
    13  H    0.103841
    14  H    0.244376
 Sum of Mulliken charges =   0.00000

 Dipole moment (field-independent basis, Debye):
    X=             -2.3668    Y=              1.7496    Z=             -0.0000  Tot=              2.9433

 Test job not archived.
 1\1\GINC-SE042\SP\RHF\Aug-CC-pVDZ\C6H7N1\OHZDE\05-Apr-2025\0\\#t hf au
 g-cc-pvdz iop(5/13=1,5/36=2,99/5=2) pseudo=read geom=check guess=(read
 ,tcheck) scf=(maxcycle=1)\\title\\0,1\C,0,-1.174839,-1.203589,0.\C,0,-
 1.199799,0.182128,0.\C,0,0.057339,-1.84745,0.\C,0,1.173702,0.138239,0.
 \C,0,0.,0.891573,0.\C,0,0.03448,2.395305,0.\N,0,1.217307,-1.194023,0.\
 H,0,-2.090952,-1.778442,0.\H,0,-2.144751,0.712153,0.\H,0,0.113787,-2.9
 30206,0.\H,0,2.134084,0.644651,0.\H,0,-0.468705,2.803456,0.878765\H,0,
 1.058791,2.765852,0.\H,0,-0.468705,2.803456,-0.878765\\Version=ES64L-G

 Normal termination of Gaussian 16 at Sat Apr  5 22:47:06 2025.
