 Gaussian 16, Revision C.01,

 ----------------------------------------------------------------------
 #t hf aug-cc-pvdz symm=none int=(grid=ultrafine) guess=(read,tcheck) s
 table=(opt,rrhf)
 ----------------------------------------------------------------------
 -----
 title
 -----
 Symbolic Z-matrix:
 Charge =  0 Multiplicity = 1

 SCF Done:  E(RHF) =  -344.965530886     A.U. after   13 cycles

 1\1\GINC-SE180\Stability\RHF\Aug-CC-pVDZ\C5H10O2\OHZDE\05-Apr-2025\0\\
 #t hf aug-cc-pvdz symm=none int=(grid=ultrafine) guess=(read,tcheck) s
 table=(opt,rrhf)\\title\\0,1\C,0,-1.385093,-0.119037,-0.191443\C,0,1.1
 98586,1.436061,0.377759\C,0,2.456843,-0.677449,-0.193579\C,0,-0.014446
 ,-0.553958,-0.640655\C,0,1.127999,-0.090146,0.287288\O,0,-2.127693,0.6
 17199,-0.789592\O,0,-1.722647,-0.661713,1.007831\H,0,0.267397,1.867338
 ,0.747324\H,0,1.400121,1.875664,-0.601872\H,0,1.997897,1.744882,1.0527
 19\H,0,2.699166,-0.326079,-1.199339\H,0,3.273423,-0.380691,0.46604\H,0

 Normal termination of Gaussian 16 at Sat Apr  5 22:47:44 2025.
 Gaussian 16:  ES64L-G16RevC.01  3-Jul-2019

 ----------------------------------------------------------------------
 #t hf aug-cc-pvdz iop(5/13=1,5/36=2,99/5=2) pseudo=read geom=check gue
 ss=(read,tcheck) scf=(maxcycle=1)
 ----------------------------------------------------------------------
 -----
 title
 -----
 Structure from the checkpoint file:  "3-methylbutanoic_acid.chk"
 Charge =  0 Multiplicity = 1

                         Standard orientation:
 ---------------------------------------------------------------------
 Center     Atomic      Atomic             Coordinates (Angstroms)
 Number     Number       Type             X           Y           Z
 ---------------------------------------------------------------------
      1          6           0       -1.385093   -0.119037   -0.191443
      2          6           0        1.198586    1.436061    0.377759
      3          6           0        2.456843   -0.677449   -0.193579
      4          6           0       -0.014446   -0.553958   -0.640655
      5          6           0        1.127999   -0.090146    0.287288
      6          8           0       -2.127693    0.617199   -0.789592
      7          8           0       -1.722647   -0.661713    1.007831
      8          1           0        0.267397    1.867338    0.747324
      9          1           0        1.400121    1.875664   -0.601872
     10          1           0        1.997897    1.744882    1.052719
     11          1           0        2.699166   -0.326079   -1.199339
     12          1           0        3.273423   -0.380691    0.466040
     13          1           0        2.426108   -1.767952   -0.218522
     14          1           0       -0.012100   -1.645227   -0.691635
     15          1           0        0.133247   -0.165542   -1.647605
     16          1           0        0.921724   -0.484958    1.284881
     17          1           0       -2.607598   -0.334141    1.225892
 ---------------------------------------------------------------------

 SCF Done:  E(RHF) =  -345.324788684     A.U. after    2 cycles

 The electronic state is 1-A.
 Alpha  occ. eigenvalues --  -20.59924 -20.53763 -11.39244 -11.25122 -11.24971
 Alpha  occ. eigenvalues --  -11.23139 -11.22810  -1.54582  -1.45010  -1.10985
 Alpha  occ. eigenvalues --   -0.99404  -0.94163  -0.83310  -0.79169  -0.70745
 Alpha  occ. eigenvalues --   -0.68583  -0.65705  -0.63553  -0.59996  -0.58803
 Alpha  occ. eigenvalues --   -0.56170  -0.55473  -0.54417  -0.50192  -0.49272
 Alpha  occ. eigenvalues --   -0.48485  -0.46915  -0.43733
 Alpha virt. eigenvalues --    0.03528   0.03643   0.03904   0.04375   0.05916
 Alpha virt. eigenvalues --    0.06760   0.06807   0.07286   0.07802   0.09194
 Alpha virt. eigenvalues --    0.11464   0.12711   0.14297   0.14563   0.14753

 Mulliken charges:
               1
     1  C    2.404448
     2  C   -0.052074
     3  C   -0.034516
     4  C   -0.277519
     5  C   -1.380124
     6  O   -1.291825
     7  O   -1.305758
     8  H    0.135010
     9  H    0.228539
    10  H    0.147120
    11  H    0.225068
    12  H    0.150800
    13  H    0.142163
    14  H    0.248303
    15  H    0.150113
    16  H    0.139718
    17  H    0.370533
 Sum of Mulliken charges =   0.00000

 Dipole moment (field-independent basis, Debye):
    X=              1.4492    Y=             -1.0359    Z=              1.1180  Tot=              2.1032

 Test job not archived.
 1\1\GINC-SE180\SP\RHF\Aug-CC-pVDZ\C5H10O2\OHZDE\05-Apr-2025\0\\#t hf a
 ug-cc-pvdz iop(5/13=1,5/36=2,99/5=2) pseudo=read geom=check guess=(rea
 d,tcheck) scf=(maxcycle=1)\\title\\0,1\C,0,-1.385093,-0.119037,-0.1914
 43\C,0,1.198586,1.436061,0.377759\C,0,2.456843,-0.677449,-0.193579\C,0
 ,-0.014446,-0.553958,-0.640655\C,0,1.127999,-0.090146,0.287288\O,0,-2.
 127693,0.617199,-0.789592\O,0,-1.722647,-0.661713,1.007831\H,0,0.26739
 7,1.867338,0.747324\H,0,1.400121,1.875664,-0.601872\H,0,1.997897,1.744
 882,1.052719\H,0,2.699166,-0.326079,-1.199339\H,0,3.273423,-0.380691,0

 Normal termination of Gaussian 16 at Sat Apr  5 22:48:02 2025.
