 Gaussian 16, Revision C.01,

 ----------------------------------------------------------------------
 #t hf aug-cc-pvdz symm=none int=(grid=ultrafine) guess=(read,tcheck) s
 table=(opt,rrhf)
 ----------------------------------------------------------------------
 -----
 title
 -----
 Symbolic Z-matrix:
 Charge =  0 Multiplicity = 1

 SCF Done:  E(RHF) =  -703.322557671     A.U. after   14 cycles
 Normal termination of Gaussian 16 at Sat Apr  5 22:47:45 2025.
 Gaussian 16:  ES64L-G16RevC.01  3-Jul-2019

 ----------------------------------------------------------------------
 #t hf aug-cc-pvdz iop(5/13=1,5/36=2,99/5=2) pseudo=read geom=check gue
 ss=(read,tcheck) scf=(maxcycle=1)
 ----------------------------------------------------------------------
 -----
 title
 -----
 Structure from the checkpoint file:  "3-methylsulphonyl-1-propene.chk"
 Charge =  0 Multiplicity = 1

                         Standard orientation:
 ---------------------------------------------------------------------
 Center     Atomic      Atomic             Coordinates (Angstroms)
 Number     Number       Type             X           Y           Z
 ---------------------------------------------------------------------
      1          6           0       -2.115162   -0.859134   -0.446944
      2         16           0       -0.736952    0.145568    0.134592
      3          8           0       -0.603003   -0.070176    1.570701
      4          8           0       -0.913666    1.497805   -0.387410
      5          6           0        0.712310   -0.599546   -0.708204
      6          6           0        1.940525    0.209848   -0.457486
      7          6           0        2.972177   -0.220038    0.256620
      8          1           0       -1.957196   -1.891564   -0.146285
      9          1           0       -2.996316   -0.452994    0.044646
     10          1           0       -2.202825   -0.759745   -1.525431
     11          1           0        0.446453   -0.619309   -1.766218
     12          1           0        0.799645   -1.614868   -0.324996
     13          1           0        1.949759    1.202936   -0.889296
     14          1           0        2.982692   -1.202462    0.711754
     15          1           0        3.843275    0.401100    0.412111
 ---------------------------------------------------------------------

 SCF Done:  E(RHF) =  -703.703599289     A.U. after    2 cycles

 The electronic state is 1-A.
 Alpha  occ. eigenvalues --  -94.18567 -20.53012 -20.52932 -11.29643 -11.29049
 Alpha  occ. eigenvalues --  -11.26377 -11.25484  -8.43910  -6.42010  -6.41800
 Alpha  occ. eigenvalues --   -6.41746  -1.54140  -1.42400  -1.12017  -1.06381
 Alpha  occ. eigenvalues --   -0.98730  -0.84470  -0.78853  -0.70107  -0.68917
 Alpha  occ. eigenvalues --   -0.67077  -0.65276  -0.62919  -0.61224  -0.60381
 Alpha  occ. eigenvalues --   -0.57898  -0.53079  -0.48741  -0.48294  -0.45228
 Alpha  occ. eigenvalues --   -0.44073  -0.38772
 Alpha virt. eigenvalues --    0.02780   0.03745   0.03905   0.04482   0.05768
 Alpha virt. eigenvalues --    0.06241   0.07229   0.08059   0.09653   0.10407
 Alpha virt. eigenvalues --    0.11691   0.12507   0.13918   0.15058   0.15099

 Mulliken charges:
               1
     1  C   -0.671252
     2  S    3.112725
     3  O   -1.539461
     4  O   -1.558099
     5  C   -0.947951
     6  C    0.985120
     7  C   -0.137856
     8  H    0.226616
     9  H    0.246270
    10  H    0.228810
    11  H    0.221860
    12  H    0.097206
    13  H   -0.140777
    14  H   -0.050479
    15  H   -0.072733
 Sum of Mulliken charges =  -0.00000

 Dipole moment (field-independent basis, Debye):
    X=              0.4101    Y=             -3.8621    Z=             -3.0053  Tot=              4.9108

 Test job not archived.
 1\1\GINC-SE040\SP\RHF\Aug-CC-pVDZ\C4H8O2S1\OHZDE\05-Apr-2025\0\\#t hf
 aug-cc-pvdz iop(5/13=1,5/36=2,99/5=2) pseudo=read geom=check guess=(re
 ad,tcheck) scf=(maxcycle=1)\\title\\0,1\C,0,-2.115162,-0.859134,-0.446
 944\S,0,-0.736952,0.145568,0.134592\O,0,-0.603003,-0.070176,1.570701\O
 ,0,-0.913666,1.497805,-0.38741\C,0,0.71231,-0.599546,-0.708204\C,0,1.9
 40525,0.209848,-0.457486\C,0,2.972177,-0.220038,0.25662\H,0,-1.957196,
 -1.891564,-0.146285\H,0,-2.996316,-0.452994,0.044646\H,0,-2.202825,-0.
 759745,-1.525431\H,0,0.446453,-0.619309,-1.766218\H,0,0.799645,-1.6148

 Normal termination of Gaussian 16 at Sat Apr  5 22:48:02 2025.
