 Gaussian 16, Revision C.01,

 ----------------------------------------------------------------------
 #t hf aug-cc-pvdz symm=none int=(grid=ultrafine) guess=(read,tcheck) s
 table=(opt,rrhf)
 ----------------------------------------------------------------------
 -----
 title
 -----
 Symbolic Z-matrix:
 Charge =  0 Multiplicity = 1

 SCF Done:  E(RHF) =  -419.498777717     A.U. after   15 cycles
 Normal termination of Gaussian 16 at Sat Apr  5 22:46:55 2025.
 Gaussian 16:  ES64L-G16RevC.01  3-Jul-2019

 ----------------------------------------------------------------------
 #t hf aug-cc-pvdz iop(5/13=1,5/36=2,99/5=2) pseudo=read geom=check gue
 ss=(read,tcheck) scf=(maxcycle=1)
 ----------------------------------------------------------------------
 -----
 title
 -----
 Structure from the checkpoint file:  "3-methoxyphenol.chk"
 Charge =  0 Multiplicity = 1

                         Standard orientation:
 ---------------------------------------------------------------------
 Center     Atomic      Atomic             Coordinates (Angstroms)
 Number     Number       Type             X           Y           Z
 ---------------------------------------------------------------------
      1          6           0       -1.579132   -1.018404    0.000000
      2          6           0       -0.556518   -1.950256    0.000000
      3          6           0       -1.323399    0.352438    0.000000
      4          6           0        1.044493   -0.139672    0.000000
      5          6           0        0.763417   -1.497487    0.000000
      6          6           0        0.000000    0.787801    0.000000
      7          6           0       -0.623241    3.096404    0.000000
      8          8           0        1.751266   -2.443316    0.000000
      9          8           0        0.383127    2.095674    0.000000
     10          1           0       -2.605756   -1.359527    0.000000
     11          1           0       -0.754444   -3.011972    0.000000
     12          1           0       -2.144558    1.051118    0.000000
     13          1           0        2.064483    0.223401    0.000000
     14          1           0       -1.251546    3.030018    0.891559
     15          1           0       -1.251546    3.030018   -0.891559
     16          1           0       -0.098191    4.047676    0.000000
     17          1           0        2.612695   -2.014536    0.000000
 ---------------------------------------------------------------------

 SCF Done:  E(RHF) =  -419.927042901     A.U. after    2 cycles

 The electronic state is 1-A'.
 Alpha  occ. eigenvalues --  -20.58032 -20.57500 -11.31280 -11.31210 -11.29650
 Alpha  occ. eigenvalues --  -11.25113 -11.23122 -11.22968 -11.22629  -1.49989
 Alpha  occ. eigenvalues --   -1.49289  -1.15043  -1.03067  -1.01094  -0.95078
 Alpha  occ. eigenvalues --   -0.85961  -0.81822  -0.74714  -0.71599  -0.67743
 Alpha  occ. eigenvalues --   -0.66309  -0.65962  -0.61445  -0.60865  -0.58828
 Alpha  occ. eigenvalues --   -0.56609  -0.54430  -0.52709  -0.52268  -0.49463
 Alpha  occ. eigenvalues --   -0.45780  -0.33790  -0.31631
 Alpha virt. eigenvalues --    0.03404   0.03456   0.03877   0.04968   0.05327
 Alpha virt. eigenvalues --    0.05661   0.07204   0.09011   0.10339   0.10554
 Alpha virt. eigenvalues --    0.12475   0.12648   0.13054   0.13421   0.13994

 Mulliken charges:
               1
     1  C    0.797246
     2  C    0.006254
     3  C   -0.392922
     4  C   -0.381164
     5  C    2.020649
     6  C    1.992762
     7  C    0.137471
     8  O   -1.786811
     9  O   -1.881872
    10  H   -0.237291
    11  H   -0.227053
    12  H   -0.425645
    13  H   -0.348324
    14  H    0.174028
    15  H    0.174028
    16  H   -0.046081
    17  H    0.424724
 Sum of Mulliken charges =  -0.00000

 Dipole moment (field-independent basis, Debye):
    X=             -0.4056    Y=              1.8039    Z=              0.0000  Tot=              1.8489

 Test job not archived.
 1\1\GINC-SE104\SP\RHF\Aug-CC-pVDZ\C7H8O2\OHZDE\05-Apr-2025\0\\#t hf au
 g-cc-pvdz iop(5/13=1,5/36=2,99/5=2) pseudo=read geom=check guess=(read
 ,tcheck) scf=(maxcycle=1)\\title\\0,1\C,0,-1.579132,-1.018404,0.\C,0,-
 0.556518,-1.950256,0.\C,0,-1.323399,0.352438,0.\C,0,1.044493,-0.139672
 ,0.\C,0,0.763417,-1.497487,0.\C,0,0.,0.787801,0.\C,0,-0.623241,3.09640
 4,0.\O,0,1.751266,-2.443316,0.\O,0,0.383127,2.095674,0.\H,0,-2.605756,
 -1.359527,0.\H,0,-0.754444,-3.011972,0.\H,0,-2.144558,1.051118,0.\H,0,
 2.064483,0.223401,0.\H,0,-1.251546,3.030018,0.891559\H,0,-1.251546,3.0

 Normal termination of Gaussian 16 at Sat Apr  5 22:47:08 2025.
