 Gaussian 16, Revision C.01,

 ----------------------------------------------------------------------
 #t hf aug-cc-pvdz symm=none int=(grid=ultrafine) guess=(read,tcheck) s
 table=(opt,rrhf)
 ----------------------------------------------------------------------
 -----
 title
 -----
 Symbolic Z-matrix:
 Charge =  0 Multiplicity = 1

 SCF Done:  E(RHF) =  -741.203860633     A.U. after   13 cycles
 Normal termination of Gaussian 16 at Sat Apr  5 22:46:43 2025.
 Gaussian 16:  ES64L-G16RevC.01  3-Jul-2019

 ----------------------------------------------------------------------
 #t hf aug-cc-pvdz iop(5/13=1,5/36=2,99/5=2) pseudo=read geom=check gue
 ss=(read,tcheck) scf=(maxcycle=1)
 ----------------------------------------------------------------------
 -----
 title
 -----
 Structure from the checkpoint file:  "3-methyl-2-5-dihydrothiophene-1-1-dioxide.chk"
 Charge =  0 Multiplicity = 1

                         Standard orientation:
 ---------------------------------------------------------------------
 Center     Atomic      Atomic             Coordinates (Angstroms)
 Number     Number       Type             X           Y           Z
 ---------------------------------------------------------------------
      1          8           0       -1.801585   -0.353946   -1.263177
      2         16           0       -1.102837   -0.138972    0.000074
      3          8           0       -1.800137   -0.353814    1.264151
      4          6           0        0.470647   -1.077138   -0.000655
      5          6           0        1.551977   -0.034521   -0.000177
      6          6           0        2.979502   -0.481812    0.000109
      7          6           0       -0.322179    1.520248   -0.000351
      8          6           0        1.145332    1.235846   -0.000038
      9          1           0        0.476225   -1.706442   -0.890781
     10          1           0        0.476388   -1.707450    0.888755
     11          1           0        3.659750    0.368607    0.000410
     12          1           0        3.197004   -1.095951   -0.877283
     13          1           0        3.196558   -1.096217    0.877425
     14          1           0       -0.672041    2.042715   -0.890512
     15          1           0       -0.672325    2.043260    0.889375
     16          1           0        1.845935    2.061374    0.000310
 ---------------------------------------------------------------------

 SCF Done:  E(RHF) =  -741.621936914     A.U. after    2 cycles

 The electronic state is 1-A.
 Alpha  occ. eigenvalues --  -94.18396 -20.53099 -20.53094 -11.29185 -11.29142
 Alpha  occ. eigenvalues --  -11.28391 -11.27063 -11.26123  -8.43762  -6.41858
 Alpha  occ. eigenvalues --   -6.41648  -6.41582  -1.54093  -1.42387  -1.17837
 Alpha  occ. eigenvalues --   -1.05444  -1.01989  -0.94309  -0.83375  -0.77745
 Alpha  occ. eigenvalues --   -0.70015  -0.67897  -0.64946  -0.64046  -0.63367
 Alpha  occ. eigenvalues --   -0.61453  -0.61412  -0.58614  -0.55994  -0.55334
 Alpha  occ. eigenvalues --   -0.48002  -0.47845  -0.45340  -0.42209  -0.38915
 Alpha virt. eigenvalues --    0.02540   0.02992   0.03844   0.04315   0.05701
 Alpha virt. eigenvalues --    0.05891   0.07284   0.07823   0.08893   0.11145
 Alpha virt. eigenvalues --    0.11310   0.12402   0.12985   0.13394   0.14136

 Mulliken charges:
               1
     1  O   -1.623537
     2  S    3.994365
     3  O   -1.623624
     4  C   -1.654081
     5  C    0.735523
     6  C   -0.560480
     7  C   -1.140357
     8  C    0.315134
     9  H    0.304787
    10  H    0.304831
    11  H    0.100154
    12  H    0.234266
    13  H    0.234284
    14  H    0.290716
    15  H    0.290746
    16  H   -0.202728
 Sum of Mulliken charges =  -0.00000

 Dipole moment (field-independent basis, Debye):
    X=              5.6947    Y=              1.3514    Z=             -0.0026  Tot=              5.8528

 Test job not archived.
 1\1\GINC-SE185\SP\RHF\Aug-CC-pVDZ\C5H8O2S1\OHZDE\05-Apr-2025\0\\#t hf
 aug-cc-pvdz iop(5/13=1,5/36=2,99/5=2) pseudo=read geom=check guess=(re
 ad,tcheck) scf=(maxcycle=1)\\title\\0,1\O,0,-1.801585,-0.353946,-1.263
 177\S,0,-1.102837,-0.138972,0.000074\O,0,-1.800137,-0.353814,1.264151\
 C,0,0.470647,-1.077138,-0.000655\C,0,1.551977,-0.034521,-0.000177\C,0,
 2.979502,-0.481812,0.000109\C,0,-0.322179,1.520248,-0.000351\C,0,1.145
 332,1.235846,-0.000038\H,0,0.476225,-1.706442,-0.890781\H,0,0.476388,-
 1.70745,0.888755\H,0,3.65975,0.368607,0.00041\H,0,3.197004,-1.095951,-

 Normal termination of Gaussian 16 at Sat Apr  5 22:47:09 2025.
