 Gaussian 16, Revision C.01,

 ----------------------------------------------------------------------
 #t hf aug-cc-pvdz symm=none int=(grid=ultrafine) guess=(read,tcheck) s
 table=(opt,rrhf)
 ----------------------------------------------------------------------
 -----
 title
 -----
 Symbolic Z-matrix:
 Charge =  0 Multiplicity = 1

 SCF Done:  E(RHF) =  -274.427955845     A.U. after   11 cycles
 Normal termination of Gaussian 16 at Sat Apr  5 22:47:09 2025.
 Gaussian 16:  ES64L-G16RevC.01  3-Jul-2019

 ----------------------------------------------------------------------
 #t hf aug-cc-pvdz iop(5/13=1,5/36=2,99/5=2) pseudo=read geom=check gue
 ss=(read,tcheck) scf=(maxcycle=1)
 ----------------------------------------------------------------------
 -----
 title
 -----
 Structure from the checkpoint file:  "3-methylhexane.chk"
 Charge =  0 Multiplicity = 1

                         Standard orientation:
 ---------------------------------------------------------------------
 Center     Atomic      Atomic             Coordinates (Angstroms)
 Number     Number       Type             X           Y           Z
 ---------------------------------------------------------------------
      1          6           0       -3.327207   -0.419023    0.041928
      2          6           0        3.090721   -0.451140   -0.274255
      3          6           0       -0.788431   -0.412239    0.253951
      4          6           0        0.571113    0.141230   -0.203853
      5          6           0        1.708576   -0.763650    0.299514
      6          6           0       -2.017419    0.251736   -0.371051
      7          1           0        3.827406   -1.178545    0.069812
      8          1           0       -4.188029    0.070172   -0.416159
      9          1           0       -3.463898   -0.383764    1.124825
     10          1           0       -3.344052   -1.469173   -0.256997
     11          1           0        3.079369   -0.485016   -1.366025
     12          1           0        3.447082    0.535638    0.022419
     13          1           0       -1.923476    0.224375   -1.461206
     14          1           0       -2.055863    1.307823   -0.095365
     15          1           0        1.456099   -1.799914    0.057534
     16          1           0        1.746302   -0.710073    1.392821
     17          1           0       -0.853981   -0.337240    1.345824
     18          1           0       -0.821582   -1.482078    0.023681
     19          1           0        0.587534    0.107539   -1.300667
     20          6           0        0.769883    1.598721    0.226172
     21          1           0       -0.014695    2.245965   -0.165115
     22          1           0        1.720804    1.997706   -0.126289
     23          1           0        0.757558    1.682770    1.316470
 ---------------------------------------------------------------------

 SCF Done:  E(RHF) =  -274.740287144     A.U. after    2 cycles

 The electronic state is 1-A.
 Alpha  occ. eigenvalues --  -11.22572 -11.22173 -11.22077 -11.21866 -11.21823
 Alpha  occ. eigenvalues --  -11.21814 -11.21544  -1.10186  -1.03990  -0.98017
 Alpha  occ. eigenvalues --   -0.92236  -0.86487  -0.79948  -0.76377  -0.64980
 Alpha  occ. eigenvalues --   -0.62537  -0.61347  -0.59199  -0.57019  -0.54704
 Alpha  occ. eigenvalues --   -0.54195  -0.52628  -0.51799  -0.50182  -0.48393
 Alpha  occ. eigenvalues --   -0.47240  -0.45826  -0.45220  -0.44216
 Alpha virt. eigenvalues --    0.03324   0.03439   0.03623   0.04194   0.05275
 Alpha virt. eigenvalues --    0.05597   0.05950   0.06311   0.07093   0.08054
 Alpha virt. eigenvalues --    0.08440   0.08785   0.09255   0.11287   0.11294

 Mulliken charges:
               1
     1  C   -0.404915
     2  C   -0.400010
     3  C    0.022178
     4  C   -1.024474
     5  C    0.068090
     6  C   -0.247606
     7  H    0.110341
     8  H    0.109817
     9  H    0.168849
    10  H    0.155813
    11  H    0.168719
    12  H    0.146993
    13  H    0.114298
    14  H    0.104991
    15  H    0.105655
    16  H    0.143844
    17  H    0.122342
    18  H    0.106745
    19  H    0.075113
    20  C   -0.116368
    21  H    0.145390
    22  H    0.135442
    23  H    0.188753
 Sum of Mulliken charges =  -0.00000

 Dipole moment (field-independent basis, Debye):
    X=             -0.0011    Y=             -0.0157    Z=             -0.0792  Tot=              0.0807

 Test job not archived.
 1\1\GINC-SE232\SP\RHF\Aug-CC-pVDZ\C7H16\OHZDE\05-Apr-2025\0\\#t hf aug
 -cc-pvdz iop(5/13=1,5/36=2,99/5=2) pseudo=read geom=check guess=(read,
 tcheck) scf=(maxcycle=1)\\title\\0,1\C,0,-3.327207,-0.419023,0.041928\
 C,0,3.090721,-0.45114,-0.274255\C,0,-0.788431,-0.412239,0.253951\C,0,0
 .571113,0.14123,-0.203853\C,0,1.708576,-0.76365,0.299514\C,0,-2.017419
 ,0.251736,-0.371051\H,0,3.827406,-1.178545,0.069812\H,0,-4.188029,0.07
 0172,-0.416159\H,0,-3.463898,-0.383764,1.124825\H,0,-3.344052,-1.46917
 3,-0.256997\H,0,3.079369,-0.485016,-1.366025\H,0,3.447082,0.535638,0.0

 Normal termination of Gaussian 16 at Sat Apr  5 22:47:20 2025.
