 Gaussian 16, Revision C.01,

 ----------------------------------------------------------------------
 #t hf aug-cc-pvdz symm=none int=(grid=ultrafine) guess=(read,tcheck) s
 table=(opt,rrhf)
 ----------------------------------------------------------------------
 -----
 title
 -----
 Symbolic Z-matrix:
 Charge =  0 Multiplicity = 1

 SCF Done:  E(RHF) =  -271.218579927     A.U. after   12 cycles

 1\1\GINC-SE183\Stability\RHF\Aug-CC-pVDZ\C5H12O1\OHZDE\05-Apr-2025\0\\
 #t hf aug-cc-pvdz symm=none int=(grid=ultrafine) guess=(read,tcheck) s
 table=(opt,rrhf)\\title\\0,1\C,0,1.596556,-1.266774,-0.239032\C,0,1.59
 6587,1.262126,-0.295667\C,0,-0.382487,0.015965,0.749058\C,0,-1.29752,-
 0.031192,-0.471402\C,0,1.13244,0.013943,0.463905\O,0,-2.679318,-0.0787
 6,-0.109803\H,0,2.685123,-1.295615,-0.309213\H,0,1.204663,-1.33577,-1.
 25552\H,0,1.274126,-2.157267,0.303519\H,0,1.20444,1.286519,-1.31398\H,
 0,2.685176,1.287631,-0.367323\H,0,1.275953,2.176485,0.207423\H,0,-0.62

 Normal termination of Gaussian 16 at Sat Apr  5 22:46:28 2025.
 Gaussian 16:  ES64L-G16RevC.01  3-Jul-2019

 ----------------------------------------------------------------------
 #t hf aug-cc-pvdz iop(5/13=1,5/36=2,99/5=2) pseudo=read geom=check gue
 ss=(read,tcheck) scf=(maxcycle=1)
 ----------------------------------------------------------------------
 -----
 title
 -----
 Structure from the checkpoint file:  "3-methyl-1-butanol.chk"
 Charge =  0 Multiplicity = 1

                         Standard orientation:
 ---------------------------------------------------------------------
 Center     Atomic      Atomic             Coordinates (Angstroms)
 Number     Number       Type             X           Y           Z
 ---------------------------------------------------------------------
      1          6           0        1.596556   -1.266774   -0.239032
      2          6           0        1.596587    1.262126   -0.295667
      3          6           0       -0.382487    0.015965    0.749058
      4          6           0       -1.297520   -0.031192   -0.471402
      5          6           0        1.132440    0.013943    0.463905
      6          8           0       -2.679318   -0.078760   -0.109803
      7          1           0        2.685123   -1.295615   -0.309213
      8          1           0        1.204663   -1.335770   -1.255520
      9          1           0        1.274126   -2.157267    0.303519
     10          1           0        1.204440    1.286519   -1.313980
     11          1           0        2.685176    1.287631   -0.367323
     12          1           0        1.275953    2.176485    0.207423
     13          1           0       -0.625987    0.914555    1.327581
     14          1           0       -0.629303   -0.837820    1.385322
     15          1           0       -1.111212    0.820023   -1.133951
     16          1           0       -1.127626   -0.938783   -1.049056
     17          1           0        1.619002    0.036154    1.444159
     18          1           0       -2.893279    0.709561    0.398292
 ---------------------------------------------------------------------

 SCF Done:  E(RHF) =  -271.515826844     A.U. after    2 cycles

 The electronic state is 1-A.
 Alpha  occ. eigenvalues --  -20.54249 -11.27821 -11.23781 -11.22737 -11.22430
 Alpha  occ. eigenvalues --  -11.22311  -1.43887  -1.09586  -0.98421  -0.93511
 Alpha  occ. eigenvalues --   -0.86847  -0.76777  -0.68886  -0.64757  -0.61853
 Alpha  occ. eigenvalues --   -0.61071  -0.57683  -0.56913  -0.54472  -0.52481
 Alpha  occ. eigenvalues --   -0.50323  -0.48050  -0.47178  -0.46538  -0.42709
 Alpha virt. eigenvalues --    0.03364   0.03560   0.03768   0.04386   0.05935
 Alpha virt. eigenvalues --    0.06511   0.06649   0.06716   0.07073   0.09537
 Alpha virt. eigenvalues --    0.09812   0.10431   0.12849   0.14196   0.14646

 Mulliken charges:
               1
     1  C   -0.042606
     2  C   -0.053947
     3  C   -0.181374
     4  C    0.978846
     5  C   -1.242465
     6  O   -1.229803
     7  H    0.115517
     8  H    0.206414
     9  H    0.149563
    10  H    0.202097
    11  H    0.118758
    12  H    0.149416
    13  H    0.072680
    14  H    0.135250
    15  H    0.093440
    16  H    0.038481
    17  H    0.203032
    18  H    0.286702
 Sum of Mulliken charges =  -0.00000

 Dipole moment (field-independent basis, Debye):
    X=              1.4170    Y=              1.1575    Z=              0.5662  Tot=              1.9153

 Test job not archived.
 1\1\GINC-SE183\SP\RHF\Aug-CC-pVDZ\C5H12O1\OHZDE\05-Apr-2025\0\\#t hf a
 ug-cc-pvdz iop(5/13=1,5/36=2,99/5=2) pseudo=read geom=check guess=(rea
 d,tcheck) scf=(maxcycle=1)\\title\\0,1\C,0,1.596556,-1.266774,-0.23903
 2\C,0,1.596587,1.262126,-0.295667\C,0,-0.382487,0.015965,0.749058\C,0,
 -1.29752,-0.031192,-0.471402\C,0,1.13244,0.013943,0.463905\O,0,-2.6793
 18,-0.07876,-0.109803\H,0,2.685123,-1.295615,-0.309213\H,0,1.204663,-1
 .33577,-1.25552\H,0,1.274126,-2.157267,0.303519\H,0,1.20444,1.286519,-
 1.31398\H,0,2.685176,1.287631,-0.367323\H,0,1.275953,2.176485,0.207423

 Normal termination of Gaussian 16 at Sat Apr  5 22:47:07 2025.
