 Gaussian 16, Revision C.01,

 ----------------------------------------------------------------------
 #t hf aug-cc-pvdz symm=none int=(grid=ultrafine) guess=(read,tcheck) s
 table=(opt,rrhf)
 ----------------------------------------------------------------------
 -----
 title
 -----
 Symbolic Z-matrix:
 Charge =  0 Multiplicity = 1

 SCF Done:  E(RHF) =  -605.139010672     A.U. after   16 cycles
 Normal termination of Gaussian 16 at Sat Apr  5 22:47:12 2025.
 Gaussian 16:  ES64L-G16RevC.01  3-Jul-2019

 ----------------------------------------------------------------------
 #t hf aug-cc-pvdz iop(5/13=1,5/36=2,99/5=2) pseudo=read geom=check gue
 ss=(read,tcheck) scf=(maxcycle=1)
 ----------------------------------------------------------------------
 -----
 title
 -----
 Structure from the checkpoint file:  "3-methylsulfanylprop-2-ynenitrile.chk"
 Charge =  0 Multiplicity = 1

                         Standard orientation:
 ---------------------------------------------------------------------
 Center     Atomic      Atomic             Coordinates (Angstroms)
 Number     Number       Type             X           Y           Z
 ---------------------------------------------------------------------
      1         16           0        1.646373   -0.642200   -0.000046
      2          7           0       -3.679210    0.273566    0.000060
      3          6           0        2.361907    1.048758    0.000007
      4          6           0        0.007828   -0.301890   -0.000011
      5          6           0       -1.191000   -0.121742    0.000012
      6          6           0       -2.535848    0.090366    0.000037
      7          1           0        2.057644    1.581413    0.895536
      8          1           0        3.439906    0.904390   -0.000013
      9          1           0        2.057620    1.581480   -0.895474
 ---------------------------------------------------------------------

 SCF Done:  E(RHF) =  -605.402709775     A.U. after    2 cycles

 The electronic state is 1-A.
 Alpha  occ. eigenvalues --  -94.01264 -15.53737 -11.32097 -11.31078 -11.30543
 Alpha  occ. eigenvalues --  -11.29507  -8.29275  -6.27135  -6.26908  -6.26702
 Alpha  occ. eigenvalues --   -1.25029  -1.15435  -1.07292  -0.95950  -0.88921
 Alpha  occ. eigenvalues --   -0.68043  -0.63904  -0.62695  -0.61259  -0.57117
 Alpha  occ. eigenvalues --   -0.56778  -0.52938  -0.48934  -0.42512  -0.37191
 Alpha virt. eigenvalues --    0.02189   0.04246   0.04555   0.05477   0.06105
 Alpha virt. eigenvalues --    0.07338   0.07746   0.09906   0.11094   0.11416
 Alpha virt. eigenvalues --    0.11844   0.12442   0.12664   0.13943   0.15417

 Mulliken charges:
               1
     1  S    0.293396
     2  N    0.730970
     3  C   -0.650404
     4  C    0.201462
     5  C    1.026035
     6  C   -2.152534
     7  H    0.212241
     8  H    0.126593
     9  H    0.212241
 Sum of Mulliken charges =  -0.00000

 Dipole moment (field-independent basis, Debye):
    X=              6.2993    Y=              0.9870    Z=             -0.0001  Tot=              6.3762

 Test job not archived.
 1\1\GINC-SE040\SP\RHF\Aug-CC-pVDZ\C4H3N1S1\OHZDE\05-Apr-2025\0\\#t hf
 aug-cc-pvdz iop(5/13=1,5/36=2,99/5=2) pseudo=read geom=check guess=(re
 ad,tcheck) scf=(maxcycle=1)\\title\\0,1\S,0,1.646373,-0.6422,-0.000046
 \N,0,-3.67921,0.273566,0.00006\C,0,2.361907,1.048758,0.000007\C,0,0.00
 7828,-0.30189,-0.000011\C,0,-1.191,-0.121742,0.000012\C,0,-2.535848,0.
 090366,0.000037\H,0,2.057644,1.581413,0.895536\H,0,3.439906,0.90439,-0
 .000013\H,0,2.05762,1.58148,-0.895474\\Version=ES64L-G16RevC.01\State=
 1-A\HF=-605.4027098\RMSD=2.321e-02\Dipole=2.4783526,0.3883275,-0.00001

 Normal termination of Gaussian 16 at Sat Apr  5 22:47:15 2025.
