 Gaussian 16, Revision C.01,

 ----------------------------------------------------------------------
 #t hf aug-cc-pvdz symm=none int=(grid=ultrafine) guess=(read,tcheck) s
 table=(opt,rrhf)
 ----------------------------------------------------------------------
 -----
 title
 -----
 Symbolic Z-matrix:
 Charge =  0 Multiplicity = 1

 SCF Done:  E(RHF) =  -235.389322936     A.U. after   11 cycles
 Normal termination of Gaussian 16 at Sat Apr  5 22:46:37 2025.
 Gaussian 16:  ES64L-G16RevC.01  3-Jul-2019

 ----------------------------------------------------------------------
 #t hf aug-cc-pvdz iop(5/13=1,5/36=2,99/5=2) pseudo=read geom=check gue
 ss=(read,tcheck) scf=(maxcycle=1)
 ----------------------------------------------------------------------
 -----
 title
 -----
 Structure from the checkpoint file:  "3-methylpentane.chk"
 Charge =  0 Multiplicity = 1

                         Standard orientation:
 ---------------------------------------------------------------------
 Center     Atomic      Atomic             Coordinates (Angstroms)
 Number     Number       Type             X           Y           Z
 ---------------------------------------------------------------------
      1          6           0        0.332422   -0.120738    2.576193
      2          6           0        0.332422   -0.120738   -2.576193
      3          6           0       -1.326599   -0.799534   -0.000000
      4          6           0        0.332422    0.658899    1.260993
      5          6           0        0.332422    0.658899   -1.260993
      6          6           0        0.076207   -0.183223   -0.000000
      7          1           0        1.064695   -0.930894    2.552760
      8          1           0        0.589136    0.530437    3.413029
      9          1           0       -0.640971   -0.560347    2.794714
     10          1           0        0.589136    0.530437   -3.413029
     11          1           0       -0.640971   -0.560347   -2.794714
     12          1           0        1.064695   -0.930894   -2.552760
     13          1           0       -2.090417   -0.016871   -0.000000
     14          1           0       -1.492605   -1.425260    0.876651
     15          1           0       -1.492605   -1.425260   -0.876651
     16          1           0        1.299473    1.157680    1.150999
     17          1           0       -0.414951    1.458132    1.311128
     18          1           0       -0.414951    1.458132   -1.311128
     19          1           0        1.299473    1.157680   -1.150999
     20          1           0        0.805074   -1.004008   -0.000000
 ---------------------------------------------------------------------

 SCF Done:  E(RHF) =  -235.658146845     A.U. after    2 cycles

 The electronic state is 1-A'.
 Alpha  occ. eigenvalues --  -11.22567 -11.22099 -11.22073 -11.21826 -11.21821
 Alpha  occ. eigenvalues --  -11.21552  -1.09824  -1.01464  -0.96320  -0.89049
 Alpha  occ. eigenvalues --   -0.82216  -0.76249  -0.64372  -0.62653  -0.59763
 Alpha  occ. eigenvalues --   -0.58166  -0.55628  -0.54725  -0.52968  -0.51417
 Alpha  occ. eigenvalues --   -0.49953  -0.48212  -0.45900  -0.45263  -0.44841
 Alpha virt. eigenvalues --    0.03544   0.03634   0.03799   0.04207   0.05793
 Alpha virt. eigenvalues --    0.05851   0.06351   0.06520   0.07223   0.08943
 Alpha virt. eigenvalues --    0.09096   0.09590   0.09843   0.11909   0.14063

 Mulliken charges:
               1
     1  C   -0.397711
     2  C   -0.397711
     3  C   -0.130892
     4  C    0.057506
     5  C    0.057506
     6  C   -1.077619
     7  H    0.165833
     8  H    0.115082
     9  H    0.149406
    10  H    0.115082
    11  H    0.149406
    12  H    0.165833
    13  H    0.187490
    14  H    0.138479
    15  H    0.138479
    16  H    0.099831
    17  H    0.142665
    18  H    0.142665
    19  H    0.099831
    20  H    0.078838
 Sum of Mulliken charges =  -0.00000

 Dipole moment (field-independent basis, Debye):
    X=              0.0869    Y=              0.0369    Z=              0.0000  Tot=              0.0945

 Test job not archived.
 1\1\GINC-SE232\SP\RHF\Aug-CC-pVDZ\C6H14\OHZDE\05-Apr-2025\0\\#t hf aug
 -cc-pvdz iop(5/13=1,5/36=2,99/5=2) pseudo=read geom=check guess=(read,
 tcheck) scf=(maxcycle=1)\\title\\0,1\C,0,0.332422,-0.120738,2.576193\C
 ,0,0.332422,-0.120738,-2.576193\C,0,-1.326599,-0.799534,0.\C,0,0.33242
 2,0.658899,1.260993\C,0,0.332422,0.658899,-1.260993\C,0,0.076207,-0.18
 3223,0.\H,0,1.064695,-0.930894,2.55276\H,0,0.589136,0.530437,3.413029\
 H,0,-0.640971,-0.560347,2.794714\H,0,0.589136,0.530437,-3.413029\H,0,-
 0.640971,-0.560347,-2.794714\H,0,1.064695,-0.930894,-2.55276\H,0,-2.09

 Normal termination of Gaussian 16 at Sat Apr  5 22:47:06 2025.
