 Gaussian 16, Revision C.01,

 ----------------------------------------------------------------------
 #t hf aug-cc-pvdz symm=none int=(grid=ultrafine) guess=(read,tcheck) s
 table=(opt,rrhf)
 ----------------------------------------------------------------------
 -----
 title
 -----
 Symbolic Z-matrix:
 Charge =  0 Multiplicity = 1

 SCF Done:  E(RHF) =  -593.883868862     A.U. after   12 cycles

 1\1\GINC-SE115\Stability\RHF\Aug-CC-pVDZ\C5H12S1\OHZDE\05-Apr-2025\0\\
 #t hf aug-cc-pvdz symm=none int=(grid=ultrafine) guess=(read,tcheck) s
 table=(opt,rrhf)\\title\\0,1\C,0,1.606387,-0.480067,0.\H,0,2.540581,0.
 090664,0.\S,0,-2.13095,1.425864,0.\H,0,-3.258675,0.692401,0.\C,0,-0.93
 8661,0.019058,0.\C,0,0.482787,0.577197,0.\C,0,1.606387,-1.344668,1.264
 784\C,0,1.606387,-1.344668,-1.264784\H,0,-1.123532,-0.585866,0.884604\
 H,0,-1.123532,-0.585866,-0.884604\H,0,0.607472,1.219754,-0.87567\H,0,0
 .607472,1.219754,0.87567\H,0,2.487666,-1.987485,-1.29199\H,0,2.487666,

 Normal termination of Gaussian 16 at Sat Apr  5 22:46:28 2025.
 Gaussian 16:  ES64L-G16RevC.01  3-Jul-2019

 ----------------------------------------------------------------------
 #t hf aug-cc-pvdz iop(5/13=1,5/36=2,99/5=2) pseudo=read geom=check gue
 ss=(read,tcheck) scf=(maxcycle=1)
 ----------------------------------------------------------------------
 -----
 title
 -----
 Structure from the checkpoint file:  "3-methyl-1-butanethiol.chk"
 Charge =  0 Multiplicity = 1

                         Standard orientation:
 ---------------------------------------------------------------------
 Center     Atomic      Atomic             Coordinates (Angstroms)
 Number     Number       Type             X           Y           Z
 ---------------------------------------------------------------------
      1          6           0        1.606387   -0.480067    0.000000
      2          1           0        2.540581    0.090664    0.000000
      3         16           0       -2.130950    1.425864    0.000000
      4          1           0       -3.258675    0.692401   -0.000000
      5          6           0       -0.938661    0.019058   -0.000000
      6          6           0        0.482787    0.577197    0.000000
      7          6           0        1.606387   -1.344668    1.264784
      8          6           0        1.606387   -1.344668   -1.264784
      9          1           0       -1.123532   -0.585866    0.884604
     10          1           0       -1.123532   -0.585866   -0.884604
     11          1           0        0.607472    1.219754   -0.875670
     12          1           0        0.607472    1.219754    0.875670
     13          1           0        2.487666   -1.987485   -1.291990
     14          1           0        2.487666   -1.987485    1.291990
     15          1           0        0.730680   -1.994906    1.310682
     16          1           0        0.730680   -1.994906   -1.310682
     17          1           0        1.614497   -0.730494    2.167099
     18          1           0        1.614497   -0.730494   -2.167099
 ---------------------------------------------------------------------

 SCF Done:  E(RHF) =  -594.165222062     A.U. after    2 cycles

 The electronic state is 1-A'.
 Alpha  occ. eigenvalues --  -93.94320 -11.26708 -11.23965 -11.23602 -11.22534
 Alpha  occ. eigenvalues --  -11.22519  -8.22379  -6.20234  -6.20088  -6.19861
 Alpha  occ. eigenvalues --   -1.11249  -1.05065  -0.94891  -0.93683  -0.84996
 Alpha  occ. eigenvalues --   -0.76310  -0.64834  -0.64569  -0.61658  -0.57758
 Alpha  occ. eigenvalues --   -0.56975  -0.54180  -0.53610  -0.51347  -0.48176
 Alpha  occ. eigenvalues --   -0.47641  -0.46323  -0.44873  -0.35990
 Alpha virt. eigenvalues --    0.03276   0.03567   0.03831   0.04223   0.05886
 Alpha virt. eigenvalues --    0.06526   0.06674   0.06723   0.06874   0.09119
 Alpha virt. eigenvalues --    0.09933   0.10024   0.10762   0.12882   0.13907

 Mulliken charges:
               1
     1  C   -1.319808
     2  H    0.211816
     3  S    0.073398
     4  H    0.307658
     5  C   -0.515113
     6  C   -0.096146
     7  C   -0.043391
     8  C   -0.043391
     9  H    0.120257
    10  H    0.120257
    11  H    0.133015
    12  H    0.133015
    13  H    0.119070
    14  H    0.119070
    15  H    0.188195
    16  H    0.188195
    17  H    0.151952
    18  H    0.151952
 Sum of Mulliken charges =  -0.00000

 Dipole moment (field-independent basis, Debye):
    X=              0.8164    Y=             -1.7426    Z=             -0.0000  Tot=              1.9244

 Test job not archived.
 1\1\GINC-SE115\SP\RHF\Aug-CC-pVDZ\C5H12S1\OHZDE\05-Apr-2025\0\\#t hf a
 ug-cc-pvdz iop(5/13=1,5/36=2,99/5=2) pseudo=read geom=check guess=(rea
 d,tcheck) scf=(maxcycle=1)\\title\\0,1\C,0,1.606387,-0.480067,0.\H,0,2
 .540581,0.090664,0.\S,0,-2.13095,1.425864,0.\H,0,-3.258675,0.692401,0.
 \C,0,-0.938661,0.019058,0.\C,0,0.482787,0.577197,0.\C,0,1.606387,-1.34
 4668,1.264784\C,0,1.606387,-1.344668,-1.264784\H,0,-1.123532,-0.585866
 ,0.884604\H,0,-1.123532,-0.585866,-0.884604\H,0,0.607472,1.219754,-0.8
 7567\H,0,0.607472,1.219754,0.87567\H,0,2.487666,-1.987485,-1.29199\H,0

 Normal termination of Gaussian 16 at Sat Apr  5 22:47:06 2025.
