 Gaussian 16, Revision C.01,

 ----------------------------------------------------------------------
 #t hf aug-cc-pvdz symm=none int=(grid=ultrafine) guess=(read,tcheck) s
 table=(opt,rrhf)
 ----------------------------------------------------------------------
 -----
 title
 -----
 Symbolic Z-matrix:
 Charge =  0 Multiplicity = 1

 SCF Done:  E(RHF) =  -233.039109447     A.U. after   13 cycles
 Normal termination of Gaussian 16 at Sat Apr  5 22:47:10 2025.
 Gaussian 16:  ES64L-G16RevC.01  3-Jul-2019

 ----------------------------------------------------------------------
 #t hf aug-cc-pvdz iop(5/13=1,5/36=2,99/5=2) pseudo=read geom=check gue
 ss=(read,tcheck) scf=(maxcycle=1)
 ----------------------------------------------------------------------
 -----
 title
 -----
 Structure from the checkpoint file:  "3-methylcyclopentene.chk"
 Charge =  0 Multiplicity = 1

                         Standard orientation:
 ---------------------------------------------------------------------
 Center     Atomic      Atomic             Coordinates (Angstroms)
 Number     Number       Type             X           Y           Z
 ---------------------------------------------------------------------
      1          1           0       -0.288253    2.211377    0.113712
      2          6           0        0.103075    1.202002    0.097091
      3          1           0        2.155830    1.583915   -0.380964
      4          6           0        1.366429    0.878250   -0.158285
      5          1           0        2.158926   -0.837607    0.868606
      6          1           0        2.190120   -1.009750   -0.873105
      7          6           0        1.601620   -0.607266   -0.046137
      8          1           0        0.072016   -2.042382    0.656132
      9          1           0       -0.122787   -1.505070   -1.005335
     10          6           0        0.165989   -1.180038   -0.003279
     11          1           0       -0.908864   -0.034062    1.507559
     12          6           0       -0.750290   -0.003256    0.421562
     13          1           0       -2.727516    0.841153    0.071891
     14          1           0       -2.677022   -0.918993   -0.000210
     15          1           0       -2.025849    0.037111   -1.334613
     16          6           0       -2.124590   -0.010641   -0.248232
 ---------------------------------------------------------------------

 SCF Done:  E(RHF) =  -233.295585064     A.U. after    2 cycles

 The electronic state is 1-A.
 Alpha  occ. eigenvalues --  -11.23203 -11.22766 -11.22655 -11.22369 -11.22327
 Alpha  occ. eigenvalues --  -11.22056  -1.13682  -1.00859  -0.96307  -0.88562
 Alpha  occ. eigenvalues --   -0.77954  -0.72635  -0.67905  -0.63875  -0.58192
 Alpha  occ. eigenvalues --   -0.57325  -0.53152  -0.52110  -0.49477  -0.48962
 Alpha  occ. eigenvalues --   -0.47701  -0.46385  -0.34818
 Alpha virt. eigenvalues --    0.03748   0.03887   0.04027   0.04191   0.05711
 Alpha virt. eigenvalues --    0.06051   0.06402   0.06743   0.08248   0.09179
 Alpha virt. eigenvalues --    0.12438   0.12887   0.13395   0.14475   0.15020

 Mulliken charges:
               1
     1  H   -0.152057
     2  C    0.498912
     3  H   -0.107567
     4  C    0.192642
     5  H    0.185186
     6  H    0.158174
     7  C   -0.450650
     8  H    0.142264
     9  H    0.113441
    10  C   -0.146833
    11  H    0.181963
    12  C   -0.839441
    13  H    0.119779
    14  H    0.160916
    15  H    0.222163
    16  C   -0.278890
 Sum of Mulliken charges =  -0.00000

 Dipole moment (field-independent basis, Debye):
    X=             -0.0055    Y=             -0.1974    Z=              0.1699  Tot=              0.2605

 Test job not archived.
 1\1\GINC-SE180\SP\RHF\Aug-CC-pVDZ\C6H10\OHZDE\05-Apr-2025\0\\#t hf aug
 -cc-pvdz iop(5/13=1,5/36=2,99/5=2) pseudo=read geom=check guess=(read,
 tcheck) scf=(maxcycle=1)\\title\\0,1\H,0,-0.288253,2.211377,0.113712\C
 ,0,0.103075,1.202002,0.097091\H,0,2.15583,1.583915,-0.380964\C,0,1.366
 429,0.87825,-0.158285\H,0,2.158926,-0.837607,0.868606\H,0,2.19012,-1.0
 0975,-0.873105\C,0,1.60162,-0.607266,-0.046137\H,0,0.072016,-2.042382,
 0.656132\H,0,-0.122787,-1.50507,-1.005335\C,0,0.165989,-1.180038,-0.00
 3279\H,0,-0.908864,-0.034062,1.507559\C,0,-0.75029,-0.003256,0.421562\

 Normal termination of Gaussian 16 at Sat Apr  5 22:47:15 2025.
