 Gaussian 16, Revision C.01,

 ----------------------------------------------------------------------
 #t hf aug-cc-pvdz symm=none int=(grid=ultrafine) guess=(read,tcheck) s
 table=(opt,rrhf)
 ----------------------------------------------------------------------
 -----
 title
 -----
 Symbolic Z-matrix:
 Charge =  0 Multiplicity = 1

 SCF Done:  E(RHF) =  -593.883032012     A.U. after   13 cycles

 1\1\GINC-SE194\Stability\RHF\Aug-CC-pVDZ\C5H12S1\OHZDE\05-Apr-2025\0\\
 #t hf aug-cc-pvdz symm=none int=(grid=ultrafine) guess=(read,tcheck) s
 table=(opt,rrhf)\\title\\0,1\C,0,-1.178493,-1.652194,0.116805\H,0,-2.0
 72764,-2.05324,-0.361889\H,0,-0.342512,-2.298223,-0.146619\H,0,-1.3214
 81,-1.71964,1.198086\C,0,0.547343,1.874508,-0.035601\H,0,-0.265216,2.5
 15201,0.308948\H,0,1.466983,2.246656,0.415537\H,0,0.637818,1.980802,-1
 .117431\S,0,1.773454,-0.622977,-0.100054\H,0,2.70471,0.202406,0.408749
 \C,0,0.298134,0.419562,0.349892\H,0,0.183677,0.344478,1.433269\C,0,-0.

 Normal termination of Gaussian 16 at Sat Apr  5 22:46:33 2025.
 Gaussian 16:  ES64L-G16RevC.01  3-Jul-2019

 ----------------------------------------------------------------------
 #t hf aug-cc-pvdz iop(5/13=1,5/36=2,99/5=2) pseudo=read geom=check gue
 ss=(read,tcheck) scf=(maxcycle=1)
 ----------------------------------------------------------------------
 -----
 title
 -----
 Structure from the checkpoint file:  "3-methyl-2-butanethiol.chk"
 Charge =  0 Multiplicity = 1

                         Standard orientation:
 ---------------------------------------------------------------------
 Center     Atomic      Atomic             Coordinates (Angstroms)
 Number     Number       Type             X           Y           Z
 ---------------------------------------------------------------------
      1          6           0       -1.178493   -1.652194    0.116805
      2          1           0       -2.072764   -2.053240   -0.361889
      3          1           0       -0.342512   -2.298223   -0.146619
      4          1           0       -1.321481   -1.719640    1.198086
      5          6           0        0.547343    1.874508   -0.035601
      6          1           0       -0.265216    2.515201    0.308948
      7          1           0        1.466983    2.246656    0.415537
      8          1           0        0.637818    1.980802   -1.117431
      9         16           0        1.773454   -0.622977   -0.100054
     10          1           0        2.704710    0.202406    0.408749
     11          6           0        0.298134    0.419562    0.349892
     12          1           0        0.183677    0.344478    1.433269
     13          6           0       -0.951456   -0.197739   -0.311553
     14          1           0       -0.786007   -0.181121   -1.393993
     15          6           0       -2.209169    0.629016   -0.010608
     16          1           0       -2.374526    0.713213    1.066488
     17          1           0       -2.158055    1.634905   -0.423808
     18          1           0       -3.086048    0.143279   -0.440087
 ---------------------------------------------------------------------

 SCF Done:  E(RHF) =  -594.163824163     A.U. after    2 cycles

 The electronic state is 1-A.
 Alpha  occ. eigenvalues --  -93.93919 -11.27361 -11.24347 -11.23334 -11.22743
 Alpha  occ. eigenvalues --  -11.22234  -8.21999  -6.19849  -6.19701  -6.19484
 Alpha  occ. eigenvalues --   -1.12309  -1.03040  -0.96462  -0.92839  -0.85596
 Alpha  occ. eigenvalues --   -0.76906  -0.64416  -0.62856  -0.60391  -0.59654
 Alpha  occ. eigenvalues --   -0.55602  -0.54845  -0.52617  -0.52292  -0.49780
 Alpha  occ. eigenvalues --   -0.47922  -0.46995  -0.43503  -0.35804
 Alpha virt. eigenvalues --    0.03431   0.03663   0.03904   0.04419   0.05987
 Alpha virt. eigenvalues --    0.06168   0.06479   0.06813   0.07393   0.08910
 Alpha virt. eigenvalues --    0.09574   0.09862   0.12561   0.13139   0.13910

 Mulliken charges:
               1
     1  C   -0.091941
     2  H    0.156282
     3  H    0.171670
     4  H    0.220706
     5  C   -0.264016
     6  H    0.166055
     7  H    0.078651
     8  H    0.217053
     9  S    0.000712
    10  H    0.289988
    11  C   -0.592671
    12  H    0.100419
    13  C   -1.014346
    14  H    0.137220
    15  C   -0.077434
    16  H    0.226112
    17  H    0.141319
    18  H    0.134221
 Sum of Mulliken charges =  -0.00000

 Dipole moment (field-independent basis, Debye):
    X=             -1.0382    Y=              1.4473    Z=              0.5962  Tot=              1.8783

 Test job not archived.
 1\1\GINC-SE194\SP\RHF\Aug-CC-pVDZ\C5H12S1\OHZDE\05-Apr-2025\0\\#t hf a
 ug-cc-pvdz iop(5/13=1,5/36=2,99/5=2) pseudo=read geom=check guess=(rea
 d,tcheck) scf=(maxcycle=1)\\title\\0,1\C,0,-1.178493,-1.652194,0.11680
 5\H,0,-2.072764,-2.05324,-0.361889\H,0,-0.342512,-2.298223,-0.146619\H
 ,0,-1.321481,-1.71964,1.198086\C,0,0.547343,1.874508,-0.035601\H,0,-0.
 265216,2.515201,0.308948\H,0,1.466983,2.246656,0.415537\H,0,0.637818,1
 .980802,-1.117431\S,0,1.773454,-0.622977,-0.100054\H,0,2.70471,0.20240
 6,0.408749\C,0,0.298134,0.419562,0.349892\H,0,0.183677,0.344478,1.4332

 Normal termination of Gaussian 16 at Sat Apr  5 22:47:08 2025.
