 Gaussian 16, Revision C.01,

 ----------------------------------------------------------------------
 #t hf aug-cc-pvdz symm=none int=(grid=ultrafine) guess=(read,tcheck) s
 table=(opt,rrhf)
 ----------------------------------------------------------------------
 -----
 title
 -----
 Symbolic Z-matrix:
 Charge =  0 Multiplicity = 1

 SCF Done:  E(RHF) =  -267.697028519     A.U. after   14 cycles
 Normal termination of Gaussian 16 at Sat Apr  5 22:46:04 2025.
 Gaussian 16:  ES64L-G16RevC.01  3-Jul-2019

 ----------------------------------------------------------------------
 #t hf aug-cc-pvdz iop(5/13=1,5/36=2,99/5=2) pseudo=read geom=check gue
 ss=(read,tcheck) scf=(maxcycle=1)
 ----------------------------------------------------------------------
 -----
 title
 -----
 Structure from the checkpoint file:  "3-methylfuran.chk"
 Charge =  0 Multiplicity = 1

                         Standard orientation:
 ---------------------------------------------------------------------
 Center     Atomic      Atomic             Coordinates (Angstroms)
 Number     Number       Type             X           Y           Z
 ---------------------------------------------------------------------
      1          8           0       -0.697958   -1.455911    0.000000
      2          6           0       -1.079484   -0.145052    0.000000
      3          6           0        0.661528   -1.463672    0.000000
      4          6           0        0.000000    0.676627    0.000000
      5          6           0        1.141177   -0.197619    0.000000
      6          6           0        0.006984    2.171398    0.000000
      7          1           0       -2.139263    0.036670    0.000000
      8          1           0        1.128523   -2.431792    0.000000
      9          1           0        2.178895    0.090679    0.000000
     10          1           0       -1.007010    2.569914    0.000000
     11          1           0        0.520643    2.565867    0.878993
     12          1           0        0.520643    2.565867   -0.878993
 ---------------------------------------------------------------------

 SCF Done:  E(RHF) =  -267.973651794     A.U. after    2 cycles

 The electronic state is 1-A'.
 Alpha  occ. eigenvalues --  -20.60265 -11.29352 -11.28420 -11.23933 -11.23872
 Alpha  occ. eigenvalues --  -11.23217  -1.53743  -1.10530  -1.01531  -0.95224
 Alpha  occ. eigenvalues --   -0.80154  -0.77717  -0.72098  -0.63145  -0.61288
 Alpha  occ. eigenvalues --   -0.59396  -0.57489  -0.57089  -0.54817  -0.51670
 Alpha  occ. eigenvalues --   -0.38719  -0.32350
 Alpha virt. eigenvalues --    0.03650   0.03753   0.04120   0.05400   0.05427
 Alpha virt. eigenvalues --    0.07061   0.09676   0.10117   0.11808   0.13151
 Alpha virt. eigenvalues --    0.13421   0.14418   0.14637   0.15310   0.15553

 Mulliken charges:
               1
     1  O   -1.456716
     2  C    0.812677
     3  C    0.773286
     4  C    0.361738
     5  C    0.086498
     6  C   -0.656607
     7  H   -0.186198
     8  H   -0.138572
     9  H   -0.193855
    10  H    0.121749
    11  H    0.238001
    12  H    0.238001
 Sum of Mulliken charges =   0.00000

 Dipole moment (field-independent basis, Debye):
    X=              0.4992    Y=              0.8871    Z=              0.0000  Tot=              1.0179

 Test job not archived.
 1\1\GINC-SE226\SP\RHF\Aug-CC-pVDZ\C5H6O1\OHZDE\05-Apr-2025\0\\#t hf au
 g-cc-pvdz iop(5/13=1,5/36=2,99/5=2) pseudo=read geom=check guess=(read
 ,tcheck) scf=(maxcycle=1)\\title\\0,1\O,0,-0.697958,-1.455911,0.\C,0,-
 1.079484,-0.145052,0.\C,0,0.661528,-1.463672,0.\C,0,0.,0.676627,0.\C,0
 ,1.141177,-0.197619,0.\C,0,0.006984,2.171398,0.\H,0,-2.139263,0.03667,
 0.\H,0,1.128523,-2.431792,0.\H,0,2.178895,0.090679,0.\H,0,-1.00701,2.5
 69914,0.\H,0,0.520643,2.565867,0.878993\H,0,0.520643,2.565867,-0.87899
 3\\Version=ES64L-G16RevC.01\State=1-A'\HF=-267.9736518\RMSD=2.472e-02\

 Normal termination of Gaussian 16 at Sat Apr  5 22:47:05 2025.
