 Gaussian 16, Revision C.01,

 ----------------------------------------------------------------------
 #t hf aug-cc-pvdz symm=none int=(grid=ultrafine) guess=(read,tcheck) s
 table=(opt,rrhf)
 ----------------------------------------------------------------------
 -----
 title
 -----
 Symbolic Z-matrix:
 Charge =  0 Multiplicity = 1

 SCF Done:  E(RHF) =  -458.736161486     A.U. after   14 cycles

 1\1\GINC-SE085\Stability\RHF\Aug-CC-pVDZ\C6H12O3\OHZDE\05-Apr-2025\0\\
 #t hf aug-cc-pvdz symm=none int=(grid=ultrafine) guess=(read,tcheck) s
 table=(opt,rrhf)\\title\\0,1\O,0,1.270396,-1.072639,-0.506582\O,0,1.51
 7293,1.629822,0.199626\O,0,2.683542,-0.799493,-0.331343\C,0,0.56324,-0
 .576995,0.62928\C,0,0.307919,0.934523,0.521011\C,0,-1.624769,-0.258153
 ,-0.451572\C,0,-0.849525,-1.149198,0.553638\C,0,-0.801644,1.058787,-0.
 534497\C,0,-3.086772,-0.05309,-0.062299\H,0,1.309055,2.53608,-0.044132
 \H,0,2.700175,0.16802,-0.431915\H,0,1.109271,-0.857959,1.530822\H,0,-0

 Normal termination of Gaussian 16 at Sat Apr  5 22:47:44 2025.
 Gaussian 16:  ES64L-G16RevC.01  3-Jul-2019

 ----------------------------------------------------------------------
 #t hf aug-cc-pvdz iop(5/13=1,5/36=2,99/5=2) pseudo=read geom=check gue
 ss=(read,tcheck) scf=(maxcycle=1)
 ----------------------------------------------------------------------
 -----
 title
 -----
 Structure from the checkpoint file:  "3-methyl-2-peroxycyclopentanol.chk"
 Charge =  0 Multiplicity = 1

                         Standard orientation:
 ---------------------------------------------------------------------
 Center     Atomic      Atomic             Coordinates (Angstroms)
 Number     Number       Type             X           Y           Z
 ---------------------------------------------------------------------
      1          8           0        1.270396   -1.072639   -0.506582
      2          8           0        1.517293    1.629822    0.199626
      3          8           0        2.683542   -0.799493   -0.331343
      4          6           0        0.563240   -0.576995    0.629280
      5          6           0        0.307919    0.934523    0.521011
      6          6           0       -1.624769   -0.258153   -0.451572
      7          6           0       -0.849525   -1.149198    0.553638
      8          6           0       -0.801644    1.058787   -0.534497
      9          6           0       -3.086772   -0.053090   -0.062299
     10          1           0        1.309055    2.536080   -0.044132
     11          1           0        2.700175    0.168020   -0.431915
     12          1           0        1.109271   -0.857959    1.530822
     13          1           0       -0.053565    1.281853    1.495981
     14          1           0       -1.598532   -0.739344   -1.429450
     15          1           0       -1.302471   -1.082953    1.545764
     16          1           0       -0.834433   -2.200567    0.271677
     17          1           0       -0.336755    1.157769   -1.515782
     18          1           0       -1.419865    1.942579   -0.368709
     19          1           0       -3.610629   -1.007454    0.018344
     20          1           0       -3.169359    0.453398    0.902715
     21          1           0       -3.613427    0.551813   -0.802280
 ---------------------------------------------------------------------

 SCF Done:  E(RHF) =  -459.211071335     A.U. after    2 cycles

 The electronic state is 1-A.
 Alpha  occ. eigenvalues --  -20.59606 -20.59054 -20.56877 -11.29784 -11.28902
 Alpha  occ. eigenvalues --  -11.24207 -11.23533 -11.23532 -11.23073  -1.56482
 Alpha  occ. eigenvalues --   -1.46637  -1.27977  -1.12579  -1.00950  -0.97384
 Alpha  occ. eigenvalues --   -0.90598  -0.79606  -0.78678  -0.72820  -0.70310
 Alpha  occ. eigenvalues --   -0.66460  -0.65701  -0.62748  -0.62087  -0.57679
 Alpha  occ. eigenvalues --   -0.57148  -0.55866  -0.54598  -0.53768  -0.52272
 Alpha  occ. eigenvalues --   -0.48701  -0.47477  -0.47158  -0.45712  -0.44461
 Alpha  occ. eigenvalues --   -0.42385
 Alpha virt. eigenvalues --    0.02816   0.03291   0.03470   0.04459   0.05437
 Alpha virt. eigenvalues --    0.05952   0.06024   0.06371   0.07134   0.09005
 Alpha virt. eigenvalues --    0.09125   0.09392   0.12617   0.13588   0.13646

 Mulliken charges:
               1
     1  O   -0.951234
     2  O   -1.570000
     3  O   -0.648736
     4  C    0.934807
     5  C    1.012105
     6  C   -0.540373
     7  C   -0.140505
     8  C   -0.175320
     9  C   -0.271647
    10  H    0.342592
    11  H    0.518145
    12  H    0.162490
    13  H    0.138854
    14  H    0.129234
    15  H    0.179713
    16  H    0.125160
    17  H    0.149517
    18  H    0.082948
    19  H    0.157824
    20  H    0.221862
    21  H    0.142563
 Sum of Mulliken charges =  -0.00000

 Dipole moment (field-independent basis, Debye):
    X=             -2.8678    Y=              2.8381    Z=              0.9149  Tot=              4.1371

 Test job not archived.
 1\1\GINC-SE085\SP\RHF\Aug-CC-pVDZ\C6H12O3\OHZDE\05-Apr-2025\0\\#t hf a
 ug-cc-pvdz iop(5/13=1,5/36=2,99/5=2) pseudo=read geom=check guess=(rea
 d,tcheck) scf=(maxcycle=1)\\title\\0,1\O,0,1.270396,-1.072639,-0.50658
 2\O,0,1.517293,1.629822,0.199626\O,0,2.683542,-0.799493,-0.331343\C,0,
 0.56324,-0.576995,0.62928\C,0,0.307919,0.934523,0.521011\C,0,-1.624769
 ,-0.258153,-0.451572\C,0,-0.849525,-1.149198,0.553638\C,0,-0.801644,1.
 058787,-0.534497\C,0,-3.086772,-0.05309,-0.062299\H,0,1.309055,2.53608
 ,-0.044132\H,0,2.700175,0.16802,-0.431915\H,0,1.109271,-0.857959,1.530

 Normal termination of Gaussian 16 at Sat Apr  5 22:48:07 2025.
