 Gaussian 16, Revision C.01,

 ----------------------------------------------------------------------
 #t hf aug-cc-pvdz symm=none int=(grid=ultrafine) guess=(read,tcheck) s
 table=(opt,rrhf)
 ----------------------------------------------------------------------
 -----
 title
 -----
 Symbolic Z-matrix:
 Charge =  0 Multiplicity = 1

 SCF Done:  E(RHF) =  -283.668426974     A.U. after   15 cycles
 Normal termination of Gaussian 16 at Sat Apr  5 22:47:12 2025.
 Gaussian 16:  ES64L-G16RevC.01  3-Jul-2019

 ----------------------------------------------------------------------
 #t hf aug-cc-pvdz iop(5/13=1,5/36=2,99/5=2) pseudo=read geom=check gue
 ss=(read,tcheck) scf=(maxcycle=1)
 ----------------------------------------------------------------------
 -----
 title
 -----
 Structure from the checkpoint file:  "3-methyl-1-2-oxazole.chk"
 Charge =  0 Multiplicity = 1

                         Standard orientation:
 ---------------------------------------------------------------------
 Center     Atomic      Atomic             Coordinates (Angstroms)
 Number     Number       Type             X           Y           Z
 ---------------------------------------------------------------------
      1          6           0        0.053087    2.127284    0.000000
      2          1           0       -0.448036    2.532049    0.880290
      3          1           0        1.086611    2.465817    0.000000
      4          1           0       -0.448036    2.532049   -0.880290
      5          6           0       -0.629178   -1.458575    0.000000
      6          8           0        0.709685   -1.409033    0.000000
      7          7           0        1.104596   -0.064916    0.000000
      8          6           0        0.000000    0.635944    0.000000
      9          6           0       -1.148537   -0.210735    0.000000
     10          1           0       -2.184862    0.075240    0.000000
     11          1           0       -1.067559   -2.441986    0.000000
 ---------------------------------------------------------------------

 SCF Done:  E(RHF) =  -283.957306190     A.U. after    2 cycles

 The electronic state is 1-A'.
 Alpha  occ. eigenvalues --  -20.62573 -15.55534 -11.32341 -11.29046 -11.25062
 Alpha  occ. eigenvalues --  -11.24473  -1.56536  -1.19268  -1.07689  -0.99536
 Alpha  occ. eigenvalues --   -0.84894  -0.79347  -0.73436  -0.66464  -0.63731
 Alpha  occ. eigenvalues --   -0.59874  -0.59067  -0.56698  -0.55083  -0.51356
 Alpha  occ. eigenvalues --   -0.42635  -0.38686
 Alpha virt. eigenvalues --    0.03180   0.03734   0.04455   0.05178   0.06711
 Alpha virt. eigenvalues --    0.08608   0.09315   0.10599   0.12453   0.12869
 Alpha virt. eigenvalues --    0.13483   0.13960   0.14420   0.14763   0.16406

 Mulliken charges:
               1
     1  C   -0.311719
     2  H    0.250758
     3  H    0.130501
     4  H    0.250758
     5  C    0.876086
     6  O   -1.514058
     7  N    1.305140
     8  C   -1.088479
     9  C    0.356779
    10  H   -0.178251
    11  H   -0.077515
 Sum of Mulliken charges =  -0.00000

 Dipole moment (field-independent basis, Debye):
    X=             -3.6044    Y=              0.7189    Z=              0.0000  Tot=              3.6754

 Test job not archived.
 1\1\GINC-SE115\SP\RHF\Aug-CC-pVDZ\C4H5N1O1\OHZDE\05-Apr-2025\0\\#t hf
 aug-cc-pvdz iop(5/13=1,5/36=2,99/5=2) pseudo=read geom=check guess=(re
 ad,tcheck) scf=(maxcycle=1)\\title\\0,1\C,0,0.053087,2.127284,0.\H,0,-
 0.448036,2.532049,0.88029\H,0,1.086611,2.465817,0.\H,0,-0.448036,2.532
 049,-0.88029\C,0,-0.629178,-1.458575,0.\O,0,0.709685,-1.409033,0.\N,0,
 1.104596,-0.064916,0.\C,0,0.,0.635944,0.\C,0,-1.148537,-0.210735,0.\H,
 0,-2.184862,0.07524,0.\H,0,-1.067559,-2.441986,0.\\Version=ES64L-G16Re
 vC.01\State=1-A'\HF=-283.9573062\RMSD=2.500e-02\Dipole=-1.4180722,0.28

 Normal termination of Gaussian 16 at Sat Apr  5 22:47:17 2025.
