 Gaussian 16, Revision C.01,

 ----------------------------------------------------------------------
 #t hf aug-cc-pvdz symm=none int=(grid=ultrafine) guess=(read,tcheck) s
 table=(opt,rrhf)
 ----------------------------------------------------------------------
 -----
 title
 -----
 Symbolic Z-matrix:
 Charge =  0 Multiplicity = 1

 SCF Done:  E(RHF) =  -270.065343138     A.U. after   14 cycles

 1\1\GINC-SE084\Stability\RHF\Aug-CC-pVDZ\C5H10O1\OHZDE\05-Apr-2025\0\\
 #t hf aug-cc-pvdz symm=none int=(grid=ultrafine) guess=(read,tcheck) s
 table=(opt,rrhf)\\title\\0,1\C,0,0.753389,-0.242774,-0.066189\C,0,1.95
 0166,0.504928,0.480694\C,0,-1.111331,1.335203,-0.553983\C,0,-1.623252,
 -0.9268,0.469523\C,0,-0.624754,0.227078,0.399162\O,0,0.883709,-1.16136
 8,-0.844108\H,0,1.79544,1.584352,0.445517\H,0,2.847365,0.235724,-0.070
 49\H,0,2.082848,0.238822,1.5328\H,0,-1.24058,0.938427,-1.561561\H,0,-2
 .07193,1.724975,-0.21589\H,0,-0.41227,2.170887,-0.605134\H,0,-1.294846

 Normal termination of Gaussian 16 at Sat Apr  5 22:47:33 2025.
 Gaussian 16:  ES64L-G16RevC.01  3-Jul-2019

 ----------------------------------------------------------------------
 #t hf aug-cc-pvdz iop(5/13=1,5/36=2,99/5=2) pseudo=read geom=check gue
 ss=(read,tcheck) scf=(maxcycle=1)
 ----------------------------------------------------------------------
 -----
 title
 -----
 Structure from the checkpoint file:  "3-methyl-2-butanone.chk"
 Charge =  0 Multiplicity = 1

                         Standard orientation:
 ---------------------------------------------------------------------
 Center     Atomic      Atomic             Coordinates (Angstroms)
 Number     Number       Type             X           Y           Z
 ---------------------------------------------------------------------
      1          6           0        0.753389   -0.242774   -0.066189
      2          6           0        1.950166    0.504928    0.480694
      3          6           0       -1.111331    1.335203   -0.553983
      4          6           0       -1.623252   -0.926800    0.469523
      5          6           0       -0.624754    0.227078    0.399162
      6          8           0        0.883709   -1.161368   -0.844108
      7          1           0        1.795440    1.584352    0.445517
      8          1           0        2.847365    0.235723   -0.070490
      9          1           0        2.082848    0.238822    1.532800
     10          1           0       -1.240580    0.938427   -1.561561
     11          1           0       -2.071930    1.724976   -0.215890
     12          1           0       -0.412270    2.170887   -0.605134
     13          1           0       -1.294846   -1.694619    1.170584
     14          1           0       -1.735386   -1.397169   -0.506315
     15          1           0       -2.599221   -0.564363    0.794752
     16          1           0       -0.506399    0.668094    1.393352
 ---------------------------------------------------------------------

 SCF Done:  E(RHF) =  -270.353551588     A.U. after    2 cycles

 The electronic state is 1-A.
 Alpha  occ. eigenvalues --  -20.53050 -11.33321 -11.24893 -11.24314 -11.23831
 Alpha  occ. eigenvalues --  -11.22542  -1.46554  -1.09384  -1.00890  -0.94110
 Alpha  occ. eigenvalues --   -0.85673  -0.73170  -0.67291  -0.64180  -0.61978
 Alpha  occ. eigenvalues --   -0.60127  -0.57894  -0.56262  -0.55163  -0.52339
 Alpha  occ. eigenvalues --   -0.50861  -0.49310  -0.47730  -0.40022
 Alpha virt. eigenvalues --    0.03201   0.03654   0.03866   0.04696   0.06187
 Alpha virt. eigenvalues --    0.06234   0.06886   0.07390   0.08125   0.09412
 Alpha virt. eigenvalues --    0.11337   0.13312   0.13825   0.14010   0.14686

 Mulliken charges:
               1
     1  C    1.487906
     2  C   -0.579990
     3  C   -0.115854
     4  C   -0.044878
     5  C   -1.143264
     6  O   -1.437014
     7  H    0.205869
     8  H    0.134419
     9  H    0.275762
    10  H    0.238116
    11  H    0.142308
    12  H    0.110014
    13  H    0.138578
    14  H    0.255982
    15  H    0.159444
    16  H    0.172602
 Sum of Mulliken charges =  -0.00000

 Dipole moment (field-independent basis, Debye):
    X=             -0.4809    Y=              2.3600    Z=              1.9091  Tot=              3.0734

 Test job not archived.
 1\1\GINC-SE084\SP\RHF\Aug-CC-pVDZ\C5H10O1\OHZDE\05-Apr-2025\0\\#t hf a
 ug-cc-pvdz iop(5/13=1,5/36=2,99/5=2) pseudo=read geom=check guess=(rea
 d,tcheck) scf=(maxcycle=1)\\title\\0,1\C,0,0.753389,-0.242774,-0.06618
 9\C,0,1.950166,0.504928,0.480694\C,0,-1.111331,1.335203,-0.553983\C,0,
 -1.623252,-0.9268,0.469523\C,0,-0.624754,0.227078,0.399162\O,0,0.88370
 9,-1.161368,-0.844108\H,0,1.79544,1.584352,0.445517\H,0,2.847365,0.235
 724,-0.07049\H,0,2.082848,0.238822,1.5328\H,0,-1.24058,0.938427,-1.561
 561\H,0,-2.07193,1.724975,-0.21589\H,0,-0.41227,2.170887,-0.605134\H,0

 Normal termination of Gaussian 16 at Sat Apr  5 22:48:01 2025.
