 Gaussian 16, Revision C.01,

 ----------------------------------------------------------------------
 #t hf aug-cc-pvdz symm=none int=(grid=ultrafine) guess=(read,tcheck) s
 table=(opt,rrhf)
 ----------------------------------------------------------------------
 -----
 title
 -----
 Symbolic Z-matrix:
 Charge =  0 Multiplicity = 1

 SCF Done:  E(RHF) =  -590.370663959     A.U. after   15 cycles
 Normal termination of Gaussian 16 at Sat Apr  5 22:47:18 2025.
 Gaussian 16:  ES64L-G16RevC.01  3-Jul-2019

 ----------------------------------------------------------------------
 #t hf aug-cc-pvdz iop(5/13=1,5/36=2,99/5=2) pseudo=read geom=check gue
 ss=(read,tcheck) scf=(maxcycle=1)
 ----------------------------------------------------------------------
 -----
 title
 -----
 Structure from the checkpoint file:  "3-methylthiophene.chk"
 Charge =  0 Multiplicity = 1

                         Standard orientation:
 ---------------------------------------------------------------------
 Center     Atomic      Atomic             Coordinates (Angstroms)
 Number     Number       Type             X           Y           Z
 ---------------------------------------------------------------------
      1          1           0       -2.208077    0.786344    0.000000
      2          6           0       -1.250002    0.285807    0.000000
      3          6           0        0.000000    0.979789    0.000000
      4          6           0        1.052965    0.110970    0.000000
      5          1           0       -1.892989   -1.815714    0.000000
      6          6           0       -1.117544   -1.068772    0.000000
      7         16           0        0.542369   -1.539521    0.000000
      8          1           0        1.168494    2.786598    0.000000
      9          1           0       -0.354771    2.912496    0.878798
     10          1           0       -0.354771    2.912496   -0.878798
     11          6           0        0.124666    2.475760    0.000000
     12          1           0        2.103691    0.348795    0.000000
 ---------------------------------------------------------------------

 SCF Done:  E(RHF) =  -590.632183039     A.U. after    2 cycles

 The electronic state is 1-A'.
 Alpha  occ. eigenvalues --  -93.97183 -11.26889 -11.26030 -11.24833 -11.24097
 Alpha  occ. eigenvalues --  -11.23902  -8.25389  -6.23163  -6.23069  -6.22858
 Alpha  occ. eigenvalues --   -1.18695  -1.04124  -0.99226  -0.92348  -0.78298
 Alpha  occ. eigenvalues --   -0.74387  -0.68370  -0.59435  -0.58879  -0.57584
 Alpha  occ. eigenvalues --   -0.53499  -0.52362  -0.51610  -0.47786  -0.34614
 Alpha  occ. eigenvalues --   -0.33056
 Alpha virt. eigenvalues --    0.03617   0.03656   0.04127   0.05358   0.05432
 Alpha virt. eigenvalues --    0.06992   0.09644   0.10230   0.10396   0.12542
 Alpha virt. eigenvalues --    0.12831   0.13567   0.13763   0.14629   0.14786

 Mulliken charges:
               1
     1  H   -0.212190
     2  C    0.484682
     3  C    0.647708
     4  C   -0.400932
     5  H   -0.172397
     6  C   -0.622334
     7  S    0.632808
     8  H    0.062309
     9  H    0.217227
    10  H    0.217227
    11  C   -0.611600
    12  H   -0.242508
 Sum of Mulliken charges =  -0.00000

 Dipole moment (field-independent basis, Debye):
    X=             -0.4572    Y=              1.1374    Z=              0.0000  Tot=              1.2259

 Test job not archived.
 1\1\GINC-SE145\SP\RHF\Aug-CC-pVDZ\C5H6S1\OHZDE\05-Apr-2025\0\\#t hf au
 g-cc-pvdz iop(5/13=1,5/36=2,99/5=2) pseudo=read geom=check guess=(read
 ,tcheck) scf=(maxcycle=1)\\title\\0,1\H,0,-2.208077,0.786344,0.\C,0,-1
 .250002,0.285807,0.\C,0,0.,0.979789,0.\C,0,1.052965,0.11097,0.\H,0,-1.
 892989,-1.815714,0.\C,0,-1.117544,-1.068772,0.\S,0,0.542369,-1.539521,
 0.\H,0,1.168494,2.786598,0.\H,0,-0.354771,2.912496,0.878798\H,0,-0.354
 771,2.912496,-0.878798\C,0,0.124666,2.47576,0.\H,0,2.103691,0.348795,0
 .\\Version=ES64L-G16RevC.01\State=1-A'\HF=-590.632183\RMSD=2.378e-02\D

 Normal termination of Gaussian 16 at Sat Apr  5 22:47:24 2025.
