 Gaussian 16, Revision C.01,

 ----------------------------------------------------------------------
 #t hf aug-cc-pvdz symm=none int=(grid=ultrafine) guess=(read,tcheck) s
 table=(opt,rrhf)
 ----------------------------------------------------------------------
 -----
 title
 -----
 Symbolic Z-matrix:
 Charge =  0 Multiplicity = 1

 SCF Done:  E(RHF) =  -400.552957802     A.U. after   17 cycles
 Normal termination of Gaussian 16 at Sat Apr  5 22:47:37 2025.
 Gaussian 16:  ES64L-G16RevC.01  3-Jul-2019

 ----------------------------------------------------------------------
 #t hf aug-cc-pvdz iop(5/13=1,5/36=2,99/5=2) pseudo=read geom=check gue
 ss=(read,tcheck) scf=(maxcycle=1)
 ----------------------------------------------------------------------
 -----
 title
 -----
 Structure from the checkpoint file:  "3-methyl-1H-indole.chk"
 Charge =  0 Multiplicity = 1

                         Standard orientation:
 ---------------------------------------------------------------------
 Center     Atomic      Atomic             Coordinates (Angstroms)
 Number     Number       Type             X           Y           Z
 ---------------------------------------------------------------------
      1          6           0        2.400164    0.371988    0.000000
      2          6           0        2.378035   -1.032832    0.000000
      3          6           0        1.225975    1.104452    0.000000
      4          6           0        1.182366   -1.731751    0.000000
      5          6           0       -2.128810   -0.282840    0.000000
      6          6           0        0.000000    0.426694    0.000000
      7          6           0       -1.373591    0.855620    0.000000
      8          6           0        0.002264   -0.990913    0.000000
      9          6           0       -1.867832    2.265726    0.000000
     10          7           0       -1.311241   -1.397590    0.000000
     11          1           0        3.352447    0.884836    0.000000
     12          1           0        3.311975   -1.578319    0.000000
     13          1           0        1.256606    2.186234    0.000000
     14          1           0        1.169379   -2.813921    0.000000
     15          1           0       -3.200520   -0.392057    0.000000
     16          1           0       -1.518423    2.813684    0.878543
     17          1           0       -1.518423    2.813684   -0.878543
     18          1           0       -2.957160    2.300825    0.000000
     19          1           0       -1.628626   -2.348692    0.000000
 ---------------------------------------------------------------------

 SCF Done:  E(RHF) =  -400.968556104     A.U. after    2 cycles

 The electronic state is 1-A'.
 Alpha  occ. eigenvalues --  -15.53768 -11.26804 -11.26715 -11.23603 -11.23517
 Alpha  occ. eigenvalues --  -11.23427 -11.23052 -11.22604 -11.22585 -11.22503
 Alpha  occ. eigenvalues --   -1.29152  -1.13261  -1.07715  -1.00328  -0.99293
 Alpha  occ. eigenvalues --   -0.94387  -0.85724  -0.81993  -0.77649  -0.74635
 Alpha  occ. eigenvalues --   -0.68149  -0.66104  -0.62284  -0.61257  -0.60972
 Alpha  occ. eigenvalues --   -0.58703  -0.56382  -0.55899  -0.54219  -0.51181
 Alpha  occ. eigenvalues --   -0.48819  -0.47925  -0.38748  -0.31319  -0.29119
 Alpha virt. eigenvalues --    0.02869   0.03674   0.03956   0.04408   0.04494
 Alpha virt. eigenvalues --    0.05577   0.07205   0.07517   0.08486   0.09389
 Alpha virt. eigenvalues --    0.10225   0.11311   0.12563   0.12633   0.12747

 Mulliken charges:
               1
     1  C    0.011826
     2  C    0.108708
     3  C    0.869739
     4  C    0.873776
     5  C   -0.779004
     6  C    0.631230
     7  C    0.788459
     8  C   -2.221852
     9  C   -0.424653
    10  N    0.991190
    11  H   -0.255312
    12  H   -0.258148
    13  H   -0.290827
    14  H   -0.287208
    15  H   -0.307867
    16  H    0.268125
    17  H    0.268125
    18  H    0.058805
    19  H   -0.045111
 Sum of Mulliken charges =  -0.00000

 Dipole moment (field-independent basis, Debye):
    X=             -1.3666    Y=             -0.9193    Z=             -0.0000  Tot=              1.6470

 Test job not archived.
 1\1\GINC-SE185\SP\RHF\Aug-CC-pVDZ\C9H9N1\OHZDE\05-Apr-2025\0\\#t hf au
 g-cc-pvdz iop(5/13=1,5/36=2,99/5=2) pseudo=read geom=check guess=(read
 ,tcheck) scf=(maxcycle=1)\\title\\0,1\C,0,2.400164,0.371989,0.\C,0,2.3
 78036,-1.032831,0.\C,0,1.225975,1.104452,0.\C,0,1.182367,-1.731751,0.\
 C,0,-2.12881,-0.282841,0.\C,0,0.,0.426694,0.\C,0,-1.373591,0.855619,0.
 \C,0,0.002265,-0.990913,0.\C,0,-1.867833,2.265725,0.\N,0,-1.31124,-1.3
 97591,0.\H,0,3.352447,0.884837,0.\H,0,3.311976,-1.578318,0.\H,0,1.2566
 05,2.186234,0.\H,0,1.16938,-2.813921,0.\H,0,-3.20052,-0.392058,0.\H,0,

 Normal termination of Gaussian 16 at Sat Apr  5 22:48:06 2025.
