 Gaussian 16, Revision C.01,

 ----------------------------------------------------------------------
 #t hf aug-cc-pvdz symm=none int=(grid=ultrafine) guess=(read,tcheck) s
 table=(opt,rrhf)
 ----------------------------------------------------------------------
 -----
 title
 -----
 Symbolic Z-matrix:
 Charge =  0 Multiplicity = 1

 SCF Done:  E(RHF) =  -313.466754255     A.U. after   11 cycles
 Normal termination of Gaussian 16 at Sat Apr  5 22:47:44 2025.
 Gaussian 16:  ES64L-G16RevC.01  3-Jul-2019

 ----------------------------------------------------------------------
 #t hf aug-cc-pvdz iop(5/13=1,5/36=2,99/5=2) pseudo=read geom=check gue
 ss=(read,tcheck) scf=(maxcycle=1)
 ----------------------------------------------------------------------
 -----
 title
 -----
 Structure from the checkpoint file:  "3-methylheptane.chk"
 Charge =  0 Multiplicity = 1

                         Standard orientation:
 ---------------------------------------------------------------------
 Center     Atomic      Atomic             Coordinates (Angstroms)
 Number     Number       Type             X           Y           Z
 ---------------------------------------------------------------------
      1          6           0        4.015672    0.099100    0.289449
      2          6           0       -3.659890   -0.381305    0.397793
      3          6           0       -1.312953    1.589945   -0.274353
      4          6           0        2.736727   -0.537959   -0.251184
      5          6           0       -2.319478   -0.745039   -0.241002
      6          6           0        1.463534    0.175911    0.206921
      7          6           0        0.184875   -0.466156   -0.335149
      8          6           0       -1.132203    0.137622    0.180181
      9          1           0        4.109221    1.136544   -0.038345
     10          1           0        4.025788    0.097510    1.381427
     11          1           0        4.903264   -0.436410   -0.050520
     12          1           0       -3.592023   -0.395135    1.487967
     13          1           0       -4.434015   -1.093105    0.107456
     14          1           0       -4.003439    0.609778    0.100382
     15          1           0       -0.491110    2.223149    0.059161
     16          1           0       -1.356401    1.648509   -1.365506
     17          1           0       -2.232244    2.024627    0.117681
     18          1           0        2.769370   -0.548538   -1.344870
     19          1           0        2.692400   -1.586189    0.059526
     20          1           0       -2.414267   -0.714025   -1.331790
     21          1           0       -2.082615   -1.782577    0.011079
     22          1           0        1.429172    0.178672    1.301980
     23          1           0        1.519308    1.224408   -0.097653
     24          1           0        0.198956   -1.530706   -0.080311
     25          1           0        0.192317   -0.418766   -1.430343
     26          1           0       -1.091387    0.129538    1.276747
 ---------------------------------------------------------------------

 SCF Done:  E(RHF) =  -313.822661066     A.U. after    2 cycles

 The electronic state is 1-A.
 Alpha  occ. eigenvalues --  -11.22564 -11.22215 -11.22066 -11.21913 -11.21859
 Alpha  occ. eigenvalues --  -11.21813 -11.21805 -11.21527  -1.10379  -1.05773
 Alpha  occ. eigenvalues --   -0.99450  -0.95392  -0.89179  -0.83844  -0.79012
 Alpha  occ. eigenvalues --   -0.76328  -0.65400  -0.62984  -0.61648  -0.59804
 Alpha  occ. eigenvalues --   -0.58027  -0.56948  -0.55034  -0.53567  -0.52320
 Alpha  occ. eigenvalues --   -0.51363  -0.50007  -0.48877  -0.47680  -0.46683
 Alpha  occ. eigenvalues --   -0.45803  -0.45080  -0.43856
 Alpha virt. eigenvalues --    0.03186   0.03336   0.03461   0.04184   0.04916
 Alpha virt. eigenvalues --    0.05176   0.05569   0.06152   0.07020   0.07539
 Alpha virt. eigenvalues --    0.07717   0.08232   0.08667   0.10335   0.10750

 Mulliken charges:
               1
     1  C   -0.385731
     2  C   -0.406422
     3  C   -0.105092
     4  C   -0.200600
     5  C    0.066560
     6  C   -0.307535
     7  C    0.124263
     8  C   -1.055139
     9  H    0.157652
    10  H    0.163148
    11  H    0.109616
    12  H    0.170612
    13  H    0.108782
    14  H    0.147947
    15  H    0.156611
    16  H    0.189142
    17  H    0.129553
    18  H    0.118768
    19  H    0.102349
    20  H    0.136899
    21  H    0.106864
    22  H    0.104900
    23  H    0.068903
    24  H    0.102596
    25  H    0.127283
    26  H    0.068070
 Sum of Mulliken charges =  -0.00000

 Dipole moment (field-independent basis, Debye):
    X=              0.0053    Y=             -0.0851    Z=              0.0272  Tot=              0.0895

 Test job not archived.
 1\1\GINC-SE231\SP\RHF\Aug-CC-pVDZ\C8H18\OHZDE\05-Apr-2025\0\\#t hf aug
 -cc-pvdz iop(5/13=1,5/36=2,99/5=2) pseudo=read geom=check guess=(read,
 tcheck) scf=(maxcycle=1)\\title\\0,1\C,0,4.015672,0.0991,0.289449\C,0,
 -3.65989,-0.381305,0.397793\C,0,-1.312953,1.589945,-0.274353\C,0,2.736
 727,-0.537959,-0.251184\C,0,-2.319478,-0.745039,-0.241002\C,0,1.463534
 ,0.175911,0.206921\C,0,0.184875,-0.466156,-0.335149\C,0,-1.132203,0.13
 7622,0.180181\H,0,4.109221,1.136544,-0.038345\H,0,4.025788,0.09751,1.3
 81427\H,0,4.903264,-0.43641,-0.05052\H,0,-3.592023,-0.395135,1.487967\

 Normal termination of Gaussian 16 at Sat Apr  5 22:48:10 2025.
