 Gaussian 16, Revision C.01,

 ----------------------------------------------------------------------
 #t hf aug-cc-pvdz symm=none int=(grid=ultrafine) guess=(read,tcheck) s
 table=(opt,rrhf)
 ----------------------------------------------------------------------
 -----
 title
 -----
 Symbolic Z-matrix:
 Charge =  0 Multiplicity = 1

 SCF Done:  E(RHF) =  -231.857670175     A.U. after   13 cycles
 Normal termination of Gaussian 16 at Sat Apr  5 22:47:25 2025.
 Gaussian 16:  ES64L-G16RevC.01  3-Jul-2019

 ----------------------------------------------------------------------
 #t hf aug-cc-pvdz iop(5/13=1,5/36=2,99/5=2) pseudo=read geom=check gue
 ss=(read,tcheck) scf=(maxcycle=1)
 ----------------------------------------------------------------------
 -----
 title
 -----
 Structure from the checkpoint file:  "3-methylenecyclopentene.chk"
 Charge =  0 Multiplicity = 1

                         Standard orientation:
 ---------------------------------------------------------------------
 Center     Atomic      Atomic             Coordinates (Angstroms)
 Number     Number       Type             X           Y           Z
 ---------------------------------------------------------------------
      1          6           0       -0.101375   -1.193285    0.000050
      2          1           0        0.073644   -1.818598    0.875674
      3          1           0        0.073697   -1.818666   -0.875519
      4          6           0       -1.534643   -0.600290   -0.000041
      5          1           0       -2.112333   -0.914628    0.873359
      6          1           0       -2.112265   -0.914644   -0.873479
      7          6           0        2.169627   -0.018400   -0.000040
      8          1           0        2.749486    0.894993   -0.000074
      9          1           0        2.721180   -0.949106   -0.000022
     10          6           0        0.834976    0.009041    0.000011
     11          6           0       -1.306567    0.887577   -0.000018
     12          1           0       -2.117586    1.602915   -0.000019
     13          6           0       -0.007168    1.200885    0.000034
     14          1           0        0.395073    2.204577    0.000103
 ---------------------------------------------------------------------

 SCF Done:  E(RHF) =  -232.107005777     A.U. after    2 cycles

 The electronic state is 1-A.
 Alpha  occ. eigenvalues --  -11.24326 -11.24249 -11.23771 -11.23384 -11.23320
 Alpha  occ. eigenvalues --  -11.21777  -1.14899  -1.01787  -0.97678  -0.87968
 Alpha  occ. eigenvalues --   -0.77533  -0.72340  -0.67862  -0.63319  -0.60091
 Alpha  occ. eigenvalues --   -0.56193  -0.52573  -0.52108  -0.50727  -0.48032
 Alpha  occ. eigenvalues --   -0.43260  -0.31278
 Alpha virt. eigenvalues --    0.03548   0.04026   0.04121   0.04669   0.05536
 Alpha virt. eigenvalues --    0.05962   0.07144   0.08471   0.09828   0.09967
 Alpha virt. eigenvalues --    0.12203   0.13236   0.13781   0.15140   0.15257

 Mulliken charges:
               1
     1  C   -0.823850
     2  H    0.217387
     3  H    0.217423
     4  C   -0.360359
     5  H    0.196026
     6  H    0.195989
     7  C    0.225722
     8  H   -0.158204
     9  H   -0.167351
    10  C    0.361952
    11  C    0.026266
    12  H   -0.135609
    13  C    0.444971
    14  H   -0.240363
 Sum of Mulliken charges =  -0.00000

 Dipole moment (field-independent basis, Debye):
    X=             -0.9221    Y=             -0.2278    Z=              0.0001  Tot=              0.9498

 Test job not archived.
 1\1\GINC-SE188\SP\RHF\Aug-CC-pVDZ\C6H8\OHZDE\05-Apr-2025\0\\#t hf aug-
 cc-pvdz iop(5/13=1,5/36=2,99/5=2) pseudo=read geom=check guess=(read,t
 check) scf=(maxcycle=1)\\title\\0,1\C,0,-0.101375,-1.193285,0.00005\H,
 0,0.073644,-1.818598,0.875674\H,0,0.073697,-1.818666,-0.875519\C,0,-1.
 534643,-0.60029,-0.000041\H,0,-2.112333,-0.914628,0.873359\H,0,-2.1122
 65,-0.914644,-0.873479\C,0,2.169627,-0.0184,-0.00004\H,0,2.749486,0.89
 4993,-0.000074\H,0,2.72118,-0.949106,-0.000022\C,0,0.834976,0.009041,0
 .000011\C,0,-1.306567,0.887577,-0.000018\H,0,-2.117586,1.602915,-0.000

 Normal termination of Gaussian 16 at Sat Apr  5 22:48:00 2025.
