 Gaussian 16, Revision C.01,

 ----------------------------------------------------------------------
 #t hf aug-cc-pvdz symm=none int=(grid=ultrafine) guess=(read,tcheck) s
 table=(opt,rrhf)
 ----------------------------------------------------------------------
 -----
 title
 -----
 Symbolic Z-matrix:
 Charge =  0 Multiplicity = 1

 SCF Done:  E(RHF) =  -489.275524789     A.U. after   16 cycles
 Normal termination of Gaussian 16 at Sat Apr  5 22:48:16 2025.
 Gaussian 16:  ES64L-G16RevC.01  3-Jul-2019

 ----------------------------------------------------------------------
 #t hf aug-cc-pvdz iop(5/13=1,5/36=2,99/5=2) pseudo=read geom=check gue
 ss=(read,tcheck) scf=(maxcycle=1)
 ----------------------------------------------------------------------
 -----
 title
 -----
 Structure from the checkpoint file:  "3-nitroaniline.chk"
 Charge =  0 Multiplicity = 1

                         Standard orientation:
 ---------------------------------------------------------------------
 Center     Atomic      Atomic             Coordinates (Angstroms)
 Number     Number       Type             X           Y           Z
 ---------------------------------------------------------------------
      1          6           0       -1.019949    1.869903    0.005061
      2          6           0       -2.035560    0.925894   -0.000762
      3          6           0        0.315136    1.486331    0.004036
      4          6           0       -0.402977   -0.840723   -0.007286
      5          6           0       -1.742943   -0.445332   -0.006521
      6          6           0        0.587891    0.126743   -0.001813
      7          7           0       -2.757551   -1.389060   -0.067066
      8          7           0        1.997431   -0.318897    0.000986
      9          8           0        2.865495    0.541162   -0.001230
     10          8           0        2.215470   -1.522514    0.006001
     11          1           0       -1.272850    2.921047    0.010796
     12          1           0       -3.069081    1.248201   -0.005007
     13          1           0        1.119865    2.202562    0.008669
     14          1           0       -0.125177   -1.883684   -0.015106
     15          1           0       -3.666794   -1.094774    0.247033
     16          1           0       -2.522433   -2.323737    0.221720
 ---------------------------------------------------------------------

 SCF Done:  E(RHF) =  -489.762084262     A.U. after    2 cycles

 The electronic state is 1-A.
 Alpha  occ. eigenvalues --  -20.58702 -20.58643 -15.78922 -15.53026 -11.31487
 Alpha  occ. eigenvalues --  -11.31335 -11.27060 -11.26719 -11.26556 -11.26369
 Alpha  occ. eigenvalues --   -1.66803  -1.50367  -1.25347  -1.18521  -1.09838
 Alpha  occ. eigenvalues --   -1.03383  -0.98054  -0.87311  -0.85180  -0.80504
 Alpha  occ. eigenvalues --   -0.76003  -0.74283  -0.73515  -0.71380  -0.70165
 Alpha  occ. eigenvalues --   -0.65085  -0.63765  -0.58562  -0.56884  -0.54924
 Alpha  occ. eigenvalues --   -0.50415  -0.49615  -0.48359  -0.44781  -0.38405
 Alpha  occ. eigenvalues --   -0.33951
 Alpha virt. eigenvalues --    0.02194   0.02549   0.03237   0.04065   0.05646
 Alpha virt. eigenvalues --    0.05968   0.08545   0.09175   0.09603   0.10751
 Alpha virt. eigenvalues --    0.11064   0.12188   0.12693   0.13037   0.13510

 Mulliken charges:
               1
     1  C    0.472878
     2  C    0.424144
     3  C   -0.046283
     4  C    0.551770
     5  C   -1.026203
     6  C   -0.216546
     7  N    0.747678
     8  N    3.046228
     9  O   -1.522226
    10  O   -1.486529
    11  H   -0.237823
    12  H   -0.289161
    13  H   -0.194321
    14  H   -0.253690
    15  H    0.013200
    16  H    0.016884
 Sum of Mulliken charges =   0.00000

 Dipole moment (field-independent basis, Debye):
    X=             -5.5019    Y=              0.7154    Z=              0.9032  Tot=              5.6213

 Test job not archived.
 1\1\GINC-SE175\SP\RHF\Aug-CC-pVDZ\C6H6N2O2\OHZDE\05-Apr-2025\0\\#t hf
 aug-cc-pvdz iop(5/13=1,5/36=2,99/5=2) pseudo=read geom=check guess=(re
 ad,tcheck) scf=(maxcycle=1)\\title\\0,1\C,0,-1.019949,1.869903,0.00506
 1\C,0,-2.03556,0.925894,-0.000762\C,0,0.315136,1.486331,0.004036\C,0,-
 0.402977,-0.840723,-0.007286\C,0,-1.742943,-0.445332,-0.006521\C,0,0.5
 87891,0.126743,-0.001813\N,0,-2.757551,-1.38906,-0.067066\N,0,1.997431
 ,-0.318897,0.000986\O,0,2.865495,0.541162,-0.00123\O,0,2.21547,-1.5225
 14,0.006001\H,0,-1.27285,2.921047,0.010796\H,0,-3.069081,1.248201,-0.0

 Normal termination of Gaussian 16 at Sat Apr  5 22:48:24 2025.
