 Gaussian 16, Revision C.01,

 ----------------------------------------------------------------------
 #t hf aug-cc-pvdz symm=none int=(grid=ultrafine) guess=(read,tcheck) s
 table=(opt,rrhf)
 ----------------------------------------------------------------------
 -----
 title
 -----
 Symbolic Z-matrix:
 Charge =  0 Multiplicity = 1

 SCF Done:  E(RHF) =  -1039.63920990     A.U. after   18 cycles
 Normal termination of Gaussian 16 at Sat Apr  5 22:47:19 2025.
 Gaussian 16:  ES64L-G16RevC.01  3-Jul-2019

 ----------------------------------------------------------------------
 #t hf aug-cc-pvdz iop(5/13=1,5/36=2,99/5=2) pseudo=read geom=check gue
 ss=(read,tcheck) scf=(maxcycle=1)
 ----------------------------------------------------------------------
 -----
 title
 -----
 Structure from the checkpoint file:  "3-nitroso-3H-dithiole.chk"
 Charge =  0 Multiplicity = 1

                         Standard orientation:
 ---------------------------------------------------------------------
 Center     Atomic      Atomic             Coordinates (Angstroms)
 Number     Number       Type             X           Y           Z
 ---------------------------------------------------------------------
      1         16           0        0.262272   -1.270575    0.351509
      2         16           0        1.911534   -0.165680   -0.415891
      3          8           0       -2.958453   -0.023467   -0.342226
      4          7           0       -1.819104    0.125111   -0.669138
      5          6           0       -0.854816    0.161427    0.535168
      6          6           0       -0.048735    1.415196    0.494290
      7          6           0        1.197951    1.369932    0.028995
      8          1           0       -1.455073    0.027442    1.436830
      9          1           0       -0.518659    2.347856    0.774850
     10          1           0        1.827781    2.237414   -0.110510
 ---------------------------------------------------------------------

 SCF Done:  E(RHF) =  -1039.99445322     A.U. after    2 cycles

 The electronic state is 1-A.
 Alpha  occ. eigenvalues --  -94.00011 -93.99686 -20.63303 -15.65683 -11.33685
 Alpha  occ. eigenvalues --  -11.31137 -11.27735  -8.28061  -8.27685  -6.25840
 Alpha  occ. eigenvalues --   -6.25693  -6.25455  -6.25388  -6.25296  -6.25008
 Alpha  occ. eigenvalues --   -1.61707  -1.20007  -1.09044  -1.03963  -0.96083
 Alpha  occ. eigenvalues --   -0.84827  -0.79741  -0.73033  -0.71869  -0.69094
 Alpha  occ. eigenvalues --   -0.63790  -0.59526  -0.54474  -0.52756  -0.50562
 Alpha  occ. eigenvalues --   -0.48183  -0.43077  -0.41226  -0.33361
 Alpha virt. eigenvalues --    0.03069   0.03784   0.04748   0.04980   0.05929
 Alpha virt. eigenvalues --    0.06962   0.09095   0.09957   0.10724   0.12511
 Alpha virt. eigenvalues --    0.12842   0.13155   0.13426   0.14166   0.14515

 Mulliken charges:
               1
     1  S    0.499036
     2  S    0.166527
     3  O   -1.002124
     4  N    1.090375
     5  C   -1.087865
     6  C    0.932646
     7  C   -0.469285
     8  H    0.153864
     9  H   -0.098171
    10  H   -0.185002
 Sum of Mulliken charges =  -0.00000

 Dipole moment (field-independent basis, Debye):
    X=              1.1364    Y=              2.0649    Z=              1.7148  Tot=              2.9148

 Test job not archived.
 1\1\GINC-SE176\SP\RHF\Aug-CC-pVDZ\C3H3N1O1S2\OHZDE\05-Apr-2025\0\\#t h
 f aug-cc-pvdz iop(5/13=1,5/36=2,99/5=2) pseudo=read geom=check guess=(
 read,tcheck) scf=(maxcycle=1)\\title\\0,1\S,0,0.262272,-1.270575,0.351
 509\S,0,1.911534,-0.16568,-0.415891\O,0,-2.958453,-0.023467,-0.342226\
 N,0,-1.819104,0.125111,-0.669138\C,0,-0.854816,0.161427,0.535168\C,0,-
 0.048735,1.415196,0.49429\C,0,1.197951,1.369932,0.028995\H,0,-1.455073
 ,0.027442,1.43683\H,0,-0.518659,2.347856,0.77485\H,0,1.827781,2.237414
 ,-0.11051\\Version=ES64L-G16RevC.01\State=1-A\HF=-1039.9944532\RMSD=1.

 Normal termination of Gaussian 16 at Sat Apr  5 22:47:24 2025.
