 Gaussian 16, Revision C.01,

 ----------------------------------------------------------------------
 #t hf aug-cc-pvdz symm=none int=(grid=ultrafine) guess=(read,tcheck) s
 table=(opt,rrhf)
 ----------------------------------------------------------------------
 -----
 title
 -----
 Symbolic Z-matrix:
 Charge =  0 Multiplicity = 1

 SCF Done:  E(RHF) =  -340.583068093     A.U. after   14 cycles
 Normal termination of Gaussian 16 at Sat Apr  5 22:47:30 2025.
 Gaussian 16:  ES64L-G16RevC.01  3-Jul-2019

 ----------------------------------------------------------------------
 #t hf aug-cc-pvdz iop(5/13=1,5/36=2,99/5=2) pseudo=read geom=check gue
 ss=(read,tcheck) scf=(maxcycle=1)
 ----------------------------------------------------------------------
 -----
 title
 -----
 Structure from the checkpoint file:  "3-oxopropanoic_acid.chk"
 Charge =  0 Multiplicity = 1

                         Standard orientation:
 ---------------------------------------------------------------------
 Center     Atomic      Atomic             Coordinates (Angstroms)
 Number     Number       Type             X           Y           Z
 ---------------------------------------------------------------------
      1          6           0        1.643090   -0.157443    0.153934
      2          6           0       -0.880250   -0.166831    0.029956
      3          6           0        0.347276   -0.704458    0.723932
      4          8           0        1.723698    0.647413   -0.732257
      5          8           0       -1.466392   -0.723024   -0.859094
      6          8           0       -1.245723    1.033301    0.528366
      7          1           0        2.550479   -0.574965    0.632776
      8          1           0        0.367812   -1.791023    0.624453
      9          1           0        0.330267   -0.468364    1.790806
     10          1           0       -2.001918    1.345224    0.008912
 ---------------------------------------------------------------------

 SCF Done:  E(RHF) =  -340.917907355     A.U. after    2 cycles

 The electronic state is 1-A.
 Alpha  occ. eigenvalues --  -20.61085 -20.56875 -20.55045 -11.41011 -11.36889
 Alpha  occ. eigenvalues --  -11.28472  -1.55928  -1.50193  -1.46552  -1.08306
 Alpha  occ. eigenvalues --   -0.89019  -0.80610  -0.72407  -0.71659  -0.70026
 Alpha  occ. eigenvalues --   -0.65465  -0.62759  -0.61119  -0.58709  -0.52948
 Alpha  occ. eigenvalues --   -0.48661  -0.46263  -0.43731
 Alpha virt. eigenvalues --    0.02919   0.03965   0.04848   0.05071   0.09270
 Alpha virt. eigenvalues --    0.09678   0.09758   0.11498   0.11886   0.13031
 Alpha virt. eigenvalues --    0.14024   0.14749   0.15651   0.15959   0.17096

 Mulliken charges:
               1
     1  C    0.974473
     2  C    2.334727
     3  C   -0.821634
     4  O   -1.074824
     5  O   -1.242518
     6  O   -1.188755
     7  H    0.121568
     8  H    0.265074
     9  H    0.285813
    10  H    0.346078
 Sum of Mulliken charges =  -0.00000

 Dipole moment (field-independent basis, Debye):
    X=              0.3797    Y=             -0.8418    Z=              3.2340  Tot=              3.3633

 Test job not archived.
 1\1\GINC-SE050\SP\RHF\Aug-CC-pVDZ\C3H4O3\OHZDE\05-Apr-2025\0\\#t hf au
 g-cc-pvdz iop(5/13=1,5/36=2,99/5=2) pseudo=read geom=check guess=(read
 ,tcheck) scf=(maxcycle=1)\\title\\0,1\C,0,1.64309,-0.157443,0.153934\C
 ,0,-0.88025,-0.166831,0.029956\C,0,0.347276,-0.704458,0.723932\O,0,1.7
 23698,0.647413,-0.732257\O,0,-1.466392,-0.723024,-0.859094\O,0,-1.2457
 23,1.033301,0.528366\H,0,2.550479,-0.574965,0.632776\H,0,0.367812,-1.7
 91023,0.624453\H,0,0.330267,-0.468364,1.790806\H,0,-2.001918,1.345224,
 0.008912\\Version=ES64L-G16RevC.01\State=1-A\HF=-340.9179074\RMSD=1.15

 Normal termination of Gaussian 16 at Sat Apr  5 22:48:00 2025.
