 Gaussian 16, Revision C.01,

 ----------------------------------------------------------------------
 #t hf aug-cc-pvdz symm=none int=(grid=ultrafine) guess=(read,tcheck) s
 table=(opt,rrhf)
 ----------------------------------------------------------------------
 -----
 title
 -----
 Symbolic Z-matrix:
 Charge =  0 Multiplicity = 1

 SCF Done:  E(RHF) =  -339.388050505     A.U. after   15 cycles
 Normal termination of Gaussian 16 at Sat Apr  5 22:47:28 2025.
 Gaussian 16:  ES64L-G16RevC.01  3-Jul-2019

 ----------------------------------------------------------------------
 #t hf aug-cc-pvdz iop(5/13=1,5/36=2,99/5=2) pseudo=read geom=check gue
 ss=(read,tcheck) scf=(maxcycle=1)
 ----------------------------------------------------------------------
 -----
 title
 -----
 Structure from the checkpoint file:  "3-oxoprop-2-enoicacid.chk"
 Charge =  0 Multiplicity = 1

                         Standard orientation:
 ---------------------------------------------------------------------
 Center     Atomic      Atomic             Coordinates (Angstroms)
 Number     Number       Type             X           Y           Z
 ---------------------------------------------------------------------
      1          8           0       -2.088631   -0.584833   -0.000019
      2          8           0       -0.935596    1.306407    0.000008
      3          8           0        2.497307    0.192352   -0.000016
      4          6           0       -1.014648   -0.052431    0.000002
      5          6           0        0.243940   -0.824199    0.000019
      6          6           0        1.450682   -0.297452    0.000000
      7          1           0       -0.029116    1.634178    0.000053
      8          1           0        0.164626   -1.901098    0.000033
 ---------------------------------------------------------------------

 SCF Done:  E(RHF) =  -339.714205440     A.U. after    2 cycles

 The electronic state is 1-A.
 Alpha  occ. eigenvalues --  -20.67329 -20.61776 -20.54371 -11.44655 -11.42314
 Alpha  occ. eigenvalues --  -11.29250  -1.61302  -1.55740  -1.46752  -1.12508
 Alpha  occ. eigenvalues --   -0.88903  -0.82879  -0.78466  -0.73361  -0.69621
 Alpha  occ. eigenvalues --   -0.66093  -0.64091  -0.63637  -0.58583  -0.49515
 Alpha  occ. eigenvalues --   -0.46532  -0.40847
 Alpha virt. eigenvalues --    0.02676   0.04150   0.06477   0.07506   0.08530
 Alpha virt. eigenvalues --    0.09999   0.10919   0.11058   0.11855   0.12336
 Alpha virt. eigenvalues --    0.13476   0.13775   0.15154   0.16182   0.18410

 Mulliken charges:
               1
     1  O   -1.164638
     2  O   -1.200930
     3  O   -0.754482
     4  C    1.776280
     5  C    0.831286
     6  C    0.248245
     7  H    0.369994
     8  H   -0.105754
 Sum of Mulliken charges =  -0.00000

 Dipole moment (field-independent basis, Debye):
    X=              3.8348    Y=             -0.0511    Z=              0.0001  Tot=              3.8351

 Test job not archived.
 1\1\GINC-SE042\SP\RHF\Aug-CC-pVDZ\C3H2O3\OHZDE\05-Apr-2025\0\\#t hf au
 g-cc-pvdz iop(5/13=1,5/36=2,99/5=2) pseudo=read geom=check guess=(read
 ,tcheck) scf=(maxcycle=1)\\title\\0,1\O,0,-2.088631,-0.584833,-0.00001
 9\O,0,-0.935596,1.306407,0.000008\O,0,2.497307,0.192352,-0.000016\C,0,
 -1.014648,-0.052431,0.000002\C,0,0.24394,-0.824199,0.000019\C,0,1.4506
 82,-0.297452,0.\H,0,-0.029116,1.634178,0.000053\H,0,0.164626,-1.901098
 ,0.000033\\Version=ES64L-G16RevC.01\State=1-A\HF=-339.7142054\RMSD=1.4
 57e-02\Dipole=1.5087142,-0.0201083,0.0000483\Quadrupole=-6.1077944,4.3

 Normal termination of Gaussian 16 at Sat Apr  5 22:48:00 2025.
