 Gaussian 16, Revision C.01,

 ----------------------------------------------------------------------
 #t hf aug-cc-pvdz symm=none int=(grid=ultrafine) guess=(read,tcheck) s
 table=(opt,rrhf)
 ----------------------------------------------------------------------
 -----
 title
 -----
 Symbolic Z-matrix:
 Charge =  0 Multiplicity = 1

 SCF Done:  E(RHF) =  -271.225172045     A.U. after   12 cycles

 1\1\GINC-SE129\Stability\RHF\Aug-CC-pVDZ\C5H12O1\OHZDE\05-Apr-2025\0\\
 #t hf aug-cc-pvdz symm=none int=(grid=ultrafine) guess=(read,tcheck) s
 table=(opt,rrhf)\\title\\0,1\C,0,0.256059,-0.14579,2.557816\C,0,0.2560
 59,-0.14579,-2.557816\C,0,0.256059,0.678253,1.27207\C,0,0.256059,0.678
 253,-1.27207\C,0,0.123504,-0.161251,0.\O,0,-1.093205,-0.921538,0.\H,0,
 0.329959,0.496804,3.435919\H,0,-0.654055,-0.737969,2.645405\H,0,1.1021
 79,-0.835589,2.578827\H,0,0.329959,0.496804,-3.435919\H,0,1.102179,-0.
 835589,-2.578827\H,0,-0.654055,-0.737969,-2.645405\H,0,-0.562591,1.406

 Normal termination of Gaussian 16 at Sat Apr  5 22:47:56 2025.
 Gaussian 16:  ES64L-G16RevC.01  3-Jul-2019

 ----------------------------------------------------------------------
 #t hf aug-cc-pvdz iop(5/13=1,5/36=2,99/5=2) pseudo=read geom=check gue
 ss=(read,tcheck) scf=(maxcycle=1)
 ----------------------------------------------------------------------
 -----
 title
 -----
 Structure from the checkpoint file:  "3-pentanol.chk"
 Charge =  0 Multiplicity = 1

                         Standard orientation:
 ---------------------------------------------------------------------
 Center     Atomic      Atomic             Coordinates (Angstroms)
 Number     Number       Type             X           Y           Z
 ---------------------------------------------------------------------
      1          6           0        0.256059   -0.145790    2.557816
      2          6           0        0.256059   -0.145790   -2.557816
      3          6           0        0.256059    0.678253    1.272070
      4          6           0        0.256059    0.678253   -1.272070
      5          6           0        0.123504   -0.161251   -0.000000
      6          8           0       -1.093205   -0.921538   -0.000000
      7          1           0        0.329959    0.496804    3.435919
      8          1           0       -0.654055   -0.737969    2.645405
      9          1           0        1.102179   -0.835589    2.578827
     10          1           0        0.329959    0.496804   -3.435919
     11          1           0        1.102179   -0.835589   -2.578827
     12          1           0       -0.654055   -0.737969   -2.645405
     13          1           0       -0.562591    1.406988    1.294805
     14          1           0        1.178723    1.261415    1.206832
     15          1           0       -0.562591    1.406988   -1.294805
     16          1           0        1.178723    1.261415   -1.206832
     17          1           0        0.906368   -0.925655   -0.000000
     18          1           0       -1.835609   -0.307374   -0.000000
 ---------------------------------------------------------------------

 SCF Done:  E(RHF) =  -271.522090554     A.U. after    2 cycles

 The electronic state is 1-A'.
 Alpha  occ. eigenvalues --  -20.54064 -11.28060 -11.22893 -11.22864 -11.21922
 Alpha  occ. eigenvalues --  -11.21916  -1.43939  -1.07462  -1.02230  -0.92050
 Alpha  occ. eigenvalues --   -0.83089  -0.80595  -0.65925  -0.64660  -0.63612
 Alpha  occ. eigenvalues --   -0.60383  -0.56633  -0.55222  -0.54327  -0.51396
 Alpha  occ. eigenvalues --   -0.49945  -0.48843  -0.48691  -0.46075  -0.42744
 Alpha virt. eigenvalues --    0.03421   0.03679   0.03828   0.04407   0.05738
 Alpha virt. eigenvalues --    0.06198   0.06461   0.06663   0.08828   0.08896
 Alpha virt. eigenvalues --    0.09662   0.10028   0.12104   0.14275   0.14311

 Mulliken charges:
               1
     1  C   -0.380761
     2  C   -0.380761
     3  C   -0.220533
     4  C   -0.220533
     5  C    0.809579
     6  O   -1.336293
     7  H    0.128088
     8  H    0.198634
     9  H    0.162630
    10  H    0.128088
    11  H    0.162630
    12  H    0.198634
    13  H    0.105917
    14  H    0.123467
    15  H    0.105917
    16  H    0.123467
    17  H    0.018083
    18  H    0.273748
 Sum of Mulliken charges =  -0.00000

 Dipole moment (field-independent basis, Debye):
    X=              0.2170    Y=              1.6504    Z=             -0.0000  Tot=              1.6646

 Test job not archived.
 1\1\GINC-SE129\SP\RHF\Aug-CC-pVDZ\C5H12O1\OHZDE\05-Apr-2025\0\\#t hf a
 ug-cc-pvdz iop(5/13=1,5/36=2,99/5=2) pseudo=read geom=check guess=(rea
 d,tcheck) scf=(maxcycle=1)\\title\\0,1\C,0,0.256059,-0.14579,2.557816\
 C,0,0.256059,-0.14579,-2.557816\C,0,0.256059,0.678253,1.27207\C,0,0.25
 6059,0.678253,-1.27207\C,0,0.123504,-0.161251,0.\O,0,-1.093205,-0.9215
 38,0.\H,0,0.329959,0.496804,3.435919\H,0,-0.654055,-0.737969,2.645405\
 H,0,1.102179,-0.835589,2.578827\H,0,0.329959,0.496804,-3.435919\H,0,1.
 102179,-0.835589,-2.578827\H,0,-0.654055,-0.737969,-2.645405\H,0,-0.56

 Normal termination of Gaussian 16 at Sat Apr  5 22:48:00 2025.
