 Gaussian 16, Revision C.01,

 ----------------------------------------------------------------------
 #t hf aug-cc-pvdz symm=none int=(grid=ultrafine) guess=(read,tcheck) s
 table=(opt,rrhf)
 ----------------------------------------------------------------------
 -----
 title
 -----
 Symbolic Z-matrix:
 Charge =  0 Multiplicity = 1

 SCF Done:  E(RHF) =  -270.067319633     A.U. after   12 cycles

 1\1\GINC-SE164\Stability\RHF\Aug-CC-pVDZ\C5H10O1\OHZDE\05-Apr-2025\0\\
 #t hf aug-cc-pvdz symm=none int=(grid=ultrafine) guess=(read,tcheck) s
 table=(opt,rrhf)\\title\\0,1\C,0,0.,0.,0.077636\C,0,0.,2.555166,0.1223
 97\C,0,0.,-2.555166,0.122397\C,0,0.,1.291,-0.726245\C,0,0.,-1.291,-0.7
 26245\O,0,0.,0.,1.288225\H,0,0.,3.442073,-0.511364\H,0,-0.876892,2.593
 353,0.767222\H,0,0.876892,2.593353,0.767222\H,0,-0.876892,-2.593353,0.
 767222\H,0,0.876892,-2.593353,0.767222\H,0,0.,-3.442073,-0.511364\H,0,
 -0.868213,1.26523,-1.392902\H,0,0.868213,1.26523,-1.392902\H,0,0.86821

 Normal termination of Gaussian 16 at Sat Apr  5 22:47:48 2025.
 Gaussian 16:  ES64L-G16RevC.01  3-Jul-2019

 ----------------------------------------------------------------------
 #t hf aug-cc-pvdz iop(5/13=1,5/36=2,99/5=2) pseudo=read geom=check gue
 ss=(read,tcheck) scf=(maxcycle=1)
 ----------------------------------------------------------------------
 -----
 title
 -----
 Structure from the checkpoint file:  "3-pentanone.chk"
 Charge =  0 Multiplicity = 1

                         Standard orientation:
 ---------------------------------------------------------------------
 Center     Atomic      Atomic             Coordinates (Angstroms)
 Number     Number       Type             X           Y           Z
 ---------------------------------------------------------------------
      1          6           0       -0.000000   -0.000000    0.077636
      2          6           0        0.000000    2.555166    0.122397
      3          6           0       -0.000000   -2.555166    0.122397
      4          6           0        0.000000    1.291000   -0.726245
      5          6           0       -0.000000   -1.291000   -0.726245
      6          8           0       -0.000000   -0.000000    1.288225
      7          1           0        0.000000    3.442073   -0.511364
      8          1           0       -0.876892    2.593353    0.767222
      9          1           0        0.876892    2.593353    0.767222
     10          1           0       -0.876892   -2.593353    0.767222
     11          1           0        0.876892   -2.593353    0.767222
     12          1           0       -0.000000   -3.442073   -0.511364
     13          1           0       -0.868213    1.265230   -1.392902
     14          1           0        0.868213    1.265230   -1.392902
     15          1           0        0.868213   -1.265230   -1.392902
     16          1           0       -0.868213   -1.265230   -1.392902
 ---------------------------------------------------------------------

 SCF Done:  E(RHF) =  -270.356164328     A.U. after    2 cycles

 The electronic state is 1-A1.
 Alpha  occ. eigenvalues --  -20.53094 -11.33245 -11.24580 -11.24563 -11.22602
 Alpha  occ. eigenvalues --  -11.22593  -1.46622  -1.07608  -1.03878  -0.91990
 Alpha  occ. eigenvalues --   -0.84867  -0.73429  -0.67359  -0.65306  -0.62081
 Alpha  occ. eigenvalues --   -0.61295  -0.57094  -0.52954  -0.52871  -0.51675
 Alpha  occ. eigenvalues --   -0.51582  -0.49717  -0.48332  -0.40326
 Alpha virt. eigenvalues --    0.03277   0.03567   0.03955   0.04574   0.05796
 Alpha virt. eigenvalues --    0.06138   0.06358   0.07003   0.08807   0.10084
 Alpha virt. eigenvalues --    0.10561   0.13218   0.13708   0.14228   0.15247

 Mulliken charges:
               1
     1  C    1.268633
     2  C   -0.296135
     3  C   -0.296135
     4  C   -0.567138
     5  C   -0.567138
     6  O   -1.394235
     7  H    0.130449
     8  H    0.171461
     9  H    0.171461
    10  H    0.171461
    11  H    0.171461
    12  H    0.130449
    13  H    0.226351
    14  H    0.226351
    15  H    0.226351
    16  H    0.226351
 Sum of Mulliken charges =  -0.00000

 Dipole moment (field-independent basis, Debye):
    X=              0.0000    Y=              0.0000    Z=             -2.9313  Tot=              2.9313

 Test job not archived.
 1\1\GINC-SE164\SP\RHF\Aug-CC-pVDZ\C5H10O1\OHZDE\05-Apr-2025\0\\#t hf a
 ug-cc-pvdz iop(5/13=1,5/36=2,99/5=2) pseudo=read geom=check guess=(rea
 d,tcheck) scf=(maxcycle=1)\\title\\0,1\C,0,0.,0.,0.077636\C,0,0.,2.555
 166,0.122397\C,0,0.,-2.555166,0.122397\C,0,0.,1.291,-0.726245\C,0,0.,-
 1.291,-0.726245\O,0,0.,0.,1.288225\H,0,0.,3.442073,-0.511364\H,0,-0.87
 6892,2.593353,0.767222\H,0,0.876892,2.593353,0.767222\H,0,-0.876892,-2
 .593353,0.767222\H,0,0.876892,-2.593353,0.767222\H,0,0.,-3.442073,-0.5
 11364\H,0,-0.868213,1.26523,-1.392902\H,0,0.868213,1.26523,-1.392902\H

 Normal termination of Gaussian 16 at Sat Apr  5 22:48:00 2025.
