 Gaussian 16, Revision C.01,

 ----------------------------------------------------------------------
 #t hf aug-cc-pvdz symm=none int=(grid=ultrafine) guess=(read,tcheck) s
 table=(opt,rrhf)
 ----------------------------------------------------------------------
 -----
 title
 -----
 Symbolic Z-matrix:
 Charge =  0 Multiplicity = 1

 SCF Done:  E(RHF) =  -492.258094472     A.U. after   16 cycles

 1\1\GINC-SE194\Stability\RHF\Aug-CC-pVDZ\C10H8N2\OHZDE\05-Apr-2025\0\\
 #t hf aug-cc-pvdz symm=none int=(grid=ultrafine) guess=(read,tcheck) s
 table=(opt,rrhf)\\title\\0,1\C,0,0.771928,0.031892,0.002176\N,0,1.3730
 89,-1.135533,-0.268058\C,0,1.517491,1.185214,0.283493\C,0,2.888656,1.0
 88544,0.253045\C,0,3.435576,-0.15637,-0.042961\N,0,2.692576,-1.231573,
 -0.286051\C,0,-0.70972,0.022857,-0.000158\C,0,-1.402884,-1.169419,0.23
 4804\C,0,-2.789799,-1.189168,0.240834\C,0,-3.510661,-0.022683,0.006144
 \C,0,-2.8326,1.165699,-0.237604\C,0,-1.444071,1.188439,-0.239574\H,0,4

 Normal termination of Gaussian 16 at Sat Apr  5 22:49:56 2025.
 Gaussian 16:  ES64L-G16RevC.01  3-Jul-2019

 ----------------------------------------------------------------------
 #t hf aug-cc-pvdz iop(5/13=1,5/36=2,99/5=2) pseudo=read geom=check gue
 ss=(read,tcheck) scf=(maxcycle=1)
 ----------------------------------------------------------------------
 -----
 title
 -----
 Structure from the checkpoint file:  "3-phenylpyridazine.chk"
 Charge =  0 Multiplicity = 1

                         Standard orientation:
 ---------------------------------------------------------------------
 Center     Atomic      Atomic             Coordinates (Angstroms)
 Number     Number       Type             X           Y           Z
 ---------------------------------------------------------------------
      1          6           0        0.771928    0.031892    0.002176
      2          7           0        1.373089   -1.135533   -0.268058
      3          6           0        1.517491    1.185214    0.283493
      4          6           0        2.888656    1.088544    0.253045
      5          6           0        3.435576   -0.156370   -0.042961
      6          7           0        2.692576   -1.231573   -0.286051
      7          6           0       -0.709720    0.022857   -0.000158
      8          6           0       -1.402884   -1.169419    0.234804
      9          6           0       -2.789799   -1.189168    0.240834
     10          6           0       -3.510661   -0.022683    0.006144
     11          6           0       -2.832600    1.165699   -0.237604
     12          6           0       -1.444071    1.188439   -0.239574
     13          1           0        4.505517   -0.314225   -0.081356
     14          1           0        3.523963    1.938063    0.462583
     15          1           0        1.028770    2.114805    0.536243
     16          1           0       -3.383886    2.075335   -0.434047
     17          1           0       -4.592120   -0.040627    0.009324
     18          1           0       -3.310530   -2.118188    0.430151
     19          1           0       -0.839342   -2.073585    0.409647
     20          1           0       -0.935526    2.118137   -0.454969
 ---------------------------------------------------------------------

 SCF Done:  E(RHF) =  -492.755998919     A.U. after    2 cycles

 The electronic state is 1-A.
 Alpha  occ. eigenvalues --  -15.55249 -15.54420 -11.29740 -11.28571 -11.27655
 Alpha  occ. eigenvalues --  -11.27427 -11.25703 -11.25198 -11.24878 -11.24783
 Alpha  occ. eigenvalues --  -11.24549 -11.24413  -1.34537  -1.17500  -1.13055
 Alpha  occ. eigenvalues --   -1.11867  -1.02883  -1.02503  -0.92313  -0.92042
 Alpha  occ. eigenvalues --   -0.83879  -0.83507  -0.75450  -0.73800  -0.71268
 Alpha  occ. eigenvalues --   -0.67764  -0.64801  -0.63044  -0.61880  -0.61394
 Alpha  occ. eigenvalues --   -0.61098  -0.59910  -0.53812  -0.52370  -0.51296
 Alpha  occ. eigenvalues --   -0.50840  -0.44588  -0.42917  -0.42095  -0.35242
 Alpha  occ. eigenvalues --   -0.33366
 Alpha virt. eigenvalues --    0.02796   0.03152   0.03516   0.04441   0.04910
 Alpha virt. eigenvalues --    0.05103   0.05171   0.06288   0.06542   0.06861
 Alpha virt. eigenvalues --    0.09803   0.10029   0.10532   0.11215   0.11693

 Mulliken charges:
               1
     1  C   -1.665816
     2  N    0.074247
     3  C    1.217032
     4  C    0.334973
     5  C   -0.646290
     6  N    0.511178
     7  C    2.252304
     8  C   -0.119677
     9  C    0.038913
    10  C   -0.006503
    11  C    0.056155
    12  C   -0.174733
    13  H   -0.159248
    14  H   -0.182831
    15  H   -0.230850
    16  H   -0.243697
    17  H   -0.221447
    18  H   -0.238088
    19  H   -0.279559
    20  H   -0.316063
 Sum of Mulliken charges =  -0.00000

 Dipole moment (field-independent basis, Debye):
    X=             -0.2851    Y=              4.5430    Z=              1.1278  Tot=              4.6896

 Test job not archived.
 1\1\GINC-SE194\SP\RHF\Aug-CC-pVDZ\C10H8N2\OHZDE\05-Apr-2025\0\\#t hf a
 ug-cc-pvdz iop(5/13=1,5/36=2,99/5=2) pseudo=read geom=check guess=(rea
 d,tcheck) scf=(maxcycle=1)\\title\\0,1\C,0,0.771928,0.031892,0.002176\
 N,0,1.373089,-1.135533,-0.268058\C,0,1.517491,1.185214,0.283493\C,0,2.
 888656,1.088544,0.253045\C,0,3.435576,-0.15637,-0.042961\N,0,2.692576,
 -1.231573,-0.286051\C,0,-0.70972,0.022857,-0.000158\C,0,-1.402884,-1.1
 69419,0.234804\C,0,-2.789799,-1.189168,0.240834\C,0,-3.510661,-0.02268
 3,0.006144\C,0,-2.8326,1.165699,-0.237604\C,0,-1.444071,1.188439,-0.23

 Normal termination of Gaussian 16 at Sat Apr  5 22:50:12 2025.
