 Gaussian 16, Revision C.01,

 ----------------------------------------------------------------------
 #t hf aug-cc-pvdz symm=none int=(grid=ultrafine) guess=(read,tcheck) s
 table=(opt,rrhf)
 ----------------------------------------------------------------------
 -----
 title
 -----
 Symbolic Z-matrix:
 Charge =  0 Multiplicity = 1

 SCF Done:  E(RHF) =  -422.714023462     A.U. after   15 cycles

 1\1\GINC-SE185\Stability\RHF\Aug-CC-pVDZ\C9H12O1\OHZDE\05-Apr-2025\0\\
 #t hf aug-cc-pvdz symm=none int=(grid=ultrafine) guess=(read,tcheck) s
 table=(opt,rrhf)\\title\\0,1\C,0,-3.309215,-0.035048,-0.489887\C,0,-2.
 671442,1.180652,-0.272279\C,0,-2.629106,-1.220002,-0.231542\C,0,-1.363
 124,1.208399,0.197144\C,0,-1.321483,-1.186224,0.237822\C,0,-0.666846,0
 .027201,0.456848\C,0,0.765821,0.059305,0.929966\C,0,1.78243,-0.026705,
 -0.220241\C,0,3.223262,0.025404,0.272641\O,0,4.180079,-0.117662,-0.774
 765\H,0,-4.328143,-0.059056,-0.851886\H,0,-3.193934,2.10867,-0.463436\

 Normal termination of Gaussian 16 at Sat Apr  5 22:49:22 2025.
 Gaussian 16:  ES64L-G16RevC.01  3-Jul-2019

 ----------------------------------------------------------------------
 #t hf aug-cc-pvdz iop(5/13=1,5/36=2,99/5=2) pseudo=read geom=check gue
 ss=(read,tcheck) scf=(maxcycle=1)
 ----------------------------------------------------------------------
 -----
 title
 -----
 Structure from the checkpoint file:  "3-phenyl-1-propanol.chk"
 Charge =  0 Multiplicity = 1

                         Standard orientation:
 ---------------------------------------------------------------------
 Center     Atomic      Atomic             Coordinates (Angstroms)
 Number     Number       Type             X           Y           Z
 ---------------------------------------------------------------------
      1          6           0       -3.309215   -0.035048   -0.489887
      2          6           0       -2.671442    1.180652   -0.272279
      3          6           0       -2.629106   -1.220002   -0.231542
      4          6           0       -1.363124    1.208399    0.197144
      5          6           0       -1.321483   -1.186224    0.237822
      6          6           0       -0.666846    0.027201    0.456848
      7          6           0        0.765821    0.059305    0.929966
      8          6           0        1.782430   -0.026705   -0.220241
      9          6           0        3.223262    0.025404    0.272641
     10          8           0        4.180079   -0.117662   -0.774765
     11          1           0       -4.328143   -0.059056   -0.851886
     12          1           0       -3.193934    2.108670   -0.463436
     13          1           0       -3.118515   -2.171659   -0.391314
     14          1           0       -0.877699    2.161375    0.369864
     15          1           0       -0.803093   -2.115354    0.441580
     16          1           0        0.940283   -0.770099    1.620194
     17          1           0        0.940705    0.977696    1.495854
     18          1           0        1.606106    0.797260   -0.919162
     19          1           0        1.631807   -0.951245   -0.781323
     20          1           0        3.399381    0.953589    0.829929
     21          1           0        3.418890   -0.803311    0.954619
     22          1           0        4.081795    0.615535   -1.389632
 ---------------------------------------------------------------------

 SCF Done:  E(RHF) =  -423.158145379     A.U. after    2 cycles

 The electronic state is 1-A.
 Alpha  occ. eigenvalues --  -20.54654 -11.28388 -11.24733 -11.24250 -11.24223
 Alpha  occ. eigenvalues --  -11.24169 -11.23879 -11.23862 -11.23825 -11.23427
 Alpha  occ. eigenvalues --   -1.44365  -1.16094  -1.08094  -1.01678  -1.01318
 Alpha  occ. eigenvalues --   -0.92195  -0.83801  -0.83681  -0.80180  -0.71091
 Alpha  occ. eigenvalues --   -0.69522  -0.66097  -0.64524  -0.62581  -0.61071
 Alpha  occ. eigenvalues --   -0.59949  -0.58940  -0.56669  -0.53091  -0.51993
 Alpha  occ. eigenvalues --   -0.50612  -0.49561  -0.49297  -0.47764  -0.43876
 Alpha  occ. eigenvalues --   -0.34656  -0.33685
 Alpha virt. eigenvalues --    0.03048   0.03323   0.03676   0.03908   0.04688
 Alpha virt. eigenvalues --    0.04948   0.06318   0.06917   0.07261   0.07736
 Alpha virt. eigenvalues --    0.07846   0.10383   0.10658   0.10986   0.11135

 Mulliken charges:
               1
     1  C    0.111433
     2  C   -0.003526
     3  C   -0.026733
     4  C    0.195538
     5  C    0.189791
     6  C    1.589758
     7  C   -0.730402
     8  C   -0.342604
     9  C    0.767105
    10  O   -1.185543
    11  H   -0.224371
    12  H   -0.234371
    13  H   -0.234120
    14  H   -0.346890
    15  H   -0.359392
    16  H    0.066886
    17  H    0.058530
    18  H    0.090507
    19  H    0.144284
    20  H    0.114585
    21  H    0.057748
    22  H    0.301789
 Sum of Mulliken charges =   0.00000

 Dipole moment (field-independent basis, Debye):
    X=             -1.0298    Y=              1.1624    Z=              0.1995  Tot=              1.5657

 Test job not archived.
 1\1\GINC-SE185\SP\RHF\Aug-CC-pVDZ\C9H12O1\OHZDE\05-Apr-2025\0\\#t hf a
 ug-cc-pvdz iop(5/13=1,5/36=2,99/5=2) pseudo=read geom=check guess=(rea
 d,tcheck) scf=(maxcycle=1)\\title\\0,1\C,0,-3.309215,-0.035048,-0.4898
 87\C,0,-2.671442,1.180652,-0.272279\C,0,-2.629106,-1.220002,-0.231542\
 C,0,-1.363124,1.208399,0.197144\C,0,-1.321483,-1.186224,0.237822\C,0,-
 0.666846,0.027201,0.456848\C,0,0.765821,0.059305,0.929966\C,0,1.78243,
 -0.026705,-0.220241\C,0,3.223262,0.025404,0.272641\O,0,4.180079,-0.117
 662,-0.774765\H,0,-4.328143,-0.059056,-0.851886\H,0,-3.193934,2.10867,

 Normal termination of Gaussian 16 at Sat Apr  5 22:50:11 2025.
