 Gaussian 16, Revision C.01,

 ----------------------------------------------------------------------
 #t hf aug-cc-pvdz symm=none int=(grid=ultrafine) guess=(read,tcheck) s
 table=(opt,rrhf)
 ----------------------------------------------------------------------
 -----
 title
 -----
 Symbolic Z-matrix:
 Charge =  0 Multiplicity = 1

 SCF Done:  E(RHF) =  -321.595855128     A.U. after   15 cycles
 Normal termination of Gaussian 16 at Sat Apr  5 22:47:39 2025.
 Gaussian 16:  ES64L-G16RevC.01  3-Jul-2019

 ----------------------------------------------------------------------
 #t hf aug-cc-pvdz iop(5/13=1,5/36=2,99/5=2) pseudo=read geom=check gue
 ss=(read,tcheck) scf=(maxcycle=1)
 ----------------------------------------------------------------------
 -----
 title
 -----
 Structure from the checkpoint file:  "3-pyridinol.chk"
 Charge =  0 Multiplicity = 1

                         Standard orientation:
 ---------------------------------------------------------------------
 Center     Atomic      Atomic             Coordinates (Angstroms)
 Number     Number       Type             X           Y           Z
 ---------------------------------------------------------------------
      1          7           0       -1.199731   -1.156343    0.000000
      2          6           0       -1.178706    0.173175    0.000000
      3          6           0       -0.000000    0.918177    0.000000
      4          6           0        1.213975    0.242243    0.000000
      5          6           0        1.190617   -1.143321    0.000000
      6          6           0       -0.034471   -1.802433    0.000000
      7          8           0        0.013506    2.282556    0.000000
      8          1           0       -2.141010    0.679327    0.000000
      9          1           0        2.140074    0.800041    0.000000
     10          1           0        2.112543   -1.708300    0.000000
     11          1           0       -0.081634   -2.884350    0.000000
     12          1           0       -0.888395    2.620187    0.000000
 ---------------------------------------------------------------------

 SCF Done:  E(RHF) =  -321.921617667     A.U. after    2 cycles

 The electronic state is 1-A'.
 Alpha  occ. eigenvalues --  -20.59121 -15.51262 -11.31678 -11.28019 -11.27372
 Alpha  occ. eigenvalues --  -11.26095 -11.25538  -1.50496  -1.26388  -1.09417
 Alpha  occ. eigenvalues --   -1.03676  -0.89396  -0.87306  -0.76603  -0.73053
 Alpha  occ. eigenvalues --   -0.69240  -0.62966  -0.60909  -0.60183  -0.59019
 Alpha  occ. eigenvalues --   -0.55644  -0.53965  -0.45667  -0.40064  -0.33974
 Alpha virt. eigenvalues --    0.03225   0.03644   0.04316   0.05581   0.06078
 Alpha virt. eigenvalues --    0.07517   0.10470   0.10489   0.11165   0.12034
 Alpha virt. eigenvalues --    0.12666   0.12898   0.13206   0.13784   0.14807

 Mulliken charges:
               1
     1  N    0.895732
     2  C   -0.725069
     3  C    1.771999
     4  C    0.357253
     5  C    0.552740
     6  C   -0.789100
     7  O   -1.722148
     8  H   -0.191778
     9  H   -0.176348
    10  H   -0.185320
    11  H   -0.183179
    12  H    0.395217
 Sum of Mulliken charges =  -0.00000

 Dipole moment (field-independent basis, Debye):
    X=              1.0344    Y=              1.1585    Z=              0.0000  Tot=              1.5531

 Test job not archived.
 1\1\GINC-SE052\SP\RHF\Aug-CC-pVDZ\C5H5N1O1\OHZDE\05-Apr-2025\0\\#t hf
 aug-cc-pvdz iop(5/13=1,5/36=2,99/5=2) pseudo=read geom=check guess=(re
 ad,tcheck) scf=(maxcycle=1)\\title\\0,1\N,0,-1.199731,-1.156343,0.\C,0
 ,-1.178706,0.173175,0.\C,0,0.,0.918177,0.\C,0,1.213975,0.242243,0.\C,0
 ,1.190617,-1.143321,0.\C,0,-0.034471,-1.802433,0.\O,0,0.013506,2.28255
 6,0.\H,0,-2.14101,0.679327,0.\H,0,2.140074,0.800041,0.\H,0,2.112543,-1
 .7083,0.\H,0,-0.081634,-2.88435,0.\H,0,-0.888395,2.620187,0.\\Version=
 ES64L-G16RevC.01\State=1-A'\HF=-321.9216177\RMSD=3.275e-02\Dipole=0.40

 Normal termination of Gaussian 16 at Sat Apr  5 22:48:01 2025.
