 Gaussian 16, Revision C.01,

 ----------------------------------------------------------------------
 #t hf aug-cc-pvdz symm=none int=(grid=ultrafine) guess=(read,tcheck) s
 table=(opt,rrhf)
 ----------------------------------------------------------------------
 -----
 title
 -----
 Symbolic Z-matrix:
 Charge =  0 Multiplicity = 1

 SCF Done:  E(RHF) =  -981.941094053     A.U. after   15 cycles
 Normal termination of Gaussian 16 at Sat Apr  5 22:47:35 2025.
 Gaussian 16:  ES64L-G16RevC.01  3-Jul-2019

 ----------------------------------------------------------------------
 #t hf aug-cc-pvdz iop(5/13=1,5/36=2,99/5=2) pseudo=read geom=check gue
 ss=(read,tcheck) scf=(maxcycle=1)
 ----------------------------------------------------------------------
 -----
 title
 -----
 Structure from the checkpoint file:  "3-sulfanyl-2H-thiadiazole.chk"
 Charge =  0 Multiplicity = 1

                         Standard orientation:
 ---------------------------------------------------------------------
 Center     Atomic      Atomic             Coordinates (Angstroms)
 Number     Number       Type             X           Y           Z
 ---------------------------------------------------------------------
      1         16           0       -1.704462   -0.551936   -0.348464
      2         16           0        2.023603   -0.133580   -0.423222
      3          7           0        0.632814    0.094551    0.642941
      4          7           0       -0.297676   -0.998966    0.631752
      5          6           0       -0.067494    1.302057    0.352543
      6          6           0       -1.293811    1.155566   -0.146389
      7          1           0        2.855091   -0.564541    0.544789
      8          1           0       -0.635754   -1.053433    1.588426
      9          1           0        0.457833    2.229855    0.510423
     10          1           0       -1.961569    1.941553   -0.456436
 ---------------------------------------------------------------------

 SCF Done:  E(RHF) =  -982.248412549     A.U. after    2 cycles

 The electronic state is 1-A.
 Alpha  occ. eigenvalues --  -93.98790 -93.98781 -15.57911 -15.56549 -11.29090
 Alpha  occ. eigenvalues --  -11.27903  -8.26646  -8.26517  -6.24419  -6.24341
 Alpha  occ. eigenvalues --   -6.24290  -6.24171  -6.24004  -6.23936  -1.33685
 Alpha  occ. eigenvalues --   -1.13792  -1.09271  -0.99865  -0.88253  -0.81622
 Alpha  occ. eigenvalues --   -0.73268  -0.70377  -0.64566  -0.60995  -0.56826
 Alpha  occ. eigenvalues --   -0.51839  -0.50891  -0.47100  -0.44073  -0.38933
 Alpha  occ. eigenvalues --   -0.32319
 Alpha virt. eigenvalues --    0.03505   0.04134   0.04858   0.05574   0.07063
 Alpha virt. eigenvalues --    0.08084   0.09125   0.10245   0.11241   0.11559
 Alpha virt. eigenvalues --    0.11797   0.13587   0.14413   0.15240   0.16274

 Mulliken charges:
               1
     1  S    0.437277
     2  S    0.005783
     3  N    0.004085
     4  N   -0.479532
     5  C   -0.245340
     6  C    0.023182
     7  H    0.350343
     8  H    0.194132
     9  H   -0.133319
    10  H   -0.156609
 Sum of Mulliken charges =   0.00000

 Dipole moment (field-independent basis, Debye):
    X=             -0.2132    Y=              1.7575    Z=              0.9517  Tot=              2.0100

 Test job not archived.
 1\1\GINC-SE180\SP\RHF\Aug-CC-pVDZ\C2H4N2S2\OHZDE\05-Apr-2025\0\\#t hf
 aug-cc-pvdz iop(5/13=1,5/36=2,99/5=2) pseudo=read geom=check guess=(re
 ad,tcheck) scf=(maxcycle=1)\\title\\0,1\S,0,-1.704462,-0.551936,-0.348
 464\S,0,2.023603,-0.13358,-0.423222\N,0,0.632814,0.094551,0.642941\N,0
 ,-0.297676,-0.998966,0.631752\C,0,-0.067494,1.302057,0.352543\C,0,-1.2
 93811,1.155566,-0.146389\H,0,2.855091,-0.564541,0.544789\H,0,-0.635754
 ,-1.053433,1.588426\H,0,0.457833,2.229855,0.510423\H,0,-1.961569,1.941
 553,-0.456436\\Version=ES64L-G16RevC.01\State=1-A\HF=-982.2484125\RMSD

 Normal termination of Gaussian 16 at Sat Apr  5 22:48:01 2025.
