 Gaussian 16, Revision C.01,

 ----------------------------------------------------------------------
 #t hf aug-cc-pvdz symm=none int=(grid=ultrafine) guess=(read,tcheck) s
 table=(opt,rrhf)
 ----------------------------------------------------------------------
 -----
 title
 -----
 Symbolic Z-matrix:
 Charge =  0 Multiplicity = 1

 SCF Done:  E(RHF) =  -1019.89563700     A.U. after   15 cycles
 Normal termination of Gaussian 16 at Sat Apr  5 22:47:38 2025.
 Gaussian 16:  ES64L-G16RevC.01  3-Jul-2019

 ----------------------------------------------------------------------
 #t hf aug-cc-pvdz iop(5/13=1,5/36=2,99/5=2) pseudo=read geom=check gue
 ss=(read,tcheck) scf=(maxcycle=1)
 ----------------------------------------------------------------------
 -----
 title
 -----
 Structure from the checkpoint file:  "3-sulfanyl-1H-imidazole-2-thione.chk"
 Charge =  0 Multiplicity = 1

                         Standard orientation:
 ---------------------------------------------------------------------
 Center     Atomic      Atomic             Coordinates (Angstroms)
 Number     Number       Type             X           Y           Z
 ---------------------------------------------------------------------
      1         16           0        1.423114   -1.504034   -0.000003
      2         16           0        1.033269    1.806920    0.000000
      3          7           0       -0.098632   -0.682408    0.000000
      4          7           0       -1.561190    0.904247    0.000002
      5          6           0       -0.213029    0.685854    0.000000
      6          6           0       -1.351291   -1.279777    0.000001
      7          6           0       -2.265069   -0.285495    0.000003
      8          1           0        2.055117   -0.283371   -0.000002
      9          1           0       -1.946320    1.831521    0.000004
     10          1           0       -1.478170   -2.345481    0.000001
     11          1           0       -3.337664   -0.325202    0.000003
 ---------------------------------------------------------------------

 SCF Done:  E(RHF) =  -1020.24060026     A.U. after    2 cycles

 The electronic state is 1-A.
 Alpha  occ. eigenvalues --  -94.00452 -93.89523 -15.59439 -15.58303 -11.37912
 Alpha  occ. eigenvalues --  -11.30658 -11.30498  -8.28200  -8.17783  -6.26063
 Alpha  occ. eigenvalues --   -6.25847  -6.25581  -6.15678  -6.15290  -6.15270
 Alpha  occ. eigenvalues --   -1.39219  -1.25108  -1.10261  -1.04406  -0.97214
 Alpha  occ. eigenvalues --   -0.90329  -0.84697  -0.76848  -0.69573  -0.69229
 Alpha  occ. eigenvalues --   -0.66911  -0.63193  -0.55131  -0.55016  -0.53457
 Alpha  occ. eigenvalues --   -0.42710  -0.38486  -0.34505  -0.31006
 Alpha virt. eigenvalues --    0.02502   0.03622   0.04448   0.05333   0.08127
 Alpha virt. eigenvalues --    0.08604   0.08835   0.09089   0.09981   0.11241
 Alpha virt. eigenvalues --    0.11434   0.11963   0.13655   0.14122   0.15034

 Mulliken charges:
               1
     1  S    0.092564
     2  S    0.090338
     3  N    0.450215
     4  N    0.656286
     5  C   -1.195499
     6  C   -0.064450
     7  C   -0.165825
     8  H    0.455137
     9  H    0.014947
    10  H   -0.189291
    11  H   -0.144422
 Sum of Mulliken charges =  -0.00000

 Dipole moment (field-independent basis, Debye):
    X=             -4.1152    Y=             -2.2977    Z=              0.0000  Tot=              4.7132

 Test job not archived.
 1\1\GINC-SE115\SP\RHF\Aug-CC-pVDZ\C3H4N2S2\OHZDE\05-Apr-2025\0\\#t hf
 aug-cc-pvdz iop(5/13=1,5/36=2,99/5=2) pseudo=read geom=check guess=(re
 ad,tcheck) scf=(maxcycle=1)\\title\\0,1\S,0,1.423113,-1.504035,-0.0000
 03\S,0,1.03327,1.806919,0.\N,0,-0.098633,-0.682408,0.\N,0,-1.561189,0.
 904248,0.000002\C,0,-0.213029,0.685854,0.\C,0,-1.351292,-1.279776,0.00
 0001\C,0,-2.265069,-0.285493,0.000003\H,0,2.055117,-0.283372,-0.000002
 \H,0,-1.946319,1.831522,0.000004\H,0,-1.478172,-2.34548,0.000001\H,0,-
 3.337664,-0.3252,0.000003\\Version=ES64L-G16RevC.01\State=1-A\HF=-1020

 Normal termination of Gaussian 16 at Sat Apr  5 22:48:01 2025.
