 Gaussian 16, Revision C.01,

 ----------------------------------------------------------------------
 #t hf aug-cc-pvdz symm=none int=(grid=ultrafine) guess=(read,tcheck) s
 table=(opt,rrhf)
 ----------------------------------------------------------------------
 -----
 title
 -----
 Symbolic Z-matrix:
 Charge =  0 Multiplicity = 1

 SCF Done:  E(RHF) =  -662.036940423     A.U. after   15 cycles
 Normal termination of Gaussian 16 at Sat Apr  5 22:47:30 2025.
 Gaussian 16:  ES64L-G16RevC.01  3-Jul-2019

 ----------------------------------------------------------------------
 #t hf aug-cc-pvdz iop(5/13=1,5/36=2,99/5=2) pseudo=read geom=check gue
 ss=(read,tcheck) scf=(maxcycle=1)
 ----------------------------------------------------------------------
 -----
 title
 -----
 Structure from the checkpoint file:  "3-sulfanylideneprop-2-enoicacid.chk"
 Charge =  0 Multiplicity = 1

                         Standard orientation:
 ---------------------------------------------------------------------
 Center     Atomic      Atomic             Coordinates (Angstroms)
 Number     Number       Type             X           Y           Z
 ---------------------------------------------------------------------
      1         16           0       -2.444945    0.114711   -0.000002
      2          8           0        1.338014    1.334195    0.000002
      3          8           0        2.574349   -0.551462    0.000001
      4          6           0        1.397186    0.128744    0.000001
      5          6           0        0.265164   -0.804020    0.000000
      6          6           0       -0.982040   -0.381913    0.000000
      7          1           0        3.277153    0.114294    0.000002
      8          1           0        0.461205   -1.868401    0.000000
 ---------------------------------------------------------------------

 SCF Done:  E(RHF) =  -662.349180448     A.U. after    2 cycles

 The electronic state is 1-A.
 Alpha  occ. eigenvalues --  -93.99966 -20.61018 -20.54390 -11.41518 -11.38415
 Alpha  occ. eigenvalues --  -11.27817  -8.28234  -6.26066  -6.25782  -6.25610
 Alpha  occ. eigenvalues --   -1.55507  -1.46003  -1.16517  -1.06524  -0.89238
 Alpha  occ. eigenvalues --   -0.73648  -0.72827  -0.68941  -0.64312  -0.62642
 Alpha  occ. eigenvalues --   -0.60538  -0.53503  -0.48546  -0.47397  -0.45424
 Alpha  occ. eigenvalues --   -0.36101
 Alpha virt. eigenvalues --    0.02368   0.03453   0.04498   0.06305   0.06472
 Alpha virt. eigenvalues --    0.09425   0.10149   0.10318   0.12300   0.12470
 Alpha virt. eigenvalues --    0.13249   0.14187   0.14580   0.16518   0.17031

 Mulliken charges:
               1
     1  S    0.211929
     2  O   -1.225073
     3  O   -1.364819
     4  C    2.075872
     5  C    0.228027
     6  C   -0.296248
     7  H    0.486048
     8  H   -0.115737
 Sum of Mulliken charges =  -0.00000

 Dipole moment (field-independent basis, Debye):
    X=              0.0767    Y=             -1.9066    Z=             -0.0000  Tot=              1.9081

 Test job not archived.
 1\1\GINC-SE187\SP\RHF\Aug-CC-pVDZ\C3H2O2S1\OHZDE\05-Apr-2025\0\\#t hf
 aug-cc-pvdz iop(5/13=1,5/36=2,99/5=2) pseudo=read geom=check guess=(re
 ad,tcheck) scf=(maxcycle=1)\\title\\0,1\S,0,-2.444945,0.114711,-0.0000
 02\O,0,1.338014,1.334195,0.000002\O,0,2.574349,-0.551462,0.000001\C,0,
 1.397186,0.128744,0.000001\C,0,0.265164,-0.80402,0.\C,0,-0.98204,-0.38
 1913,0.\H,0,3.277153,0.114294,0.000002\H,0,0.461205,-1.868401,0.\\Vers
 ion=ES64L-G16RevC.01\State=1-A\HF=-662.3491804\RMSD=1.775e-02\Dipole=0
 .0301795,-0.7501103,-0.0000004\Quadrupole=4.8792962,-2.7453317,-2.1339

 Normal termination of Gaussian 16 at Sat Apr  5 22:47:59 2025.
