 Gaussian 16, Revision C.01,

 ----------------------------------------------------------------------
 #t hf aug-cc-pvdz symm=none int=(grid=ultrafine) guess=(read,tcheck) s
 table=(opt,rrhf)
 ----------------------------------------------------------------------
 -----
 title
 -----
 Symbolic Z-matrix:
 Charge =  0 Multiplicity = 1

 SCF Done:  E(RHF) =  -717.046579704     A.U. after   15 cycles
 Normal termination of Gaussian 16 at Sat Apr  5 22:48:09 2025.
 Gaussian 16:  ES64L-G16RevC.01  3-Jul-2019

 ----------------------------------------------------------------------
 #t hf aug-cc-pvdz iop(5/13=1,5/36=2,99/5=2) pseudo=read geom=check gue
 ss=(read,tcheck) scf=(maxcycle=1)
 ----------------------------------------------------------------------
 -----
 title
 -----
 Structure from the checkpoint file:  "3-thioxo-1-2-oxazolidin-5-one.chk"
 Charge =  0 Multiplicity = 1

                         Standard orientation:
 ---------------------------------------------------------------------
 Center     Atomic      Atomic             Coordinates (Angstroms)
 Number     Number       Type             X           Y           Z
 ---------------------------------------------------------------------
      1         16           0        2.388840   -0.228485   -0.065926
      2          8           0       -1.264798    1.114379   -0.020009
      3          8           0       -2.745689   -0.568829   -0.105351
      4          7           0        0.144946    1.180968    0.131545
      5          6           0        0.766882   -0.013837    0.054715
      6          6           0       -1.610527   -0.229493   -0.016169
      7          6           0       -0.337581   -1.036321    0.118536
      8          1           0        0.526739    2.051909   -0.206611
      9          1           0       -0.336392   -1.568271    1.071151
     10          1           0       -0.255164   -1.781153   -0.670150
 ---------------------------------------------------------------------

 SCF Done:  E(RHF) =  -717.417271780     A.U. after    2 cycles

 The electronic state is 1-A.
 Alpha  occ. eigenvalues --  -93.93278 -20.66725 -20.57930 -15.63806 -11.43647
 Alpha  occ. eigenvalues --  -11.39493 -11.31184  -8.21533  -6.19399  -6.19089
 Alpha  occ. eigenvalues --   -6.18954  -1.61006  -1.51553  -1.26960  -1.12388
 Alpha  occ. eigenvalues --   -1.03273  -0.91202  -0.84596  -0.77499  -0.74305
 Alpha  occ. eigenvalues --   -0.69642  -0.67301  -0.63982  -0.63315  -0.59657
 Alpha  occ. eigenvalues --   -0.56540  -0.49188  -0.48317  -0.38265  -0.36782
 Alpha virt. eigenvalues --    0.02821   0.03656   0.04420   0.05747   0.07177
 Alpha virt. eigenvalues --    0.08264   0.09173   0.10514   0.10780   0.12346
 Alpha virt. eigenvalues --    0.13212   0.13450   0.14225   0.14440   0.16077

 Mulliken charges:
               1
     1  S    0.216005
     2  O   -1.389893
     3  O   -1.223380
     4  N    1.290139
     5  C   -0.847457
     6  C    1.960420
     7  C   -0.720001
     8  H    0.083369
     9  H    0.340364
    10  H    0.290433
 Sum of Mulliken charges =   0.00000

 Dipole moment (field-independent basis, Debye):
    X=              0.1179    Y=              0.2668    Z=             -0.0517  Tot=              0.2962

 Test job not archived.
 1\1\GINC-SE196\SP\RHF\Aug-CC-pVDZ\C3H3N1O2S1\OHZDE\05-Apr-2025\0\\#t h
 f aug-cc-pvdz iop(5/13=1,5/36=2,99/5=2) pseudo=read geom=check guess=(
 read,tcheck) scf=(maxcycle=1)\\title\\0,1\S,0,2.38884,-0.228485,-0.065
 926\O,0,-1.264798,1.114379,-0.020009\O,0,-2.745689,-0.568829,-0.105351
 \N,0,0.144946,1.180968,0.131545\C,0,0.766882,-0.013837,0.054715\C,0,-1
 .610527,-0.229493,-0.016169\C,0,-0.337581,-1.036321,0.118536\H,0,0.526
 739,2.051909,-0.206611\H,0,-0.336392,-1.568271,1.071151\H,0,-0.255164,
 -1.781153,-0.67015\\Version=ES64L-G16RevC.01\State=1-A\HF=-717.4172718

 Normal termination of Gaussian 16 at Sat Apr  5 22:48:14 2025.
