 Gaussian 16, Revision C.01,

 ----------------------------------------------------------------------
 #t hf aug-cc-pvdz symm=none int=(grid=ultrafine) guess=(read,tcheck) s
 table=(opt,rrhf)
 ----------------------------------------------------------------------
 -----
 title
 -----
 Symbolic Z-matrix:
 Charge =  0 Multiplicity = 1

 SCF Done:  E(RHF) =  -321.570336320     A.U. after   15 cycles
 Normal termination of Gaussian 16 at Sat Apr  5 22:48:12 2025.
 Gaussian 16:  ES64L-G16RevC.01  3-Jul-2019

 ----------------------------------------------------------------------
 #t hf aug-cc-pvdz iop(5/13=1,5/36=2,99/5=2) pseudo=read geom=check gue
 ss=(read,tcheck) scf=(maxcycle=1)
 ----------------------------------------------------------------------
 -----
 title
 -----
 Structure from the checkpoint file:  "32H-pyridinone.chk"
 Charge =  0 Multiplicity = 1

                         Standard orientation:
 ---------------------------------------------------------------------
 Center     Atomic      Atomic             Coordinates (Angstroms)
 Number     Number       Type             X           Y           Z
 ---------------------------------------------------------------------
      1          7           0        1.200532   -1.192190    0.000009
      2          6           0       -0.248247   -1.251538    0.000100
      3          6           0       -1.059500    0.036614    0.000061
      4          6           0       -0.288709    1.286859    0.000113
      5          6           0        1.051418    1.235550   -0.000006
      6          6           0        1.757680   -0.047837   -0.000095
      7          8           0       -2.276005    0.018306   -0.000145
      8          1           0       -0.559635   -1.846968    0.864275
      9          1           0       -0.843315    2.215844    0.000201
     10          1           0        1.646021    2.141077   -0.000054
     11          1           0        2.845073   -0.022117   -0.000226
     12          1           0       -0.559677   -1.846841   -0.864144
 ---------------------------------------------------------------------

 SCF Done:  E(RHF) =  -321.893345362     A.U. after    2 cycles

 The electronic state is 1-A.
 Alpha  occ. eigenvalues --  -20.54117 -15.52647 -11.34968 -11.30646 -11.29057
 Alpha  occ. eigenvalues --  -11.28210 -11.27510  -1.47324  -1.26708  -1.10490
 Alpha  occ. eigenvalues --   -1.03427  -0.90438  -0.85170  -0.74283  -0.71994
 Alpha  occ. eigenvalues --   -0.68267  -0.65138  -0.61969  -0.61679  -0.57945
 Alpha  occ. eigenvalues --   -0.53044  -0.50069  -0.49469  -0.41029  -0.39113
 Alpha virt. eigenvalues --    0.02473   0.02661   0.03856   0.04542   0.05654
 Alpha virt. eigenvalues --    0.05841   0.08952   0.09751   0.10495   0.11743
 Alpha virt. eigenvalues --    0.12740   0.13039   0.13539   0.13982   0.14773

 Mulliken charges:
               1
     1  N    0.929928
     2  C   -0.645596
     3  C    0.860958
     4  C    0.484327
     5  C    0.763157
     6  C   -0.974306
     7  O   -1.437425
     8  H    0.259238
     9  H   -0.184507
    10  H   -0.162856
    11  H   -0.152266
    12  H    0.259347
 Sum of Mulliken charges =  -0.00000

 Dipole moment (field-independent basis, Debye):
    X=              2.7942    Y=              2.3213    Z=              0.0003  Tot=              3.6327

 Test job not archived.
 1\1\GINC-SE226\SP\RHF\Aug-CC-pVDZ\C5H5N1O1\OHZDE\05-Apr-2025\0\\#t hf
 aug-cc-pvdz iop(5/13=1,5/36=2,99/5=2) pseudo=read geom=check guess=(re
 ad,tcheck) scf=(maxcycle=1)\\title\\0,1\N,0,1.200532,-1.19219,0.000009
 \C,0,-0.248247,-1.251538,0.0001\C,0,-1.0595,0.036614,0.000061\C,0,-0.2
 88709,1.286859,0.000113\C,0,1.051418,1.23555,-0.000006\C,0,1.75768,-0.
 047837,-0.000095\O,0,-2.276005,0.018306,-0.000145\H,0,-0.559635,-1.846
 968,0.864275\H,0,-0.843315,2.215844,0.000201\H,0,1.646021,2.141077,-0.
 000054\H,0,2.845073,-0.022117,-0.000226\H,0,-0.559677,-1.846841,-0.864

 Normal termination of Gaussian 16 at Sat Apr  5 22:48:17 2025.
