 Gaussian 16, Revision C.01,

 ----------------------------------------------------------------------
 #t hf aug-cc-pvdz symm=none int=(grid=ultrafine) guess=(read,tcheck) s
 table=(opt,rrhf)
 ----------------------------------------------------------------------
 -----
 title
 -----
 Symbolic Z-matrix:
 Charge =  0 Multiplicity = 1

 SCF Done:  E(RHF) =  -321.564740181     A.U. after   15 cycles
 Normal termination of Gaussian 16 at Sat Apr  5 22:47:39 2025.
 Gaussian 16:  ES64L-G16RevC.01  3-Jul-2019

 ----------------------------------------------------------------------
 #t hf aug-cc-pvdz iop(5/13=1,5/36=2,99/5=2) pseudo=read geom=check gue
 ss=(read,tcheck) scf=(maxcycle=1)
 ----------------------------------------------------------------------
 -----
 title
 -----
 Structure from the checkpoint file:  "34H-pyridinone.chk"
 Charge =  0 Multiplicity = 1

                         Standard orientation:
 ---------------------------------------------------------------------
 Center     Atomic      Atomic             Coordinates (Angstroms)
 Number     Number       Type             X           Y           Z
 ---------------------------------------------------------------------
      1          7           0        1.003702   -1.321515   -0.000044
      2          6           0       -0.274008   -1.255389    0.000230
      3          6           0       -1.057493    0.010593    0.000105
      4          6           0       -0.250299    1.293437    0.000138
      5          6           0        1.227716    1.089202    0.000005
      6          6           0        1.758426   -0.135993   -0.000177
      7          8           0       -2.271435   -0.003688   -0.000258
      8          1           0       -0.853456   -2.175087    0.000425
      9          1           0       -0.562854    1.887548   -0.865857
     10          1           0        1.870338    1.960254    0.000050
     11          1           0        2.828067   -0.291154   -0.000357
     12          1           0       -0.562581    1.887450    0.866314
 ---------------------------------------------------------------------

 SCF Done:  E(RHF) =  -321.887436859     A.U. after    2 cycles

 The electronic state is 1-A.
 Alpha  occ. eigenvalues --  -20.55643 -15.53919 -11.35884 -11.30426 -11.28288
 Alpha  occ. eigenvalues --  -11.27140 -11.26934  -1.48709  -1.27627  -1.09980
 Alpha  occ. eigenvalues --   -1.02892  -0.90870  -0.86245  -0.74241  -0.71620
 Alpha  occ. eigenvalues --   -0.68249  -0.64651  -0.63406  -0.60601  -0.56147
 Alpha  occ. eigenvalues --   -0.54804  -0.51780  -0.50934  -0.41914  -0.36706
 Alpha virt. eigenvalues --    0.02409   0.02903   0.04032   0.04580   0.04736
 Alpha virt. eigenvalues --    0.05554   0.08879   0.10110   0.10633   0.12240
 Alpha virt. eigenvalues --    0.12632   0.13049   0.13202   0.14156   0.15043

 Mulliken charges:
               1
     1  N    0.983274
     2  C   -0.852929
     3  C    1.332173
     4  C   -0.639148
     5  C    0.791989
     6  C   -0.446184
     7  O   -1.388917
     8  H   -0.084997
     9  H    0.313248
    10  H   -0.152454
    11  H   -0.169398
    12  H    0.313344
 Sum of Mulliken charges =   0.00000

 Dipole moment (field-independent basis, Debye):
    X=              1.5889    Y=              2.2051    Z=              0.0011  Tot=              2.7179

 Test job not archived.
 1\1\GINC-SE225\SP\RHF\Aug-CC-pVDZ\C5H5N1O1\OHZDE\05-Apr-2025\0\\#t hf
 aug-cc-pvdz iop(5/13=1,5/36=2,99/5=2) pseudo=read geom=check guess=(re
 ad,tcheck) scf=(maxcycle=1)\\title\\0,1\N,0,1.003702,-1.321515,-0.0000
 44\C,0,-0.274008,-1.255389,0.00023\C,0,-1.057493,0.010593,0.000105\C,0
 ,-0.250299,1.293437,0.000138\C,0,1.227716,1.089202,0.000005\C,0,1.7584
 26,-0.135993,-0.000177\O,0,-2.271435,-0.003688,-0.000258\H,0,-0.853456
 ,-2.175087,0.000425\H,0,-0.562854,1.887548,-0.865857\H,0,1.870338,1.96
 0254,0.00005\H,0,2.828067,-0.291154,-0.000357\H,0,-0.562581,1.88745,0.

 Normal termination of Gaussian 16 at Sat Apr  5 22:48:00 2025.
