 Gaussian 16, Revision C.01,

 ----------------------------------------------------------------------
 #t hf aug-cc-pvdz symm=none int=(grid=ultrafine) guess=(read,tcheck) s
 table=(opt,rrhf)
 ----------------------------------------------------------------------
 -----
 title
 -----
 Symbolic Z-matrix:
 Charge =  0 Multiplicity = 1

 SCF Done:  E(RHF) =  -321.571709109     A.U. after   15 cycles
 Normal termination of Gaussian 16 at Sat Apr  5 22:48:13 2025.
 Gaussian 16:  ES64L-G16RevC.01  3-Jul-2019

 ----------------------------------------------------------------------
 #t hf aug-cc-pvdz iop(5/13=1,5/36=2,99/5=2) pseudo=read geom=check gue
 ss=(read,tcheck) scf=(maxcycle=1)
 ----------------------------------------------------------------------
 -----
 title
 -----
 Structure from the checkpoint file:  "36H-pyridinone.chk"
 Charge =  0 Multiplicity = 1

                         Standard orientation:
 ---------------------------------------------------------------------
 Center     Atomic      Atomic             Coordinates (Angstroms)
 Number     Number       Type             X           Y           Z
 ---------------------------------------------------------------------
      1          7           0       -1.271596   -1.030212    0.000000
      2          6           0       -1.236096    0.239527    0.000000
      3          6           0        0.000000    1.085157    0.000000
      4          6           0        1.263984    0.348634    0.000000
      5          6           0        1.244327   -0.987977    0.000000
      6          6           0       -0.025532   -1.764497    0.000000
      7          8           0       -0.082178    2.301599    0.000000
      8          1           0       -2.173830    0.792159    0.000000
      9          1           0        2.180630    0.923062    0.000000
     10          1           0        2.167680   -1.557260    0.000000
     11          1           0       -0.047988   -2.442167    0.862672
     12          1           0       -0.047988   -2.442167   -0.862672
 ---------------------------------------------------------------------

 SCF Done:  E(RHF) =  -321.894422358     A.U. after    2 cycles

 The electronic state is 1-A'.
 Alpha  occ. eigenvalues --  -20.54670 -15.53508 -11.35053 -11.30024 -11.29565
 Alpha  occ. eigenvalues --  -11.29003 -11.26210  -1.47524  -1.27197  -1.10916
 Alpha  occ. eigenvalues --   -1.03058  -0.88892  -0.87504  -0.73879  -0.72063
 Alpha  occ. eigenvalues --   -0.68273  -0.65326  -0.63057  -0.60122  -0.57971
 Alpha  occ. eigenvalues --   -0.55930  -0.50220  -0.46782  -0.41462  -0.39855
 Alpha virt. eigenvalues --    0.02628   0.03897   0.04599   0.04670   0.04941
 Alpha virt. eigenvalues --    0.05632   0.09160   0.09223   0.09672   0.11736
 Alpha virt. eigenvalues --    0.12152   0.12220   0.13279   0.13859   0.14838

 Mulliken charges:
               1
     1  N    0.908316
     2  C   -0.826807
     3  C    1.195593
     4  C    0.654844
     5  C    0.087567
     6  C   -0.615943
     7  O   -1.429365
     8  H   -0.100717
     9  H   -0.177753
    10  H   -0.145120
    11  H    0.224692
    12  H    0.224692
 Sum of Mulliken charges =  -0.00000

 Dipole moment (field-independent basis, Debye):
    X=              2.1346    Y=             -2.9649    Z=             -0.0000  Tot=              3.6534

 Test job not archived.
 1\1\GINC-SE232\SP\RHF\Aug-CC-pVDZ\C5H5N1O1\OHZDE\05-Apr-2025\0\\#t hf
 aug-cc-pvdz iop(5/13=1,5/36=2,99/5=2) pseudo=read geom=check guess=(re
 ad,tcheck) scf=(maxcycle=1)\\title\\0,1\N,0,-1.271596,-1.030212,0.\C,0
 ,-1.236096,0.239527,0.\C,0,0.,1.085157,0.\C,0,1.263984,0.348634,0.\C,0
 ,1.244327,-0.987977,0.\C,0,-0.025532,-1.764497,0.\O,0,-0.082178,2.3015
 99,0.\H,0,-2.17383,0.792159,0.\H,0,2.18063,0.923062,0.\H,0,2.16768,-1.
 55726,0.\H,0,-0.047988,-2.442167,0.862672\H,0,-0.047988,-2.442167,-0.8
 62672\\Version=ES64L-G16RevC.01\State=1-A'\HF=-321.8944224\RMSD=2.827e

 Normal termination of Gaussian 16 at Sat Apr  5 22:48:18 2025.
