 Gaussian 16, Revision C.01,

 ----------------------------------------------------------------------
 #t hf aug-cc-pvdz symm=none int=(grid=ultrafine) guess=(read,tcheck) s
 table=(opt,rrhf)
 ----------------------------------------------------------------------
 -----
 title
 -----
 Symbolic Z-matrix:
 Charge =  0 Multiplicity = 1

 SCF Done:  E(RHF) =  -233.024287157     A.U. after   13 cycles
 Normal termination of Gaussian 16 at Sat Apr  5 22:47:50 2025.
 Gaussian 16:  ES64L-G16RevC.01  3-Jul-2019

 ----------------------------------------------------------------------
 #t hf aug-cc-pvdz iop(5/13=1,5/36=2,99/5=2) pseudo=read geom=check gue
 ss=(read,tcheck) scf=(maxcycle=1)
 ----------------------------------------------------------------------
 -----
 title
 -----
 Structure from the checkpoint file:  "3E-2-methyl-1-3-pentadiene.chk"
 Charge =  0 Multiplicity = 1

                         Standard orientation:
 ---------------------------------------------------------------------
 Center     Atomic      Atomic             Coordinates (Angstroms)
 Number     Number       Type             X           Y           Z
 ---------------------------------------------------------------------
      1          6           0        2.066444   -1.078567   -0.000000
      2          6           0        1.117232   -0.133948    0.000001
      3          6           0       -0.293736   -0.518951    0.000015
      4          6           0       -1.341106    0.310850    0.000031
      5          6           0       -2.772365   -0.122358   -0.000019
      6          6           0        1.473859    1.328371   -0.000012
      7          1           0        3.118414   -0.827682   -0.000025
      8          1           0        1.813394   -2.130884    0.000014
      9          1           0       -0.482710   -1.588989   -0.000013
     10          1           0       -1.170199    1.382350    0.000073
     11          1           0       -2.863802   -1.208498   -0.000060
     12          1           0       -3.301379    0.263852    0.875706
     13          1           0       -3.301329    0.263911   -0.875747
     14          1           0        1.065954    1.834129   -0.878047
     15          1           0        1.066119    1.834099    0.878118
     16          1           0        2.553575    1.465330   -0.000111
 ---------------------------------------------------------------------

 SCF Done:  E(RHF) =  -233.278727241     A.U. after    2 cycles

 The electronic state is 1-A.
 Alpha  occ. eigenvalues --  -11.24601 -11.23995 -11.23278 -11.23190 -11.22883
 Alpha  occ. eigenvalues --  -11.22439  -1.11249  -1.04376  -0.94104  -0.93288
 Alpha  occ. eigenvalues --   -0.79272  -0.72707  -0.65831  -0.62923  -0.58106
 Alpha  occ. eigenvalues --   -0.57383  -0.57027  -0.55518  -0.52789  -0.51779
 Alpha  occ. eigenvalues --   -0.48666  -0.42263  -0.31793
 Alpha virt. eigenvalues --    0.03592   0.03838   0.03950   0.04828   0.05551
 Alpha virt. eigenvalues --    0.05711   0.06835   0.08215   0.08336   0.08866
 Alpha virt. eigenvalues --    0.10228   0.11612   0.12530   0.13718   0.14270

 Mulliken charges:
               1
     1  C    0.129335
     2  C    0.167863
     3  C    0.932825
     4  C   -0.092565
     5  C   -0.838336
     6  C   -0.628299
     7  H   -0.189272
     8  H   -0.175358
     9  H   -0.247555
    10  H   -0.268909
    11  H    0.090387
    12  H    0.248586
    13  H    0.248582
    14  H    0.315403
    15  H    0.315407
    16  H   -0.008095
 Sum of Mulliken charges =   0.00000

 Dipole moment (field-independent basis, Debye):
    X=             -0.5218    Y=              0.4299    Z=             -0.0000  Tot=              0.6761

 Test job not archived.
 1\1\GINC-SE198\SP\RHF\Aug-CC-pVDZ\C6H10\OHZDE\05-Apr-2025\0\\#t hf aug
 -cc-pvdz iop(5/13=1,5/36=2,99/5=2) pseudo=read geom=check guess=(read,
 tcheck) scf=(maxcycle=1)\\title\\0,1\C,0,2.066444,-1.078567,0.\C,0,1.1
 17232,-0.133948,0.000001\C,0,-0.293736,-0.518951,0.000015\C,0,-1.34110
 6,0.31085,0.000031\C,0,-2.772365,-0.122358,-0.000019\C,0,1.473859,1.32
 8371,-0.000012\H,0,3.118414,-0.827682,-0.000025\H,0,1.813394,-2.130884
 ,0.000014\H,0,-0.48271,-1.588989,-0.000013\H,0,-1.170199,1.38235,0.000
 073\H,0,-2.863802,-1.208498,-0.00006\H,0,-3.301379,0.263852,0.875706\H

 Normal termination of Gaussian 16 at Sat Apr  5 22:48:01 2025.
