 Gaussian 16, Revision C.01,

 ----------------------------------------------------------------------
 #t hf aug-cc-pvdz symm=none int=(grid=ultrafine) guess=(read,tcheck) s
 table=(opt,rrhf)
 ----------------------------------------------------------------------
 -----
 title
 -----
 Symbolic Z-matrix:
 Charge =  0 Multiplicity = 1

 SCF Done:  E(RHF) =  -233.020531600     A.U. after   14 cycles
 Normal termination of Gaussian 16 at Sat Apr  5 22:47:52 2025.
 Gaussian 16:  ES64L-G16RevC.01  3-Jul-2019

 ----------------------------------------------------------------------
 #t hf aug-cc-pvdz iop(5/13=1,5/36=2,99/5=2) pseudo=read geom=check gue
 ss=(read,tcheck) scf=(maxcycle=1)
 ----------------------------------------------------------------------
 -----
 title
 -----
 Structure from the checkpoint file:  "3E-3-methyl-1-3-pentadiene.chk"
 Charge =  0 Multiplicity = 1

                         Standard orientation:
 ---------------------------------------------------------------------
 Center     Atomic      Atomic             Coordinates (Angstroms)
 Number     Number       Type             X           Y           Z
 ---------------------------------------------------------------------
      1          6           0        2.526085   -0.224091   -0.000065
      2          6           0        1.294342   -0.739554    0.000012
      3          6           0        0.034400    0.006499   -0.000010
      4          6           0       -1.115939   -0.688795    0.000099
      5          6           0       -2.521058   -0.179706    0.000118
      6          6           0        0.114883    1.508528   -0.000144
      7          1           0        3.396043   -0.865751   -0.000039
      8          1           0        2.711374    0.841312   -0.000153
      9          1           0        1.189188   -1.820097    0.000100
     10          1           0       -1.028922   -1.771727    0.000189
     11          1           0       -3.063558   -0.549262    0.875060
     12          1           0       -2.589482    0.905588   -0.000006
     13          1           0       -3.063659   -0.549470   -0.874672
     14          1           0        0.658431    1.866471   -0.877450
     15          1           0       -0.864162    1.979015   -0.000164
     16          1           0        0.658474    1.866628    0.877071
 ---------------------------------------------------------------------

 SCF Done:  E(RHF) =  -233.275062836     A.U. after    2 cycles

 The electronic state is 1-A.
 Alpha  occ. eigenvalues --  -11.24015 -11.23898 -11.23749 -11.23271 -11.22766
 Alpha  occ. eigenvalues --  -11.22756  -1.11442  -1.02888  -0.97335  -0.91539
 Alpha  occ. eigenvalues --   -0.79263  -0.71768  -0.67143  -0.62626  -0.58588
 Alpha  occ. eigenvalues --   -0.58159  -0.56377  -0.54709  -0.53185  -0.51751
 Alpha  occ. eigenvalues --   -0.48333  -0.42373  -0.31653
 Alpha virt. eigenvalues --    0.03527   0.03851   0.04046   0.05112   0.05444
 Alpha virt. eigenvalues --    0.05575   0.06498   0.08261   0.08548   0.09806
 Alpha virt. eigenvalues --    0.10329   0.11702   0.12533   0.13838   0.14475

 Mulliken charges:
               1
     1  C   -0.080299
     2  C    0.477610
     3  C    0.619066
     4  C   -0.091211
     5  C   -0.706280
     6  C   -0.652290
     7  H   -0.180585
     8  H   -0.169985
     9  H   -0.304306
    10  H   -0.253290
    11  H    0.274091
    12  H    0.095944
    13  H    0.274079
    14  H    0.361025
    15  H   -0.024594
    16  H    0.361025
 Sum of Mulliken charges =   0.00000

 Dipole moment (field-independent basis, Debye):
    X=             -0.6928    Y=              0.1659    Z=              0.0000  Tot=              0.7124

 Test job not archived.
 1\1\GINC-SE199\SP\RHF\Aug-CC-pVDZ\C6H10\OHZDE\05-Apr-2025\0\\#t hf aug
 -cc-pvdz iop(5/13=1,5/36=2,99/5=2) pseudo=read geom=check guess=(read,
 tcheck) scf=(maxcycle=1)\\title\\0,1\C,0,2.526085,-0.224091,-0.000065\
 C,0,1.294342,-0.739554,0.000012\C,0,0.0344,0.006499,-0.00001\C,0,-1.11
 5939,-0.688795,0.000099\C,0,-2.521058,-0.179706,0.000118\C,0,0.114883,
 1.508528,-0.000144\H,0,3.396043,-0.865751,-0.000039\H,0,2.711374,0.841
 312,-0.000153\H,0,1.189188,-1.820097,0.0001\H,0,-1.028922,-1.771727,0.
 000189\H,0,-3.063558,-0.549262,0.87506\H,0,-2.589482,0.905588,-0.00000

 Normal termination of Gaussian 16 at Sat Apr  5 22:48:01 2025.
