 Gaussian 16, Revision C.01,

 ----------------------------------------------------------------------
 #t hf aug-cc-pvdz symm=none int=(grid=ultrafine) guess=(read,tcheck) s
 table=(opt,rrhf)
 ----------------------------------------------------------------------
 -----
 title
 -----
 Symbolic Z-matrix:
 Charge =  0 Multiplicity = 1

 SCF Done:  E(RHF) =  -982.031269933     A.U. after   15 cycles
 Normal termination of Gaussian 16 at Sat Apr  5 22:47:34 2025.
 Gaussian 16:  ES64L-G16RevC.01  3-Jul-2019

 ----------------------------------------------------------------------
 #t hf aug-cc-pvdz iop(5/13=1,5/36=2,99/5=2) pseudo=read geom=check gue
 ss=(read,tcheck) scf=(maxcycle=1)
 ----------------------------------------------------------------------
 -----
 title
 -----
 Structure from the checkpoint file:  "3H-1-2-4-dithiazol-3-amine.chk"
 Charge =  0 Multiplicity = 1

                         Standard orientation:
 ---------------------------------------------------------------------
 Center     Atomic      Atomic             Coordinates (Angstroms)
 Number     Number       Type             X           Y           Z
 ---------------------------------------------------------------------
      1         16           0       -0.028479   -1.298792    0.113208
      2         16           0       -1.706091   -0.067083   -0.155054
      3          7           0        0.494117    1.411130    0.230341
      4          7           0        2.316910   -0.066084   -0.430930
      5          6           0        1.182581    0.157135    0.412230
      6          6           0       -0.739922    1.410171   -0.021635
      7          1           0        2.101161    0.113195   -1.403505
      8          1           0        3.105494    0.503334   -0.149239
      9          1           0        1.509307    0.087909    1.449130
     10          1           0       -1.295978    2.330405   -0.166289
 ---------------------------------------------------------------------

 SCF Done:  E(RHF) =  -982.342496784     A.U. after    2 cycles

 The electronic state is 1-A.
 Alpha  occ. eigenvalues --  -93.99074 -93.97358 -15.52453 -15.50972 -11.35436
 Alpha  occ. eigenvalues --  -11.34363  -8.27214  -8.25388  -6.24977  -6.24839
 Alpha  occ. eigenvalues --   -6.24548  -6.23164  -6.22967  -6.22699  -1.29525
 Alpha  occ. eigenvalues --   -1.20175  -1.09109  -1.00589  -0.87377  -0.81454
 Alpha  occ. eigenvalues --   -0.73636  -0.69336  -0.67884  -0.63571  -0.53099
 Alpha  occ. eigenvalues --   -0.51317  -0.49280  -0.47577  -0.44934  -0.43253
 Alpha  occ. eigenvalues --   -0.33410
 Alpha virt. eigenvalues --    0.03274   0.04231   0.05358   0.06216   0.06816
 Alpha virt. eigenvalues --    0.07344   0.08707   0.09941   0.10733   0.11844
 Alpha virt. eigenvalues --    0.12725   0.13467   0.14053   0.14420   0.15314

 Mulliken charges:
               1
     1  S    0.269559
     2  S    0.231338
     3  N    0.893302
     4  N    0.362803
     5  C   -1.457728
     6  C   -0.757240
     7  H    0.172609
     8  H    0.216068
     9  H    0.065724
    10  H    0.003564
 Sum of Mulliken charges =  -0.00000

 Dipole moment (field-independent basis, Debye):
    X=             -0.0626    Y=              1.6516    Z=             -0.2261  Tot=              1.6682

 Test job not archived.
 1\1\GINC-SE045\SP\RHF\Aug-CC-pVDZ\C2H4N2S2\OHZDE\05-Apr-2025\0\\#t hf
 aug-cc-pvdz iop(5/13=1,5/36=2,99/5=2) pseudo=read geom=check guess=(re
 ad,tcheck) scf=(maxcycle=1)\\title\\0,1\S,0,-0.028479,-1.298792,0.1132
 08\S,0,-1.706091,-0.067083,-0.155054\N,0,0.494117,1.41113,0.230341\N,0
 ,2.31691,-0.066084,-0.43093\C,0,1.182581,0.157135,0.41223\C,0,-0.73992
 2,1.410171,-0.021635\H,0,2.101161,0.113195,-1.403505\H,0,3.105494,0.50
 3334,-0.149239\H,0,1.509307,0.087909,1.44913\H,0,-1.295978,2.330405,-0
 .166289\\Version=ES64L-G16RevC.01\State=1-A\HF=-982.3424968\RMSD=1.262

 Normal termination of Gaussian 16 at Sat Apr  5 22:48:00 2025.
