 Gaussian 16, Revision C.01,

 ----------------------------------------------------------------------
 #t hf aug-cc-pvdz symm=none int=(grid=ultrafine) guess=(read,tcheck) s
 table=(opt,rrhf)
 ----------------------------------------------------------------------
 -----
 title
 -----
 Symbolic Z-matrix:
 Charge =  0 Multiplicity = 1

 SCF Done:  E(RHF) =  -1094.45168881     A.U. after   19 cycles
 Normal termination of Gaussian 16 at Sat Apr  5 22:49:09 2025.
 Gaussian 16:  ES64L-G16RevC.01  3-Jul-2019

 ----------------------------------------------------------------------
 #t hf aug-cc-pvdz iop(5/13=1,5/36=2,99/5=2) pseudo=read geom=check gue
 ss=(read,tcheck) scf=(maxcycle=1)
 ----------------------------------------------------------------------
 -----
 title
 -----
 Structure from the checkpoint file:  "3H-1-2-dithiole-4-5-dicarbonitrile.chk"
 Charge =  0 Multiplicity = 1

                         Standard orientation:
 ---------------------------------------------------------------------
 Center     Atomic      Atomic             Coordinates (Angstroms)
 Number     Number       Type             X           Y           Z
 ---------------------------------------------------------------------
      1         16           0       -1.222640    1.296701    0.169140
      2         16           0       -2.161882   -0.546051   -0.275063
      3          7           0        2.326633    2.291014   -0.116594
      4          7           0        2.731829   -2.027824   -0.080487
      5          6           0        0.395120    0.601936    0.030052
      6          6           0        0.511175   -0.743969    0.062000
      7          6           0       -0.745707   -1.549818    0.310030
      8          6           0        1.476896    1.515274   -0.054572
      9          6           0        1.752199   -1.421097   -0.020140
     10          1           0       -0.759980   -2.475318   -0.261951
     11          1           0       -0.835001   -1.791373    1.372058
 ---------------------------------------------------------------------

 SCF Done:  E(RHF) =  -1094.85680635     A.U. after    2 cycles

 The electronic state is 1-A.
 Alpha  occ. eigenvalues --  -94.03361 -94.02029 -15.55941 -15.55230 -11.37626
 Alpha  occ. eigenvalues --  -11.35133 -11.33959 -11.32153 -11.31580  -8.31336
 Alpha  occ. eigenvalues --   -8.29975  -6.29099  -6.28962  -6.28650  -6.27757
 Alpha  occ. eigenvalues --   -6.27589  -6.27290  -1.28132  -1.26830  -1.22928
 Alpha  occ. eigenvalues --   -1.10042  -1.08866  -0.92277  -0.89980  -0.84008
 Alpha  occ. eigenvalues --   -0.69136  -0.67364  -0.65249  -0.64271  -0.61616
 Alpha  occ. eigenvalues --   -0.59841  -0.56533  -0.55426  -0.53827  -0.53012
 Alpha  occ. eigenvalues --   -0.51163  -0.50017  -0.42893  -0.36336
 Alpha virt. eigenvalues --   -0.00474   0.02487   0.03435   0.04193   0.04920
 Alpha virt. eigenvalues --    0.06832   0.07697   0.08169   0.09026   0.09677
 Alpha virt. eigenvalues --    0.10175   0.11207   0.11570   0.12607   0.13458

 Mulliken charges:
               1
     1  S    0.044062
     2  S    0.359675
     3  N    1.124226
     4  N    1.193918
     5  C    1.327428
     6  C    2.322132
     7  C   -0.592985
     8  C   -3.177250
     9  C   -3.183374
    10  H    0.276886
    11  H    0.305281
 Sum of Mulliken charges =  -0.00000

 Dipole moment (field-independent basis, Debye):
    X=             -5.7126    Y=             -1.8512    Z=              0.8753  Tot=              6.0685

 Test job not archived.
 1\1\GINC-SE036\SP\RHF\Aug-CC-pVDZ\C5H2N2S2\OHZDE\05-Apr-2025\0\\#t hf
 aug-cc-pvdz iop(5/13=1,5/36=2,99/5=2) pseudo=read geom=check guess=(re
 ad,tcheck) scf=(maxcycle=1)\\title\\0,1\S,0,-1.22264,1.296701,0.16914\
 S,0,-2.161882,-0.546051,-0.275063\N,0,2.326633,2.291015,-0.116594\N,0,
 2.731829,-2.027823,-0.080487\C,0,0.39512,0.601936,0.030052\C,0,0.51117
 5,-0.743969,0.062\C,0,-0.745707,-1.549818,0.31003\C,0,1.476896,1.51527
 4,-0.054572\C,0,1.752199,-1.421097,-0.02014\H,0,-0.75998,-2.475318,-0.
 261951\H,0,-0.835001,-1.791373,1.372058\\Version=ES64L-G16RevC.01\Stat

 Normal termination of Gaussian 16 at Sat Apr  5 22:50:05 2025.
