 Gaussian 16, Revision C.01,

 ----------------------------------------------------------------------
 #t hf aug-cc-pvdz symm=none int=(grid=ultrafine) guess=(read,tcheck) s
 table=(opt,rrhf)
 ----------------------------------------------------------------------
 -----
 title
 -----
 Symbolic Z-matrix:
 Charge =  0 Multiplicity = 1

 SCF Done:  E(RHF) =  -604.262123361     A.U. after   15 cycles
 Normal termination of Gaussian 16 at Sat Apr  5 22:47:28 2025.
 Gaussian 16:  ES64L-G16RevC.01  3-Jul-2019

 ----------------------------------------------------------------------
 #t hf aug-cc-pvdz iop(5/13=1,5/36=2,99/5=2) pseudo=read geom=check gue
 ss=(read,tcheck) scf=(maxcycle=1)
 ----------------------------------------------------------------------
 -----
 title
 -----
 Structure from the checkpoint file:  "3H-1-2-3-oxathiazole.chk"
 Charge =  0 Multiplicity = 1

                         Standard orientation:
 ---------------------------------------------------------------------
 Center     Atomic      Atomic             Coordinates (Angstroms)
 Number     Number       Type             X           Y           Z
 ---------------------------------------------------------------------
      1         16           0       -1.154148   -0.066919   -0.130433
      2          8           0        0.068806   -1.262764    0.214972
      3          7           0       -0.111862    1.263970    0.119104
      4          6           0        1.205240    0.713893   -0.140345
      5          6           0        1.248577   -0.612642   -0.043800
      6          1           0        2.033948    1.375479   -0.327363
      7          1           0       -0.169651    1.597164    1.080067
      8          1           0        2.111755   -1.255125   -0.114406
 ---------------------------------------------------------------------

 SCF Done:  E(RHF) =  -604.528343578     A.U. after    2 cycles

 The electronic state is 1-A.
 Alpha  occ. eigenvalues --  -94.03406 -20.59803 -15.54900 -11.31494 -11.27945
 Alpha  occ. eigenvalues --   -8.30606  -6.28371  -6.28212  -6.27847  -1.50287
 Alpha  occ. eigenvalues --   -1.24752  -1.04832  -0.92475  -0.82160  -0.73987
 Alpha  occ. eigenvalues --   -0.70437  -0.61598  -0.60765  -0.58758  -0.52461
 Alpha  occ. eigenvalues --   -0.50756  -0.39646  -0.33892
 Alpha virt. eigenvalues --    0.03423   0.04442   0.05025   0.07421   0.07875
 Alpha virt. eigenvalues --    0.10157   0.10440   0.11805   0.12848   0.13338
 Alpha virt. eigenvalues --    0.14023   0.16095   0.16341   0.17138   0.17921

 Mulliken charges:
               1
     1  S    0.749013
     2  O   -1.381237
     3  N    0.010451
     4  C   -0.654149
     5  C    1.158082
     6  H   -0.097444
     7  H    0.233353
     8  H   -0.018069
 Sum of Mulliken charges =  -0.00000

 Dipole moment (field-independent basis, Debye):
    X=              1.5476    Y=              0.5686    Z=              0.9057  Tot=              1.8811

 Test job not archived.
 1\1\GINC-SE011\SP\RHF\Aug-CC-pVDZ\C2H3N1O1S1\OHZDE\05-Apr-2025\0\\#t h
 f aug-cc-pvdz iop(5/13=1,5/36=2,99/5=2) pseudo=read geom=check guess=(
 read,tcheck) scf=(maxcycle=1)\\title\\0,1\S,0,-1.154148,-0.066919,-0.1
 30433\O,0,0.068806,-1.262764,0.214972\N,0,-0.111862,1.26397,0.119104\C
 ,0,1.20524,0.713893,-0.140345\C,0,1.248577,-0.612642,-0.0438\H,0,2.033
 948,1.375479,-0.327363\H,0,-0.169651,1.597164,1.080067\H,0,2.111755,-1
 .255125,-0.114406\\Version=ES64L-G16RevC.01\State=1-A\HF=-604.5283436\
 RMSD=1.997e-02\Dipole=0.6088538,0.2237221,0.3563222\Quadrupole=2.58278

 Normal termination of Gaussian 16 at Sat Apr  5 22:47:58 2025.
