 Gaussian 16, Revision C.01,

 ----------------------------------------------------------------------
 #t hf aug-cc-pvdz symm=none int=(grid=ultrafine) guess=(read,tcheck) s
 table=(opt,rrhf)
 ----------------------------------------------------------------------
 -----
 title
 -----
 Symbolic Z-matrix:
 Charge =  0 Multiplicity = 1

 SCF Done:  E(RHF) =  -926.988103083     A.U. after   16 cycles
 Normal termination of Gaussian 16 at Sat Apr  5 22:48:07 2025.
 Gaussian 16:  ES64L-G16RevC.01  3-Jul-2019

 ----------------------------------------------------------------------
 #t hf aug-cc-pvdz iop(5/13=1,5/36=2,99/5=2) pseudo=read geom=check gue
 ss=(read,tcheck) scf=(maxcycle=1)
 ----------------------------------------------------------------------
 -----
 title
 -----
 Structure from the checkpoint file:  "3H-1-2-4-dithiazole.chk"
 Charge =  0 Multiplicity = 1

                         Standard orientation:
 ---------------------------------------------------------------------
 Center     Atomic      Atomic             Coordinates (Angstroms)
 Number     Number       Type             X           Y           Z
 ---------------------------------------------------------------------
      1         16           0        1.295601   -0.412021    0.082747
      2         16           0       -0.664807   -1.162625   -0.093069
      3          7           0       -0.479286    1.584300   -0.083568
      4          6           0        0.738132    1.267660   -0.100668
      5          6           0       -1.435057    0.543008    0.155054
      6          1           0        1.524839    2.007288   -0.203172
      7          1           0       -2.263983    0.603209   -0.546612
      8          1           0       -1.817013    0.629727    1.173604
 ---------------------------------------------------------------------

 SCF Done:  E(RHF) =  -927.241372557     A.U. after    2 cycles

 The electronic state is 1-A.
 Alpha  occ. eigenvalues --  -93.99290 -93.97917 -15.52909 -11.34164 -11.32252
 Alpha  occ. eigenvalues --   -8.27401  -8.25936  -6.25164  -6.25026  -6.24731
 Alpha  occ. eigenvalues --   -6.23722  -6.23544  -6.23257  -1.28782  -1.09153
 Alpha  occ. eigenvalues --   -1.04148  -0.87828  -0.80811  -0.68409  -0.66446
 Alpha  occ. eigenvalues --   -0.64936  -0.51965  -0.50041  -0.49256  -0.45710
 Alpha  occ. eigenvalues --   -0.44060  -0.33430
 Alpha virt. eigenvalues --    0.03384   0.04440   0.05391   0.06217   0.06922
 Alpha virt. eigenvalues --    0.08726   0.09182   0.10410   0.11874   0.12435
 Alpha virt. eigenvalues --    0.13115   0.14219   0.14801   0.15564   0.16600

 Mulliken charges:
               1
     1  S    0.207232
     2  S    0.167881
     3  N    0.714811
     4  C   -0.722268
     5  C   -0.716968
     6  H    0.024472
     7  H    0.158214
     8  H    0.166627
 Sum of Mulliken charges =   0.00000

 Dipole moment (field-independent basis, Debye):
    X=              0.1982    Y=              0.4608    Z=              0.3210  Tot=              0.5955

 Test job not archived.
 1\1\GINC-SE176\SP\RHF\Aug-CC-pVDZ\C2H3N1S2\OHZDE\05-Apr-2025\0\\#t hf
 aug-cc-pvdz iop(5/13=1,5/36=2,99/5=2) pseudo=read geom=check guess=(re
 ad,tcheck) scf=(maxcycle=1)\\title\\0,1\S,0,1.295602,-0.412017,0.08274
 7\S,0,-0.664803,-1.162627,-0.093069\N,0,-0.479291,1.584298,-0.083568\C
 ,0,0.738128,1.267662,-0.100668\C,0,-1.435059,0.543003,0.155054\H,0,1.5
 24832,2.007293,-0.203172\H,0,-2.263985,0.603202,-0.546612\H,0,-1.81701
 5,0.629721,1.173604\\Version=ES64L-G16RevC.01\State=1-A\HF=-927.241372
 6\RMSD=1.013e-02\Dipole=0.0779865,0.1813083,0.1262731\Quadrupole=4.315

 Normal termination of Gaussian 16 at Sat Apr  5 22:48:11 2025.
