 Gaussian 16, Revision C.01,

 ----------------------------------------------------------------------
 #t hf aug-cc-pvdz symm=none int=(grid=ultrafine) guess=(read,tcheck) s
 table=(opt,rrhf)
 ----------------------------------------------------------------------
 -----
 title
 -----
 Symbolic Z-matrix:
 Charge =  0 Multiplicity = 1

 SCF Done:  E(RHF) =  -1098.62158341     A.U. after   16 cycles
 Normal termination of Gaussian 16 at Sat Apr  5 22:48:49 2025.
 Gaussian 16:  ES64L-G16RevC.01  3-Jul-2019

 ----------------------------------------------------------------------
 #t hf aug-cc-pvdz iop(5/13=1,5/36=2,99/5=2) pseudo=read geom=check gue
 ss=(read,tcheck) scf=(maxcycle=1)
 ----------------------------------------------------------------------
 -----
 title
 -----
 Structure from the checkpoint file:  "3H-1-2-dithiole-3-carboxylic_acid.chk"
 Charge =  0 Multiplicity = 1

                         Standard orientation:
 ---------------------------------------------------------------------
 Center     Atomic      Atomic             Coordinates (Angstroms)
 Number     Number       Type             X           Y           Z
 ---------------------------------------------------------------------
      1         16           0       -0.671855   -1.153928    0.660705
      2         16           0       -2.102626   -0.073495   -0.487708
      3          8           0        2.806302    0.706910    0.014558
      4          8           0        1.840814   -1.023297   -0.999049
      5          6           0        0.592505    0.197419    0.742618
      6          6           0        1.861261   -0.020299   -0.114890
      7          6           0       -0.080754    1.484200    0.342170
      8          6           0       -1.272181    1.455845   -0.241430
      9          1           0        0.997209   -1.505143   -0.912903
     10          1           0        0.933145    0.237738    1.777666
     11          1           0        0.468066    2.404340    0.484590
     12          1           0       -1.788640    2.329941   -0.612187
 ---------------------------------------------------------------------

 SCF Done:  E(RHF) =  -1099.04020163     A.U. after    2 cycles

 The electronic state is 1-A.
 Alpha  occ. eigenvalues --  -94.00773 -94.00736 -20.60971 -20.54498 -11.40993
 Alpha  occ. eigenvalues --  -11.33072 -11.30958 -11.28435  -8.28758  -8.28739
 Alpha  occ. eigenvalues --   -6.26546  -6.26509  -6.26384  -6.26357  -6.26100
 Alpha  occ. eigenvalues --   -6.26081  -1.55675  -1.46765  -1.19545  -1.06473
 Alpha  occ. eigenvalues --   -1.04512  -0.90182  -0.83634  -0.80066  -0.74414
 Alpha  occ. eigenvalues --   -0.71526  -0.67479  -0.65605  -0.59831  -0.58795
 Alpha  occ. eigenvalues --   -0.54912  -0.54082  -0.50590  -0.49326  -0.47745
 Alpha  occ. eigenvalues --   -0.45514  -0.42391  -0.33891
 Alpha virt. eigenvalues --    0.02954   0.03485   0.04707   0.05161   0.05592
 Alpha virt. eigenvalues --    0.06601   0.08925   0.09189   0.09969   0.10712
 Alpha virt. eigenvalues --    0.11647   0.12136   0.13763   0.14035   0.14599

 Mulliken charges:
               1
     1  S    0.142897
     2  S    0.135466
     3  O   -1.276176
     4  O   -1.308266
     5  C   -0.716227
     6  C    2.105971
     7  C    0.687527
     8  C   -0.296457
     9  H    0.494737
    10  H    0.355840
    11  H   -0.132645
    12  H   -0.192668
 Sum of Mulliken charges =  -0.00000

 Dipole moment (field-independent basis, Debye):
    X=             -3.1597    Y=              0.5194    Z=              0.8390  Tot=              3.3102

 Test job not archived.
 1\1\GINC-SE028\SP\RHF\Aug-CC-pVDZ\C4H4O2S2\OHZDE\05-Apr-2025\0\\#t hf
 aug-cc-pvdz iop(5/13=1,5/36=2,99/5=2) pseudo=read geom=check guess=(re
 ad,tcheck) scf=(maxcycle=1)\\title\\0,1\S,0,-0.671855,-1.153928,0.6607
 05\S,0,-2.102626,-0.073495,-0.487708\O,0,2.806302,0.70691,0.014558\O,0
 ,1.840814,-1.023297,-0.999049\C,0,0.592505,0.197419,0.742618\C,0,1.861
 261,-0.020299,-0.11489\C,0,-0.080754,1.4842,0.34217\C,0,-1.272181,1.45
 5845,-0.24143\H,0,0.997209,-1.505143,-0.912903\H,0,0.933145,0.237738,1
 .777666\H,0,0.468066,2.40434,0.48459\H,0,-1.78864,2.329941,-0.612187\\

 Normal termination of Gaussian 16 at Sat Apr  5 22:48:56 2025.
