 Gaussian 16, Revision C.01,

 ----------------------------------------------------------------------
 #t hf aug-cc-pvdz symm=none int=(grid=ultrafine) guess=(read,tcheck) s
 table=(opt,rrhf)
 ----------------------------------------------------------------------
 -----
 title
 -----
 Symbolic Z-matrix:
 Charge =  0 Multiplicity = 1

 SCF Done:  E(RHF) =  -281.567173453     A.U. after   14 cycles
 Normal termination of Gaussian 16 at Sat Apr  5 22:48:02 2025.
 Gaussian 16:  ES64L-G16RevC.01  3-Jul-2019

 ----------------------------------------------------------------------
 #t hf aug-cc-pvdz iop(5/13=1,5/36=2,99/5=2) pseudo=read geom=check gue
 ss=(read,tcheck) scf=(maxcycle=1)
 ----------------------------------------------------------------------
 -----
 title
 -----
 Structure from the checkpoint file:  "3H-1-2-4-dioxazole.chk"
 Charge =  0 Multiplicity = 1

                         Standard orientation:
 ---------------------------------------------------------------------
 Center     Atomic      Atomic             Coordinates (Angstroms)
 Number     Number       Type             X           Y           Z
 ---------------------------------------------------------------------
      1          8           0        0.891156   -0.824591    0.000333
      2          8           0       -0.557922   -1.054738   -0.000461
      3          7           0       -0.044879    1.222226   -0.000283
      4          6           0        1.000130    0.519723   -0.000070
      5          6           0       -1.143632    0.283845    0.000324
      6          1           0        2.022842    0.872055   -0.000125
      7          1           0       -1.756107    0.392725    0.898645
      8          1           0       -1.757438    0.392864   -0.897042
 ---------------------------------------------------------------------

 SCF Done:  E(RHF) =  -281.844442251     A.U. after    2 cycles

 The electronic state is 1-A.
 Alpha  occ. eigenvalues --  -20.65459 -20.63654 -15.51848 -11.36833 -11.34158
 Alpha  occ. eigenvalues --   -1.63107  -1.34533  -1.26427  -0.95016  -0.86336
 Alpha  occ. eigenvalues --   -0.75881  -0.72445  -0.65752  -0.60787  -0.59848
 Alpha  occ. eigenvalues --   -0.58461  -0.52921  -0.51348  -0.41299
 Alpha virt. eigenvalues --    0.03375   0.04815   0.05464   0.08635   0.08994
 Alpha virt. eigenvalues --    0.09105   0.10040   0.14989   0.15190   0.15521
 Alpha virt. eigenvalues --    0.16637   0.17614   0.18537   0.19631   0.20552

 Mulliken charges:
               1
     1  O   -0.707771
     2  O   -0.698384
     3  N    0.408898
     4  C    0.405786
     5  C    0.308118
     6  H    0.082992
     7  H    0.100285
     8  H    0.100076
 Sum of Mulliken charges =  -0.00000

 Dipole moment (field-independent basis, Debye):
    X=              0.3828    Y=              0.4333    Z=              0.0014  Tot=              0.5782

 Test job not archived.
 1\1\GINC-SE013\SP\RHF\Aug-CC-pVDZ\C2H3N1O2\OHZDE\05-Apr-2025\0\\#t hf
 aug-cc-pvdz iop(5/13=1,5/36=2,99/5=2) pseudo=read geom=check guess=(re
 ad,tcheck) scf=(maxcycle=1)\\title\\0,1\O,0,0.891155,-0.824592,0.00033
 3\O,0,-0.557923,-1.054738,-0.000461\N,0,-0.044878,1.222226,-0.000283\C
 ,0,1.000131,0.519722,-0.00007\C,0,-1.143632,0.283846,0.000324\H,0,2.02
 2843,0.872053,-0.000125\H,0,-1.756107,0.392727,0.898645\H,0,-1.757438,
 0.392866,-0.897042\\Version=ES64L-G16RevC.01\State=1-A\HF=-281.8444423
 \RMSD=1.238e-02\Dipole=0.1506245,0.1704924,0.00056\Quadrupole=5.122774

 Normal termination of Gaussian 16 at Sat Apr  5 22:48:05 2025.
