 Gaussian 16, Revision C.01,

 ----------------------------------------------------------------------
 #t hf aug-cc-pvdz symm=none int=(grid=ultrafine) guess=(read,tcheck) s
 table=(opt,rrhf)
 ----------------------------------------------------------------------
 -----
 title
 -----
 Symbolic Z-matrix:
 Charge =  0 Multiplicity = 1

 SCF Done:  E(RHF) =  -910.982361930     A.U. after   15 cycles
 Normal termination of Gaussian 16 at Sat Apr  5 22:48:39 2025.
 Gaussian 16:  ES64L-G16RevC.01  3-Jul-2019

 ----------------------------------------------------------------------
 #t hf aug-cc-pvdz iop(5/13=1,5/36=2,99/5=2) pseudo=read geom=check gue
 ss=(read,tcheck) scf=(maxcycle=1)
 ----------------------------------------------------------------------
 -----
 title
 -----
 Structure from the checkpoint file:  "3H-1-2-dithiolene.chk"
 Charge =  0 Multiplicity = 1

                         Standard orientation:
 ---------------------------------------------------------------------
 Center     Atomic      Atomic             Coordinates (Angstroms)
 Number     Number       Type             X           Y           Z
 ---------------------------------------------------------------------
      1         16           0        1.327006   -0.375637    0.105858
      2         16           0       -0.627900   -1.176631   -0.128471
      3          6           0        0.766846    1.280061   -0.119461
      4          6           0       -1.496295    0.415715    0.204467
      5          6           0       -0.535996    1.534602   -0.083959
      6          1           0        1.537200    2.027810   -0.243628
      7          1           0       -1.848317    0.454828    1.239330
      8          1           0       -2.365633    0.428754   -0.452364
      9          1           0       -0.916283    2.542633   -0.187804
 ---------------------------------------------------------------------

 SCF Done:  E(RHF) =  -911.223230238     A.U. after    2 cycles

 The electronic state is 1-A.
 Alpha  occ. eigenvalues --  -93.97909 -93.97284 -11.29167 -11.28608 -11.26216
 Alpha  occ. eigenvalues --   -8.25955  -8.25265  -6.23738  -6.23594  -6.23292
 Alpha  occ. eigenvalues --   -6.23055  -6.22888  -6.22600  -1.16582  -1.02022
 Alpha  occ. eigenvalues --   -1.01623  -0.83681  -0.76644  -0.69147  -0.63122
 Alpha  occ. eigenvalues --   -0.58537  -0.52473  -0.49672  -0.47642  -0.46073
 Alpha  occ. eigenvalues --   -0.39096  -0.31106
 Alpha virt. eigenvalues --    0.03199   0.03919   0.04925   0.05239   0.06884
 Alpha virt. eigenvalues --    0.07506   0.10156   0.11610   0.12434   0.12901
 Alpha virt. eigenvalues --    0.13415   0.14033   0.14525   0.15158   0.16313

 Mulliken charges:
               1
     1  S    0.114161
     2  S    0.342160
     3  C   -0.374643
     4  C   -1.049220
     5  C    0.707660
     6  H   -0.183097
     7  H    0.260825
     8  H    0.287806
     9  H   -0.105652
 Sum of Mulliken charges =  -0.00000

 Dipole moment (field-independent basis, Debye):
    X=             -1.2255    Y=              2.3944    Z=              0.1963  Tot=              2.6970

 Test job not archived.
 1\1\GINC-SE050\SP\RHF\Aug-CC-pVDZ\C3H4S2\OHZDE\05-Apr-2025\0\\#t hf au
 g-cc-pvdz iop(5/13=1,5/36=2,99/5=2) pseudo=read geom=check guess=(read
 ,tcheck) scf=(maxcycle=1)\\title\\0,1\S,0,1.327006,-0.375637,0.105858\
 S,0,-0.6279,-1.176631,-0.128471\C,0,0.766846,1.280061,-0.119461\C,0,-1
 .496295,0.415715,0.204467\C,0,-0.535996,1.534602,-0.083959\H,0,1.5372,
 2.02781,-0.243628\H,0,-1.848317,0.454829,1.23933\H,0,-2.365633,0.42875
 5,-0.452364\H,0,-0.916283,2.542633,-0.187804\\Version=ES64L-G16RevC.01
 \State=1-A\HF=-911.2232302\RMSD=1.297e-02\Dipole=-0.4821557,0.9420487,

 Normal termination of Gaussian 16 at Sat Apr  5 22:48:43 2025.
