 Gaussian 16, Revision C.01,

 ----------------------------------------------------------------------
 #t hf aug-cc-pvdz symm=none int=(grid=ultrafine) guess=(read,tcheck) s
 table=(opt,rrhf)
 ----------------------------------------------------------------------
 -----
 title
 -----
 Symbolic Z-matrix:
 Charge =  0 Multiplicity = 1

 SCF Done:  E(RHF) =  -147.856744155     A.U. after   11 cycles
 Normal termination of Gaussian 16 at Sat Apr  5 22:48:27 2025.
 Gaussian 16:  ES64L-G16RevC.01  3-Jul-2019

 ----------------------------------------------------------------------
 #t hf aug-cc-pvdz iop(5/13=1,5/36=2,99/5=2) pseudo=read geom=check gue
 ss=(read,tcheck) scf=(maxcycle=1)
 ----------------------------------------------------------------------
 -----
 title
 -----
 Structure from the checkpoint file:  "3H-diazirine.chk"
 Charge =  0 Multiplicity = 1

                         Standard orientation:
 ---------------------------------------------------------------------
 Center     Atomic      Atomic             Coordinates (Angstroms)
 Number     Number       Type             X           Y           Z
 ---------------------------------------------------------------------
      1          6           0        0.000000    0.000000    0.808471
      2          7           0        0.000000    0.607849   -0.539787
      3          7           0       -0.000000   -0.607849   -0.539787
      4          1           0        0.931674   -0.000000    1.353097
      5          1           0       -0.931674    0.000000    1.353097
 ---------------------------------------------------------------------

 SCF Done:  E(RHF) =  -148.013052009     A.U. after    2 cycles

 The electronic state is 1-A1.
 Alpha  occ. eigenvalues --  -15.60930 -15.60772 -11.31196  -1.48792  -0.94750
 Alpha  occ. eigenvalues --   -0.88270  -0.71579  -0.70664  -0.63971  -0.52815
 Alpha  occ. eigenvalues --   -0.44704
 Alpha virt. eigenvalues --    0.03784   0.05158   0.05874   0.08125   0.08526
 Alpha virt. eigenvalues --    0.14602   0.14654   0.16845   0.17552   0.17696
 Alpha virt. eigenvalues --    0.19067   0.20440   0.22734   0.23963   0.28233

 Mulliken charges:
               1
     1  C   -0.377487
     2  N    0.135604
     3  N    0.135604
     4  H    0.053140
     5  H    0.053140
 Sum of Mulliken charges =  -0.00000

 Dipole moment (field-independent basis, Debye):
    X=              0.0000    Y=             -0.0000    Z=              2.3149  Tot=              2.3149

 Test job not archived.
 1\1\GINC-SE052\SP\RHF\Aug-CC-pVDZ\C1H2N2\OHZDE\05-Apr-2025\0\\#t hf au
 g-cc-pvdz iop(5/13=1,5/36=2,99/5=2) pseudo=read geom=check guess=(read
 ,tcheck) scf=(maxcycle=1)\\title\\0,1\C,0,0.,0.,0.808471\N,0,0.,0.6078
 49,-0.539787\N,0,0.,-0.607849,-0.539787\H,0,0.931674,0.,1.353097\H,0,-
 0.931674,0.,1.353097\\Version=ES64L-G16RevC.01\State=1-A1\HF=-148.0130
 52\RMSD=4.164e-02\Dipole=0.,0.,0.910751\Quadrupole=1.1167546,-1.548672
 5,0.431918,0.,0.,0.\PG=C02V [C2(C1),SGV(N2),SGV'(H2)]\\@

 Normal termination of Gaussian 16 at Sat Apr  5 22:48:32 2025.
