 Gaussian 16, Revision C.01,

 ----------------------------------------------------------------------
 #t hf aug-cc-pvdz symm=none int=(grid=ultrafine) guess=(read,tcheck) s
 table=(opt,rrhf)
 ----------------------------------------------------------------------
 -----
 title
 -----
 Symbolic Z-matrix:
 Charge =  0 Multiplicity = 1

 SCF Done:  E(RHF) =  -926.957544244     A.U. after   16 cycles
 Normal termination of Gaussian 16 at Sat Apr  5 22:48:39 2025.
 Gaussian 16:  ES64L-G16RevC.01  3-Jul-2019

 ----------------------------------------------------------------------
 #t hf aug-cc-pvdz iop(5/13=1,5/36=2,99/5=2) pseudo=read geom=check gue
 ss=(read,tcheck) scf=(maxcycle=1)
 ----------------------------------------------------------------------
 -----
 title
 -----
 Structure from the checkpoint file:  "3H-dithiazole.chk"
 Charge =  0 Multiplicity = 1

                         Standard orientation:
 ---------------------------------------------------------------------
 Center     Atomic      Atomic             Coordinates (Angstroms)
 Number     Number       Type             X           Y           Z
 ---------------------------------------------------------------------
      1         16           0       -0.665332   -1.105338   -0.182687
      2         16           0        1.328504   -0.380759    0.146421
      3          7           0       -1.448430    0.367388    0.222713
      4          6           0        0.727120    1.257200   -0.172811
      5          6           0       -0.585499    1.466417   -0.095672
      6          1           0       -1.727962    0.395578    1.201544
      7          1           0        1.454704    2.032023   -0.360302
      8          1           0       -1.048219    2.436541   -0.209095
 ---------------------------------------------------------------------

 SCF Done:  E(RHF) =  -927.212276042     A.U. after    2 cycles

 The electronic state is 1-A.
 Alpha  occ. eigenvalues --  -94.00664 -93.98240 -15.54982 -11.29472 -11.28567
 Alpha  occ. eigenvalues --   -8.28290  -8.26255  -6.26041  -6.25892  -6.25557
 Alpha  occ. eigenvalues --   -6.24017  -6.23907  -6.23595  -1.27034  -1.09063
 Alpha  occ. eigenvalues --   -1.03395  -0.88156  -0.80246  -0.72302  -0.68395
 Alpha  occ. eigenvalues --   -0.59975  -0.54048  -0.52619  -0.48856  -0.43835
 Alpha  occ. eigenvalues --   -0.39743  -0.31919
 Alpha virt. eigenvalues --    0.03345   0.04136   0.05059   0.06337   0.06991
 Alpha virt. eigenvalues --    0.09391   0.10076   0.11607   0.12278   0.12645
 Alpha virt. eigenvalues --    0.13060   0.14158   0.15446   0.15903   0.16116

 Mulliken charges:
               1
     1  S    0.202670
     2  S    0.024201
     3  N    0.280839
     4  C    0.080748
     5  C   -0.548743
     6  H    0.208900
     7  H   -0.164110
     8  H   -0.084507
 Sum of Mulliken charges =  -0.00000

 Dipole moment (field-independent basis, Debye):
    X=              0.0662    Y=              1.8875    Z=              0.9260  Tot=              2.1035

 Test job not archived.
 1\1\GINC-SE115\SP\RHF\Aug-CC-pVDZ\C2H3N1S2\OHZDE\05-Apr-2025\0\\#t hf
 aug-cc-pvdz iop(5/13=1,5/36=2,99/5=2) pseudo=read geom=check guess=(re
 ad,tcheck) scf=(maxcycle=1)\\title\\0,1\S,0,-0.665329,-1.10534,-0.1826
 87\S,0,1.328505,-0.380755,0.146421\N,0,-1.448431,0.367384,0.222713\C,0
 ,0.727116,1.257202,-0.172811\C,0,-0.585503,1.466416,-0.095672\H,0,-1.7
 27963,0.395573,1.201544\H,0,1.454698,2.032027,-0.360302\H,0,-1.048226,
 2.436538,-0.209095\\Version=ES64L-G16RevC.01\State=1-A\HF=-927.212276\
 RMSD=1.785e-02\Dipole=0.0260524,0.7426055,0.364304\Quadrupole=-0.28025

 Normal termination of Gaussian 16 at Sat Apr  5 22:48:41 2025.
