 Gaussian 16, Revision C.01,

 ----------------------------------------------------------------------
 #t hf aug-cc-pvdz symm=none int=(grid=ultrafine) guess=(read,tcheck) s
 table=(opt,rrhf)
 ----------------------------------------------------------------------
 -----
 title
 -----
 Symbolic Z-matrix:
 Charge =  0 Multiplicity = 1

 SCF Done:  E(RHF) =  -461.751738209     A.U. after   15 cycles
 Normal termination of Gaussian 16 at Sat Apr  5 22:52:17 2025.
 Gaussian 16:  ES64L-G16RevC.01  3-Jul-2019

 ----------------------------------------------------------------------
 #t hf aug-cc-pvdz iop(5/13=1,5/36=2,99/5=2) pseudo=read geom=check gue
 ss=(read,tcheck) scf=(maxcycle=1)
 ----------------------------------------------------------------------
 -----
 title
 -----
 Structure from the checkpoint file:  "4-2-methyl-2-propanylphenol.chk"
 Charge =  0 Multiplicity = 1

                         Standard orientation:
 ---------------------------------------------------------------------
 Center     Atomic      Atomic             Coordinates (Angstroms)
 Number     Number       Type             X           Y           Z
 ---------------------------------------------------------------------
      1          6           0       -1.115443   -0.498903    0.000000
      2          6           0        1.250967   -0.260855    0.000000
      3          6           0       -0.986607   -1.880476    0.000000
      4          6           0        1.399896   -1.643053    0.000000
      5          6           0       -0.004568    0.350470    0.000000
      6          6           0        0.278520   -2.460677    0.000000
      7          6           0       -0.986607    2.295203    1.257771
      8          6           0       -0.986607    2.295203   -1.257771
      9          6           0        1.138805    2.629595    0.000000
     10          6           0       -0.198372    1.873754    0.000000
     11          8           0        0.472057   -3.816729    0.000000
     12          1           0       -2.113690   -0.082584    0.000000
     13          1           0        2.147758    0.340453    0.000000
     14          1           0       -1.871422   -2.506840    0.000000
     15          1           0        2.382431   -2.094241    0.000000
     16          1           0       -1.134610    3.376937    1.269176
     17          1           0       -1.969239    1.825058    1.295308
     18          1           0       -0.449010    2.016368    2.165116
     19          1           0       -1.969239    1.825058   -1.295308
     20          1           0       -1.134610    3.376937   -1.269176
     21          1           0       -0.449010    2.016368   -2.165116
     22          1           0        0.952247    3.704407    0.000000
     23          1           0        1.735409    2.400064    0.883926
     24          1           0        1.735409    2.400064   -0.883926
     25          1           0       -0.378786   -4.265777    0.000000
 ---------------------------------------------------------------------

 SCF Done:  E(RHF) =  -462.237521550     A.U. after    2 cycles

 The electronic state is 1-A'.
 Alpha  occ. eigenvalues --  -20.57651 -11.30228 -11.24777 -11.24173 -11.23915
 Alpha  occ. eigenvalues --  -11.23836 -11.23440 -11.23102 -11.22188 -11.22137
 Alpha  occ. eigenvalues --  -11.22122  -1.48843  -1.15951  -1.09785  -1.01996
 Alpha  occ. eigenvalues --   -0.99426  -0.93619  -0.93361  -0.85235  -0.83840
 Alpha  occ. eigenvalues --   -0.76241  -0.73898  -0.68333  -0.65379  -0.62959
 Alpha  occ. eigenvalues --   -0.60926  -0.60226  -0.59748  -0.58626  -0.58462
 Alpha  occ. eigenvalues --   -0.55320  -0.55195  -0.53571  -0.52157  -0.50723
 Alpha  occ. eigenvalues --   -0.49016  -0.47408  -0.46538  -0.46331  -0.34845
 Alpha  occ. eigenvalues --   -0.31297
 Alpha virt. eigenvalues --    0.02909   0.03527   0.03746   0.04090   0.04494
 Alpha virt. eigenvalues --    0.05190   0.06005   0.06475   0.07308   0.07582
 Alpha virt. eigenvalues --    0.07947   0.09657   0.10188   0.10616   0.10748

 Mulliken charges:
               1
     1  C    0.188033
     2  C    0.857975
     3  C   -0.575963
     4  C    0.081162
     5  C    1.986567
     6  C    1.457227
     7  C   -0.027796
     8  C   -0.027796
     9  C    0.185021
    10  C   -2.823727
    11  O   -1.772812
    12  H   -0.377812
    13  H   -0.484620
    14  H   -0.334632
    15  H   -0.260410
    16  H    0.167325
    17  H    0.145409
    18  H    0.174738
    19  H    0.145409
    20  H    0.167325
    21  H    0.174738
    22  H    0.066530
    23  H    0.245932
    24  H    0.245932
    25  H    0.396246
 Sum of Mulliken charges =  -0.00000

 Dipole moment (field-independent basis, Debye):
    X=             -1.3759    Y=              0.4431    Z=              0.0000  Tot=              1.4455

 Test job not archived.
 1\1\GINC-SE194\SP\RHF\Aug-CC-pVDZ\C10H14O1\OHZDE\05-Apr-2025\0\\#t hf
 aug-cc-pvdz iop(5/13=1,5/36=2,99/5=2) pseudo=read geom=check guess=(re
 ad,tcheck) scf=(maxcycle=1)\\title\\0,1\C,0,-1.115443,-0.498903,0.\C,0
 ,1.250967,-0.260855,0.\C,0,-0.986607,-1.880476,0.\C,0,1.399896,-1.6430
 53,0.\C,0,-0.004568,0.35047,0.\C,0,0.27852,-2.460677,0.\C,0,-0.986607,
 2.295203,1.257771\C,0,-0.986607,2.295203,-1.257771\C,0,1.138805,2.6295
 95,0.\C,0,-0.198372,1.873754,0.\O,0,0.472057,-3.816729,0.\H,0,-2.11369
 ,-0.082584,0.\H,0,2.147758,0.340453,0.\H,0,-1.871422,-2.50684,0.\H,0,2

 Normal termination of Gaussian 16 at Sat Apr  5 22:52:58 2025.
