 Gaussian 16, Revision C.01,

 ----------------------------------------------------------------------
 #t hf aug-cc-pvdz symm=none int=(grid=ultrafine) guess=(read,tcheck) s
 table=(opt,rrhf)
 ----------------------------------------------------------------------
 -----
 title
 -----
 Symbolic Z-matrix:
 Charge =  0 Multiplicity = 1

 SCF Done:  E(RHF) =  -501.237978761     A.U. after   16 cycles
 Normal termination of Gaussian 16 at Sat Apr  5 22:48:47 2025.
 Gaussian 16:  ES64L-G16RevC.01  3-Jul-2019

 ----------------------------------------------------------------------
 #t hf aug-cc-pvdz iop(5/13=1,5/36=2,99/5=2) pseudo=read geom=check gue
 ss=(read,tcheck) scf=(maxcycle=1)
 ----------------------------------------------------------------------
 -----
 title
 -----
 Structure from the checkpoint file:  "4-4-difluoro-2-butynoic_acid.chk"
 Charge =  0 Multiplicity = 1

                         Standard orientation:
 ---------------------------------------------------------------------
 Center     Atomic      Atomic             Coordinates (Angstroms)
 Number     Number       Type             X           Y           Z
 ---------------------------------------------------------------------
      1          9           0        2.506325    1.085625   -0.291206
      2          9           0        2.521596   -0.878303    0.707492
      3          8           0       -2.800863   -1.049313   -0.310556
      4          8           0       -2.668371    1.055585    0.407816
      5          6           0        1.976955   -0.173421   -0.324959
      6          6           0        0.523022   -0.117121   -0.183650
      7          6           0       -0.674290   -0.101787   -0.111486
      8          6           0       -2.125829   -0.103987   -0.024120
      9          1           0       -1.980086    1.705683    0.601006
     10          1           0        2.283524   -0.643865   -1.260372
 ---------------------------------------------------------------------

 SCF Done:  E(RHF) =  -501.712706629     A.U. after    2 cycles

 The electronic state is 1-A.
 Alpha  occ. eigenvalues --  -26.51045 -26.51006 -20.63189 -20.57093 -11.47980
 Alpha  occ. eigenvalues --  -11.44689 -11.31336 -11.30837  -1.67598  -1.60742
 Alpha  occ. eigenvalues --   -1.57630  -1.48984  -1.12583  -1.02328  -0.93103
 Alpha  occ. eigenvalues --   -0.84404  -0.82158  -0.80028  -0.77521  -0.69889
 Alpha  occ. eigenvalues --   -0.67193  -0.66390  -0.65399  -0.63329  -0.62808
 Alpha  occ. eigenvalues --   -0.58493  -0.51213  -0.50088  -0.46652  -0.46430
 Alpha virt. eigenvalues --    0.02847   0.03461   0.05680   0.07220   0.08474
 Alpha virt. eigenvalues --    0.08585   0.09386   0.10047   0.11870   0.12819
 Alpha virt. eigenvalues --    0.13208   0.14026   0.15415   0.16308   0.18892

 Mulliken charges:
               1
     1  F   -0.686360
     2  F   -0.676644
     3  O   -1.149463
     4  O   -1.192426
     5  C    1.458584
     6  C   -0.341468
     7  C    0.181492
     8  C    1.836436
     9  H    0.449678
    10  H    0.120172
 Sum of Mulliken charges =  -0.00000

 Dipole moment (field-independent basis, Debye):
    X=              2.2129    Y=              1.7742    Z=             -0.6597  Tot=              2.9120

 Test job not archived.
 1\1\GINC-SE013\SP\RHF\Aug-CC-pVDZ\C4H2F2O2\OHZDE\05-Apr-2025\0\\#t hf
 aug-cc-pvdz iop(5/13=1,5/36=2,99/5=2) pseudo=read geom=check guess=(re
 ad,tcheck) scf=(maxcycle=1)\\title\\0,1\F,0,2.506325,1.085625,-0.29120
 6\F,0,2.521596,-0.878303,0.707492\O,0,-2.800863,-1.049313,-0.310556\O,
 0,-2.668371,1.055585,0.407816\C,0,1.976955,-0.173421,-0.324959\C,0,0.5
 23022,-0.117121,-0.18365\C,0,-0.67429,-0.101787,-0.111486\C,0,-2.12582
 9,-0.103987,-0.02412\H,0,-1.980086,1.705683,0.601006\H,0,2.283524,-0.6
 43865,-1.260372\\Version=ES64L-G16RevC.01\State=1-A\HF=-501.7127066\RM

 Normal termination of Gaussian 16 at Sat Apr  5 22:48:52 2025.
