 Gaussian 16, Revision C.01,

 ----------------------------------------------------------------------
 #t hf aug-cc-pvdz symm=none int=(grid=ultrafine) guess=(read,tcheck) s
 table=(opt,rrhf)
 ----------------------------------------------------------------------
 -----
 title
 -----
 Symbolic Z-matrix:
 Charge =  0 Multiplicity = 1

 SCF Done:  E(RHF) =  -1042.96167542     A.U. after   15 cycles
 Normal termination of Gaussian 16 at Sat Apr  5 22:49:26 2025.
 Gaussian 16:  ES64L-G16RevC.01  3-Jul-2019

 ----------------------------------------------------------------------
 #t hf aug-cc-pvdz iop(5/13=1,5/36=2,99/5=2) pseudo=read geom=check gue
 ss=(read,tcheck) scf=(maxcycle=1)
 ----------------------------------------------------------------------
 -----
 title
 -----
 Structure from the checkpoint file:  "4-5-dimethyl-1-3-thiazole-23H-thione.chk"
 Charge =  0 Multiplicity = 1

                         Standard orientation:
 ---------------------------------------------------------------------
 Center     Atomic      Atomic             Coordinates (Angstroms)
 Number     Number       Type             X           Y           Z
 ---------------------------------------------------------------------
      1          6           0        2.045287    1.959573    0.000020
      2          6           0        1.079023    0.821006    0.000009
      3          6           0        1.317642   -0.506197    0.000000
      4          6           0        2.614953   -1.243781    0.000000
      5         16           0       -0.210914   -1.391881   -0.000010
      6          6           0       -1.168018    0.085615   -0.000003
      7          7           0       -0.281545    1.116807    0.000007
      8         16           0       -2.819584    0.202116   -0.000008
      9          1           0        1.909294    2.589853   -0.881908
     10          1           0        3.071241    1.602683    0.000021
     11          1           0        1.909289    2.589840    0.881956
     12          1           0        2.709293   -1.883500   -0.879789
     13          1           0        2.709288   -1.883511    0.879781
     14          1           0        3.456495   -0.553476    0.000007
     15          1           0       -0.639431    2.059413    0.000012
 ---------------------------------------------------------------------

 SCF Done:  E(RHF) =  -1043.33623599     A.U. after    2 cycles

 The electronic state is 1-A.
 Alpha  occ. eigenvalues --  -93.99152 -93.89632 -15.57713 -11.37783 -11.31093
 Alpha  occ. eigenvalues --  -11.28698 -11.27200 -11.26468  -8.27357  -8.17886
 Alpha  occ. eigenvalues --   -6.25115  -6.25005  -6.24777  -6.15773  -6.15426
 Alpha  occ. eigenvalues --   -6.15335  -1.33317  -1.13222  -1.10564  -1.01688
 Alpha  occ. eigenvalues --   -1.00114  -0.92213  -0.85272  -0.80556  -0.70300
 Alpha  occ. eigenvalues --   -0.66048  -0.63527  -0.60423  -0.60184  -0.59301
 Alpha  occ. eigenvalues --   -0.59139  -0.57465  -0.52019  -0.50075  -0.44029
 Alpha  occ. eigenvalues --   -0.40825  -0.33604  -0.30403
 Alpha virt. eigenvalues --    0.02418   0.02912   0.04063   0.04229   0.05339
 Alpha virt. eigenvalues --    0.06389   0.07495   0.07737   0.07789   0.09418
 Alpha virt. eigenvalues --    0.10078   0.11753   0.12564   0.12593   0.12923

 Mulliken charges:
               1
     1  C   -0.324421
     2  C   -0.921877
     3  C   -0.058331
     4  C   -0.583321
     5  S    0.729175
     6  C   -1.439286
     7  N    0.993235
     8  S    0.204456
     9  H    0.254216
    10  H    0.155806
    11  H    0.254215
    12  H    0.287742
    13  H    0.287741
    14  H    0.142581
    15  H    0.018069
 Sum of Mulliken charges =  -0.00000

 Dipole moment (field-independent basis, Debye):
    X=              6.5033    Y=              1.6572    Z=              0.0000  Tot=              6.7112

 Test job not archived.
 1\1\GINC-SE146\SP\RHF\Aug-CC-pVDZ\C5H7N1S2\OHZDE\05-Apr-2025\0\\#t hf
 aug-cc-pvdz iop(5/13=1,5/36=2,99/5=2) pseudo=read geom=check guess=(re
 ad,tcheck) scf=(maxcycle=1)\\title\\0,1\C,0,2.045287,1.959573,0.00002\
 C,0,1.079023,0.821006,0.000009\C,0,1.317642,-0.506197,0.\C,0,2.614953,
 -1.243781,0.\S,0,-0.210914,-1.391881,-0.00001\C,0,-1.168018,0.085615,-
 0.000003\N,0,-0.281545,1.116807,0.000007\S,0,-2.819584,0.202116,-0.000
 008\H,0,1.909294,2.589853,-0.881908\H,0,3.071241,1.602683,0.000021\H,0
 ,1.909289,2.58984,0.881956\H,0,2.709293,-1.8835,-0.879789\H,0,2.709288

 Normal termination of Gaussian 16 at Sat Apr  5 22:50:05 2025.
