 Gaussian 16, Revision C.01,

 ----------------------------------------------------------------------
 #t hf aug-cc-pvdz symm=none int=(grid=ultrafine) guess=(read,tcheck) s
 table=(opt,rrhf)
 ----------------------------------------------------------------------
 -----
 title
 -----
 Symbolic Z-matrix:
 Charge =  0 Multiplicity = 1

 SCF Done:  E(RHF) =  -298.424592618     A.U. after   16 cycles
 Normal termination of Gaussian 16 at Sat Apr  5 22:48:31 2025.
 Gaussian 16:  ES64L-G16RevC.01  3-Jul-2019

 ----------------------------------------------------------------------
 #t hf aug-cc-pvdz iop(5/13=1,5/36=2,99/5=2) pseudo=read geom=check gue
 ss=(read,tcheck) scf=(maxcycle=1)
 ----------------------------------------------------------------------
 -----
 title
 -----
 Structure from the checkpoint file:  "4-5-didehydro-1-3-dihydro-2H-imidazol-2-one.chk"
 Charge =  0 Multiplicity = 1

                         Standard orientation:
 ---------------------------------------------------------------------
 Center     Atomic      Atomic             Coordinates (Angstroms)
 Number     Number       Type             X           Y           Z
 ---------------------------------------------------------------------
      1          8           0       -1.905063    0.000001    0.000000
      2          7           0        0.190297    1.107884    0.120754
      3          7           0        0.190296   -1.107884   -0.120755
      4          6           0       -0.714324    0.000000    0.000000
      5          6           0        1.431605    0.685517   -0.183402
      6          6           0        1.431604   -0.685518    0.183403
      7          1           0       -0.158478    2.033494   -0.089560
      8          1           0       -0.158483   -2.033493    0.089561
 ---------------------------------------------------------------------

 SCF Done:  E(RHF) =  -298.712117743     A.U. after    2 cycles

 The electronic state is 1-A.
 Alpha  occ. eigenvalues --  -20.58593 -15.59744 -15.59708 -11.44829 -11.30601
 Alpha  occ. eigenvalues --  -11.30520  -1.54167  -1.38320  -1.25563  -1.02408
 Alpha  occ. eigenvalues --   -0.92813  -0.87527  -0.75548  -0.73955  -0.69640
 Alpha  occ. eigenvalues --   -0.68657  -0.55574  -0.54932  -0.51528  -0.42569
 Alpha  occ. eigenvalues --   -0.39217
 Alpha virt. eigenvalues --    0.00250   0.02801   0.04370   0.08371   0.08931
 Alpha virt. eigenvalues --    0.09141   0.09566   0.10239   0.11074   0.12383
 Alpha virt. eigenvalues --    0.13581   0.14663   0.15240   0.15904   0.16701

 Mulliken charges:
               1
     1  O   -0.993913
     2  N    0.454026
     3  N    0.454025
     4  C    0.672118
     5  C   -0.419306
     6  C   -0.419305
     7  H    0.126177
     8  H    0.126178
 Sum of Mulliken charges =  -0.00000

 Dipole moment (field-independent basis, Debye):
    X=             -1.4190    Y=              0.0000    Z=              0.0000  Tot=              1.4190

 Test job not archived.
 1\1\GINC-SE014\SP\RHF\Aug-CC-pVDZ\C3H2N2O1\OHZDE\05-Apr-2025\0\\#t hf
 aug-cc-pvdz iop(5/13=1,5/36=2,99/5=2) pseudo=read geom=check guess=(re
 ad,tcheck) scf=(maxcycle=1)\\title\\0,1\O,0,-1.905063,0.,0.\N,0,0.1902
 97,1.107884,0.120754\N,0,0.190296,-1.107884,-0.120755\C,0,-0.714324,0.
 ,0.\C,0,1.431605,0.685517,-0.183402\C,0,1.431604,-0.685518,0.183403\H,
 0,-0.158479,2.033494,-0.08956\H,0,-0.158482,-2.033493,0.089561\\Versio
 n=ES64L-G16RevC.01\State=1-A\HF=-298.7121177\RMSD=1.477e-02\Dipole=-0.
 558297,0.0000008,0.0000005\Quadrupole=-7.9276697,6.6337683,1.2939014,0

 Normal termination of Gaussian 16 at Sat Apr  5 22:48:35 2025.
