 Gaussian 16, Revision C.01,

 ----------------------------------------------------------------------
 #t hf aug-cc-pvdz symm=none int=(grid=ultrafine) guess=(read,tcheck) s
 table=(opt,rrhf)
 ----------------------------------------------------------------------
 -----
 title
 -----
 Symbolic Z-matrix:
 Charge =  0 Multiplicity = 1

 SCF Done:  E(RHF) =  -981.983987483     A.U. after   16 cycles
 Normal termination of Gaussian 16 at Sat Apr  5 22:48:35 2025.
 Gaussian 16:  ES64L-G16RevC.01  3-Jul-2019

 ----------------------------------------------------------------------
 #t hf aug-cc-pvdz iop(5/13=1,5/36=2,99/5=2) pseudo=read geom=check gue
 ss=(read,tcheck) scf=(maxcycle=1)
 ----------------------------------------------------------------------
 -----
 title
 -----
 Structure from the checkpoint file:  "4-5-dihydro-1-2-3-thiadiazole-4-thiol.chk"
 Charge =  0 Multiplicity = 1

                         Standard orientation:
 ---------------------------------------------------------------------
 Center     Atomic      Atomic             Coordinates (Angstroms)
 Number     Number       Type             X           Y           Z
 ---------------------------------------------------------------------
      1         16           0       -1.983658   -0.378275   -0.077921
      2         16           0        2.278646   -0.016762   -0.202915
      3          7           0       -0.053374    1.287591    0.110852
      4          7           0       -1.248787    1.259796   -0.126326
      5          6           0        0.571612   -0.012113    0.475502
      6          6           0       -0.332408   -1.149797   -0.006743
      7          1           0        2.698054   -1.070500    0.520774
      8          1           0        0.640671    0.011826    1.564772
      9          1           0       -0.043820   -1.503899   -0.993521
     10          1           0       -0.334803   -1.977092    0.697118
 ---------------------------------------------------------------------

 SCF Done:  E(RHF) =  -982.289056914     A.U. after    2 cycles

 The electronic state is 1-A.
 Alpha  occ. eigenvalues --  -93.99092 -93.97587 -15.61608 -15.59009 -11.33819
 Alpha  occ. eigenvalues --  -11.29843  -8.27052  -8.25652  -6.24811  -6.24651
 Alpha  occ. eigenvalues --   -6.24396  -6.23479  -6.23351  -6.23100  -1.41502
 Alpha  occ. eigenvalues --   -1.13804  -1.09121  -0.99174  -0.89682  -0.81042
 Alpha  occ. eigenvalues --   -0.72360  -0.69866  -0.63954  -0.60729  -0.57789
 Alpha  occ. eigenvalues --   -0.57238  -0.53063  -0.47744  -0.43884  -0.39179
 Alpha  occ. eigenvalues --   -0.38309
 Alpha virt. eigenvalues --    0.02766   0.04253   0.04530   0.05113   0.06234
 Alpha virt. eigenvalues --    0.07193   0.07808   0.09199   0.11129   0.11802
 Alpha virt. eigenvalues --    0.12783   0.13161   0.14075   0.14168   0.15138

 Mulliken charges:
               1
     1  S    0.692935
     2  S    0.170956
     3  N   -0.225625
     4  N   -0.077943
     5  C   -0.860366
     6  C   -0.660921
     7  H    0.341503
     8  H    0.163579
     9  H    0.189191
    10  H    0.266691
 Sum of Mulliken charges =  -0.00000

 Dipole moment (field-independent basis, Debye):
    X=              1.0039    Y=             -4.1617    Z=              1.4536  Tot=              4.5211

 Test job not archived.
 1\1\GINC-SE040\SP\RHF\Aug-CC-pVDZ\C2H4N2S2\OHZDE\05-Apr-2025\0\\#t hf
 aug-cc-pvdz iop(5/13=1,5/36=2,99/5=2) pseudo=read geom=check guess=(re
 ad,tcheck) scf=(maxcycle=1)\\title\\0,1\S,0,-1.983658,-0.378275,-0.077
 921\S,0,2.278646,-0.016762,-0.202915\N,0,-0.053374,1.287591,0.110852\N
 ,0,-1.248787,1.259796,-0.126326\C,0,0.571612,-0.012113,0.475502\C,0,-0
 .332408,-1.149797,-0.006743\H,0,2.698054,-1.0705,0.520774\H,0,0.640671
 ,0.011826,1.564772\H,0,-0.04382,-1.503899,-0.993521\H,0,-0.334803,-1.9
 77092,0.697118\\Version=ES64L-G16RevC.01\State=1-A\HF=-982.2890569\RMS

 Normal termination of Gaussian 16 at Sat Apr  5 22:48:39 2025.
