 Gaussian 16, Revision C.01,

 ----------------------------------------------------------------------
 #t hf aug-cc-pvdz symm=none int=(grid=ultrafine) guess=(read,tcheck) s
 table=(opt,rrhf)
 ----------------------------------------------------------------------
 -----
 title
 -----
 Symbolic Z-matrix:
 Charge =  0 Multiplicity = 1

 SCF Done:  E(RHF) =  -643.307971732     A.U. after   14 cycles
 Normal termination of Gaussian 16 at Sat Apr  5 22:48:44 2025.
 Gaussian 16:  ES64L-G16RevC.01  3-Jul-2019

 ----------------------------------------------------------------------
 #t hf aug-cc-pvdz iop(5/13=1,5/36=2,99/5=2) pseudo=read geom=check gue
 ss=(read,tcheck) scf=(maxcycle=1)
 ----------------------------------------------------------------------
 -----
 title
 -----
 Structure from the checkpoint file:  "4-5-dihydro-1-2-thiazole-1-oxide.chk"
 Charge =  0 Multiplicity = 1

                         Standard orientation:
 ---------------------------------------------------------------------
 Center     Atomic      Atomic             Coordinates (Angstroms)
 Number     Number       Type             X           Y           Z
 ---------------------------------------------------------------------
      1          6           0       -1.612174    0.568511    0.325815
      2          6           0       -1.359474   -0.903273    0.131974
      3          6           0       -0.398399    1.283143   -0.255369
      4          7           0       -0.231575   -1.335367   -0.251174
      5          8           0        1.735392    0.014127    0.833141
      6         16           0        0.935671   -0.012414   -0.425050
      7          1           0       -2.539917    0.860499   -0.169257
      8          1           0       -1.752446    0.764996    1.391742
      9          1           0       -2.153498   -1.621061    0.337364
     10          1           0       -0.586581    1.674298   -1.253682
     11          1           0        0.019871    2.064161    0.373207
 ---------------------------------------------------------------------

 SCF Done:  E(RHF) =  -643.618742796     A.U. after    2 cycles

 The electronic state is 1-A.
 Alpha  occ. eigenvalues --  -94.09567 -20.50597 -15.53761 -11.32682 -11.28760
 Alpha  occ. eigenvalues --  -11.28267  -8.36043  -6.33839  -6.33722  -6.33487
 Alpha  occ. eigenvalues --   -1.44570  -1.27199  -1.08714  -1.01077  -0.86709
 Alpha  occ. eigenvalues --   -0.79832  -0.71495  -0.68748  -0.64637  -0.58624
 Alpha  occ. eigenvalues --   -0.57853  -0.56925  -0.56124  -0.50431  -0.47782
 Alpha  occ. eigenvalues --   -0.42261  -0.37871
 Alpha virt. eigenvalues --    0.02557   0.03566   0.04131   0.04766   0.06090
 Alpha virt. eigenvalues --    0.07991   0.08820   0.09206   0.11187   0.11387
 Alpha virt. eigenvalues --    0.12275   0.14070   0.14347   0.14971   0.15360

 Mulliken charges:
               1
     1  C   -0.396075
     2  C   -0.633463
     3  C   -0.601820
     4  N    0.289308
     5  O   -1.457476
     6  S    1.948735
     7  H    0.202658
     8  H    0.222532
     9  H   -0.025040
    10  H    0.254742
    11  H    0.195900
 Sum of Mulliken charges =  -0.00000

 Dipole moment (field-independent basis, Debye):
    X=             -5.3361    Y=              2.7506    Z=             -1.2110  Tot=              6.1243

 Test job not archived.
 1\1\GINC-SE052\SP\RHF\Aug-CC-pVDZ\C3H5N1O1S1\OHZDE\05-Apr-2025\0\\#t h
 f aug-cc-pvdz iop(5/13=1,5/36=2,99/5=2) pseudo=read geom=check guess=(
 read,tcheck) scf=(maxcycle=1)\\title\\0,1\C,0,-1.612174,0.568511,0.325
 815\C,0,-1.359474,-0.903273,0.131974\C,0,-0.398399,1.283143,-0.255369\
 N,0,-0.231575,-1.335367,-0.251174\O,0,1.735392,0.014128,0.833141\S,0,0
 .935671,-0.012414,-0.42505\H,0,-2.539917,0.860498,-0.169257\H,0,-1.752
 446,0.764996,1.391742\H,0,-2.153498,-1.621061,0.337364\H,0,-0.586582,1
 .674298,-1.253682\H,0,0.01987,2.064161,0.373207\\Version=ES64L-G16RevC

 Normal termination of Gaussian 16 at Sat Apr  5 22:48:49 2025.
