 Gaussian 16, Revision C.01,

 ----------------------------------------------------------------------
 #t hf aug-cc-pvdz symm=none int=(grid=ultrafine) guess=(read,tcheck) s
 table=(opt,rrhf)
 ----------------------------------------------------------------------
 -----
 title
 -----
 Symbolic Z-matrix:
 Charge =  0 Multiplicity = 1

 SCF Done:  E(RHF) =  -714.102108213     A.U. after   17 cycles
 Normal termination of Gaussian 16 at Sat Apr  5 22:48:45 2025.
 Gaussian 16:  ES64L-G16RevC.01  3-Jul-2019

 ----------------------------------------------------------------------
 #t hf aug-cc-pvdz iop(5/13=1,5/36=2,99/5=2) pseudo=read geom=check gue
 ss=(read,tcheck) scf=(maxcycle=1)
 ----------------------------------------------------------------------
 -----
 title
 -----
 Structure from the checkpoint file:  "4-amino-1-2-thiazole-5-carbonitrile.chk"
 Charge =  0 Multiplicity = 1

                         Standard orientation:
 ---------------------------------------------------------------------
 Center     Atomic      Atomic             Coordinates (Angstroms)
 Number     Number       Type             X           Y           Z
 ---------------------------------------------------------------------
      1         16           0        0.849093   -1.404452   -0.001478
      2          7           0        2.043738   -0.263167    0.010200
      3          7           0       -0.588772    2.219969   -0.067972
      4          7           0       -2.942184   -0.775655    0.010632
      5          6           0       -0.440552   -0.233849   -0.006414
      6          6           0        0.105987    1.037713   -0.005426
      7          6           0        1.531170    0.941099    0.004087
      8          6           0       -1.808893   -0.550499   -0.000160
      9          1           0       -0.122155    3.047725    0.260526
     10          1           0       -1.574094    2.192039    0.137048
     11          1           0        2.195028    1.796650    0.003525
 ---------------------------------------------------------------------

 SCF Done:  E(RHF) =  -714.472419583     A.U. after    2 cycles

 The electronic state is 1-A.
 Alpha  occ. eigenvalues --  -94.02918 -15.56816 -15.55173 -15.53073 -11.33803
 Alpha  occ. eigenvalues --  -11.31533 -11.31201 -11.30137  -8.30722  -6.28484
 Alpha  occ. eigenvalues --   -6.28338  -6.28113  -1.32600  -1.25896  -1.24645
 Alpha  occ. eigenvalues --   -1.10523  -1.04477  -0.91743  -0.84338  -0.79989
 Alpha  occ. eigenvalues --   -0.75044  -0.68960  -0.65914  -0.63687  -0.61715
 Alpha  occ. eigenvalues --   -0.55674  -0.55102  -0.54621  -0.52999  -0.49421
 Alpha  occ. eigenvalues --   -0.40982  -0.35701
 Alpha virt. eigenvalues --    0.02010   0.02637   0.04031   0.05769   0.07146
 Alpha virt. eigenvalues --    0.07504   0.08759   0.09013   0.10710   0.11037
 Alpha virt. eigenvalues --    0.11279   0.12373   0.12849   0.13222   0.14091

 Mulliken charges:
               1
     1  S    0.653831
     2  N    0.250577
     3  N    0.777968
     4  N    0.971404
     5  C    1.599784
     6  C   -1.253289
     7  C   -0.277901
     8  C   -2.760683
     9  H    0.011496
    10  H    0.109191
    11  H   -0.082378
 Sum of Mulliken charges =  -0.00000

 Dipole moment (field-independent basis, Debye):
    X=              2.0835    Y=              4.0015    Z=              0.7720  Tot=              4.5770

 Test job not archived.
 1\1\GINC-SE183\SP\RHF\Aug-CC-pVDZ\C4H3N3S1\OHZDE\05-Apr-2025\0\\#t hf
 aug-cc-pvdz iop(5/13=1,5/36=2,99/5=2) pseudo=read geom=check guess=(re
 ad,tcheck) scf=(maxcycle=1)\\title\\0,1\S,0,0.849093,-1.404452,-0.0014
 78\N,0,2.043738,-0.263167,0.0102\N,0,-0.588772,2.219969,-0.067972\N,0,
 -2.942184,-0.775655,0.010632\C,0,-0.440552,-0.233849,-0.006414\C,0,0.1
 05987,1.037713,-0.005426\C,0,1.53117,0.941099,0.004087\C,0,-1.808893,-
 0.550499,-0.00016\H,0,-0.122155,3.047725,0.260526\H,0,-1.574094,2.1920
 39,0.137048\H,0,2.195028,1.79665,0.003525\\Version=ES64L-G16RevC.01\St

 Normal termination of Gaussian 16 at Sat Apr  5 22:48:51 2025.
