 Gaussian 16, Revision C.01,

 ----------------------------------------------------------------------
 #t hf aug-cc-pvdz symm=none int=(grid=ultrafine) guess=(read,tcheck) s
 table=(opt,rrhf)
 ----------------------------------------------------------------------
 -----
 title
 -----
 Symbolic Z-matrix:
 Charge =  0 Multiplicity = 1

 SCF Done:  E(RHF) =  -892.411482093     A.U. after   15 cycles
 Normal termination of Gaussian 16 at Sat Apr  5 22:49:22 2025.
 Gaussian 16:  ES64L-G16RevC.01  3-Jul-2019

 ----------------------------------------------------------------------
 #t hf aug-cc-pvdz iop(5/13=1,5/36=2,99/5=2) pseudo=read geom=check gue
 ss=(read,tcheck) scf=(maxcycle=1)
 ----------------------------------------------------------------------
 -----
 title
 -----
 Structure from the checkpoint file:  "4-amino-3-chloro-5-hydroxy-25H-furanone.chk"
 Charge =  0 Multiplicity = 1

                         Standard orientation:
 ---------------------------------------------------------------------
 Center     Atomic      Atomic             Coordinates (Angstroms)
 Number     Number       Type             X           Y           Z
 ---------------------------------------------------------------------
      1         17           0       -2.280642   -0.628707   -0.145550
      2          8           0        1.092025    1.391278    0.220496
      3          8           0       -0.955684    2.323645   -0.050493
      4          8           0        2.553373   -0.218210   -0.655230
      5          7           0        0.574476   -2.183960    0.238082
      6          6           0       -0.663800   -0.075616    0.058842
      7          6           0        0.431472   -0.842507    0.189010
      8          6           0       -0.290734    1.338463    0.058027
      9          6           0        1.619020    0.075759    0.341980
     10          1           0        3.324738    0.348497   -0.543164
     11          1           0       -0.217906   -2.752537   -0.012740
     12          1           0        1.479328   -2.567370    0.021871
     13          1           0        2.069968   -0.003146    1.336481
 ---------------------------------------------------------------------

 SCF Done:  E(RHF) =  -892.913560670     A.U. after    2 cycles

 The electronic state is 1-A.
 Alpha  occ. eigenvalues -- -105.58979 -20.60052 -20.60030 -20.53658 -15.56159
 Alpha  occ. eigenvalues --  -11.40138 -11.39595 -11.34259 -11.30553 -10.63741
 Alpha  occ. eigenvalues --   -7.80727  -7.80303  -7.80278  -1.56307  -1.50442
 Alpha  occ. eigenvalues --   -1.45739  -1.28158  -1.15203  -1.05702  -0.98034
 Alpha  occ. eigenvalues --   -0.86909  -0.83645  -0.77348  -0.75791  -0.74349
 Alpha  occ. eigenvalues --   -0.70644  -0.65474  -0.64167  -0.60531  -0.59483
 Alpha  occ. eigenvalues --   -0.58385  -0.55502  -0.52053  -0.51264  -0.48510
 Alpha  occ. eigenvalues --   -0.46924  -0.44588  -0.36737
 Alpha virt. eigenvalues --    0.02053   0.03291   0.04405   0.05544   0.07924
 Alpha virt. eigenvalues --    0.08784   0.09558   0.09743   0.11519   0.11749
 Alpha virt. eigenvalues --    0.12404   0.13130   0.13673   0.14501   0.15138

 Mulliken charges:
               1
     1  Cl  -0.222394
     2  O   -1.467658
     3  O   -1.304845
     4  O   -1.289818
     5  N    0.845770
     6  C    0.592077
     7  C   -1.412461
     8  C    1.445458
     9  C    2.209174
    10  H    0.302689
    11  H    0.120239
    12  H    0.031138
    13  H    0.150630
 Sum of Mulliken charges =  -0.00000

 Dipole moment (field-independent basis, Debye):
    X=              4.0895    Y=             -4.8151    Z=              0.8195  Tot=              6.3703

 Test job not archived.
 1\1\GINC-SE196\SP\RHF\Aug-CC-pVDZ\C4H4Cl1N1O3\OHZDE\05-Apr-2025\0\\#t
 hf aug-cc-pvdz iop(5/13=1,5/36=2,99/5=2) pseudo=read geom=check guess=
 (read,tcheck) scf=(maxcycle=1)\\title\\0,1\Cl,0,-2.280642,-0.628707,-0
 .14555\O,0,1.092025,1.391278,0.220496\O,0,-0.955684,2.323645,-0.050493
 \O,0,2.553373,-0.21821,-0.65523\N,0,0.574476,-2.18396,0.238082\C,0,-0.
 6638,-0.075616,0.058842\C,0,0.431472,-0.842507,0.18901\C,0,-0.290734,1
 .338463,0.058027\C,0,1.61902,0.075759,0.34198\H,0,3.324738,0.348497,-0
 .543164\H,0,-0.217906,-2.752537,-0.01274\H,0,1.479328,-2.56737,0.02187

 Normal termination of Gaussian 16 at Sat Apr  5 22:50:04 2025.
