 Gaussian 16, Revision C.01,

 ----------------------------------------------------------------------
 #t hf aug-cc-pvdz symm=none int=(grid=ultrafine) guess=(read,tcheck) s
 table=(opt,rrhf)
 ----------------------------------------------------------------------
 -----
 title
 -----
 Symbolic Z-matrix:
 Charge =  0 Multiplicity = 1

 SCF Done:  E(RHF) =  -714.123916615     A.U. after   16 cycles
 Normal termination of Gaussian 16 at Sat Apr  5 22:48:52 2025.
 Gaussian 16:  ES64L-G16RevC.01  3-Jul-2019

 ----------------------------------------------------------------------
 #t hf aug-cc-pvdz iop(5/13=1,5/36=2,99/5=2) pseudo=read geom=check gue
 ss=(read,tcheck) scf=(maxcycle=1)
 ----------------------------------------------------------------------
 -----
 title
 -----
 Structure from the checkpoint file:  "4-amino-1-3-thiazole-5-carbonitrile.chk"
 Charge =  0 Multiplicity = 1

                         Standard orientation:
 ---------------------------------------------------------------------
 Center     Atomic      Atomic             Coordinates (Angstroms)
 Number     Number       Type             X           Y           Z
 ---------------------------------------------------------------------
      1         16           0       -0.844455   -1.432131   -0.001735
      2          7           0       -1.485615    1.063138    0.005370
      3          7           0        0.565464    2.204052   -0.054581
      4          7           0        2.937529   -0.771304    0.008341
      5          6           0       -0.117671    1.028945   -0.005236
      6          6           0        0.435762   -0.243451   -0.005215
      7          6           0       -1.980824   -0.136886    0.007729
      8          6           0        1.800797   -0.558509   -0.000399
      9          1           0       -3.040901   -0.340536    0.015885
     10          1           0        0.051496    3.036922    0.173244
     11          1           0        1.550661    2.205914    0.143440
 ---------------------------------------------------------------------

 SCF Done:  E(RHF) =  -714.494142865     A.U. after    2 cycles

 The electronic state is 1-A.
 Alpha  occ. eigenvalues --  -94.01632 -15.54503 -15.53869 -15.51608 -11.36182
 Alpha  occ. eigenvalues --  -11.35724 -11.29510 -11.29079  -8.29774  -6.27531
 Alpha  occ. eigenvalues --   -6.27438  -6.27207  -1.33937  -1.24221  -1.23482
 Alpha  occ. eigenvalues --   -1.12714  -1.03935  -0.91772  -0.84478  -0.80702
 Alpha  occ. eigenvalues --   -0.73963  -0.69774  -0.65181  -0.64533  -0.60419
 Alpha  occ. eigenvalues --   -0.58009  -0.54115  -0.53161  -0.50345  -0.48944
 Alpha  occ. eigenvalues --   -0.43389  -0.34725
 Alpha virt. eigenvalues --    0.02676   0.03532   0.04707   0.06017   0.06727
 Alpha virt. eigenvalues --    0.07159   0.08756   0.09591   0.11148   0.11410
 Alpha virt. eigenvalues --    0.11730   0.12264   0.12905   0.13782   0.14662

 Mulliken charges:
               1
     1  S    0.617790
     2  N    0.694915
     3  N    0.755913
     4  N    0.991447
     5  C   -1.570756
     6  C    1.180100
     7  C   -0.321173
     8  C   -2.580334
     9  H   -0.016597
    10  H    0.017224
    11  H    0.231472
 Sum of Mulliken charges =   0.00000

 Dipole moment (field-independent basis, Debye):
    X=             -4.3848    Y=              1.3003    Z=              0.6375  Tot=              4.6178

 Test job not archived.
 1\1\GINC-SE190\SP\RHF\Aug-CC-pVDZ\C4H3N3S1\OHZDE\05-Apr-2025\0\\#t hf
 aug-cc-pvdz iop(5/13=1,5/36=2,99/5=2) pseudo=read geom=check guess=(re
 ad,tcheck) scf=(maxcycle=1)\\title\\0,1\S,0,-0.844455,-1.432131,-0.001
 735\N,0,-1.485615,1.063138,0.00537\N,0,0.565464,2.204052,-0.054581\N,0
 ,2.937529,-0.771304,0.008341\C,0,-0.117671,1.028945,-0.005236\C,0,0.43
 5762,-0.243451,-0.005215\C,0,-1.980824,-0.136886,0.007729\C,0,1.800797
 ,-0.558509,-0.000399\H,0,-3.040901,-0.340536,0.015885\H,0,0.051496,3.0
 36922,0.173244\H,0,1.550661,2.205914,0.14344\\Version=ES64L-G16RevC.01

 Normal termination of Gaussian 16 at Sat Apr  5 22:48:58 2025.
