 Gaussian 16, Revision C.01,

 ----------------------------------------------------------------------
 #t hf aug-cc-pvdz symm=none int=(grid=ultrafine) guess=(read,tcheck) s
 table=(opt,rrhf)
 ----------------------------------------------------------------------
 -----
 title
 -----
 Symbolic Z-matrix:
 Charge =  0 Multiplicity = 1

 SCF Done:  E(RHF) =  -1164.15911067     A.U. after   15 cycles
 Normal termination of Gaussian 16 at Sat Apr  5 22:48:45 2025.
 Gaussian 16:  ES64L-G16RevC.01  3-Jul-2019

 ----------------------------------------------------------------------
 #t hf aug-cc-pvdz iop(5/13=1,5/36=2,99/5=2) pseudo=read geom=check gue
 ss=(read,tcheck) scf=(maxcycle=1)
 ----------------------------------------------------------------------
 -----
 title
 -----
 Structure from the checkpoint file:  "4-chloromethyl-2-fluoro-1-3-thiazole.chk"
 Charge =  0 Multiplicity = 1

                         Standard orientation:
 ---------------------------------------------------------------------
 Center     Atomic      Atomic             Coordinates (Angstroms)
 Number     Number       Type             X           Y           Z
 ---------------------------------------------------------------------
      1         17           0       -2.893971   -0.323448   -0.516915
      2         16           0        1.947247    0.982404   -0.300395
      3          9           0        2.454522   -1.612150   -0.075441
      4          7           0        0.331438   -0.906310    0.410222
      5          6           0       -0.387056    0.275290    0.443852
      6          6           0        1.530280   -0.673246    0.042767
      7          6           0        0.310052    1.391096    0.099770
      8          6           0       -1.816007    0.247130    0.843769
      9          1           0       -0.036503    2.408900    0.047814
     10          1           0       -2.175019    1.233905    1.114544
     11          1           0       -1.981283   -0.450741    1.657975
 ---------------------------------------------------------------------

 SCF Done:  E(RHF) =  -1164.59197173     A.U. after    2 cycles

 The electronic state is 1-A.
 Alpha  occ. eigenvalues -- -105.56129 -94.01901 -26.52288 -15.53295 -11.42315
 Alpha  occ. eigenvalues --  -11.32469 -11.31131 -11.29798 -10.60899  -8.30096
 Alpha  occ. eigenvalues --   -7.77837  -7.77459  -7.77448  -6.27849  -6.27760
 Alpha  occ. eigenvalues --   -6.27523  -1.66129  -1.32475  -1.12887  -1.12469
 Alpha  occ. eigenvalues --   -1.03263  -0.92164  -0.87541  -0.82115  -0.76011
 Alpha  occ. eigenvalues --   -0.72669  -0.70032  -0.67157  -0.63324  -0.61054
 Alpha  occ. eigenvalues --   -0.59313  -0.56114  -0.54406  -0.50389  -0.45556
 Alpha  occ. eigenvalues --   -0.45143  -0.44023  -0.36751
 Alpha virt. eigenvalues --    0.02952   0.04017   0.05147   0.06798   0.07348
 Alpha virt. eigenvalues --    0.07880   0.08430   0.10083   0.10394   0.10900
 Alpha virt. eigenvalues --    0.11178   0.12757   0.13766   0.14243   0.14818

 Mulliken charges:
               1
     1  Cl  -0.045041
     2  S    0.591104
     3  F   -0.808148
     4  N    0.924688
     5  C   -0.022174
     6  C   -0.063124
     7  C   -0.362595
     8  C   -0.469245
     9  H   -0.156727
    10  H    0.188725
    11  H    0.222538
 Sum of Mulliken charges =  -0.00000

 Dipole moment (field-independent basis, Debye):
    X=              1.1943    Y=              3.3820    Z=              1.1546  Tot=              3.7680

 Test job not archived.
 1\1\GINC-SE198\SP\RHF\Aug-CC-pVDZ\C4H3Cl1F1N1S1\OHZDE\05-Apr-2025\0\\#
 t hf aug-cc-pvdz iop(5/13=1,5/36=2,99/5=2) pseudo=read geom=check gues
 s=(read,tcheck) scf=(maxcycle=1)\\title\\0,1\Cl,0,-2.893971,-0.323448,
 -0.516915\S,0,1.947247,0.982404,-0.300395\F,0,2.454522,-1.61215,-0.075
 441\N,0,0.331438,-0.90631,0.410222\C,0,-0.387056,0.27529,0.443852\C,0,
 1.53028,-0.673246,0.042767\C,0,0.310052,1.391096,0.09977\C,0,-1.816007
 ,0.24713,0.843769\H,0,-0.036503,2.4089,0.047814\H,0,-2.175019,1.233905
 ,1.114544\H,0,-1.981283,-0.450741,1.657975\\Version=ES64L-G16RevC.01\S

 Normal termination of Gaussian 16 at Sat Apr  5 22:48:50 2025.
