 Gaussian 16, Revision C.01,

 ----------------------------------------------------------------------
 #t hf aug-cc-pvdz symm=none int=(grid=ultrafine) guess=(read,tcheck) s
 table=(opt,rrhf)
 ----------------------------------------------------------------------
 -----
 title
 -----
 Symbolic Z-matrix:
 Charge =  0 Multiplicity = 1

 SCF Done:  E(RHF) =  -764.523303715     A.U. after   15 cycles
 Normal termination of Gaussian 16 at Sat Apr  5 22:49:12 2025.
 Gaussian 16:  ES64L-G16RevC.01  3-Jul-2019

 ----------------------------------------------------------------------
 #t hf aug-cc-pvdz iop(5/13=1,5/36=2,99/5=2) pseudo=read geom=check gue
 ss=(read,tcheck) scf=(maxcycle=1)
 ----------------------------------------------------------------------
 -----
 title
 -----
 Structure from the checkpoint file:  "4-chlorophenol.chk"
 Charge =  0 Multiplicity = 1

                         Standard orientation:
 ---------------------------------------------------------------------
 Center     Atomic      Atomic             Coordinates (Angstroms)
 Number     Number       Type             X           Y           Z
 ---------------------------------------------------------------------
      1          6           0        1.214937   -1.114720    0.000000
      2          6           0       -1.194532   -1.123734    0.000000
      3          6           0        1.208906    0.272121    0.000000
      4          6           0       -1.202251    0.266088    0.000000
      5          6           0        0.012562   -1.816947    0.000000
      6          6           0        0.000000    0.956110    0.000000
      7          8           0        0.080599   -3.181991    0.000000
      8         17           0       -0.005372    2.710582    0.000000
      9          1           0        2.146145   -1.663099    0.000000
     10          1           0       -2.133071   -1.664730    0.000000
     11          1           0        2.139489    0.820428    0.000000
     12          1           0       -2.137764    0.805811    0.000000
     13          1           0       -0.805999   -3.555873    0.000000
 ---------------------------------------------------------------------

 SCF Done:  E(RHF) =  -764.908851134     A.U. after    2 cycles

 The electronic state is 1-A'.
 Alpha  occ. eigenvalues -- -105.57009 -20.59132 -11.32252 -11.30414 -11.26656
 Alpha  occ. eigenvalues --  -11.26474 -11.25775 -11.25212 -10.61806  -7.78772
 Alpha  occ. eigenvalues --   -7.78378  -7.78356  -1.50458  -1.18667  -1.09439
 Alpha  occ. eigenvalues --   -1.04349  -0.98520  -0.87765  -0.83476  -0.75821
 Alpha  occ. eigenvalues --   -0.70369  -0.66946  -0.63843  -0.62287  -0.60282
 Alpha  occ. eigenvalues --   -0.58941  -0.54469  -0.54140  -0.52579  -0.46462
 Alpha  occ. eigenvalues --   -0.46442  -0.36961  -0.32856
 Alpha virt. eigenvalues --    0.02740   0.03921   0.04215   0.05613   0.06464
 Alpha virt. eigenvalues --    0.08699   0.09508   0.09668   0.10901   0.12800
 Alpha virt. eigenvalues --    0.12839   0.13017   0.13445   0.13763   0.14149

 Mulliken charges:
               1
     1  C    0.423160
     2  C    0.097681
     3  C    0.407905
     4  C    0.276956
     5  C    1.499961
     6  C   -0.165682
     7  O   -1.740628
     8  Cl  -0.339314
     9  H   -0.241650
    10  H   -0.315997
    11  H   -0.160314
    12  H   -0.146769
    13  H    0.404693
 Sum of Mulliken charges =   0.00000

 Dipole moment (field-independent basis, Debye):
    X=             -1.3218    Y=             -1.9688    Z=              0.0000  Tot=              2.3714

 Test job not archived.
 1\1\GINC-SE199\SP\RHF\Aug-CC-pVDZ\C6H5Cl1O1\OHZDE\05-Apr-2025\0\\#t hf
  aug-cc-pvdz iop(5/13=1,5/36=2,99/5=2) pseudo=read geom=check guess=(r
 ead,tcheck) scf=(maxcycle=1)\\title\\0,1\C,0,1.214937,-1.11472,0.\C,0,
 -1.194532,-1.123734,0.\C,0,1.208906,0.272121,0.\C,0,-1.202251,0.266088
 ,0.\C,0,0.012562,-1.816947,0.\C,0,0.,0.95611,0.\O,0,0.0806,-3.181991,0
 .\Cl,0,-0.005372,2.710582,0.\H,0,2.146145,-1.663099,0.\H,0,-2.133071,-
 1.66473,0.\H,0,2.139489,0.820428,0.\H,0,-2.137764,0.805811,0.\H,0,-0.8
 05998,-3.555873,0.\\Version=ES64L-G16RevC.01\State=1-A'\HF=-764.908851

 Normal termination of Gaussian 16 at Sat Apr  5 22:50:04 2025.
