 Gaussian 16, Revision C.01,

 ----------------------------------------------------------------------
 #t hf aug-cc-pvdz symm=none int=(grid=ultrafine) guess=(read,tcheck) s
 table=(opt,rrhf)
 ----------------------------------------------------------------------
 -----
 title
 -----
 Symbolic Z-matrix:
 Charge =  0 Multiplicity = 1

 SCF Done:  E(RHF) =  -724.461469617     A.U. after   15 cycles
 Normal termination of Gaussian 16 at Sat Apr  5 22:48:41 2025.
 Gaussian 16:  ES64L-G16RevC.01  3-Jul-2019

 ----------------------------------------------------------------------
 #t hf aug-cc-pvdz iop(5/13=1,5/36=2,99/5=2) pseudo=read geom=check gue
 ss=(read,tcheck) scf=(maxcycle=1)
 ----------------------------------------------------------------------
 -----
 title
 -----
 Structure from the checkpoint file:  "4-chloro-3H-1-2-dioxole.chk"
 Charge =  0 Multiplicity = 1

                         Standard orientation:
 ---------------------------------------------------------------------
 Center     Atomic      Atomic             Coordinates (Angstroms)
 Number     Number       Type             X           Y           Z
 ---------------------------------------------------------------------
      1         17           0        2.035348   -0.011575   -0.003987
      2          8           0       -1.801008   -0.820277    0.011276
      3          8           0       -1.875262    0.660254   -0.028353
      4          6           0        0.315681   -0.055902   -0.001214
      5          6           0       -0.477853   -1.114474    0.001648
      6          6           0       -0.531551    1.179920    0.019645
      7          1           0       -0.253678   -2.168788    0.002003
      8          1           0       -0.374491    1.821150   -0.853262
      9          1           0       -0.400253    1.767328    0.935181
 ---------------------------------------------------------------------

 SCF Done:  E(RHF) =  -724.798807215     A.U. after    2 cycles

 The electronic state is 1-A.
 Alpha  occ. eigenvalues -- -105.59750 -20.64745 -20.63593 -11.33164 -11.32720
 Alpha  occ. eigenvalues --  -11.31202 -10.64505  -7.81491  -7.81062  -7.81043
 Alpha  occ. eigenvalues --   -1.61238  -1.34593  -1.16389  -1.04127  -0.92179
 Alpha  occ. eigenvalues --   -0.81960  -0.73159  -0.71084  -0.64028  -0.60941
 Alpha  occ. eigenvalues --   -0.60184  -0.58752  -0.55418  -0.54268  -0.48135
 Alpha  occ. eigenvalues --   -0.47243  -0.35419
 Alpha virt. eigenvalues --    0.03669   0.04231   0.05163   0.07271   0.09419
 Alpha virt. eigenvalues --    0.09851   0.10409   0.10814   0.14747   0.14854
 Alpha virt. eigenvalues --    0.15408   0.15629   0.16827   0.17258   0.17717

 Mulliken charges:
               1
     1  Cl  -0.144460
     2  O   -1.028560
     3  O   -0.709755
     4  C   -0.576100
     5  C    1.582516
     6  C    0.548219
     7  H   -0.012998
     8  H    0.165640
     9  H    0.175497
 Sum of Mulliken charges =  -0.00000

 Dipole moment (field-independent basis, Debye):
    X=              1.1652    Y=             -0.0244    Z=              0.0591  Tot=              1.1670

 Test job not archived.
 1\1\GINC-SE188\SP\RHF\Aug-CC-pVDZ\C3H3Cl1O2\OHZDE\05-Apr-2025\0\\#t hf
  aug-cc-pvdz iop(5/13=1,5/36=2,99/5=2) pseudo=read geom=check guess=(r
 ead,tcheck) scf=(maxcycle=1)\\title\\0,1\Cl,0,2.035348,-0.011575,-0.00
 3987\O,0,-1.801008,-0.820277,0.011276\O,0,-1.875262,0.660254,-0.028353
 \C,0,0.315681,-0.055902,-0.001214\C,0,-0.477853,-1.114474,0.001648\C,0
 ,-0.531551,1.17992,0.019645\H,0,-0.253678,-2.168788,0.002003\H,0,-0.37
 4491,1.82115,-0.853262\H,0,-0.400253,1.767328,0.935181\\Version=ES64L-
 G16RevC.01\State=1-A\HF=-724.7988072\RMSD=1.744e-02\Dipole=0.4584345,-

 Normal termination of Gaussian 16 at Sat Apr  5 22:48:44 2025.
