 Gaussian 16, Revision C.01,

 ----------------------------------------------------------------------
 #t hf aug-cc-pvdz symm=none int=(grid=ultrafine) guess=(read,tcheck) s
 table=(opt,rrhf)
 ----------------------------------------------------------------------
 -----
 title
 -----
 Symbolic Z-matrix:
 Charge =  0 Multiplicity = 1

 SCF Done:  E(RHF) =  -615.051837018     A.U. after   13 cycles

 1\1\GINC-SE085\Stability\RHF\Aug-CC-pVDZ\C4H7Cl1\OHZDE\05-Apr-2025\0\\
 #t hf aug-cc-pvdz symm=none int=(grid=ultrafine) guess=(read,tcheck) s
 table=(opt,rrhf)\\title\\0,1\H,0,3.260702,-1.294214,-0.401232\C,0,1.43
 8044,-0.423931,0.19133\H,0,3.206899,0.548451,-0.421234\C,0,2.695041,-0
 .387967,-0.232098\H,0,0.306468,0.824211,1.506818\C,0,0.591287,0.786117
 ,0.451638\H,0,-1.211253,1.787841,-0.217654\H,0,-0.46326,0.753418,-1.45
 0887\C,0,-0.675702,0.859133,-0.390868\H,0,0.96336,-1.382561,0.370238\H
 ,0,1.169489,1.691325,0.243452\Cl,0,-1.854378,-0.466387,0.014735\\Versi

 Normal termination of Gaussian 16 at Sat Apr  5 22:48:35 2025.
 Gaussian 16:  ES64L-G16RevC.01  3-Jul-2019

 ----------------------------------------------------------------------
 #t hf aug-cc-pvdz iop(5/13=1,5/36=2,99/5=2) pseudo=read geom=check gue
 ss=(read,tcheck) scf=(maxcycle=1)
 ----------------------------------------------------------------------
 -----
 title
 -----
 Structure from the checkpoint file:  "4-chloro-1-butene.chk"
 Charge =  0 Multiplicity = 1

                         Standard orientation:
 ---------------------------------------------------------------------
 Center     Atomic      Atomic             Coordinates (Angstroms)
 Number     Number       Type             X           Y           Z
 ---------------------------------------------------------------------
      1          1           0        3.260702   -1.294214   -0.401232
      2          6           0        1.438044   -0.423931    0.191330
      3          1           0        3.206899    0.548451   -0.421234
      4          6           0        2.695041   -0.387967   -0.232098
      5          1           0        0.306468    0.824211    1.506818
      6          6           0        0.591287    0.786117    0.451638
      7          1           0       -1.211253    1.787841   -0.217654
      8          1           0       -0.463260    0.753418   -1.450887
      9          6           0       -0.675702    0.859133   -0.390868
     10          1           0        0.963360   -1.382561    0.370238
     11          1           0        1.169489    1.691325    0.243452
     12         17           0       -1.854378   -0.466387    0.014735
 ---------------------------------------------------------------------

 SCF Done:  E(RHF) =  -615.298525532     A.U. after    2 cycles

 The electronic state is 1-A.
 Alpha  occ. eigenvalues -- -105.55300 -11.30851 -11.25552 -11.24760 -11.23801
 Alpha  occ. eigenvalues --  -10.60110  -7.77044  -7.76686  -7.76675  -1.12762
 Alpha  occ. eigenvalues --   -1.05962  -0.97272  -0.85819  -0.77066  -0.67471
 Alpha  occ. eigenvalues --   -0.65056  -0.61044  -0.58181  -0.56334  -0.51881
 Alpha  occ. eigenvalues --   -0.50185  -0.44532  -0.44129  -0.37955
 Alpha virt. eigenvalues --    0.03454   0.03851   0.04515   0.04834   0.06239
 Alpha virt. eigenvalues --    0.06876   0.07584   0.09782   0.10571   0.12230
 Alpha virt. eigenvalues --    0.13054   0.14611   0.14876   0.15699   0.16122

 Mulliken charges:
               1
     1  H   -0.085398
     2  C    0.815214
     3  H   -0.075476
     4  C   -0.195633
     5  H    0.224171
     6  C   -0.471313
     7  H    0.211010
     8  H    0.235060
     9  C   -0.577636
    10  H   -0.149516
    11  H    0.161451
    12  Cl  -0.091934
 Sum of Mulliken charges =  -0.00000

 Dipole moment (field-independent basis, Debye):
    X=              1.4733    Y=              1.7118    Z=             -0.3146  Tot=              2.2803

 Test job not archived.
 1\1\GINC-SE085\SP\RHF\Aug-CC-pVDZ\C4H7Cl1\OHZDE\05-Apr-2025\0\\#t hf a
 ug-cc-pvdz iop(5/13=1,5/36=2,99/5=2) pseudo=read geom=check guess=(rea
 d,tcheck) scf=(maxcycle=1)\\title\\0,1\H,0,3.260702,-1.294214,-0.40123
 2\C,0,1.438044,-0.423931,0.19133\H,0,3.206899,0.548451,-0.421234\C,0,2
 .695041,-0.387967,-0.232098\H,0,0.306468,0.824211,1.506818\C,0,0.59128
 7,0.786117,0.451638\H,0,-1.211253,1.787841,-0.217654\H,0,-0.46326,0.75
 3418,-1.450887\C,0,-0.675702,0.859133,-0.390868\H,0,0.96336,-1.382561,
 0.370238\H,0,1.169489,1.691325,0.243452\Cl,0,-1.854378,-0.466387,0.014

 Normal termination of Gaussian 16 at Sat Apr  5 22:48:39 2025.
