 Gaussian 16, Revision C.01,

 ----------------------------------------------------------------------
 #t hf aug-cc-pvdz symm=none int=(grid=ultrafine) guess=(read,tcheck) s
 table=(opt,rrhf)
 ----------------------------------------------------------------------
 -----
 title
 -----
 Symbolic Z-matrix:
 Charge =  0 Multiplicity = 1

 SCF Done:  E(RHF) =  -1064.38203315     A.U. after   15 cycles
 Normal termination of Gaussian 16 at Sat Apr  5 22:48:43 2025.
 Gaussian 16:  ES64L-G16RevC.01  3-Jul-2019

 ----------------------------------------------------------------------
 #t hf aug-cc-pvdz iop(5/13=1,5/36=2,99/5=2) pseudo=read geom=check gue
 ss=(read,tcheck) scf=(maxcycle=1)
 ----------------------------------------------------------------------
 -----
 title
 -----
 Structure from the checkpoint file:  "4-chloro-1-2-3-oxathiazolidine.chk"
 Charge =  0 Multiplicity = 1

                         Standard orientation:
 ---------------------------------------------------------------------
 Center     Atomic      Atomic             Coordinates (Angstroms)
 Number     Number       Type             X           Y           Z
 ---------------------------------------------------------------------
      1         17           0        2.146887   -0.158355   -0.305057
      2         16           0       -1.585845   -0.628523   -0.400452
      3          8           0       -1.548273    1.014367    0.043950
      4          7           0       -0.277672   -1.009832    0.627787
      5          6           0        0.609969    0.131067    0.637735
      6          6           0       -0.158865    1.344018    0.027468
      7          1           0       -0.595129   -1.227421    1.564642
      8          1           0        0.945527    0.317665    1.652134
      9          1           0        0.182044    1.521159   -0.992647
     10          1           0       -0.032741    2.240381    0.631744
 ---------------------------------------------------------------------

 SCF Done:  E(RHF) =  -1064.72733496     A.U. after    2 cycles

 The electronic state is 1-A.
 Alpha  occ. eigenvalues -- -105.56313 -94.03735 -20.59437 -15.55413 -11.36224
 Alpha  occ. eigenvalues --  -11.32022 -10.61139  -8.30966  -7.78069  -7.77698
 Alpha  occ. eigenvalues --   -7.77692  -6.28737  -6.28576  -6.28231  -1.49744
 Alpha  occ. eigenvalues --   -1.26403  -1.10402  -1.00605  -0.92381  -0.85517
 Alpha  occ. eigenvalues --   -0.76036  -0.69350  -0.67463  -0.62585  -0.61555
 Alpha  occ. eigenvalues --   -0.55255  -0.52296  -0.50824  -0.47801  -0.46046
 Alpha  occ. eigenvalues --   -0.45289  -0.37315
 Alpha virt. eigenvalues --    0.03026   0.04462   0.05165   0.06125   0.07334
 Alpha virt. eigenvalues --    0.07773   0.09151   0.11472   0.11735   0.13089
 Alpha virt. eigenvalues --    0.13619   0.14241   0.15408   0.16407   0.17065

 Mulliken charges:
               1
     1  Cl  -0.027541
     2  S    0.839799
     3  O   -1.280996
     4  N    0.116084
     5  C   -1.182297
     6  C    0.822419
     7  H    0.235954
     8  H    0.198284
     9  H    0.188313
    10  H    0.089982
 Sum of Mulliken charges =   0.00000

 Dipole moment (field-independent basis, Debye):
    X=             -0.4396    Y=              1.0083    Z=              2.0288  Tot=              2.3078

 Test job not archived.
 1\1\GINC-SE009\SP\RHF\Aug-CC-pVDZ\C2H4Cl1N1O1S1\OHZDE\05-Apr-2025\0\\#
 t hf aug-cc-pvdz iop(5/13=1,5/36=2,99/5=2) pseudo=read geom=check gues
 s=(read,tcheck) scf=(maxcycle=1)\\title\\0,1\Cl,0,2.146887,-0.158355,-
 0.305057\S,0,-1.585845,-0.628523,-0.400452\O,0,-1.548273,1.014367,0.04
 395\N,0,-0.277672,-1.009832,0.627787\C,0,0.609969,0.131067,0.637735\C,
 0,-0.158865,1.344018,0.027468\H,0,-0.595129,-1.227421,1.564642\H,0,0.9
 45527,0.317665,1.652134\H,0,0.182044,1.521159,-0.992647\H,0,-0.032741,
 2.240381,0.631744\\Version=ES64L-G16RevC.01\State=1-A\HF=-1064.727335\

 Normal termination of Gaussian 16 at Sat Apr  5 22:48:48 2025.
