 Gaussian 16, Revision C.01,

 ----------------------------------------------------------------------
 #t hf aug-cc-pvdz symm=none int=(grid=ultrafine) guess=(read,tcheck) s
 table=(opt,rrhf)
 ----------------------------------------------------------------------
 -----
 title
 -----
 Symbolic Z-matrix:
 Charge =  0 Multiplicity = 1

 SCF Done:  E(RHF) =  -758.586461149     A.U. after   15 cycles
 Normal termination of Gaussian 16 at Sat Apr  5 22:48:36 2025.
 Gaussian 16:  ES64L-G16RevC.01  3-Jul-2019

 ----------------------------------------------------------------------
 #t hf aug-cc-pvdz iop(5/13=1,5/36=2,99/5=2) pseudo=read geom=check gue
 ss=(read,tcheck) scf=(maxcycle=1)
 ----------------------------------------------------------------------
 -----
 title
 -----
 Structure from the checkpoint file:  "4-chloro-1-2-oxazol-3-amine.chk"
 Charge =  0 Multiplicity = 1

                         Standard orientation:
 ---------------------------------------------------------------------
 Center     Atomic      Atomic             Coordinates (Angstroms)
 Number     Number       Type             X           Y           Z
 ---------------------------------------------------------------------
      1         17           0        2.032090   -0.194629   -0.000258
      2          8           0       -1.737574   -1.136233    0.004416
      3          7           0       -1.857611    0.269811    0.007343
      4          7           0       -0.338436    2.066229   -0.073485
      5          6           0        0.315301   -0.344216   -0.003266
      6          6           0       -0.628792    0.728757   -0.004720
      7          6           0       -0.442310   -1.462994    0.002464
      8          1           0        0.555469    2.341498    0.298227
      9          1           0       -1.096227    2.686160    0.162543
     10          1           0       -0.197051   -2.510661    0.004428
 ---------------------------------------------------------------------

 SCF Done:  E(RHF) =  -758.960426145     A.U. after    2 cycles

 The electronic state is 1-A.
 Alpha  occ. eigenvalues -- -105.60031 -20.63484 -15.55278 -15.53776 -11.34128
 Alpha  occ. eigenvalues --  -11.33927 -11.31024 -10.64781  -7.81768  -7.81348
 Alpha  occ. eigenvalues --   -7.81316  -1.57230  -1.27353  -1.15864  -1.14734
 Alpha  occ. eigenvalues --   -1.03802  -0.86919  -0.84647  -0.75837  -0.73907
 Alpha  occ. eigenvalues --   -0.68356  -0.67159  -0.62510  -0.58345  -0.56325
 Alpha  occ. eigenvalues --   -0.53682  -0.53336  -0.48416  -0.41131  -0.37993
 Alpha virt. eigenvalues --    0.03080   0.04041   0.05940   0.07806   0.08098
 Alpha virt. eigenvalues --    0.09672   0.10254   0.11574   0.12632   0.12967
 Alpha virt. eigenvalues --    0.13892   0.14498   0.14786   0.16733   0.17035

 Mulliken charges:
               1
     1  Cl  -0.190438
     2  O   -1.568534
     3  N    1.452579
     4  N    0.693598
     5  C    0.379775
     6  C   -2.044165
     7  C    1.070131
     8  H    0.167798
     9  H    0.048397
    10  H   -0.009142
 Sum of Mulliken charges =  -0.00000

 Dipole moment (field-independent basis, Debye):
    X=              2.3253    Y=              0.2497    Z=              0.9080  Tot=              2.5087

 Test job not archived.
 1\1\GINC-SE010\SP\RHF\Aug-CC-pVDZ\C3H3Cl1N2O1\OHZDE\05-Apr-2025\0\\#t
 hf aug-cc-pvdz iop(5/13=1,5/36=2,99/5=2) pseudo=read geom=check guess=
 (read,tcheck) scf=(maxcycle=1)\\title\\0,1\Cl,0,2.03209,-0.194629,-0.0
 00258\O,0,-1.737574,-1.136233,0.004416\N,0,-1.857611,0.269811,0.007343
 \N,0,-0.338436,2.066229,-0.073485\C,0,0.315301,-0.344216,-0.003266\C,0
 ,-0.628792,0.728757,-0.00472\C,0,-0.44231,-1.462994,0.002464\H,0,0.555
 469,2.341498,0.298227\H,0,-1.096227,2.68616,0.162543\H,0,-0.197051,-2.
 510661,0.004428\\Version=ES64L-G16RevC.01\State=1-A\HF=-758.9604261\RM

 Normal termination of Gaussian 16 at Sat Apr  5 22:48:40 2025.
