 Gaussian 16, Revision C.01,

 ----------------------------------------------------------------------
 #t hf aug-cc-pvdz symm=none int=(grid=ultrafine) guess=(read,tcheck) s
 table=(opt,rrhf)
 ----------------------------------------------------------------------
 -----
 title
 -----
 Symbolic Z-matrix:
 Charge =  0 Multiplicity = 1

 SCF Done:  E(RHF) =  -762.431888274     A.U. after   16 cycles
 Normal termination of Gaussian 16 at Sat Apr  5 22:48:45 2025.
 Gaussian 16:  ES64L-G16RevC.01  3-Jul-2019

 ----------------------------------------------------------------------
 #t hf aug-cc-pvdz iop(5/13=1,5/36=2,99/5=2) pseudo=read geom=check gue
 ss=(read,tcheck) scf=(maxcycle=1)
 ----------------------------------------------------------------------
 -----
 title
 -----
 Structure from the checkpoint file:  "4-chloro-2-butynoic_acid.chk"
 Charge =  0 Multiplicity = 1

                         Standard orientation:
 ---------------------------------------------------------------------
 Center     Atomic      Atomic             Coordinates (Angstroms)
 Number     Number       Type             X           Y           Z
 ---------------------------------------------------------------------
      1         17           0        2.873531    0.486714    0.000430
      2          8           0       -2.513569    1.387263   -0.000565
      3          8           0       -3.095526   -0.762540   -0.000395
      4          6           0       -2.179793    0.237520   -0.000377
      5          6           0       -0.799428   -0.203129   -0.000117
      6          6           0        0.356403   -0.534339    0.000095
      7          6           0        1.742195   -0.935325    0.000352
      8          1           0       -2.655104   -1.621927   -0.000224
      9          1           0        1.980933   -1.519238   -0.885367
     10          1           0        1.980645   -1.519107    0.886235
 ---------------------------------------------------------------------

 SCF Done:  E(RHF) =  -762.805922295     A.U. after    2 cycles

 The electronic state is 1-A.
 Alpha  occ. eigenvalues -- -105.58524 -20.62165 -20.55809 -11.43471 -11.36192
 Alpha  occ. eigenvalues --  -11.30610 -11.28780 -10.63269  -7.80217  -7.79813
 Alpha  occ. eigenvalues --   -7.79803  -1.56444  -1.47729  -1.15821  -1.08185
 Alpha  occ. eigenvalues --   -0.97693  -0.91215  -0.82583  -0.72293  -0.68651
 Alpha  occ. eigenvalues --   -0.68536  -0.65097  -0.62028  -0.60338  -0.50134
 Alpha  occ. eigenvalues --   -0.48635  -0.48117  -0.47686  -0.44125  -0.44024
 Alpha virt. eigenvalues --    0.01973   0.03880   0.04002   0.06435   0.07807
 Alpha virt. eigenvalues --    0.07927   0.09240   0.10081   0.11156   0.12048
 Alpha virt. eigenvalues --    0.12476   0.13072   0.14434   0.15379   0.15448

 Mulliken charges:
               1
     1  Cl  -0.001753
     2  O   -1.153390
     3  O   -1.211798
     4  C    1.825954
     5  C    0.032227
     6  C    0.459058
     7  C   -1.055734
     8  H    0.451420
     9  H    0.327010
    10  H    0.327007
 Sum of Mulliken charges =   0.00000

 Dipole moment (field-independent basis, Debye):
    X=              2.1598    Y=             -5.1617    Z=              0.0009  Tot=              5.5954

 Test job not archived.
 1\1\GINC-SE180\SP\RHF\Aug-CC-pVDZ\C4H3Cl1O2\OHZDE\05-Apr-2025\0\\#t hf
  aug-cc-pvdz iop(5/13=1,5/36=2,99/5=2) pseudo=read geom=check guess=(r
 ead,tcheck) scf=(maxcycle=1)\\title\\0,1\Cl,0,2.873531,0.486714,0.0004
 3\O,0,-2.513569,1.387263,-0.000565\O,0,-3.095526,-0.76254,-0.000395\C,
 0,-2.179793,0.23752,-0.000377\C,0,-0.799428,-0.203129,-0.000117\C,0,0.
 356403,-0.534339,0.000095\C,0,1.742195,-0.935325,0.000352\H,0,-2.65510
 4,-1.621927,-0.000224\H,0,1.980933,-1.519238,-0.885367\H,0,1.980645,-1
 .519107,0.886235\\Version=ES64L-G16RevC.01\State=1-A\HF=-762.8059223\R

 Normal termination of Gaussian 16 at Sat Apr  5 22:48:50 2025.
