 Gaussian 16, Revision C.01,

 ----------------------------------------------------------------------
 #t hf aug-cc-pvdz symm=none int=(grid=ultrafine) guess=(read,tcheck) s
 table=(opt,rrhf)
 ----------------------------------------------------------------------
 -----
 title
 -----
 Symbolic Z-matrix:
 Charge =  0 Multiplicity = 1

 SCF Done:  E(RHF) =  -683.743916523     A.U. after   15 cycles
 Normal termination of Gaussian 16 at Sat Apr  5 22:48:40 2025.
 Gaussian 16:  ES64L-G16RevC.01  3-Jul-2019

 ----------------------------------------------------------------------
 #t hf aug-cc-pvdz iop(5/13=1,5/36=2,99/5=2) pseudo=read geom=check gue
 ss=(read,tcheck) scf=(maxcycle=1)
 ----------------------------------------------------------------------
 -----
 title
 -----
 Structure from the checkpoint file:  "4-chloro-pyrazole.chk"
 Charge =  0 Multiplicity = 1

                         Standard orientation:
 ---------------------------------------------------------------------
 Center     Atomic      Atomic             Coordinates (Angstroms)
 Number     Number       Type             X           Y           Z
 ---------------------------------------------------------------------
      1         17           0       -2.003064   -0.016547   -0.000005
      2          7           0        1.843891    0.756301    0.000005
      3          7           0        1.813601   -0.586654    0.000004
      4          6           0       -0.275304   -0.001147   -0.000000
      5          6           0        0.569529    1.124682    0.000002
      6          6           0        0.559203   -1.094849    0.000001
      7          1           0        2.680219   -1.094481    0.000006
      8          1           0        0.296397    2.165829    0.000002
      9          1           0        0.352459   -2.149705   -0.000000
 ---------------------------------------------------------------------

 SCF Done:  E(RHF) =  -684.048228947     A.U. after    2 cycles

 The electronic state is 1-A.
 Alpha  occ. eigenvalues -- -105.58071 -15.59683 -15.54457 -11.30134 -11.29586
 Alpha  occ. eigenvalues --  -11.27636 -10.62833  -7.79820  -7.79399  -7.79378
 Alpha  occ. eigenvalues --   -1.39178  -1.14082  -1.13160  -1.03188  -0.86671
 Alpha  occ. eigenvalues --   -0.83688  -0.78330  -0.66607  -0.66592  -0.61568
 Alpha  occ. eigenvalues --   -0.60810  -0.53077  -0.51924  -0.46641  -0.41109
 Alpha  occ. eigenvalues --   -0.36718
 Alpha virt. eigenvalues --    0.02770   0.04600   0.05318   0.07968   0.08713
 Alpha virt. eigenvalues --    0.09496   0.10491   0.10699   0.12255   0.14168
 Alpha virt. eigenvalues --    0.14298   0.15263   0.15929   0.17499   0.18148

 Mulliken charges:
               1
     1  Cl  -0.136820
     2  N   -0.006036
     3  N    0.237772
     4  C    0.278508
     5  C   -0.131956
     6  C   -0.094592
     7  H    0.052049
     8  H   -0.069279
     9  H   -0.129646
 Sum of Mulliken charges =  -0.00000

 Dipole moment (field-independent basis, Debye):
    X=              0.4856    Y=             -2.2852    Z=              0.0000  Tot=              2.3362

 Test job not archived.
 1\1\GINC-SE231\SP\RHF\Aug-CC-pVDZ\C3H3Cl1N2\OHZDE\05-Apr-2025\0\\#t hf
  aug-cc-pvdz iop(5/13=1,5/36=2,99/5=2) pseudo=read geom=check guess=(r
 ead,tcheck) scf=(maxcycle=1)\\title\\0,1\Cl,0,-2.003064,-0.016547,-0.0
 00005\N,0,1.843891,0.756301,0.000005\N,0,1.813601,-0.586654,0.000004\C
 ,0,-0.275304,-0.001147,0.\C,0,0.569529,1.124682,0.000002\C,0,0.559203,
 -1.094849,0.000001\H,0,2.680219,-1.094481,0.000006\H,0,0.296397,2.1658
 29,0.000002\H,0,0.352459,-2.149705,0.\\Version=ES64L-G16RevC.01\State=
 1-A\HF=-684.0482289\RMSD=3.563e-02\Dipole=0.1910635,-0.8990652,0.\Quad

 Normal termination of Gaussian 16 at Sat Apr  5 22:48:45 2025.
