 Gaussian 16, Revision C.01,

 ----------------------------------------------------------------------
 #t hf aug-cc-pvdz symm=none int=(grid=ultrafine) guess=(read,tcheck) s
 table=(opt,rrhf)
 ----------------------------------------------------------------------
 -----
 title
 -----
 Symbolic Z-matrix:
 Charge =  0 Multiplicity = 1

 SCF Done:  E(RHF) =  -1103.09942088     A.U. after   15 cycles
 Normal termination of Gaussian 16 at Sat Apr  5 22:48:52 2025.
 Gaussian 16:  ES64L-G16RevC.01  3-Jul-2019

 ----------------------------------------------------------------------
 #t hf aug-cc-pvdz iop(5/13=1,5/36=2,99/5=2) pseudo=read geom=check gue
 ss=(read,tcheck) scf=(maxcycle=1)
 ----------------------------------------------------------------------
 -----
 title
 -----
 Structure from the checkpoint file:  "4-chloro-2-butyn-1-ylthiocyanate.chk"
 Charge =  0 Multiplicity = 1

                         Standard orientation:
 ---------------------------------------------------------------------
 Center     Atomic      Atomic             Coordinates (Angstroms)
 Number     Number       Type             X           Y           Z
 ---------------------------------------------------------------------
      1         17           0        3.790159   -0.565860   -0.387381
      2         16           0       -2.085317   -0.503553    0.546804
      3          7           0       -4.695349   -0.036278   -0.498130
      4          6           0       -1.119696    0.706179   -0.506380
      5          6           0        2.801833    0.572983    0.637702
      6          6           0        0.267289    0.664830   -0.108118
      7          6           0        1.418175    0.614979    0.230597
      8          6           0       -3.630791   -0.216125   -0.084152
      9          1           0       -1.553731    1.692329   -0.354795
     10          1           0       -1.245536    0.411120   -1.546247
     11          1           0        3.273951    1.547665    0.545309
     12          1           0        2.904272    0.222241    1.661369
 ---------------------------------------------------------------------

 SCF Done:  E(RHF) =  -1103.47932860     A.U. after    2 cycles

 The electronic state is 1-A.
 Alpha  occ. eigenvalues -- -105.57767 -94.02415 -15.53275 -11.35228 -11.34135
 Alpha  occ. eigenvalues --  -11.31139 -11.28353 -11.27989 -10.62518  -8.30380
 Alpha  occ. eigenvalues --   -7.79462  -7.79069  -7.79058  -6.28217  -6.27992
 Alpha  occ. eigenvalues --   -6.27755  -1.25221  -1.15881  -1.13709  -1.06445
 Alpha  occ. eigenvalues --   -0.99184  -0.93806  -0.73482  -0.71215  -0.68280
 Alpha  occ. eigenvalues --   -0.67439  -0.67328  -0.61785  -0.59448  -0.56857
 Alpha  occ. eigenvalues --   -0.55693  -0.50154  -0.47428  -0.46926  -0.42902
 Alpha  occ. eigenvalues --   -0.42241  -0.40889
 Alpha virt. eigenvalues --    0.02569   0.03386   0.04312   0.04647   0.05906
 Alpha virt. eigenvalues --    0.07262   0.07278   0.08737   0.10241   0.10570
 Alpha virt. eigenvalues --    0.11101   0.12247   0.12306   0.12699   0.13235

 Mulliken charges:
               1
     1  Cl  -0.031909
     2  S    0.891618
     3  N    0.722621
     4  C   -1.017929
     5  C   -1.092570
     6  C    0.632254
     7  C    0.197087
     8  C   -1.594499
     9  H    0.345497
    10  H    0.342782
    11  H    0.296848
    12  H    0.308200
 Sum of Mulliken charges =  -0.00000

 Dipole moment (field-independent basis, Debye):
    X=              3.8515    Y=              1.8687    Z=              1.4946  Tot=              4.5343

 Test job not archived.
 1\1\GINC-SE179\SP\RHF\Aug-CC-pVDZ\C5H4Cl1N1S1\OHZDE\05-Apr-2025\0\\#t
 hf aug-cc-pvdz iop(5/13=1,5/36=2,99/5=2) pseudo=read geom=check guess=
 (read,tcheck) scf=(maxcycle=1)\\title\\0,1\Cl,0,3.790159,-0.56586,-0.3
 87381\S,0,-2.085317,-0.503553,0.546804\N,0,-4.695349,-0.036278,-0.4981
 3\C,0,-1.119696,0.706179,-0.50638\C,0,2.801833,0.572983,0.637702\C,0,0
 .267289,0.66483,-0.108118\C,0,1.418175,0.614979,0.230597\C,0,-3.630791
 ,-0.216125,-0.084152\H,0,-1.553731,1.692329,-0.354795\H,0,-1.245536,0.
 41112,-1.546247\H,0,3.273951,1.547665,0.545309\H,0,2.904272,0.222241,1

 Normal termination of Gaussian 16 at Sat Apr  5 22:48:58 2025.
