 Gaussian 16, Revision C.01,

 ----------------------------------------------------------------------
 #t hf aug-cc-pvdz symm=none int=(grid=ultrafine) guess=(read,tcheck) s
 table=(opt,rrhf)
 ----------------------------------------------------------------------
 -----
 title
 -----
 Symbolic Z-matrix:
 Charge =  0 Multiplicity = 1

 SCF Done:  E(RHF) =  -1444.80367989     A.U. after   16 cycles
 Normal termination of Gaussian 16 at Sat Apr  5 22:48:39 2025.
 Gaussian 16:  ES64L-G16RevC.01  3-Jul-2019

 ----------------------------------------------------------------------
 #t hf aug-cc-pvdz iop(5/13=1,5/36=2,99/5=2) pseudo=read geom=check gue
 ss=(read,tcheck) scf=(maxcycle=1)
 ----------------------------------------------------------------------
 -----
 title
 -----
 Structure from the checkpoint file:  "4-chlorodithiolan-3-one.chk"
 Charge =  0 Multiplicity = 1

                         Standard orientation:
 ---------------------------------------------------------------------
 Center     Atomic      Atomic             Coordinates (Angstroms)
 Number     Number       Type             X           Y           Z
 ---------------------------------------------------------------------
      1         17           0       -2.010456   -0.590268   -0.599839
      2         16           0        1.409201   -1.226558   -0.189113
      3         16           0        1.477785    0.867297   -0.404520
      4          8           0       -0.613216    2.315389    0.315501
      5          6           0       -0.892502   -0.061929    0.726505
      6          6           0        0.101019   -1.136073    1.098478
      7          6           0       -0.172173    1.206202    0.240534
      8          1           0       -1.528841    0.214376    1.562461
      9          1           0        0.561916   -0.885355    2.054656
     10          1           0       -0.359432   -2.118613    1.161173
 ---------------------------------------------------------------------

 SCF Done:  E(RHF) =  -1445.18567699     A.U. after    2 cycles

 The electronic state is 1-A.
 Alpha  occ. eigenvalues -- -105.58634 -94.00610 -93.99981 -20.57981 -11.40740
 Alpha  occ. eigenvalues --  -11.35588 -11.32018 -10.63395  -8.28698  -8.27954
 Alpha  occ. eigenvalues --   -7.80343  -7.79949  -7.79936  -6.26445  -6.26305
 Alpha  occ. eigenvalues --   -6.26030  -6.25735  -6.25572  -6.25271  -1.52188
 Alpha  occ. eigenvalues --   -1.20027  -1.10832  -1.03149  -0.98363  -0.86212
 Alpha  occ. eigenvalues --   -0.77936  -0.70925  -0.69043  -0.65114  -0.62171
 Alpha  occ. eigenvalues --   -0.60210  -0.55766  -0.52666  -0.49859  -0.48573
 Alpha  occ. eigenvalues --   -0.47026  -0.46194  -0.42896  -0.35683
 Alpha virt. eigenvalues --    0.02803   0.04080   0.04756   0.06208   0.06364
 Alpha virt. eigenvalues --    0.07086   0.08742   0.09993   0.10199   0.11944
 Alpha virt. eigenvalues --    0.12085   0.12845   0.13505   0.14634   0.14984

 Mulliken charges:
               1
     1  Cl  -0.076499
     2  S    0.275174
     3  S    0.348068
     4  O   -1.153248
     5  C   -0.132387
     6  C   -0.656422
     7  C    0.730546
     8  H    0.180652
     9  H    0.230642
    10  H    0.253474
 Sum of Mulliken charges =  -0.00000

 Dipole moment (field-independent basis, Debye):
    X=              0.2783    Y=             -2.4757    Z=              2.4918  Tot=              3.5236

 Test job not archived.
 1\1\GINC-SE198\SP\RHF\Aug-CC-pVDZ\C3H3Cl1O1S2\OHZDE\05-Apr-2025\0\\#t
 hf aug-cc-pvdz iop(5/13=1,5/36=2,99/5=2) pseudo=read geom=check guess=
 (read,tcheck) scf=(maxcycle=1)\\title\\0,1\Cl,0,-2.010456,-0.590268,-0
 .599839\S,0,1.409201,-1.226558,-0.189113\S,0,1.477785,0.867297,-0.4045
 2\O,0,-0.613216,2.315389,0.315501\C,0,-0.892502,-0.061929,0.726505\C,0
 ,0.101019,-1.136073,1.098478\C,0,-0.172173,1.206202,0.240534\H,0,-1.52
 8841,0.214376,1.562461\H,0,0.561916,-0.885355,2.054656\H,0,-0.359432,-
 2.118613,1.161173\\Version=ES64L-G16RevC.01\State=1-A\HF=-1445.185677\

 Normal termination of Gaussian 16 at Sat Apr  5 22:48:43 2025.
