 Gaussian 16, Revision C.01,

 ----------------------------------------------------------------------
 #t hf aug-cc-pvdz symm=none int=(grid=ultrafine) guess=(read,tcheck) s
 table=(opt,rrhf)
 ----------------------------------------------------------------------
 -----
 title
 -----
 Symbolic Z-matrix:
 Charge =  0 Multiplicity = 1

 SCF Done:  E(RHF) =  -1138.97799397     A.U. after   17 cycles
 Normal termination of Gaussian 16 at Sat Apr  5 22:48:52 2025.
 Gaussian 16:  ES64L-G16RevC.01  3-Jul-2019

 ----------------------------------------------------------------------
 #t hf aug-cc-pvdz iop(5/13=1,5/36=2,99/5=2) pseudo=read geom=check gue
 ss=(read,tcheck) scf=(maxcycle=1)
 ----------------------------------------------------------------------
 -----
 title
 -----
 Structure from the checkpoint file:  "4-chloro-1-2-thiazole-5-carbaldehyde.chk"
 Charge =  0 Multiplicity = 1

                         Standard orientation:
 ---------------------------------------------------------------------
 Center     Atomic      Atomic             Coordinates (Angstroms)
 Number     Number       Type             X           Y           Z
 ---------------------------------------------------------------------
      1         17           0        1.997780   -1.371459    0.000000
      2         16           0       -1.725995    0.605097    0.000000
      3          8           0        0.396341    2.866951    0.000000
      4          7           0       -1.923957   -1.041509    0.000000
      5          6           0        0.000000    0.542410    0.000000
      6          6           0        0.370267   -0.782870    0.000000
      7          6           0       -0.756625   -1.641068    0.000000
      8          6           0        0.840877    1.741435    0.000000
      9          1           0       -0.703404   -2.720895    0.000000
     10          1           0        1.926917    1.549668    0.000000
 ---------------------------------------------------------------------

 SCF Done:  E(RHF) =  -1139.38665305     A.U. after    2 cycles

 The electronic state is 1-A'.
 Alpha  occ. eigenvalues -- -105.61383 -94.03675 -20.57635 -15.56900 -11.37784
 Alpha  occ. eigenvalues --  -11.35033 -11.32195 -11.31917 -10.66165  -8.31487
 Alpha  occ. eigenvalues --   -7.83146  -7.82722  -7.82702  -6.29228  -6.29088
 Alpha  occ. eigenvalues --   -6.28888  -1.50421  -1.32676  -1.17137  -1.10313
 Alpha  occ. eigenvalues --   -1.02986  -0.94257  -0.83340  -0.79810  -0.72790
 Alpha  occ. eigenvalues --   -0.69832  -0.65601  -0.63580  -0.62828  -0.56191
 Alpha  occ. eigenvalues --   -0.54944  -0.53799  -0.52982  -0.49371  -0.45613
 Alpha  occ. eigenvalues --   -0.41729  -0.38438
 Alpha virt. eigenvalues --    0.00851   0.03460   0.04137   0.06755   0.07946
 Alpha virt. eigenvalues --    0.08021   0.08630   0.09086   0.10185   0.11161
 Alpha virt. eigenvalues --    0.12031   0.12959   0.13567   0.14714   0.15017

 Mulliken charges:
               1
     1  Cl  -0.243975
     2  S    0.570603
     3  O   -1.163912
     4  N    0.274851
     5  C    0.478449
     6  C    0.161959
     7  C   -0.957629
     8  C    0.826393
     9  H   -0.079865
    10  H    0.133126
 Sum of Mulliken charges =  -0.00000

 Dipole moment (field-independent basis, Debye):
    X=              2.0243    Y=             -1.8262    Z=              0.0000  Tot=              2.7263

 Test job not archived.
 1\1\GINC-SE084\SP\RHF\Aug-CC-pVDZ\C4H2Cl1N1O1S1\OHZDE\05-Apr-2025\0\\#
 t hf aug-cc-pvdz iop(5/13=1,5/36=2,99/5=2) pseudo=read geom=check gues
 s=(read,tcheck) scf=(maxcycle=1)\\title\\0,1\Cl,0,1.99778,-1.371459,0.
 \S,0,-1.725995,0.605097,0.\O,0,0.396341,2.866951,0.\N,0,-1.923957,-1.0
 41509,0.\C,0,0.,0.54241,0.\C,0,0.370267,-0.78287,0.\C,0,-0.756625,-1.6
 41068,0.\C,0,0.840877,1.741435,0.\H,0,-0.703404,-2.720895,0.\H,0,1.926
 917,1.549668,0.\\Version=ES64L-G16RevC.01\State=1-A'\HF=-1139.3866531\
 RMSD=2.628e-02\Dipole=0.7964219,-0.7184783,0.\Quadrupole=0.630826,-1.9

 Normal termination of Gaussian 16 at Sat Apr  5 22:48:59 2025.
