 Gaussian 16, Revision C.01,

 ----------------------------------------------------------------------
 #t hf aug-cc-pvdz symm=none int=(grid=ultrafine) guess=(read,tcheck) s
 table=(opt,rrhf)
 ----------------------------------------------------------------------
 -----
 title
 -----
 Symbolic Z-matrix:
 Charge =  0 Multiplicity = 1

 SCF Done:  E(RHF) =  -758.549548588     A.U. after   15 cycles
 Normal termination of Gaussian 16 at Sat Apr  5 22:48:47 2025.
 Gaussian 16:  ES64L-G16RevC.01  3-Jul-2019

 ----------------------------------------------------------------------
 #t hf aug-cc-pvdz iop(5/13=1,5/36=2,99/5=2) pseudo=read geom=check gue
 ss=(read,tcheck) scf=(maxcycle=1)
 ----------------------------------------------------------------------
 -----
 title
 -----
 Structure from the checkpoint file:  "4-chloro-1-hydroxy-pyrazole.chk"
 Charge =  0 Multiplicity = 1

                         Standard orientation:
 ---------------------------------------------------------------------
 Center     Atomic      Atomic             Coordinates (Angstroms)
 Number     Number       Type             X           Y           Z
 ---------------------------------------------------------------------
      1         17           0        2.401410   -0.258167   -0.000042
      2          8           0       -2.704169   -0.697729    0.000040
      3          7           0       -1.435056   -0.167750    0.000025
      4          7           0       -1.265034    1.139232    0.000023
      5          6           0        0.703455    0.056232   -0.000012
      6          6           0       -0.307179   -0.895635    0.000004
      7          6           0        0.067053    1.299981    0.000002
      8          1           0       -3.268039    0.091657    0.000098
      9          1           0       -0.301932   -1.969154    0.000002
     10          1           0        0.500000    2.284319   -0.000003
 ---------------------------------------------------------------------

 SCF Done:  E(RHF) =  -758.924913331     A.U. after    2 cycles

 The electronic state is 1-A.
 Alpha  occ. eigenvalues -- -105.58366 -20.64083 -15.66335 -15.55575 -11.30658
 Alpha  occ. eigenvalues --  -11.30218 -11.28309 -10.63124  -7.80113  -7.79689
 Alpha  occ. eigenvalues --   -7.79666  -1.57490  -1.38323  -1.14710  -1.12518
 Alpha  occ. eigenvalues --   -1.03018  -0.87951  -0.84116  -0.78062  -0.73115
 Alpha  occ. eigenvalues --   -0.71167  -0.63877  -0.62428  -0.60654  -0.57194
 Alpha  occ. eigenvalues --   -0.54620  -0.51261  -0.47133  -0.40095  -0.36659
 Alpha virt. eigenvalues --    0.03515   0.04662   0.05101   0.07856   0.08213
 Alpha virt. eigenvalues --    0.09720   0.10341   0.10451   0.12148   0.14133
 Alpha virt. eigenvalues --    0.14605   0.15860   0.16102   0.16502   0.17852

 Mulliken charges:
               1
     1  Cl  -0.117848
     2  O   -1.344509
     3  N    1.010739
     4  N    0.118510
     5  C    0.449886
     6  C    0.087927
     7  C   -0.299775
     8  H    0.298055
     9  H   -0.109578
    10  H   -0.093405
 Sum of Mulliken charges =  -0.00000

 Dipole moment (field-independent basis, Debye):
    X=             -0.8375    Y=             -0.5735    Z=              0.0001  Tot=              1.0151

 Test job not archived.
 1\1\GINC-SE177\SP\RHF\Aug-CC-pVDZ\C3H3Cl1N2O1\OHZDE\05-Apr-2025\0\\#t
 hf aug-cc-pvdz iop(5/13=1,5/36=2,99/5=2) pseudo=read geom=check guess=
 (read,tcheck) scf=(maxcycle=1)\\title\\0,1\Cl,0,2.40141,-0.258167,-0.0
 00042\O,0,-2.704169,-0.697729,0.00004\N,0,-1.435056,-0.16775,0.000025\
 N,0,-1.265034,1.139232,0.000023\C,0,0.703455,0.056232,-0.000012\C,0,-0
 .307179,-0.895635,0.000004\C,0,0.067053,1.299981,0.000002\H,0,-3.26803
 9,0.091657,0.000098\H,0,-0.301932,-1.969154,0.000002\H,0,0.5,2.284319,
 -0.000003\\Version=ES64L-G16RevC.01\State=1-A\HF=-758.9249133\RMSD=3.9

 Normal termination of Gaussian 16 at Sat Apr  5 22:48:52 2025.
