 Gaussian 16, Revision C.01,

 ----------------------------------------------------------------------
 #t hf aug-cc-pvdz symm=none int=(grid=ultrafine) guess=(read,tcheck) s
 table=(opt,rrhf)
 ----------------------------------------------------------------------
 -----
 title
 -----
 Symbolic Z-matrix:
 Charge =  0 Multiplicity = 1

 SCF Done:  E(RHF) =  -341.427848272     A.U. after   12 cycles
 Normal termination of Gaussian 16 at Sat Apr  5 22:48:37 2025.
 Gaussian 16:  ES64L-G16RevC.01  3-Jul-2019

 ----------------------------------------------------------------------
 #t hf aug-cc-pvdz iop(5/13=1,5/36=2,99/5=2) pseudo=read geom=check gue
 ss=(read,tcheck) scf=(maxcycle=1)
 ----------------------------------------------------------------------
 -----
 title
 -----
 Structure from the checkpoint file:  "4-cyclopentene-1-3-dione.chk"
 Charge =  0 Multiplicity = 1

                         Standard orientation:
 ---------------------------------------------------------------------
 Center     Atomic      Atomic             Coordinates (Angstroms)
 Number     Number       Type             X           Y           Z
 ---------------------------------------------------------------------
      1          6           0        0.000000   -0.000000    1.088734
      2          6           0        0.000000    1.198351    0.149259
      3          6           0       -0.000000   -1.198351    0.149259
      4          6           0        0.000000    0.669044   -1.243983
      5          6           0       -0.000000   -0.669044   -1.243983
      6          8           0        0.000000    2.365037    0.458652
      7          8           0       -0.000000   -2.365037    0.458652
      8          1           0        0.878958   -0.000000    1.734426
      9          1           0       -0.878958    0.000000    1.734426
     10          1           0        0.000000    1.326391   -2.101506
     11          1           0       -0.000000   -1.326391   -2.101506
 ---------------------------------------------------------------------

 SCF Done:  E(RHF) =  -341.766065091     A.U. after    2 cycles

 The electronic state is 1-A1.
 Alpha  occ. eigenvalues --  -20.56217 -20.56216 -11.36774 -11.36767 -11.29619
 Alpha  occ. eigenvalues --  -11.29502 -11.27336  -1.49627  -1.49294  -1.18094
 Alpha  occ. eigenvalues --   -1.02999  -0.92807  -0.80563  -0.77493  -0.72067
 Alpha  occ. eigenvalues --   -0.66317  -0.65379  -0.64554  -0.62002  -0.61213
 Alpha  occ. eigenvalues --   -0.55184  -0.53043  -0.45960  -0.42573  -0.41971
 Alpha virt. eigenvalues --    0.02864   0.03421   0.04167   0.04347   0.04777
 Alpha virt. eigenvalues --    0.08287   0.08927   0.10949   0.11528   0.12023
 Alpha virt. eigenvalues --    0.12713   0.13849   0.14333   0.14647   0.15280

 Mulliken charges:
               1
     1  C   -0.860423
     2  C    1.180307
     3  C    1.180307
     4  C    0.405018
     5  C    0.405018
     6  O   -1.363783
     7  O   -1.363783
     8  H    0.305236
     9  H    0.305236
    10  H   -0.096565
    11  H   -0.096565
 Sum of Mulliken charges =  -0.00000

 Dipole moment (field-independent basis, Debye):
    X=              0.0000    Y=              0.0000    Z=             -1.8774  Tot=              1.8774

 Test job not archived.
 1\1\GINC-SE225\SP\RHF\Aug-CC-pVDZ\C5H4O2\OHZDE\05-Apr-2025\0\\#t hf au
 g-cc-pvdz iop(5/13=1,5/36=2,99/5=2) pseudo=read geom=check guess=(read
 ,tcheck) scf=(maxcycle=1)\\title\\0,1\C,0,0.,0.,1.088734\C,0,0.,1.1983
 51,0.149259\C,0,0.,-1.198351,0.149259\C,0,0.,0.669044,-1.243983\C,0,0.
 ,-0.669044,-1.243983\O,0,0.,2.365037,0.458652\O,0,0.,-2.365037,0.45865
 2\H,0,0.878958,0.,1.734426\H,0,-0.878958,0.,1.734426\H,0,0.,1.326391,-
 2.101506\H,0,0.,-1.326391,-2.101506\\Version=ES64L-G16RevC.01\State=1-
 A1\HF=-341.7660651\RMSD=2.046e-02\Dipole=0.,0.,-0.7386227\Quadrupole=3

 Normal termination of Gaussian 16 at Sat Apr  5 22:48:42 2025.
