 Gaussian 16, Revision C.01,

 ----------------------------------------------------------------------
 #t hf aug-cc-pvdz symm=none int=(grid=ultrafine) guess=(read,tcheck) s
 table=(opt,rrhf)
 ----------------------------------------------------------------------
 -----
 title
 -----
 Symbolic Z-matrix:
 Charge =  0 Multiplicity = 1

 SCF Done:  E(RHF) =  -577.358008004     A.U. after   13 cycles
 Normal termination of Gaussian 16 at Sat Apr  5 22:49:14 2025.
 Gaussian 16:  ES64L-G16RevC.01  3-Jul-2019

 ----------------------------------------------------------------------
 #t hf aug-cc-pvdz iop(5/13=1,5/36=2,99/5=2) pseudo=read geom=check gue
 ss=(read,tcheck) scf=(maxcycle=1)
 ----------------------------------------------------------------------
 -----
 title
 -----
 Structure from the checkpoint file:  "4-difluoromethyl-1-3-dioxolan-2-one.chk"
 Charge =  0 Multiplicity = 1

                         Standard orientation:
 ---------------------------------------------------------------------
 Center     Atomic      Atomic             Coordinates (Angstroms)
 Number     Number       Type             X           Y           Z
 ---------------------------------------------------------------------
      1          9           0       -1.348626   -0.049956    1.364939
      2          9           0       -2.375705   -0.844928   -0.412965
      3          8           0        0.433224   -0.723724   -0.682853
      4          8           0        1.618313    0.882499    0.312093
      5          8           0        2.419188   -1.228012    0.268661
      6          6           0       -0.406254    0.422707   -0.759710
      7          6           0        1.578879   -0.436900    0.000770
      8          6           0       -1.668924    0.213355    0.065480
      9          6           0        0.485739    1.562976   -0.229668
     10          1           0       -0.703392    0.567543   -1.797832
     11          1           0       -2.315882    1.094850    0.045598
     12          1           0        0.016202    2.142547    0.562716
     13          1           0        0.819614    2.230086   -1.022680
 ---------------------------------------------------------------------

 SCF Done:  E(RHF) =  -577.910681464     A.U. after    2 cycles

 The electronic state is 1-A.
 Alpha  occ. eigenvalues --  -26.50250 -26.50045 -20.62785 -20.62511 -20.54724
 Alpha  occ. eigenvalues --  -11.45710 -11.44942 -11.35960 -11.35036  -1.66868
 Alpha  occ. eigenvalues --   -1.62070  -1.60013  -1.50658  -1.48992  -1.11287
 Alpha  occ. eigenvalues --   -0.99229  -0.91294  -0.86566  -0.80409  -0.78899
 Alpha  occ. eigenvalues --   -0.77276  -0.74376  -0.72565  -0.69314  -0.66259
 Alpha  occ. eigenvalues --   -0.65415  -0.64191  -0.62800  -0.62321  -0.58337
 Alpha  occ. eigenvalues --   -0.56922  -0.56172  -0.49165  -0.48074  -0.47555
 Alpha virt. eigenvalues --    0.01846   0.03313   0.03797   0.05784   0.07130
 Alpha virt. eigenvalues --    0.09171   0.09729   0.10853   0.10982   0.12931
 Alpha virt. eigenvalues --    0.13424   0.13864   0.14048   0.14332   0.14703

 Mulliken charges:
               1
     1  F   -0.761443
     2  F   -0.736144
     3  O   -1.325914
     4  O   -1.223585
     5  O   -1.203863
     6  C    0.331959
     7  C    2.267145
     8  C    1.777977
     9  C    0.574121
    10  H    0.108351
    11  H    0.032955
    12  H    0.053326
    13  H    0.105117
 Sum of Mulliken charges =  -0.00000

 Dipole moment (field-independent basis, Debye):
    X=             -3.2056    Y=              5.2621    Z=             -2.2115  Tot=              6.5465

 Test job not archived.
 1\1\GINC-SE226\SP\RHF\Aug-CC-pVDZ\C4H4F2O3\OHZDE\05-Apr-2025\0\\#t hf
 aug-cc-pvdz iop(5/13=1,5/36=2,99/5=2) pseudo=read geom=check guess=(re
 ad,tcheck) scf=(maxcycle=1)\\title\\0,1\F,0,-1.348626,-0.049956,1.3649
 39\F,0,-2.375705,-0.844928,-0.412965\O,0,0.433224,-0.723724,-0.682853\
 O,0,1.618313,0.882499,0.312093\O,0,2.419188,-1.228012,0.268661\C,0,-0.
 406254,0.422707,-0.75971\C,0,1.578879,-0.4369,0.00077\C,0,-1.668924,0.
 213355,0.06548\C,0,0.485739,1.562976,-0.229668\H,0,-0.703392,0.567543,
 -1.797832\H,0,-2.315882,1.09485,0.045598\H,0,0.016202,2.142547,0.56271

 Normal termination of Gaussian 16 at Sat Apr  5 22:50:04 2025.
