 Gaussian 16, Revision C.01,

 ----------------------------------------------------------------------
 #t hf aug-cc-pvdz symm=none int=(grid=ultrafine) guess=(read,tcheck) s
 table=(opt,rrhf)
 ----------------------------------------------------------------------
 -----
 title
 -----
 Symbolic Z-matrix:
 Charge =  0 Multiplicity = 1

 SCF Done:  E(RHF) =  -558.195799165     A.U. after   16 cycles
 Normal termination of Gaussian 16 at Sat Apr  5 22:49:29 2025.
 Gaussian 16:  ES64L-G16RevC.01  3-Jul-2019

 ----------------------------------------------------------------------
 #t hf aug-cc-pvdz iop(5/13=1,5/36=2,99/5=2) pseudo=read geom=check gue
 ss=(read,tcheck) scf=(maxcycle=1)
 ----------------------------------------------------------------------
 -----
 title
 -----
 Structure from the checkpoint file:  "4-difluoromethyl-2-ethynyl-5H-isoxazole.chk"
 Charge =  0 Multiplicity = 1

                         Standard orientation:
 ---------------------------------------------------------------------
 Center     Atomic      Atomic             Coordinates (Angstroms)
 Number     Number       Type             X           Y           Z
 ---------------------------------------------------------------------
      1          9           0       -2.610592   -0.327834    1.201239
      2          9           0       -2.811525   -0.037318   -0.964662
      3          8           0        1.182464    1.333129    0.117243
      4          7           0        1.584817    0.016648   -0.354989
      5          6           0       -0.642997   -0.097857   -0.059740
      6          6           0        0.463626   -0.798090   -0.297934
      7          6           0       -2.016538   -0.627408   -0.004321
      8          6           0       -0.262774    1.356137    0.055783
      9          6           0        2.824717   -0.333007   -0.014553
     10          6           0        3.962621   -0.634351    0.227184
     11          1           0        0.589733   -1.853786   -0.474588
     12          1           0       -2.071144   -1.706782   -0.144639
     13          1           0       -0.624227    1.838730    0.964570
     14          1           0       -0.584651    1.938157   -0.814947
     15          1           0        4.963978   -0.904064    0.448868
 ---------------------------------------------------------------------

 SCF Done:  E(RHF) =  -558.737795663     A.U. after    2 cycles

 The electronic state is 1-A.
 Alpha  occ. eigenvalues --  -26.48113 -26.48110 -20.61350 -15.61672 -11.43730
 Alpha  occ. eigenvalues --  -11.32674 -11.32068 -11.29152 -11.26821 -11.25344
 Alpha  occ. eigenvalues --   -1.64338  -1.57451  -1.52393  -1.25037  -1.14045
 Alpha  occ. eigenvalues --   -1.04047  -0.98068  -0.93523  -0.85058  -0.81506
 Alpha  occ. eigenvalues --   -0.77405  -0.74828  -0.74367  -0.72337  -0.71396
 Alpha  occ. eigenvalues --   -0.66381  -0.64417  -0.61946  -0.61071  -0.60322
 Alpha  occ. eigenvalues --   -0.59783  -0.58367  -0.53114  -0.48695  -0.43519
 Alpha  occ. eigenvalues --   -0.42826  -0.34697
 Alpha virt. eigenvalues --    0.02922   0.03657   0.04549   0.05164   0.05666
 Alpha virt. eigenvalues --    0.08374   0.08788   0.09007   0.09675   0.10434
 Alpha virt. eigenvalues --    0.11098   0.12025   0.12713   0.13005   0.13730

 Mulliken charges:
               1
     1  F   -0.756423
     2  F   -0.755020
     3  O   -1.477835
     4  N    1.418117
     5  C    0.319748
     6  C   -0.461979
     7  C    1.757949
     8  C    0.444264
     9  C   -1.214508
    10  C    1.103083
    11  H   -0.299963
    12  H   -0.031299
    13  H    0.166218
    14  H    0.206620
    15  H   -0.418970
 Sum of Mulliken charges =  -0.00000

 Dipole moment (field-independent basis, Debye):
    X=              0.6504    Y=             -1.8819    Z=             -0.1560  Tot=              1.9973

 Test job not archived.
 1\1\GINC-SE045\SP\RHF\Aug-CC-pVDZ\C6H5F2N1O1\OHZDE\05-Apr-2025\0\\#t h
 f aug-cc-pvdz iop(5/13=1,5/36=2,99/5=2) pseudo=read geom=check guess=(
 read,tcheck) scf=(maxcycle=1)\\title\\0,1\F,0,-2.610592,-0.327834,1.20
 1239\F,0,-2.811525,-0.037318,-0.964662\O,0,1.182464,1.333129,0.117243\
 N,0,1.584817,0.016648,-0.354989\C,0,-0.642997,-0.097857,-0.05974\C,0,0
 .463626,-0.79809,-0.297934\C,0,-2.016538,-0.627408,-0.004321\C,0,-0.26
 2774,1.356137,0.055783\C,0,2.824717,-0.333007,-0.014553\C,0,3.962621,-
 0.634351,0.227184\H,0,0.589733,-1.853786,-0.474588\H,0,-2.071144,-1.70

 Normal termination of Gaussian 16 at Sat Apr  5 22:50:05 2025.
