 Gaussian 16, Revision C.01,

 ----------------------------------------------------------------------
 #t hf aug-cc-pvdz symm=none int=(grid=ultrafine) guess=(read,tcheck) s
 table=(opt,rrhf)
 ----------------------------------------------------------------------
 -----
 title
 -----
 Symbolic Z-matrix:
 Charge =  0 Multiplicity = 1

 SCF Done:  E(RHF) =  -324.805767943     A.U. after   14 cycles
 Normal termination of Gaussian 16 at Sat Apr  5 22:49:15 2025.
 Gaussian 16:  ES64L-G16RevC.01  3-Jul-2019

 ----------------------------------------------------------------------
 #t hf aug-cc-pvdz iop(5/13=1,5/36=2,99/5=2) pseudo=read geom=check gue
 ss=(read,tcheck) scf=(maxcycle=1)
 ----------------------------------------------------------------------
 -----
 title
 -----
 Structure from the checkpoint file:  "4-ethylpyridine.chk"
 Charge =  0 Multiplicity = 1

                         Standard orientation:
 ---------------------------------------------------------------------
 Center     Atomic      Atomic             Coordinates (Angstroms)
 Number     Number       Type             X           Y           Z
 ---------------------------------------------------------------------
      1          6           0        0.233751   -0.248858    1.186174
      2          6           0        0.233751   -0.248858   -1.186174
      3          6           0        0.233751   -1.636587    1.135286
      4          6           0        0.233751   -1.636587   -1.135286
      5          6           0        0.232164    0.482399   -0.000000
      6          6           0       -1.236306    2.546240    0.000000
      7          6           0        0.194870    1.988942    0.000000
      8          7           0        0.233121   -2.335890   -0.000000
      9          1           0        0.240621    0.255199    2.144492
     10          1           0        0.240621    0.255199   -2.144492
     11          1           0        0.238122   -2.214612    2.053040
     12          1           0        0.238122   -2.214612   -2.053040
     13          1           0       -1.786360    2.212834   -0.880654
     14          1           0       -1.225706    3.636797    0.000000
     15          1           0       -1.786360    2.212834    0.880654
     16          1           0        0.727349    2.363720    0.876427
     17          1           0        0.727349    2.363720   -0.876427
 ---------------------------------------------------------------------

 SCF Done:  E(RHF) =  -325.146874201     A.U. after    2 cycles

 The electronic state is 1-A'.
 Alpha  occ. eigenvalues --  -15.49737 -11.27624 -11.27623 -11.26572 -11.24812
 Alpha  occ. eigenvalues --  -11.24057 -11.24045 -11.23673  -1.25607  -1.11832
 Alpha  occ. eigenvalues --   -1.03447  -1.02461  -0.89467  -0.87552  -0.82006
 Alpha  occ. eigenvalues --   -0.71178  -0.70081  -0.65690  -0.61700  -0.61248
 Alpha  occ. eigenvalues --   -0.60130  -0.56685  -0.53787  -0.53471  -0.52081
 Alpha  occ. eigenvalues --   -0.50062  -0.44685  -0.38839  -0.35523
 Alpha virt. eigenvalues --    0.03179   0.03467   0.03604   0.04082   0.05447
 Alpha virt. eigenvalues --    0.06009   0.06773   0.07174   0.08397   0.08597
 Alpha virt. eigenvalues --    0.10473   0.10596   0.11884   0.11988   0.12890

 Mulliken charges:
               1
     1  C    0.829785
     2  C    0.829785
     3  C   -1.294976
     4  C   -1.294976
     5  C    1.047656
     6  C   -0.391246
     7  C   -0.595883
     8  N    1.193883
     9  H   -0.285042
    10  H   -0.285042
    11  H   -0.195775
    12  H   -0.195775
    13  H    0.159927
    14  H    0.116839
    15  H    0.159927
    16  H    0.100457
    17  H    0.100457
 Sum of Mulliken charges =  -0.00000

 Dipole moment (field-independent basis, Debye):
    X=             -0.1160    Y=              3.2692    Z=              0.0000  Tot=              3.2713

 Test job not archived.
 1\1\GINC-SE047\SP\RHF\Aug-CC-pVDZ\C7H9N1\OHZDE\05-Apr-2025\0\\#t hf au
 g-cc-pvdz iop(5/13=1,5/36=2,99/5=2) pseudo=read geom=check guess=(read
 ,tcheck) scf=(maxcycle=1)\\title\\0,1\C,0,0.233751,-0.248858,1.186174\
 C,0,0.233751,-0.248858,-1.186174\C,0,0.233751,-1.636587,1.135286\C,0,0
 .233751,-1.636587,-1.135286\C,0,0.232164,0.482399,0.\C,0,-1.236306,2.5
 4624,0.\C,0,0.19487,1.988942,0.\N,0,0.233121,-2.33589,0.\H,0,0.240621,
 0.255199,2.144492\H,0,0.240621,0.255199,-2.144492\H,0,0.238122,-2.2146
 12,2.05304\H,0,0.238122,-2.214612,-2.05304\H,0,-1.78636,2.212834,-0.88

 Normal termination of Gaussian 16 at Sat Apr  5 22:50:03 2025.
