 Gaussian 16, Revision C.01,

 ----------------------------------------------------------------------
 #t hf aug-cc-pvdz symm=none int=(grid=ultrafine) guess=(read,tcheck) s
 table=(opt,rrhf)
 ----------------------------------------------------------------------
 -----
 title
 -----
 Symbolic Z-matrix:
 Charge =  0 Multiplicity = 1

 SCF Done:  E(RHF) =  -383.680008392     A.U. after   15 cycles

 1\1\GINC-SE045\Stability\RHF\Aug-CC-pVDZ\C8H10O1\OHZDE\05-Apr-2025\0\\
 #t hf aug-cc-pvdz symm=none int=(grid=ultrafine) guess=(read,tcheck) s
 table=(opt,rrhf)\\title\\0,1\C,0,0.182296,-1.1946,-0.232278\C,0,0.2009
 46,1.190822,-0.237286\C,0,-1.192318,-1.189355,-0.02335\C,0,-1.17051,1.
 215647,-0.029025\C,0,0.907341,-0.009408,-0.342365\C,0,-1.872642,0.0194
 68,0.080035\C,0,3.186098,0.002643,0.787434\C,0,2.404665,-0.021419,-0.5
 33621\O,0,-3.225765,0.093049,0.281877\H,0,0.695495,-2.144808,-0.315944
 \H,0,0.733105,2.130212,-0.325596\H,0,-1.733693,-2.125233,0.053648\H,0,

 Normal termination of Gaussian 16 at Sat Apr  5 22:49:43 2025.
 Gaussian 16:  ES64L-G16RevC.01  3-Jul-2019

 ----------------------------------------------------------------------
 #t hf aug-cc-pvdz iop(5/13=1,5/36=2,99/5=2) pseudo=read geom=check gue
 ss=(read,tcheck) scf=(maxcycle=1)
 ----------------------------------------------------------------------
 -----
 title
 -----
 Structure from the checkpoint file:  "4-ethylphenol.chk"
 Charge =  0 Multiplicity = 1

                         Standard orientation:
 ---------------------------------------------------------------------
 Center     Atomic      Atomic             Coordinates (Angstroms)
 Number     Number       Type             X           Y           Z
 ---------------------------------------------------------------------
      1          6           0        0.182296   -1.194600   -0.232278
      2          6           0        0.200946    1.190822   -0.237286
      3          6           0       -1.192318   -1.189355   -0.023350
      4          6           0       -1.170510    1.215647   -0.029025
      5          6           0        0.907341   -0.009408   -0.342365
      6          6           0       -1.872642    0.019468    0.080035
      7          6           0        3.186098    0.002643    0.787434
      8          6           0        2.404665   -0.021419   -0.533621
      9          8           0       -3.225765    0.093049    0.281877
     10          1           0        0.695495   -2.144808   -0.315944
     11          1           0        0.733105    2.130212   -0.325596
     12          1           0       -1.733693   -2.125233    0.053648
     13          1           0       -1.708215    2.150587    0.045495
     14          1           0        2.948053    0.896107    1.366309
     15          1           0        4.262069   -0.005627    0.605398
     16          1           0        2.940274   -0.864143    1.402489
     17          1           0        2.689551   -0.909460   -1.102288
     18          1           0        2.698617    0.839070   -1.138965
     19          1           0       -3.594392   -0.793890    0.337165
 ---------------------------------------------------------------------

 SCF Done:  E(RHF) =  -384.080698809     A.U. after    2 cycles

 The electronic state is 1-A.
 Alpha  occ. eigenvalues --  -20.57688 -11.30356 -11.24280 -11.24114 -11.23901
 Alpha  occ. eigenvalues --  -11.23526 -11.23447 -11.23341 -11.22468  -1.48886
 Alpha  occ. eigenvalues --   -1.15632  -1.06080  -1.02030  -0.98017  -0.86832
 Alpha  occ. eigenvalues --   -0.85232  -0.80178  -0.73908  -0.68541  -0.65663
 Alpha  occ. eigenvalues --   -0.62218  -0.60470  -0.59873  -0.58734  -0.57795
 Alpha  occ. eigenvalues --   -0.55996  -0.53282  -0.50645  -0.49096  -0.48649
 Alpha  occ. eigenvalues --   -0.47373  -0.34982  -0.31320
 Alpha virt. eigenvalues --    0.03045   0.03617   0.03831   0.04470   0.04698
 Alpha virt. eigenvalues --    0.05485   0.07167   0.07430   0.07921   0.08829
 Alpha virt. eigenvalues --    0.10315   0.10558   0.11361   0.13241   0.13368

 Mulliken charges:
               1
     1  C    0.309785
     2  C    0.563063
     3  C   -0.331824
     4  C    0.014616
     5  C    1.223603
     6  C    1.419470
     7  C   -0.398329
     8  C   -0.746344
     9  O   -1.753328
    10  H   -0.322890
    11  H   -0.349007
    12  H   -0.329708
    13  H   -0.254003
    14  H    0.151809
    15  H    0.109128
    16  H    0.151133
    17  H    0.069368
    18  H    0.075624
    19  H    0.397834
 Sum of Mulliken charges =  -0.00000

 Dipole moment (field-independent basis, Debye):
    X=              0.5218    Y=             -1.3152    Z=             -0.0548  Tot=              1.4160

 Test job not archived.
 1\1\GINC-SE045\SP\RHF\Aug-CC-pVDZ\C8H10O1\OHZDE\05-Apr-2025\0\\#t hf a
 ug-cc-pvdz iop(5/13=1,5/36=2,99/5=2) pseudo=read geom=check guess=(rea
 d,tcheck) scf=(maxcycle=1)\\title\\0,1\C,0,0.182296,-1.1946,-0.232278\
 C,0,0.200946,1.190822,-0.237286\C,0,-1.192318,-1.189355,-0.02335\C,0,-
 1.17051,1.215647,-0.029025\C,0,0.907341,-0.009408,-0.342365\C,0,-1.872
 642,0.019468,0.080035\C,0,3.186098,0.002643,0.787434\C,0,2.404665,-0.0
 21419,-0.533621\O,0,-3.225765,0.093049,0.281877\H,0,0.695495,-2.144808
 ,-0.315944\H,0,0.733105,2.130212,-0.325596\H,0,-1.733693,-2.125233,0.0

 Normal termination of Gaussian 16 at Sat Apr  5 22:50:08 2025.
