 Gaussian 16, Revision C.01,

 ----------------------------------------------------------------------
 #t hf aug-cc-pvdz symm=none int=(grid=ultrafine) guess=(read,tcheck) s
 table=(opt,rrhf)
 ----------------------------------------------------------------------
 -----
 title
 -----
 Symbolic Z-matrix:
 Charge =  0 Multiplicity = 1

 SCF Done:  E(RHF) =  -392.271609771     A.U. after   16 cycles
 Normal termination of Gaussian 16 at Sat Apr  5 22:48:59 2025.
 Gaussian 16:  ES64L-G16RevC.01  3-Jul-2019

 ----------------------------------------------------------------------
 #t hf aug-cc-pvdz iop(5/13=1,5/36=2,99/5=2) pseudo=read geom=check gue
 ss=(read,tcheck) scf=(maxcycle=1)
 ----------------------------------------------------------------------
 -----
 title
 -----
 Structure from the checkpoint file:  "4-ethynyl-1H-imidazole-5-carbonitrile.chk"
 Charge =  0 Multiplicity = 1

                         Standard orientation:
 ---------------------------------------------------------------------
 Center     Atomic      Atomic             Coordinates (Angstroms)
 Number     Number       Type             X           Y           Z
 ---------------------------------------------------------------------
      1          7           0       -0.276322   -1.723967    0.000021
      2          7           0       -1.849466   -0.170596   -0.000023
      3          7           0       -0.289475    2.979967   -0.000049
      4          6           0        0.394581   -0.521917    0.000012
      5          6           0       -0.614933    0.430613   -0.000017
      6          6           0       -1.610732   -1.456201    0.000000
      7          6           0        1.794759   -0.410634    0.000031
      8          6           0       -0.446188    1.838684   -0.000036
      9          6           0        2.991406   -0.303459    0.000049
     10          1           0        0.162004   -2.629700    0.000046
     11          1           0       -2.356541   -2.233190    0.000003
     12          1           0        4.048019   -0.197457    0.000073
 ---------------------------------------------------------------------

 SCF Done:  E(RHF) =  -392.658429717     A.U. after    2 cycles

 The electronic state is 1-A.
 Alpha  occ. eigenvalues --  -15.60402 -15.52858 -15.51655 -11.34256 -11.33666
 Alpha  occ. eigenvalues --  -11.31785 -11.28358 -11.28139 -11.27766  -1.38794
 Alpha  occ. eigenvalues --   -1.23843  -1.22060  -1.11326  -1.04836  -0.93860
 Alpha  occ. eigenvalues --   -0.90156  -0.87006  -0.76198  -0.73142  -0.71193
 Alpha  occ. eigenvalues --   -0.68152  -0.67644  -0.60600  -0.54163  -0.53491
 Alpha  occ. eigenvalues --   -0.50502  -0.49443  -0.46140  -0.44481  -0.35289
 Alpha virt. eigenvalues --    0.01777   0.03125   0.04085   0.04942   0.07391
 Alpha virt. eigenvalues --    0.08055   0.08204   0.09228   0.09579   0.10105
 Alpha virt. eigenvalues --    0.10735   0.12867   0.13250   0.13426   0.13828

 Mulliken charges:
               1
     1  N    0.757265
     2  N    0.913239
     3  N    1.264796
     4  C   -0.454848
     5  C    0.766328
     6  C   -0.576892
     7  C    1.133641
     8  C   -2.988957
     9  C   -0.198158
    10  H   -0.024975
    11  H   -0.106267
    12  H   -0.485172
 Sum of Mulliken charges =  -0.00000

 Dipole moment (field-independent basis, Debye):
    X=              2.2850    Y=             -7.8031    Z=              0.0002  Tot=              8.1308

 Test job not archived.
 1\1\GINC-SE106\SP\RHF\Aug-CC-pVDZ\C6H3N3\OHZDE\05-Apr-2025\0\\#t hf au
 g-cc-pvdz iop(5/13=1,5/36=2,99/5=2) pseudo=read geom=check guess=(read
 ,tcheck) scf=(maxcycle=1)\\title\\0,1\N,0,-0.276322,-1.723967,0.000021
 \N,0,-1.849466,-0.170596,-0.000023\N,0,-0.289475,2.979967,-0.000049\C,
 0,0.394581,-0.521917,0.000012\C,0,-0.614933,0.430613,-0.000017\C,0,-1.
 610732,-1.456201,0.\C,0,1.794759,-0.410634,0.000031\C,0,-0.446188,1.83
 8684,-0.000036\C,0,2.991406,-0.303459,0.000049\H,0,0.162004,-2.6297,0.
 000046\H,0,-2.356541,-2.23319,0.000003\H,0,4.048019,-0.197456,0.000073

 Normal termination of Gaussian 16 at Sat Apr  5 22:50:05 2025.
