 Gaussian 16, Revision C.01,

 ----------------------------------------------------------------------
 #t hf aug-cc-pvdz symm=none int=(grid=ultrafine) guess=(read,tcheck) s
 table=(opt,rrhf)
 ----------------------------------------------------------------------
 -----
 title
 -----
 Symbolic Z-matrix:
 Charge =  0 Multiplicity = 1

 SCF Done:  E(RHF) =  -404.463682759     A.U. after   15 cycles
 Normal termination of Gaussian 16 at Sat Apr  5 22:48:55 2025.
 Gaussian 16:  ES64L-G16RevC.01  3-Jul-2019

 ----------------------------------------------------------------------
 #t hf aug-cc-pvdz iop(5/13=1,5/36=2,99/5=2) pseudo=read geom=check gue
 ss=(read,tcheck) scf=(maxcycle=1)
 ----------------------------------------------------------------------
 -----
 title
 -----
 Structure from the checkpoint file:  "4-fluorophenol.chk"
 Charge =  0 Multiplicity = 1

                         Standard orientation:
 ---------------------------------------------------------------------
 Center     Atomic      Atomic             Coordinates (Angstroms)
 Number     Number       Type             X           Y           Z
 ---------------------------------------------------------------------
      1          6           0        1.209009    0.686001   -0.000000
      2          6           0       -1.202025    0.675134   -0.000000
      3          6           0        1.216005   -0.701909    0.000000
      4          6           0       -1.199895   -0.715998    0.000000
      5          6           0       -0.000000    1.377007   -0.000000
      6          6           0        0.010446   -1.381379    0.000000
      7          8           0        0.057288    2.745374   -0.000000
      8          9           0        0.018013   -2.736527    0.000000
      9          1           0        2.134342    1.243985   -0.000000
     10          1           0       -2.143868    1.210090   -0.000000
     11          1           0        2.143774   -1.255723    0.000000
     12          1           0       -2.123419   -1.276673    0.000000
     13          1           0       -0.832492    3.110943   -0.000000
 ---------------------------------------------------------------------

 SCF Done:  E(RHF) =  -404.864324256     A.U. after    2 cycles

 The electronic state is 1-A'.
 Alpha  occ. eigenvalues --  -26.47098 -20.58663 -11.32886 -11.31640 -11.26026
 Alpha  occ. eigenvalues --  -11.25879 -11.25771 -11.25233  -1.59866  -1.49917
 Alpha  occ. eigenvalues --   -1.16832  -1.04306  -1.01765  -0.88256  -0.84649
 Alpha  occ. eigenvalues --   -0.75876  -0.74038  -0.70828  -0.66870  -0.64619
 Alpha  occ. eigenvalues --   -0.62740  -0.62228  -0.59581  -0.58889  -0.56027
 Alpha  occ. eigenvalues --   -0.51866  -0.49474  -0.36859  -0.32781
 Alpha virt. eigenvalues --    0.02843   0.03898   0.04152   0.05441   0.06315
 Alpha virt. eigenvalues --    0.08850   0.10134   0.10604   0.12111   0.12898
 Alpha virt. eigenvalues --    0.13402   0.13518   0.13805   0.13917   0.14736

 Mulliken charges:
               1
     1  C    0.296327
     2  C    0.061270
     3  C    0.089406
     4  C   -0.080709
     5  C    1.734193
     6  C    1.099621
     7  O   -1.742821
     8  F   -0.987621
     9  H   -0.211527
    10  H   -0.307508
    11  H   -0.182225
    12  H   -0.174690
    13  H    0.406284
 Sum of Mulliken charges =  -0.00000

 Dipole moment (field-independent basis, Debye):
    X=             -1.3270    Y=              1.5013    Z=             -0.0000  Tot=              2.0038

 Test job not archived.
 1\1\GINC-SE106\SP\RHF\Aug-CC-pVDZ\C6H5F1O1\OHZDE\05-Apr-2025\0\\#t hf
 aug-cc-pvdz iop(5/13=1,5/36=2,99/5=2) pseudo=read geom=check guess=(re
 ad,tcheck) scf=(maxcycle=1)\\title\\0,1\C,0,1.209009,0.686001,0.\C,0,-
 1.202025,0.675134,0.\C,0,1.216005,-0.701909,0.\C,0,-1.199895,-0.715998
 ,0.\C,0,0.,1.377007,0.\C,0,0.010446,-1.381379,0.\O,0,0.057288,2.745374
 ,0.\F,0,0.018013,-2.736527,0.\H,0,2.134342,1.243985,0.\H,0,-2.143868,1
 .21009,0.\H,0,2.143774,-1.255723,0.\H,0,-2.123419,-1.276673,0.\H,0,-0.
 832492,3.110943,0.\\Version=ES64L-G16RevC.01\State=1-A'\HF=-404.864324

 Normal termination of Gaussian 16 at Sat Apr  5 22:50:03 2025.
