 Gaussian 16, Revision C.01,

 ----------------------------------------------------------------------
 #t hf aug-cc-pvdz symm=none int=(grid=ultrafine) guess=(read,tcheck) s
 table=(opt,rrhf)
 ----------------------------------------------------------------------
 -----
 title
 -----
 Symbolic Z-matrix:
 Charge =  0 Multiplicity = 1

 SCF Done:  E(RHF) =  -348.144388815     A.U. after   13 cycles

 1\1\GINC-SE046\Stability\RHF\Aug-CC-pVDZ\C7H14O1\OHZDE\05-Apr-2025\0\\
 #t hf aug-cc-pvdz symm=none int=(grid=ultrafine) guess=(read,tcheck) s
 table=(opt,rrhf)\\title\\0,1\C,0,0.,0.,0.295876\C,0,0.000056,3.828834,
 -0.53029\C,0,-0.000056,-3.828834,-0.53029\C,0,0.,1.290026,-0.509256\C,
 0,0.,-1.290026,-0.509256\C,0,0.000059,2.564624,0.327131\C,0,-0.000059,
 -2.564624,0.327131\O,0,0.,0.,1.506774\H,0,-0.880828,3.873562,-1.174448
 \H,0,0.000099,4.725217,0.090803\H,0,0.880894,3.873522,-1.174514\H,0,0.
 880828,-3.873562,-1.174448\H,0,-0.000099,-4.725217,0.090803\H,0,-0.880

 Normal termination of Gaussian 16 at Sat Apr  5 22:51:15 2025.
 Gaussian 16:  ES64L-G16RevC.01  3-Jul-2019

 ----------------------------------------------------------------------
 #t hf aug-cc-pvdz iop(5/13=1,5/36=2,99/5=2) pseudo=read geom=check gue
 ss=(read,tcheck) scf=(maxcycle=1)
 ----------------------------------------------------------------------
 -----
 title
 -----
 Structure from the checkpoint file:  "4-heptanone.chk"
 Charge =  0 Multiplicity = 1

                         Standard orientation:
 ---------------------------------------------------------------------
 Center     Atomic      Atomic             Coordinates (Angstroms)
 Number     Number       Type             X           Y           Z
 ---------------------------------------------------------------------
      1          6           0        0.000000   -0.000000    0.295876
      2          6           0        0.000056    3.828834   -0.530290
      3          6           0       -0.000056   -3.828834   -0.530290
      4          6           0       -0.000000    1.290026   -0.509256
      5          6           0       -0.000000   -1.290026   -0.509256
      6          6           0        0.000059    2.564624    0.327131
      7          6           0       -0.000059   -2.564624    0.327131
      8          8           0        0.000000   -0.000000    1.506774
      9          1           0       -0.880828    3.873562   -1.174448
     10          1           0        0.000099    4.725217    0.090803
     11          1           0        0.880894    3.873522   -1.174514
     12          1           0        0.880828   -3.873562   -1.174448
     13          1           0       -0.000099   -4.725217    0.090803
     14          1           0       -0.880894   -3.873522   -1.174514
     15          1           0        0.868429    1.265284   -1.177370
     16          1           0       -0.868485    1.265321   -1.177299
     17          1           0        0.868485   -1.265321   -1.177299
     18          1           0       -0.868429   -1.265284   -1.177370
     19          1           0       -0.869532    2.558992    0.986328
     20          1           0        0.869698    2.558953    0.986265
     21          1           0        0.869532   -2.558992    0.986328
     22          1           0       -0.869698   -2.558953    0.986265
 ---------------------------------------------------------------------

 SCF Done:  E(RHF) =  -348.520516942     A.U. after    2 cycles

 The electronic state is 1-A.
 Alpha  occ. eigenvalues --  -20.53000 -11.33227 -11.24241 -11.24227 -11.22871
 Alpha  occ. eigenvalues --  -11.22864 -11.22551 -11.22547  -1.46521  -1.08916
 Alpha  occ. eigenvalues --   -1.06785  -0.98974  -0.93911  -0.84190  -0.80670
 Alpha  occ. eigenvalues --   -0.73761  -0.66443  -0.66284  -0.63764  -0.63377
 Alpha  occ. eigenvalues --   -0.58112  -0.57859  -0.56373  -0.54529  -0.53171
 Alpha  occ. eigenvalues --   -0.50668  -0.49422  -0.49225  -0.48520  -0.48023
 Alpha  occ. eigenvalues --   -0.47704  -0.40095
 Alpha virt. eigenvalues --    0.03218   0.03442   0.03558   0.04194   0.05001
 Alpha virt. eigenvalues --    0.05211   0.05417   0.06716   0.07624   0.08161
 Alpha virt. eigenvalues --    0.08529   0.08834   0.10406   0.10779   0.11714

 Mulliken charges:
               1
     1  C    1.611226
     2  C   -0.386362
     3  C   -0.386362
     4  C   -0.743999
     5  C   -0.743999
     6  C   -0.085240
     7  C   -0.085240
     8  O   -1.456945
     9  H    0.153396
    10  H    0.114649
    11  H    0.153396
    12  H    0.153396
    13  H    0.114649
    14  H    0.153396
    15  H    0.228888
    16  H    0.228892
    17  H    0.228892
    18  H    0.228888
    19  H    0.129623
    20  H    0.129617
    21  H    0.129623
    22  H    0.129617
 Sum of Mulliken charges =  -0.00000

 Dipole moment (field-independent basis, Debye):
    X=             -0.0000    Y=             -0.0000    Z=             -2.7182  Tot=              2.7182

 Test job not archived.
 1\1\GINC-SE046\SP\RHF\Aug-CC-pVDZ\C7H14O1\OHZDE\05-Apr-2025\0\\#t hf a
 ug-cc-pvdz iop(5/13=1,5/36=2,99/5=2) pseudo=read geom=check guess=(rea
 d,tcheck) scf=(maxcycle=1)\\title\\0,1\C,0,0.,0.,0.295876\C,0,0.000056
 ,3.828834,-0.53029\C,0,-0.000056,-3.828834,-0.53029\C,0,0.,1.290026,-0
 .509256\C,0,0.,-1.290026,-0.509256\C,0,0.000059,2.564624,0.327131\C,0,
 -0.000059,-2.564624,0.327131\O,0,0.,0.,1.506774\H,0,-0.880828,3.873562
 ,-1.174448\H,0,0.000099,4.725217,0.090803\H,0,0.880894,3.873522,-1.174
 514\H,0,0.880828,-3.873562,-1.174448\H,0,-0.000099,-4.725217,0.090803\

 Normal termination of Gaussian 16 at Sat Apr  5 22:51:33 2025.
