 Gaussian 16, Revision C.01,

 ----------------------------------------------------------------------
 #t hf aug-cc-pvdz symm=none int=(grid=ultrafine) guess=(read,tcheck) s
 table=(opt,rrhf)
 ----------------------------------------------------------------------
 -----
 title
 -----
 Symbolic Z-matrix:
 Charge =  0 Multiplicity = 1

 SCF Done:  E(RHF) =  -397.347618580     A.U. after   16 cycles
 Normal termination of Gaussian 16 at Sat Apr  5 22:49:44 2025.
 Gaussian 16:  ES64L-G16RevC.01  3-Jul-2019

 ----------------------------------------------------------------------
 #t hf aug-cc-pvdz iop(5/13=1,5/36=2,99/5=2) pseudo=read geom=check gue
 ss=(read,tcheck) scf=(maxcycle=1)
 ----------------------------------------------------------------------
 -----
 title
 -----
 Structure from the checkpoint file:  "4-hydroxybenzonitrile.chk"
 Charge =  0 Multiplicity = 1

                         Standard orientation:
 ---------------------------------------------------------------------
 Center     Atomic      Atomic             Coordinates (Angstroms)
 Number     Number       Type             X           Y           Z
 ---------------------------------------------------------------------
      1          6           0       -0.005988    2.507272   -0.000000
      2          6           0       -1.204001    0.369123   -0.000000
      3          6           0        1.211150    0.375851    0.000000
      4          6           0       -1.197969   -1.015172   -0.000000
      5          6           0        1.219241   -1.005857    0.000000
      6          6           0       -0.000000    1.080084   -0.000000
      7          6           0        0.013220   -1.706493    0.000000
      8          7           0       -0.011295    3.660282   -0.000000
      9          8           0        0.081550   -3.064394    0.000000
     10          1           0       -2.141968    0.905432   -0.000000
     11          1           0        2.144005    0.921085    0.000000
     12          1           0       -2.133901   -1.560076   -0.000000
     13          1           0        2.147877   -1.558073    0.000000
     14          1           0       -0.803266   -3.444050    0.000000
 ---------------------------------------------------------------------

 SCF Done:  E(RHF) =  -397.743700196     A.U. after    2 cycles

 The electronic state is 1-A'.
 Alpha  occ. eigenvalues --  -20.60809 -15.51081 -11.34422 -11.28769 -11.28667
 Alpha  occ. eigenvalues --  -11.28427 -11.28093 -11.26883 -11.26284  -1.52354
 Alpha  occ. eigenvalues --   -1.23466  -1.18816  -1.06080  -1.05801  -0.90123
 Alpha  occ. eigenvalues --   -0.88523  -0.78358  -0.76916  -0.70949  -0.65721
 Alpha  occ. eigenvalues --   -0.63786  -0.62458  -0.61840  -0.60262  -0.57879
 Alpha  occ. eigenvalues --   -0.55844  -0.53953  -0.49891  -0.49232  -0.38398
 Alpha  occ. eigenvalues --   -0.35184
 Alpha virt. eigenvalues --    0.02096   0.03445   0.03751   0.05636   0.06276
 Alpha virt. eigenvalues --    0.06640   0.07752   0.09217   0.09546   0.10120
 Alpha virt. eigenvalues --    0.11803   0.12077   0.12407   0.12856   0.13152

 Mulliken charges:
               1
     1  C   -3.030967
     2  C    0.159738
     3  C    0.357668
     4  C    0.006556
     5  C    0.339434
     6  C    2.401409
     7  C    1.145507
     8  N    1.052252
     9  O   -1.727870
    10  H   -0.274476
    11  H   -0.291713
    12  H   -0.308379
    13  H   -0.234411
    14  H    0.405253
 Sum of Mulliken charges =   0.00000

 Dipole moment (field-independent basis, Debye):
    X=             -1.3267    Y=             -5.8108    Z=             -0.0000  Tot=              5.9603

 Test job not archived.
 1\1\GINC-SE180\SP\RHF\Aug-CC-pVDZ\C7H5N1O1\OHZDE\05-Apr-2025\0\\#t hf
 aug-cc-pvdz iop(5/13=1,5/36=2,99/5=2) pseudo=read geom=check guess=(re
 ad,tcheck) scf=(maxcycle=1)\\title\\0,1\C,0,-0.005988,2.507272,0.\C,0,
 -1.204001,0.369123,0.\C,0,1.21115,0.375851,0.\C,0,-1.197969,-1.015172,
 0.\C,0,1.219241,-1.005857,0.\C,0,0.,1.080084,0.\C,0,0.01322,-1.706493,
 0.\N,0,-0.011295,3.660282,0.\O,0,0.081551,-3.064394,0.\H,0,-2.141968,0
 .905432,0.\H,0,2.144005,0.921085,0.\H,0,-2.133901,-1.560076,0.\H,0,2.1
 47877,-1.558073,0.\H,0,-0.803265,-3.44405,0.\\Version=ES64L-G16RevC.01

 Normal termination of Gaussian 16 at Sat Apr  5 22:50:04 2025.
