 Gaussian 16, Revision C.01,

 ----------------------------------------------------------------------
 #t hf aug-cc-pvdz symm=none int=(grid=ultrafine) guess=(read,tcheck) s
 table=(opt,rrhf)
 ----------------------------------------------------------------------
 -----
 title
 -----
 Symbolic Z-matrix:
 Charge =  0 Multiplicity = 1

 SCF Done:  E(RHF) =  -826.906399063     A.U. after   17 cycles
 Normal termination of Gaussian 16 at Sat Apr  5 22:49:54 2025.
 Gaussian 16:  ES64L-G16RevC.01  3-Jul-2019

 ----------------------------------------------------------------------
 #t hf aug-cc-pvdz iop(5/13=1,5/36=2,99/5=2) pseudo=read geom=check gue
 ss=(read,tcheck) scf=(maxcycle=1)
 ----------------------------------------------------------------------
 -----
 title
 -----
 Structure from the checkpoint file:  "4-hydroxy-2-mercaptopyrimidine-5-carbonitrile.chk"
 Charge =  0 Multiplicity = 1

                         Standard orientation:
 ---------------------------------------------------------------------
 Center     Atomic      Atomic             Coordinates (Angstroms)
 Number     Number       Type             X           Y           Z
 ---------------------------------------------------------------------
      1         16           0        3.132710   -0.028210    0.000007
      2          8           0       -1.337989    2.079383   -0.000019
      3          7           0        0.658787    0.991064   -0.000007
      4          7           0        0.797722   -1.297239    0.000012
      5          7           0       -3.917479   -0.575246   -0.000004
      6          6           0       -1.360122   -0.311158   -0.000000
      7          6           0       -0.749660    1.025767   -0.000010
      8          6           0       -0.554818   -1.403788    0.000010
      9          6           0        1.482361   -0.097815    0.000004
     10          6           0       -2.773022   -0.442707   -0.000002
     11          1           0        1.112595    1.894358   -0.000013
     12          1           0       -0.951396   -2.408389    0.000017
     13          1           0        1.377708   -2.121519    0.000020
 ---------------------------------------------------------------------

 SCF Done:  E(RHF) =  -827.381761458     A.U. after    2 cycles

 The electronic state is 1-A.
 Alpha  occ. eigenvalues --  -93.93780 -20.56443 -15.62885 -15.60704 -15.53363
 Alpha  occ. eigenvalues --  -11.43980 -11.42363 -11.39350 -11.32354 -11.30340
 Alpha  occ. eigenvalues --   -8.22075  -6.19948  -6.19601  -6.19502  -1.51752
 Alpha  occ. eigenvalues --   -1.39943  -1.29616  -1.25420  -1.17021  -1.07803
 Alpha  occ. eigenvalues --   -0.99168  -0.95064  -0.90812  -0.83620  -0.78510
 Alpha  occ. eigenvalues --   -0.75594  -0.71941  -0.71872  -0.65865  -0.62272
 Alpha  occ. eigenvalues --   -0.62270  -0.58687  -0.57963  -0.52461  -0.52339
 Alpha  occ. eigenvalues --   -0.48471  -0.43146  -0.38561  -0.37737
 Alpha virt. eigenvalues --    0.01155   0.01408   0.04262   0.04446   0.05576
 Alpha virt. eigenvalues --    0.06914   0.07146   0.07356   0.08342   0.10064
 Alpha virt. eigenvalues --    0.10410   0.11618   0.11697   0.12219   0.12817

 Mulliken charges:
               1
     1  S    0.336932
     2  O   -1.436321
     3  N    0.542612
     4  N    0.466132
     5  N    1.206240
     6  C    2.240834
     7  C    0.685114
     8  C   -0.098421
     9  C   -1.157555
    10  C   -3.030724
    11  H    0.252421
    12  H   -0.256813
    13  H    0.249549
 Sum of Mulliken charges =  -0.00000

 Dipole moment (field-independent basis, Debye):
    X=              3.5526    Y=             -3.9220    Z=              0.0000  Tot=              5.2918

 Test job not archived.
 1\1\GINC-SE129\SP\RHF\Aug-CC-pVDZ\C5H3N3O1S1\OHZDE\05-Apr-2025\0\\#t h
 f aug-cc-pvdz iop(5/13=1,5/36=2,99/5=2) pseudo=read geom=check guess=(
 read,tcheck) scf=(maxcycle=1)\\title\\0,1\S,0,3.13271,-0.02821,0.00000
 7\O,0,-1.337989,2.079383,-0.000019\N,0,0.658787,0.991064,-0.000007\N,0
 ,0.797722,-1.297239,0.000012\N,0,-3.917479,-0.575246,-0.000004\C,0,-1.
 360122,-0.311158,0.\C,0,-0.74966,1.025767,-0.00001\C,0,-0.554818,-1.40
 3788,0.00001\C,0,1.482361,-0.097815,0.000004\C,0,-2.773022,-0.442707,-
 0.000002\H,0,1.112595,1.894358,-0.000013\H,0,-0.951396,-2.408389,0.000

 Normal termination of Gaussian 16 at Sat Apr  5 22:50:05 2025.
