 Gaussian 16, Revision C.01,

 ----------------------------------------------------------------------
 #t hf aug-cc-pvdz symm=none int=(grid=ultrafine) guess=(read,tcheck) s
 table=(opt,rrhf)
 ----------------------------------------------------------------------
 -----
 title
 -----
 Symbolic Z-matrix:
 Charge =  0 Multiplicity = 1

 SCF Done:  E(RHF) =  -627.362510205     A.U. after   14 cycles
 Normal termination of Gaussian 16 at Sat Apr  5 22:49:09 2025.
 Gaussian 16:  ES64L-G16RevC.01  3-Jul-2019

 ----------------------------------------------------------------------
 #t hf aug-cc-pvdz iop(5/13=1,5/36=2,99/5=2) pseudo=read geom=check gue
 ss=(read,tcheck) scf=(maxcycle=1)
 ----------------------------------------------------------------------
 -----
 title
 -----
 Structure from the checkpoint file:  "4-hydroxy-2-3-dihydrothiophene.chk"
 Charge =  0 Multiplicity = 1

                         Standard orientation:
 ---------------------------------------------------------------------
 Center     Atomic      Atomic             Coordinates (Angstroms)
 Number     Number       Type             X           Y           Z
 ---------------------------------------------------------------------
      1         16           0       -1.557947   -0.547420   -0.078355
      2          6           0        0.113521   -1.121692    0.074303
      3          6           0        1.026808   -0.155065    0.016891
      4          6           0        0.488759    1.236776   -0.190699
      5          6           0       -0.987946    1.187007    0.215046
      6          8           0        2.374694   -0.392412    0.019811
      7          1           0        0.314952   -2.177612    0.152421
      8          1           0        1.028571    1.980024    0.403180
      9          1           0       -1.614058    1.868088   -0.353978
     10          1           0        0.605870    1.517008   -1.244505
     11          1           0       -1.102813    1.398424    1.277082
     12          1           0        2.850231    0.429936    0.167745
 ---------------------------------------------------------------------

 SCF Done:  E(RHF) =  -627.659991019     A.U. after    2 cycles

 The electronic state is 1-A.
 Alpha  occ. eigenvalues --  -93.94511 -20.58483 -11.30596 -11.27696 -11.26305
 Alpha  occ. eigenvalues --  -11.24954  -8.22601  -6.20409  -6.20291  -6.20032
 Alpha  occ. eigenvalues --   -1.49420  -1.15176  -1.00371  -0.98315  -0.83548
 Alpha  occ. eigenvalues --   -0.76327  -0.72000  -0.66960  -0.63908  -0.58881
 Alpha  occ. eigenvalues --   -0.57305  -0.53736  -0.51624  -0.50599  -0.45931
 Alpha  occ. eigenvalues --   -0.42319  -0.29721
 Alpha virt. eigenvalues --    0.02850   0.03877   0.04350   0.04799   0.06374
 Alpha virt. eigenvalues --    0.06754   0.08669   0.10719   0.12249   0.12787
 Alpha virt. eigenvalues --    0.13132   0.13998   0.14486   0.14926   0.16052

 Mulliken charges:
               1
     1  S    0.461778
     2  C   -0.327521
     3  C    1.622195
     4  C   -0.595183
     5  C   -0.527735
     6  O   -1.569595
     7  H   -0.146557
     8  H    0.170736
     9  H    0.174951
    10  H    0.212474
    11  H    0.197282
    12  H    0.327174
 Sum of Mulliken charges =  -0.00000

 Dipole moment (field-independent basis, Debye):
    X=              1.4432    Y=              2.9496    Z=              0.3774  Tot=              3.3054

 Test job not archived.
 1\1\GINC-SE085\SP\RHF\Aug-CC-pVDZ\C4H6O1S1\OHZDE\05-Apr-2025\0\\#t hf
 aug-cc-pvdz iop(5/13=1,5/36=2,99/5=2) pseudo=read geom=check guess=(re
 ad,tcheck) scf=(maxcycle=1)\\title\\0,1\S,0,-1.557947,-0.54742,-0.0783
 55\C,0,0.113521,-1.121692,0.074303\C,0,1.026808,-0.155065,0.016891\C,0
 ,0.488759,1.236776,-0.190699\C,0,-0.987946,1.187007,0.215046\O,0,2.374
 694,-0.392412,0.019811\H,0,0.314952,-2.177612,0.152421\H,0,1.028571,1.
 980024,0.40318\H,0,-1.614058,1.868088,-0.353978\H,0,0.60587,1.517008,-
 1.244505\H,0,-1.102813,1.398424,1.277082\H,0,2.850231,0.429936,0.16774

 Normal termination of Gaussian 16 at Sat Apr  5 22:50:03 2025.
