 Gaussian 16, Revision C.01,

 ----------------------------------------------------------------------
 #t hf aug-cc-pvdz symm=none int=(grid=ultrafine) guess=(read,tcheck) s
 table=(opt,rrhf)
 ----------------------------------------------------------------------
 -----
 title
 -----
 Symbolic Z-matrix:
 Charge =  0 Multiplicity = 1

 SCF Done:  E(RHF) =  -1019.92907162     A.U. after   15 cycles
 Normal termination of Gaussian 16 at Sat Apr  5 22:49:08 2025.
 Gaussian 16:  ES64L-G16RevC.01  3-Jul-2019

 ----------------------------------------------------------------------
 #t hf aug-cc-pvdz iop(5/13=1,5/36=2,99/5=2) pseudo=read geom=check gue
 ss=(read,tcheck) scf=(maxcycle=1)
 ----------------------------------------------------------------------
 -----
 title
 -----
 Structure from the checkpoint file:  "4-imino-1-3-thiazolidine-2-thione.chk"
 Charge =  0 Multiplicity = 1

                         Standard orientation:
 ---------------------------------------------------------------------
 Center     Atomic      Atomic             Coordinates (Angstroms)
 Number     Number       Type             X           Y           Z
 ---------------------------------------------------------------------
      1         16           0        0.212246    1.503595    0.000013
      2         16           0        2.374967   -0.597531   -0.000005
      3          7           0       -0.270384   -1.016336   -0.000009
      4          7           0       -2.558616   -1.309203   -0.000011
      5          6           0        0.793728   -0.164480   -0.000001
      6          6           0       -1.566028   -0.523204   -0.000005
      7          6           0       -1.550107    0.995182    0.000009
      8          1           0       -0.112585   -2.013711   -0.000018
      9          1           0       -3.442358   -0.809316   -0.000007
     10          1           0       -2.051518    1.379900   -0.885946
     11          1           0       -2.051518    1.379884    0.885970
 ---------------------------------------------------------------------

 SCF Done:  E(RHF) =  -1020.27265368     A.U. after    2 cycles

 The electronic state is 1-A.
 Alpha  occ. eigenvalues --  -94.00100 -93.92205 -15.58385 -15.51089 -11.40087
 Alpha  occ. eigenvalues --  -11.37066 -11.32020  -8.28260  -8.20493  -6.26030
 Alpha  occ. eigenvalues --   -6.25902  -6.25656  -6.18361  -6.18045  -6.17916
 Alpha  occ. eigenvalues --   -1.35173  -1.23206  -1.12898  -1.07614  -0.95610
 Alpha  occ. eigenvalues --   -0.89267  -0.86162  -0.74176  -0.69320  -0.67387
 Alpha  occ. eigenvalues --   -0.64155  -0.61239  -0.55301  -0.53938  -0.51013
 Alpha  occ. eigenvalues --   -0.48483  -0.41509  -0.36046  -0.35801
 Alpha virt. eigenvalues --    0.02239   0.04102   0.04516   0.04967   0.05478
 Alpha virt. eigenvalues --    0.07356   0.08005   0.08565   0.10809   0.11364
 Alpha virt. eigenvalues --    0.12248   0.12549   0.13224   0.13583   0.13918

 Mulliken charges:
               1
     1  S    0.908496
     2  S    0.327270
     3  N    0.715556
     4  N    0.843638
     5  C   -1.203081
     6  C   -1.798638
     7  C   -0.654324
     8  H    0.044459
     9  H    0.228939
    10  H    0.293843
    11  H    0.293841
 Sum of Mulliken charges =  -0.00000

 Dipole moment (field-independent basis, Debye):
    X=             -3.8300    Y=              2.3881    Z=              0.0000  Tot=              4.5135

 Test job not archived.
 1\1\GINC-SE190\SP\RHF\Aug-CC-pVDZ\C3H4N2S2\OHZDE\05-Apr-2025\0\\#t hf
 aug-cc-pvdz iop(5/13=1,5/36=2,99/5=2) pseudo=read geom=check guess=(re
 ad,tcheck) scf=(maxcycle=1)\\title\\0,1\S,0,0.212246,1.503595,0.000013
 \S,0,2.374967,-0.597531,-0.000005\N,0,-0.270384,-1.016336,-0.000009\N,
 0,-2.558616,-1.309203,-0.000011\C,0,0.793728,-0.16448,-0.000001\C,0,-1
 .566028,-0.523204,-0.000005\C,0,-1.550107,0.995182,0.000009\H,0,-0.112
 586,-2.013711,-0.000018\H,0,-3.442358,-0.809316,-0.000007\H,0,-2.05151
 8,1.3799,-0.885946\H,0,-2.051518,1.379884,0.88597\\Version=ES64L-G16Re

 Normal termination of Gaussian 16 at Sat Apr  5 22:50:03 2025.
