 Gaussian 16, Revision C.01,

 ----------------------------------------------------------------------
 #t hf aug-cc-pvdz symm=none int=(grid=ultrafine) guess=(read,tcheck) s
 table=(opt,rrhf)
 ----------------------------------------------------------------------
 -----
 title
 -----
 Symbolic Z-matrix:
 Charge =  0 Multiplicity = 1

 SCF Done:  E(RHF) =  -285.767298788     A.U. after   14 cycles
 Normal termination of Gaussian 16 at Sat Apr  5 22:49:23 2025.
 Gaussian 16:  ES64L-G16RevC.01  3-Jul-2019

 ----------------------------------------------------------------------
 #t hf aug-cc-pvdz iop(5/13=1,5/36=2,99/5=2) pseudo=read geom=check gue
 ss=(read,tcheck) scf=(maxcycle=1)
 ----------------------------------------------------------------------
 -----
 title
 -----
 Structure from the checkpoint file:  "4-methylpyridine.chk"
 Charge =  0 Multiplicity = 1

                         Standard orientation:
 ---------------------------------------------------------------------
 Center     Atomic      Atomic             Coordinates (Angstroms)
 Number     Number       Type             X           Y           Z
 ---------------------------------------------------------------------
      1          6           0        0.170112    1.186351   -0.008143
      2          6           0        0.170422   -1.186190   -0.008142
      3          6           0       -1.217953    1.135555    0.002250
      4          6           0       -1.217513   -1.135808    0.002253
      5          6           0        0.901466    0.000262   -0.011063
      6          6           0        2.404775    0.000161    0.007281
      7          7           0       -1.916745   -0.000180    0.008110
      8          1           0        0.673396    2.144679   -0.017182
      9          1           0        0.673970   -2.144393   -0.017199
     10          1           0       -1.795666    2.053142    0.003167
     11          1           0       -1.794994   -2.053533    0.003164
     12          1           0        2.808502   -0.876247   -0.498790
     13          1           0        2.808455    0.891635   -0.471579
     14          1           0        2.775701   -0.016004    1.035029
 ---------------------------------------------------------------------

 SCF Done:  E(RHF) =  -286.064992477     A.U. after    2 cycles

 The electronic state is 1-A.
 Alpha  occ. eigenvalues --  -15.49773 -11.27705 -11.27702 -11.26979 -11.24666
 Alpha  occ. eigenvalues --  -11.24115 -11.24101  -1.25638  -1.11153  -1.03515
 Alpha  occ. eigenvalues --   -0.97610  -0.87600  -0.83612  -0.71317  -0.69868
 Alpha  occ. eigenvalues --   -0.65679  -0.60825  -0.59891  -0.57108  -0.57002
 Alpha  occ. eigenvalues --   -0.54926  -0.52050  -0.44892  -0.38888  -0.35595
 Alpha virt. eigenvalues --    0.03306   0.03682   0.03734   0.04728   0.05465
 Alpha virt. eigenvalues --    0.06221   0.08347   0.08884   0.09468   0.10202
 Alpha virt. eigenvalues --    0.12086   0.12318   0.12610   0.13505   0.14104

 Mulliken charges:
               1
     1  C    0.826117
     2  C    0.822022
     3  C   -1.168929
     4  C   -1.169653
     5  C    0.567200
     6  C   -0.653799
     7  N    1.109368
     8  H   -0.250526
     9  H   -0.250667
    10  H   -0.193911
    11  H   -0.193972
    12  H    0.134356
    13  H    0.128463
    14  H    0.293929
 Sum of Mulliken charges =  -0.00000

 Dipole moment (field-independent basis, Debye):
    X=              3.2149    Y=             -0.0004    Z=              0.0232  Tot=              3.2150

 Test job not archived.
 1\1\GINC-SE175\SP\RHF\Aug-CC-pVDZ\C6H7N1\OHZDE\05-Apr-2025\0\\#t hf au
 g-cc-pvdz iop(5/13=1,5/36=2,99/5=2) pseudo=read geom=check guess=(read
 ,tcheck) scf=(maxcycle=1)\\title\\0,1\C,0,0.170112,1.186351,-0.008143\
 C,0,0.170422,-1.18619,-0.008142\C,0,-1.217953,1.135555,0.00225\C,0,-1.
 217513,-1.135808,0.002253\C,0,0.901466,0.000262,-0.011063\C,0,2.404775
 ,0.000161,0.007281\N,0,-1.916745,-0.00018,0.00811\H,0,0.673396,2.14467
 9,-0.017182\H,0,0.67397,-2.144393,-0.017199\H,0,-1.795666,2.053142,0.0
 03167\H,0,-1.794994,-2.053533,0.003164\H,0,2.808502,-0.876247,-0.49879

 Normal termination of Gaussian 16 at Sat Apr  5 22:50:03 2025.
