 Gaussian 16, Revision C.01,

 ----------------------------------------------------------------------
 #t hf aug-cc-pvdz symm=none int=(grid=ultrafine) guess=(read,tcheck) s
 table=(opt,rrhf)
 ----------------------------------------------------------------------
 -----
 title
 -----
 Symbolic Z-matrix:
 Charge =  0 Multiplicity = 1

 SCF Done:  E(RHF) =  -233.038839058     A.U. after   11 cycles
 Normal termination of Gaussian 16 at Sat Apr  5 22:49:22 2025.
 Gaussian 16:  ES64L-G16RevC.01  3-Jul-2019

 ----------------------------------------------------------------------
 #t hf aug-cc-pvdz iop(5/13=1,5/36=2,99/5=2) pseudo=read geom=check gue
 ss=(read,tcheck) scf=(maxcycle=1)
 ----------------------------------------------------------------------
 -----
 title
 -----
 Structure from the checkpoint file:  "4-methylcyclopentene.chk"
 Charge =  0 Multiplicity = 1

                         Standard orientation:
 ---------------------------------------------------------------------
 Center     Atomic      Atomic             Coordinates (Angstroms)
 Number     Number       Type             X           Y           Z
 ---------------------------------------------------------------------
      1          1           0        0.028003   -2.438976    1.284839
      2          6           0       -0.009038   -1.553163    0.664724
      3          1           0        0.028003   -2.438976   -1.284839
      4          6           0       -0.009038   -1.553163   -0.664724
      5          1           0        0.979678    0.096300    1.630209
      6          1           0       -0.717848   -0.020955    2.047210
      7          6           0       -0.009038   -0.154824    1.227012
      8          1           0       -0.717848   -0.020955   -2.047210
      9          1           0        0.979678    0.096300   -1.630209
     10          6           0       -0.009038   -0.154824   -1.227012
     11          1           0       -1.442190    0.863921    0.000000
     12          6           0       -0.357295    0.727796    0.000000
     13          1           0        0.014739    2.680869    0.880857
     14          1           0        0.014739    2.680869   -0.880857
     15          1           0        1.389603    2.014165   -0.000000
     16          6           0        0.300687    2.102752    0.000000
 ---------------------------------------------------------------------

 SCF Done:  E(RHF) =  -233.295209867     A.U. after    2 cycles

 The electronic state is 1-A'.
 Alpha  occ. eigenvalues --  -11.23032 -11.22646 -11.22583 -11.22558 -11.22517
 Alpha  occ. eigenvalues --  -11.22052  -1.13676  -1.01119  -0.95624  -0.89570
 Alpha  occ. eigenvalues --   -0.77014  -0.73067  -0.68042  -0.63560  -0.57058
 Alpha  occ. eigenvalues --   -0.55736  -0.55574  -0.54166  -0.49806  -0.48406
 Alpha  occ. eigenvalues --   -0.47093  -0.45831  -0.34780
 Alpha virt. eigenvalues --    0.03735   0.03925   0.03962   0.04196   0.05511
 Alpha virt. eigenvalues --    0.06206   0.06599   0.06936   0.08015   0.09048
 Alpha virt. eigenvalues --    0.12682   0.12909   0.13895   0.15086   0.15238

 Mulliken charges:
               1
     1  H   -0.113031
     2  C    0.327065
     3  H   -0.113031
     4  C    0.327065
     5  H    0.189937
     6  H    0.139134
     7  C   -0.453448
     8  H    0.139134
     9  H    0.189937
    10  C   -0.453448
    11  H    0.115505
    12  C   -0.574577
    13  H    0.142496
    14  H    0.142496
    15  H    0.193101
    16  C   -0.198336
 Sum of Mulliken charges =  -0.00000

 Dipole moment (field-independent basis, Debye):
    X=             -0.0109    Y=              0.2314    Z=              0.0000  Tot=              0.2316

 Test job not archived.
 1\1\GINC-SE013\SP\RHF\Aug-CC-pVDZ\C6H10\OHZDE\05-Apr-2025\0\\#t hf aug
 -cc-pvdz iop(5/13=1,5/36=2,99/5=2) pseudo=read geom=check guess=(read,
 tcheck) scf=(maxcycle=1)\\title\\0,1\H,0,0.028003,-2.438976,1.284839\C
 ,0,-0.009038,-1.553163,0.664724\H,0,0.028003,-2.438976,-1.284839\C,0,-
 0.009038,-1.553163,-0.664724\H,0,0.979678,0.0963,1.630209\H,0,-0.71784
 8,-0.020955,2.04721\C,0,-0.009038,-0.154824,1.227012\H,0,-0.717848,-0.
 020955,-2.04721\H,0,0.979678,0.0963,-1.630209\C,0,-0.009038,-0.154824,
 -1.227012\H,0,-1.44219,0.863921,0.\C,0,-0.357295,0.727796,0.\H,0,0.014

 Normal termination of Gaussian 16 at Sat Apr  5 22:50:02 2025.
