 Gaussian 16, Revision C.01,

 ----------------------------------------------------------------------
 #t hf aug-cc-pvdz symm=none int=(grid=ultrafine) guess=(read,tcheck) s
 table=(opt,rrhf)
 ----------------------------------------------------------------------
 -----
 title
 -----
 Symbolic Z-matrix:
 Charge =  0 Multiplicity = 1

 SCF Done:  E(RHF) =  -382.515285680     A.U. after   16 cycles
 Normal termination of Gaussian 16 at Sat Apr  5 22:50:00 2025.
 Gaussian 16:  ES64L-G16RevC.01  3-Jul-2019

 ----------------------------------------------------------------------
 #t hf aug-cc-pvdz iop(5/13=1,5/36=2,99/5=2) pseudo=read geom=check gue
 ss=(read,tcheck) scf=(maxcycle=1)
 ----------------------------------------------------------------------
 -----
 title
 -----
 Structure from the checkpoint file:  "4-methylbenzaldehyde.chk"
 Charge =  0 Multiplicity = 1

                         Standard orientation:
 ---------------------------------------------------------------------
 Center     Atomic      Atomic             Coordinates (Angstroms)
 Number     Number       Type             X           Y           Z
 ---------------------------------------------------------------------
      1          6           0       -0.225569    1.332966   -0.000002
      2          6           0       -0.455485   -1.064735   -0.000006
      3          6           0        1.156764    1.200181   -0.000032
      4          6           0        0.920244   -1.190395   -0.000036
      5          6           0       -1.043674    0.204925    0.000012
      6          6           0        1.751261   -0.060989   -0.000040
      7          6           0       -2.509207    0.366017    0.000015
      8          6           0        3.247030   -0.218201    0.000041
      9          8           0       -3.310674   -0.540952    0.000015
     10          1           0       -0.675329    2.318557   -0.000006
     11          1           0       -1.096676   -1.935469   -0.000014
     12          1           0        1.781369    2.084082   -0.000052
     13          1           0        1.367447   -2.176702   -0.000067
     14          1           0       -2.854814    1.419797    0.000014
     15          1           0        3.582124   -0.775241   -0.877101
     16          1           0        3.750856    0.746927   -0.001219
     17          1           0        3.582235   -0.772949    0.878607
 ---------------------------------------------------------------------

 SCF Done:  E(RHF) =  -382.906402475     A.U. after    2 cycles

 The electronic state is 1-A.
 Alpha  occ. eigenvalues --  -20.53971 -11.34054 -11.27031 -11.26554 -11.25853
 Alpha  occ. eigenvalues --  -11.25117 -11.25102 -11.24984 -11.24756  -1.46951
 Alpha  occ. eigenvalues --   -1.17813  -1.07627  -1.03455  -0.97350  -0.87396
 Alpha  occ. eigenvalues --   -0.85479  -0.79771  -0.71915  -0.68442  -0.65905
 Alpha  occ. eigenvalues --   -0.63019  -0.61725  -0.61348  -0.59823  -0.56181
 Alpha  occ. eigenvalues --   -0.55313  -0.53190  -0.51190  -0.49618  -0.42054
 Alpha  occ. eigenvalues --   -0.36234  -0.34999
 Alpha virt. eigenvalues --    0.02989   0.03096   0.03854   0.04648   0.04847
 Alpha virt. eigenvalues --    0.05908   0.06446   0.07514   0.08196   0.08799
 Alpha virt. eigenvalues --    0.09652   0.09953   0.11821   0.12761   0.13355

 Mulliken charges:
               1
     1  C    0.009790
     2  C   -0.151611
     3  C    0.168632
     4  C    0.430025
     5  C    1.337495
     6  C    0.190202
     7  C    0.749895
     8  C   -0.634580
     9  O   -1.327169
    10  H   -0.314097
    11  H   -0.316710
    12  H   -0.305550
    13  H   -0.303736
    14  H   -0.055868
    15  H    0.235450
    16  H    0.051884
    17  H    0.235946
 Sum of Mulliken charges =  -0.00000

 Dipole moment (field-independent basis, Debye):
    X=              3.7853    Y=              1.5519    Z=              0.0001  Tot=              4.0910

 Test job not archived.
 1\1\GINC-SE198\SP\RHF\Aug-CC-pVDZ\C8H8O1\OHZDE\05-Apr-2025\0\\#t hf au
 g-cc-pvdz iop(5/13=1,5/36=2,99/5=2) pseudo=read geom=check guess=(read
 ,tcheck) scf=(maxcycle=1)\\title\\0,1\C,0,-0.225569,1.332966,-0.000002
 \C,0,-0.455485,-1.064735,-0.000006\C,0,1.156764,1.200181,-0.000032\C,0
 ,0.920244,-1.190395,-0.000036\C,0,-1.043674,0.204925,0.000012\C,0,1.75
 1261,-0.060989,-0.00004\C,0,-2.509207,0.366017,0.000015\C,0,3.24703,-0
 .218201,0.000041\O,0,-3.310674,-0.540952,0.000015\H,0,-0.675329,2.3185
 57,-0.000006\H,0,-1.096676,-1.935469,-0.000014\H,0,1.781369,2.084082,-

 Normal termination of Gaussian 16 at Sat Apr  5 22:50:08 2025.
