 Gaussian 16, Revision C.01,

 ----------------------------------------------------------------------
 #t hf aug-cc-pvdz symm=none int=(grid=ultrafine) guess=(read,tcheck) s
 table=(opt,rrhf)
 ----------------------------------------------------------------------
 -----
 title
 -----
 Symbolic Z-matrix:
 Charge =  0 Multiplicity = 1

 SCF Done:  E(RHF) =  -309.105063369     A.U. after   14 cycles

 1\1\GINC-SE052\Stability\RHF\Aug-CC-pVDZ\C6H12O1\OHZDE\05-Apr-2025\0\\
 #t hf aug-cc-pvdz symm=none int=(grid=ultrafine) guess=(read,tcheck) s
 table=(opt,rrhf)\\title\\0,1\C,0,1.363855,0.030075,-0.170042\C,0,2.606
 929,-0.557824,0.463532\C,0,-1.45528,1.225604,0.713644\C,0,-2.421092,-0
 .889332,-0.272124\C,0,0.061163,-0.705726,0.102479\C,0,-1.21841,0.05772
 2,-0.24833\O,0,1.416645,1.020203,-0.864763\H,0,2.642224,-1.64068,0.332
 842\H,0,3.496393,-0.099039,0.039705\H,0,2.584875,-0.368191,1.539724\H,
 0,-2.352545,1.781025,0.436354\H,0,-1.59422,0.865028,1.736746\H,0,-0.61

 Normal termination of Gaussian 16 at Sat Apr  5 22:50:53 2025.
 Gaussian 16:  ES64L-G16RevC.01  3-Jul-2019

 ----------------------------------------------------------------------
 #t hf aug-cc-pvdz iop(5/13=1,5/36=2,99/5=2) pseudo=read geom=check gue
 ss=(read,tcheck) scf=(maxcycle=1)
 ----------------------------------------------------------------------
 -----
 title
 -----
 Structure from the checkpoint file:  "4-methyl-2-pentanone.chk"
 Charge =  0 Multiplicity = 1

                         Standard orientation:
 ---------------------------------------------------------------------
 Center     Atomic      Atomic             Coordinates (Angstroms)
 Number     Number       Type             X           Y           Z
 ---------------------------------------------------------------------
      1          6           0        1.363855    0.030075   -0.170042
      2          6           0        2.606929   -0.557824    0.463532
      3          6           0       -1.455280    1.225604    0.713644
      4          6           0       -2.421092   -0.889332   -0.272124
      5          6           0        0.061163   -0.705726    0.102479
      6          6           0       -1.218410    0.057722   -0.248330
      7          8           0        1.416645    1.020203   -0.864763
      8          1           0        2.642224   -1.640680    0.332842
      9          1           0        3.496393   -0.099038    0.039705
     10          1           0        2.584875   -0.368191    1.539724
     11          1           0       -2.352545    1.781025    0.436354
     12          1           0       -1.594220    0.865028    1.736746
     13          1           0       -0.618385    1.922898    0.706321
     14          1           0       -3.332967   -0.354650   -0.542235
     15          1           0       -2.584846   -1.345226    0.707862
     16          1           0       -2.281272   -1.695729   -0.994592
     17          1           0        0.119090   -1.634373   -0.479035
     18          1           0        0.049131   -1.027199    1.149683
     19          1           0       -1.083622    0.471398   -1.250224
 ---------------------------------------------------------------------

 SCF Done:  E(RHF) =  -309.436889172     A.U. after    2 cycles

 The electronic state is 1-A.
 Alpha  occ. eigenvalues --  -20.53145 -11.33705 -11.24355 -11.24249 -11.23483
 Alpha  occ. eigenvalues --  -11.22410 -11.21781  -1.46698  -1.10014  -1.02973
 Alpha  occ. eigenvalues --   -0.95251  -0.93199  -0.79594  -0.73930  -0.66846
 Alpha  occ. eigenvalues --   -0.64541  -0.63460  -0.60749  -0.58822  -0.57537
 Alpha  occ. eigenvalues --   -0.55807  -0.54426  -0.52957  -0.49363  -0.48656
 Alpha  occ. eigenvalues --   -0.47320  -0.47158  -0.40433
 Alpha virt. eigenvalues --    0.03121   0.03615   0.03775   0.04370   0.05767
 Alpha virt. eigenvalues --    0.05833   0.06268   0.07098   0.07414   0.08887
 Alpha virt. eigenvalues --    0.09058   0.09317   0.12453   0.13439   0.13873

 Mulliken charges:
               1
     1  C    1.305964
     2  C   -0.643035
     3  C   -0.071514
     4  C   -0.056921
     5  C   -0.253494
     6  C   -1.137437
     7  O   -1.411612
     8  H    0.231708
     9  H    0.141940
    10  H    0.271782
    11  H    0.135598
    12  H    0.208746
    13  H    0.141687
    14  H    0.149593
    15  H    0.233306
    16  H    0.132063
    17  H    0.253476
    18  H    0.185047
    19  H    0.183104
 Sum of Mulliken charges =  -0.00000

 Dipole moment (field-independent basis, Debye):
    X=             -0.2027    Y=             -2.3685    Z=              1.5633  Tot=              2.8451

 Test job not archived.
 1\1\GINC-SE052\SP\RHF\Aug-CC-pVDZ\C6H12O1\OHZDE\05-Apr-2025\0\\#t hf a
 ug-cc-pvdz iop(5/13=1,5/36=2,99/5=2) pseudo=read geom=check guess=(rea
 d,tcheck) scf=(maxcycle=1)\\title\\0,1\C,0,1.363855,0.030075,-0.170042
 \C,0,2.606929,-0.557824,0.463532\C,0,-1.45528,1.225604,0.713644\C,0,-2
 .421092,-0.889332,-0.272124\C,0,0.061163,-0.705726,0.102479\C,0,-1.218
 41,0.057722,-0.24833\O,0,1.416645,1.020203,-0.864763\H,0,2.642224,-1.6
 4068,0.332842\H,0,3.496393,-0.099039,0.039705\H,0,2.584875,-0.368191,1
 .539724\H,0,-2.352545,1.781025,0.436354\H,0,-1.59422,0.865028,1.736746

 Normal termination of Gaussian 16 at Sat Apr  5 22:51:01 2025.
