 Gaussian 16, Revision C.01,

 ----------------------------------------------------------------------
 #t hf aug-cc-pvdz symm=none int=(grid=ultrafine) guess=(read,tcheck) s
 table=(opt,rrhf)
 ----------------------------------------------------------------------
 -----
 title
 -----
 Symbolic Z-matrix:
 Charge =  0 Multiplicity = 1

 SCF Done:  E(RHF) =  -325.071034668     A.U. after   12 cycles
 Normal termination of Gaussian 16 at Sat Apr  5 22:50:43 2025.
 Gaussian 16:  ES64L-G16RevC.01  3-Jul-2019

 ----------------------------------------------------------------------
 #t hf aug-cc-pvdz iop(5/13=1,5/36=2,99/5=2) pseudo=read geom=check gue
 ss=(read,tcheck) scf=(maxcycle=1)
 ----------------------------------------------------------------------
 -----
 title
 -----
 Structure from the checkpoint file:  "4-methylmorpholine.chk"
 Charge =  0 Multiplicity = 1

                         Standard orientation:
 ---------------------------------------------------------------------
 Center     Atomic      Atomic             Coordinates (Angstroms)
 Number     Number       Type             X           Y           Z
 ---------------------------------------------------------------------
      1          6           0        0.106519    0.321839    1.198642
      2          6           0        0.106519    0.321839   -1.198642
      3          6           0        0.106519   -1.199020    1.172521
      4          6           0        0.106519   -1.199020   -1.172521
      5          6           0       -0.609708    2.294708   -0.000000
      6          7           0       -0.539239    0.845250   -0.000000
      7          8           0        0.737364   -1.697303    0.000000
      8          1           0       -0.440093    0.670990    2.077415
      9          1           0        1.146930    0.681983    1.286343
     10          1           0        1.146930    0.681983   -1.286343
     11          1           0       -0.440093    0.670990   -2.077415
     12          1           0        0.665003   -1.599068    2.017754
     13          1           0       -0.925754   -1.568194    1.224034
     14          1           0       -0.925754   -1.568194   -1.224034
     15          1           0        0.665003   -1.599068   -2.017754
     16          1           0        0.384828    2.772550   -0.000000
     17          1           0       -1.149724    2.637811    0.883102
     18          1           0       -1.149724    2.637811   -0.883102
 ---------------------------------------------------------------------

 SCF Done:  E(RHF) =  -325.417039150     A.U. after    2 cycles

 The electronic state is 1-A'.
 Alpha  occ. eigenvalues --  -20.53903 -15.48836 -11.27841 -11.27751 -11.25520
 Alpha  occ. eigenvalues --  -11.25486 -11.25332  -1.45669  -1.22915  -1.03952
 Alpha  occ. eigenvalues --   -0.98926  -0.88800  -0.88178  -0.78080  -0.69379
 Alpha  occ. eigenvalues --   -0.65474  -0.65359  -0.64558  -0.63637  -0.59140
 Alpha  occ. eigenvalues --   -0.56571  -0.54686  -0.53744  -0.51012  -0.50053
 Alpha  occ. eigenvalues --   -0.45864  -0.41507  -0.38848
 Alpha virt. eigenvalues --    0.03834   0.04248   0.04489   0.04525   0.05521
 Alpha virt. eigenvalues --    0.05675   0.05994   0.06229   0.07432   0.09144
 Alpha virt. eigenvalues --    0.09966   0.12332   0.12736   0.14327   0.14788

 Mulliken charges:
               1
     1  C   -0.385308
     2  C   -0.385308
     3  C    0.488561
     4  C    0.488561
     5  C   -0.419592
     6  N    0.505288
     7  O   -1.306451
     8  H    0.013396
     9  H    0.115793
    10  H    0.115793
    11  H    0.013396
    12  H   -0.016937
    13  H    0.202631
    14  H    0.202631
    15  H   -0.016937
    16  H    0.232100
    17  H    0.076191
    18  H    0.076191
 Sum of Mulliken charges =  -0.00000

 Dipole moment (field-independent basis, Debye):
    X=             -0.3241    Y=              1.2894    Z=              0.0000  Tot=              1.3295

 Test job not archived.
 1\1\GINC-SE108\SP\RHF\Aug-CC-pVDZ\C5H11N1O1\OHZDE\05-Apr-2025\0\\#t hf
  aug-cc-pvdz iop(5/13=1,5/36=2,99/5=2) pseudo=read geom=check guess=(r
 ead,tcheck) scf=(maxcycle=1)\\title\\0,1\C,0,0.106519,0.321839,1.19864
 2\C,0,0.106519,0.321839,-1.198642\C,0,0.106519,-1.19902,1.172521\C,0,0
 .106519,-1.19902,-1.172521\C,0,-0.609708,2.294708,0.\N,0,-0.539239,0.8
 4525,0.\O,0,0.737364,-1.697303,0.\H,0,-0.440093,0.67099,2.077415\H,0,1
 .14693,0.681983,1.286343\H,0,1.14693,0.681983,-1.286343\H,0,-0.440093,
 0.67099,-2.077415\H,0,0.665003,-1.599068,2.017754\H,0,-0.925754,-1.568

 Normal termination of Gaussian 16 at Sat Apr  5 22:50:53 2025.
