 Gaussian 16, Revision C.01,

 ----------------------------------------------------------------------
 #t hf aug-cc-pvdz symm=none int=(grid=ultrafine) guess=(read,tcheck) s
 table=(opt,rrhf)
 ----------------------------------------------------------------------
 -----
 title
 -----
 Symbolic Z-matrix:
 Charge =  0 Multiplicity = 1

 SCF Done:  E(RHF) =  -590.490128365     A.U. after   17 cycles
 Normal termination of Gaussian 16 at Sat Apr  5 22:54:07 2025.
 Gaussian 16:  ES64L-G16RevC.01  3-Jul-2019

 ----------------------------------------------------------------------
 #t hf aug-cc-pvdz iop(5/13=1,5/36=2,99/5=2) pseudo=read geom=check gue
 ss=(read,tcheck) scf=(maxcycle=1)
 ----------------------------------------------------------------------
 -----
 title
 -----
 Structure from the checkpoint file:  "4-methoxy-N-N-dimethylbenzamide.chk"
 Charge =  0 Multiplicity = 1

                         Standard orientation:
 ---------------------------------------------------------------------
 Center     Atomic      Atomic             Coordinates (Angstroms)
 Number     Number       Type             X           Y           Z
 ---------------------------------------------------------------------
      1          6           0       -0.490195    1.181024    0.380923
      2          6           0       -0.087273   -0.940362   -0.656437
      3          6           0       -1.855971    0.926677    0.397595
      4          6           0       -1.445482   -1.198966   -0.668128
      5          6           0        0.414573    0.251972   -0.124372
      6          6           0       -2.340707   -0.270667   -0.129777
      7          6           0        1.862691    0.635548   -0.187993
      8          6           0        4.207575    0.027914   -0.102161
      9          6           0        2.582085   -1.485876    0.935530
     10          6           0       -4.617266    0.290682    0.342564
     11          7           0        2.808906   -0.316370    0.101874
     12          8           0        2.178901    1.768129   -0.533865
     13          8           0       -3.654834   -0.618058   -0.172296
     14          1           0       -0.115377    2.122535    0.757231
     15          1           0        0.588383   -1.664528   -1.090945
     16          1           0       -2.526213    1.665397    0.809027
     17          1           0       -1.837104   -2.111604   -1.095000
     18          1           0        4.753810   -0.863416   -0.414276
     19          1           0        4.664605    0.410445    0.816274
     20          1           0        4.282830    0.793784   -0.866477
     21          1           0        3.181135   -1.412773    1.848519
     22          1           0        2.873534   -2.401982    0.415066
     23          1           0        1.539541   -1.562042    1.221072
     24          1           0       -4.602392    1.237341   -0.202758
     25          1           0       -4.455250    0.481757    1.406130
     26          1           0       -5.582559   -0.188564    0.205851
 ---------------------------------------------------------------------

 SCF Done:  E(RHF) =  -591.094414000     A.U. after    2 cycles

 The electronic state is 1-A.
 Alpha  occ. eigenvalues --  -20.58015 -20.49776 -15.52119 -11.35138 -11.31736
 Alpha  occ. eigenvalues --  -11.30089 -11.27289 -11.25848 -11.25791 -11.25453
 Alpha  occ. eigenvalues --  -11.24407 -11.24350 -11.24132  -1.50547  -1.44596
 Alpha  occ. eigenvalues --   -1.24738  -1.16404  -1.04521  -1.03210  -0.98087
 Alpha  occ. eigenvalues --   -0.97095  -0.94490  -0.85428  -0.84225  -0.77114
 Alpha  occ. eigenvalues --   -0.73999  -0.71534  -0.69236  -0.66795  -0.66412
 Alpha  occ. eigenvalues --   -0.65900  -0.64106  -0.61692  -0.60854  -0.59639
 Alpha  occ. eigenvalues --   -0.57585  -0.56841  -0.55699  -0.54973  -0.53977
 Alpha  occ. eigenvalues --   -0.53517  -0.51975  -0.49437  -0.47417  -0.41966
 Alpha  occ. eigenvalues --   -0.39305  -0.35879  -0.32573
 Alpha virt. eigenvalues --    0.03168   0.03344   0.03658   0.04273   0.04506
 Alpha virt. eigenvalues --    0.05103   0.05279   0.06494   0.06569   0.06705
 Alpha virt. eigenvalues --    0.07224   0.08343   0.09158   0.09757   0.10172

 Mulliken charges:
               1
     1  C   -0.322927
     2  C    0.489319
     3  C    0.325190
     4  C    0.096570
     5  C    2.032977
     6  C    1.415371
     7  C   -0.899267
     8  C   -0.255163
     9  C   -0.325899
    10  C    0.130131
    11  N    0.892689
    12  O   -1.352048
    13  O   -1.875854
    14  H   -0.353613
    15  H   -0.316251
    16  H   -0.407251
    17  H   -0.328226
    18  H    0.168994
    19  H    0.188924
    20  H    0.072988
    21  H    0.123831
    22  H    0.132615
    23  H    0.061085
    24  H    0.176957
    25  H    0.173183
    26  H   -0.044324
 Sum of Mulliken charges =  -0.00000

 Dipole moment (field-independent basis, Debye):
    X=             -1.5629    Y=             -2.2707    Z=              1.8988  Tot=              3.3473

 Test job not archived.
 1\1\GINC-SE231\SP\RHF\Aug-CC-pVDZ\C10H13N1O2\OHZDE\05-Apr-2025\0\\#t h
 f aug-cc-pvdz iop(5/13=1,5/36=2,99/5=2) pseudo=read geom=check guess=(
 read,tcheck) scf=(maxcycle=1)\\title\\0,1\C,0,-0.490195,1.181024,0.380
 923\C,0,-0.087273,-0.940362,-0.656437\C,0,-1.855971,0.926677,0.397595\
 C,0,-1.445482,-1.198966,-0.668128\C,0,0.414573,0.251972,-0.124372\C,0,
 -2.340707,-0.270667,-0.129777\C,0,1.862691,0.635548,-0.187993\C,0,4.20
 7575,0.027914,-0.102161\C,0,2.582085,-1.485876,0.93553\C,0,-4.617266,0
 .290682,0.342564\N,0,2.808906,-0.31637,0.101874\O,0,2.178901,1.768129,

 Normal termination of Gaussian 16 at Sat Apr  5 22:54:55 2025.
