 Gaussian 16, Revision C.01,

 ----------------------------------------------------------------------
 #t hf aug-cc-pvdz symm=none int=(grid=ultrafine) guess=(read,tcheck) s
 table=(opt,rrhf)
 ----------------------------------------------------------------------
 -----
 title
 -----
 Symbolic Z-matrix:
 Charge =  0 Multiplicity = 1

 SCF Done:  E(RHF) =  -303.528110698     A.U. after   14 cycles
 Normal termination of Gaussian 16 at Sat Apr  5 22:50:14 2025.
 Gaussian 16:  ES64L-G16RevC.01  3-Jul-2019

 ----------------------------------------------------------------------
 #t hf aug-cc-pvdz iop(5/13=1,5/36=2,99/5=2) pseudo=read geom=check gue
 ss=(read,tcheck) scf=(maxcycle=1)
 ----------------------------------------------------------------------
 -----
 title
 -----
 Structure from the checkpoint file:  "4-methylene-2-oxetanone.chk"
 Charge =  0 Multiplicity = 1

                         Standard orientation:
 ---------------------------------------------------------------------
 Center     Atomic      Atomic             Coordinates (Angstroms)
 Number     Number       Type             X           Y           Z
 ---------------------------------------------------------------------
      1          6           0        0.232599    2.252569    0.000000
      2          1           0        1.240702    2.639284    0.000000
      3          1           0       -0.591492    2.949028    0.000000
      4          8           0        0.964439   -0.073898    0.000000
      5          6           0       -0.031516   -1.052379    0.000000
      6          8           0        0.109849   -2.226036    0.000000
      7          6           0       -1.150253   -0.013443    0.000000
      8          1           0       -1.774247   -0.027961    0.891486
      9          1           0       -1.774247   -0.027961   -0.891486
     10          6           0        0.000000    0.957768    0.000000
 ---------------------------------------------------------------------

 SCF Done:  E(RHF) =  -303.830019652     A.U. after    2 cycles

 The electronic state is 1-A'.
 Alpha  occ. eigenvalues --  -20.61323 -20.56459 -11.41414 -11.33572 -11.29193
 Alpha  occ. eigenvalues --  -11.25048  -1.56897  -1.49510  -1.09241  -1.03618
 Alpha  occ. eigenvalues --   -0.82789  -0.77546  -0.71496  -0.70135  -0.69890
 Alpha  occ. eigenvalues --   -0.61865  -0.60728  -0.58518  -0.53321  -0.52540
 Alpha  occ. eigenvalues --   -0.45588  -0.38296
 Alpha virt. eigenvalues --    0.02869   0.03981   0.04399   0.04915   0.07969
 Alpha virt. eigenvalues --    0.09067   0.10361   0.11029   0.11081   0.13103
 Alpha virt. eigenvalues --    0.13979   0.14697   0.14943   0.15200   0.16225

 Mulliken charges:
               1
     1  C    0.101373
     2  H   -0.103622
     3  H   -0.086429
     4  O   -1.467817
     5  C    1.816049
     6  O   -1.194526
     7  C   -0.737953
     8  H    0.219583
     9  H    0.219583
    10  C    1.233760
 Sum of Mulliken charges =  -0.00000

 Dipole moment (field-independent basis, Debye):
    X=             -2.4517    Y=              3.0170    Z=              0.0000  Tot=              3.8876

 Test job not archived.
 1\1\GINC-SE014\SP\RHF\Aug-CC-pVDZ\C4H4O2\OHZDE\05-Apr-2025\0\\#t hf au
 g-cc-pvdz iop(5/13=1,5/36=2,99/5=2) pseudo=read geom=check guess=(read
 ,tcheck) scf=(maxcycle=1)\\title\\0,1\C,0,0.232599,2.252569,0.\H,0,1.2
 40702,2.639284,0.\H,0,-0.591492,2.949028,0.\O,0,0.964439,-0.073898,0.\
 C,0,-0.031516,-1.052379,0.\O,0,0.109849,-2.226036,0.\C,0,-1.150253,-0.
 013443,0.\H,0,-1.774247,-0.027961,0.891486\H,0,-1.774247,-0.027961,-0.
 891486\C,0,0.,0.957768,0.\\Version=ES64L-G16RevC.01\State=1-A'\HF=-303
 .8300197\RMSD=1.812e-02\Dipole=-0.9645779,1.1869944,0.\Quadrupole=2.10

 Normal termination of Gaussian 16 at Sat Apr  5 22:50:17 2025.
