 Gaussian 16, Revision C.01,

 ----------------------------------------------------------------------
 #t hf aug-cc-pvdz symm=none int=(grid=ultrafine) guess=(read,tcheck) s
 table=(opt,rrhf)
 ----------------------------------------------------------------------
 -----
 title
 -----
 Symbolic Z-matrix:
 Charge =  0 Multiplicity = 1

 SCF Done:  E(RHF) =  -606.376820227     A.U. after   16 cycles
 Normal termination of Gaussian 16 at Sat Apr  5 22:50:13 2025.
 Gaussian 16:  ES64L-G16RevC.01  3-Jul-2019

 ----------------------------------------------------------------------
 #t hf aug-cc-pvdz iop(5/13=1,5/36=2,99/5=2) pseudo=read geom=check gue
 ss=(read,tcheck) scf=(maxcycle=1)
 ----------------------------------------------------------------------
 -----
 title
 -----
 Structure from the checkpoint file:  "4-methyl-1-3-thiazole.chk"
 Charge =  0 Multiplicity = 1

                         Standard orientation:
 ---------------------------------------------------------------------
 Center     Atomic      Atomic             Coordinates (Angstroms)
 Number     Number       Type             X           Y           Z
 ---------------------------------------------------------------------
      1          1           0        1.956440   -1.637058    0.000000
      2          6           0        0.000000    0.950174    0.000000
      3          6           0        1.120691   -0.954132    0.000000
      4          1           0        0.432261    2.850247    0.878324
      5          1           0       -1.103247    2.790379    0.000000
      6          1           0        0.432261    2.850247   -0.878324
      7          6           0       -0.071430    2.443743    0.000000
      8         16           0       -0.511579   -1.544954    0.000000
      9          7           0        1.234040    0.335533    0.000000
     10          1           0       -2.109532    0.327724    0.000000
     11          6           0       -1.059462    0.091715    0.000000
 ---------------------------------------------------------------------

 SCF Done:  E(RHF) =  -606.651385279     A.U. after    2 cycles

 The electronic state is 1-A'.
 Alpha  occ. eigenvalues --  -93.98728 -15.50966 -11.31711 -11.28014 -11.26708
 Alpha  occ. eigenvalues --  -11.23871  -8.26970  -6.24724  -6.24639  -6.24427
 Alpha  occ. eigenvalues --   -1.28996  -1.09011  -1.05552  -0.93965  -0.83496
 Alpha  occ. eigenvalues --   -0.76298  -0.70472  -0.60866  -0.60752  -0.57998
 Alpha  occ. eigenvalues --   -0.56110  -0.55071  -0.50798  -0.46308  -0.41053
 Alpha  occ. eigenvalues --   -0.34329
 Alpha virt. eigenvalues --    0.03634   0.04023   0.04330   0.05926   0.06082
 Alpha virt. eigenvalues --    0.07830   0.08836   0.10112   0.11218   0.11381
 Alpha virt. eigenvalues --    0.11799   0.13120   0.14808   0.15287   0.15695

 Mulliken charges:
               1
     1  H   -0.043436
     2  C   -0.431445
     3  C   -0.616155
     4  H    0.229938
     5  H    0.137361
     6  H    0.229938
     7  C   -0.439740
     8  S    0.568634
     9  N    0.842396
    10  H   -0.174059
    11  C   -0.303432
 Sum of Mulliken charges =  -0.00000

 Dipole moment (field-independent basis, Debye):
    X=             -1.4450    Y=             -0.3802    Z=              0.0000  Tot=              1.4942

 Test job not archived.
 1\1\GINC-SE040\SP\RHF\Aug-CC-pVDZ\C4H5N1S1\OHZDE\05-Apr-2025\0\\#t hf
 aug-cc-pvdz iop(5/13=1,5/36=2,99/5=2) pseudo=read geom=check guess=(re
 ad,tcheck) scf=(maxcycle=1)\\title\\0,1\H,0,1.95644,-1.637058,0.\C,0,0
 .,0.950174,0.\C,0,1.120691,-0.954132,0.\H,0,0.432261,2.850247,0.878324
 \H,0,-1.103247,2.790379,0.\H,0,0.432261,2.850247,-0.878324\C,0,-0.0714
 3,2.443743,0.\S,0,-0.511579,-1.544954,0.\N,0,1.23404,0.335533,0.\H,0,-
 2.109532,0.327724,0.\C,0,-1.059462,0.091715,0.\\Version=ES64L-G16RevC.
 01\State=1-A'\HF=-606.6513853\RMSD=1.983e-02\Dipole=-0.5685051,-0.1495

 Normal termination of Gaussian 16 at Sat Apr  5 22:50:18 2025.
