 Gaussian 16, Revision C.01,

 ----------------------------------------------------------------------
 #t hf aug-cc-pvdz symm=none int=(grid=ultrafine) guess=(read,tcheck) s
 table=(opt,rrhf)
 ----------------------------------------------------------------------
 -----
 title
 -----
 Symbolic Z-matrix:
 Charge =  0 Multiplicity = 1

 SCF Done:  E(RHF) =  -263.892746974     A.U. after   14 cycles
 Normal termination of Gaussian 16 at Sat Apr  5 22:50:12 2025.
 Gaussian 16:  ES64L-G16RevC.01  3-Jul-2019

 ----------------------------------------------------------------------
 #t hf aug-cc-pvdz iop(5/13=1,5/36=2,99/5=2) pseudo=read geom=check gue
 ss=(read,tcheck) scf=(maxcycle=1)
 ----------------------------------------------------------------------
 -----
 title
 -----
 Structure from the checkpoint file:  "4-methyl-1H-imidazole.chk"
 Charge =  0 Multiplicity = 1

                         Standard orientation:
 ---------------------------------------------------------------------
 Center     Atomic      Atomic             Coordinates (Angstroms)
 Number     Number       Type             X           Y           Z
 ---------------------------------------------------------------------
      1          6           0        1.108723   -0.145442    0.000000
      2          6           0       -0.725124   -1.365652    0.000000
      3          6           0        0.000000    0.658242    0.000000
      4          6           0       -0.075878    2.147531    0.000000
      5          7           0       -1.137354   -0.122450    0.000000
      6          7           0        0.632730   -1.439852    0.000000
      7          1           0        2.160529    0.077190    0.000000
      8          1           0       -1.353102   -2.241108    0.000000
      9          1           0       -0.613019    2.509034    0.878479
     10          1           0        0.918810    2.592122    0.000000
     11          1           0       -0.613019    2.509034   -0.878479
     12          1           0        1.185847   -2.278231    0.000000
 ---------------------------------------------------------------------

 SCF Done:  E(RHF) =  -264.167884091     A.U. after    2 cycles

 The electronic state is 1-A'.
 Alpha  occ. eigenvalues --  -15.55627 -15.47780 -11.29894 -11.25726 -11.25004
 Alpha  occ. eigenvalues --  -11.22502  -1.33574  -1.17195  -1.04004  -0.95181
 Alpha  occ. eigenvalues --   -0.85520  -0.80310  -0.76243  -0.64797  -0.63152
 Alpha  occ. eigenvalues --   -0.61866  -0.56282  -0.56185  -0.54138  -0.47300
 Alpha  occ. eigenvalues --   -0.43168  -0.32593
 Alpha virt. eigenvalues --    0.02769   0.04308   0.04459   0.05087   0.06403
 Alpha virt. eigenvalues --    0.06838   0.09750   0.09967   0.11218   0.11270
 Alpha virt. eigenvalues --    0.12923   0.13941   0.15356   0.15813   0.15914

 Mulliken charges:
               1
     1  C   -0.212706
     2  C   -0.600729
     3  C   -0.295801
     4  C   -0.599010
     5  N    0.815900
     6  N    0.539264
     7  H   -0.230479
     8  H   -0.068598
     9  H    0.240061
    10  H    0.180210
    11  H    0.240061
    12  H   -0.008173
 Sum of Mulliken charges =  -0.00000

 Dipole moment (field-independent basis, Debye):
    X=              2.8356    Y=             -2.0644    Z=              0.0000  Tot=              3.5074

 Test job not archived.
 1\1\GINC-SE052\SP\RHF\Aug-CC-pVDZ\C4H6N2\OHZDE\05-Apr-2025\0\\#t hf au
 g-cc-pvdz iop(5/13=1,5/36=2,99/5=2) pseudo=read geom=check guess=(read
 ,tcheck) scf=(maxcycle=1)\\title\\0,1\C,0,1.108723,-0.145442,0.\C,0,-0
 .725124,-1.365652,0.\C,0,0.,0.658242,0.\C,0,-0.075878,2.147531,0.\N,0,
 -1.137354,-0.12245,0.\N,0,0.63273,-1.439852,0.\H,0,2.160529,0.07719,0.
 \H,0,-1.353102,-2.241108,0.\H,0,-0.613019,2.509034,0.878479\H,0,0.9188
 1,2.592122,0.\H,0,-0.613019,2.509034,-0.878479\H,0,1.185847,-2.278231,
 0.\\Version=ES64L-G16RevC.01\State=1-A'\HF=-264.1678841\RMSD=4.048e-02

 Normal termination of Gaussian 16 at Sat Apr  5 22:50:18 2025.
