 Gaussian 16, Revision C.01,

 ----------------------------------------------------------------------
 #t hf aug-cc-pvdz symm=none int=(grid=ultrafine) guess=(read,tcheck) s
 table=(opt,rrhf)
 ----------------------------------------------------------------------
 -----
 title
 -----
 Symbolic Z-matrix:
 Charge =  0 Multiplicity = 1

 SCF Done:  E(RHF) =  -509.109203606     A.U. after   16 cycles
 Normal termination of Gaussian 16 at Sat Apr  5 22:51:06 2025.
 Gaussian 16:  ES64L-G16RevC.01  3-Jul-2019

 ----------------------------------------------------------------------
 #t hf aug-cc-pvdz iop(5/13=1,5/36=2,99/5=2) pseudo=read geom=check gue
 ss=(read,tcheck) scf=(maxcycle=1)
 ----------------------------------------------------------------------
 -----
 title
 -----
 Structure from the checkpoint file:  "4-nitrophenol.chk"
 Charge =  0 Multiplicity = 1

                         Standard orientation:
 ---------------------------------------------------------------------
 Center     Atomic      Atomic             Coordinates (Angstroms)
 Number     Number       Type             X           Y           Z
 ---------------------------------------------------------------------
      1          6           0       -1.206951    0.001465    0.000000
      2          6           0        1.216264    0.012824    0.000000
      3          6           0       -1.196872   -1.382293    0.000000
      4          6           0        1.225228   -1.368685    0.000000
      5          6           0        0.000000    0.687846    0.000000
      6          6           0        0.018081   -2.070366    0.000000
      7          7           0       -0.009275    2.152677    0.000000
      8          8           0       -1.096069    2.717197    0.000000
      9          8           0        1.070131    2.730377    0.000000
     10          8           0        0.088467   -3.425739    0.000000
     11          1           0       -2.133281    0.554066    0.000000
     12          1           0        2.135640    0.576959    0.000000
     13          1           0       -2.130792   -1.930246    0.000000
     14          1           0        2.153866   -1.920498    0.000000
     15          1           0       -0.795242   -3.808449    0.000000
 ---------------------------------------------------------------------

 SCF Done:  E(RHF) =  -509.610416743     A.U. after    2 cycles

 The electronic state is 1-A'.
 Alpha  occ. eigenvalues --  -20.61323 -20.58552 -20.58514 -15.79012 -11.35123
 Alpha  occ. eigenvalues --  -11.30723 -11.29079 -11.28811 -11.27288 -11.26678
 Alpha  occ. eigenvalues --   -1.66641  -1.52945  -1.50204  -1.20766  -1.10878
 Alpha  occ. eigenvalues --   -1.06448  -0.97935  -0.89686  -0.85216  -0.80412
 Alpha  occ. eigenvalues --   -0.77782  -0.74775  -0.74341  -0.70586  -0.66591
 Alpha  occ. eigenvalues --   -0.64472  -0.62954  -0.62212  -0.59433  -0.54115
 Alpha  occ. eigenvalues --   -0.52598  -0.49747  -0.48315  -0.44872  -0.38789
 Alpha  occ. eigenvalues --   -0.36337
 Alpha virt. eigenvalues --    0.02088   0.02972   0.03562   0.03972   0.05998
 Alpha virt. eigenvalues --    0.06574   0.07723   0.09016   0.10151   0.11671
 Alpha virt. eigenvalues --    0.12260   0.12531   0.12677   0.13025   0.13921

 Mulliken charges:
               1
     1  C    0.195043
     2  C    0.348861
     3  C    0.037947
     4  C    0.533077
     5  C   -0.220321
     6  C    1.375228
     7  N    2.961003
     8  O   -1.474736
     9  O   -1.473202
    10  O   -1.744107
    11  H   -0.197659
    12  H   -0.206894
    13  H   -0.318696
    14  H   -0.233823
    15  H    0.418278
 Sum of Mulliken charges =  -0.00000

 Dipole moment (field-independent basis, Debye):
    X=             -1.3164    Y=             -5.1826    Z=              0.0000  Tot=              5.3472

 Test job not archived.
 1\1\GINC-SE188\SP\RHF\Aug-CC-pVDZ\C6H5N1O3\OHZDE\05-Apr-2025\0\\#t hf
 aug-cc-pvdz iop(5/13=1,5/36=2,99/5=2) pseudo=read geom=check guess=(re
 ad,tcheck) scf=(maxcycle=1)\\title\\0,1\C,0,-1.206951,0.001465,0.\C,0,
 1.216264,0.012824,0.\C,0,-1.196872,-1.382293,0.\C,0,1.225228,-1.368685
 ,0.\C,0,0.,0.687846,0.\C,0,0.018081,-2.070366,0.\N,0,-0.009275,2.15267
 7,0.\O,0,-1.096069,2.717197,0.\O,0,1.070131,2.730377,0.\O,0,0.088467,-
 3.425739,0.\H,0,-2.133281,0.554066,0.\H,0,2.13564,0.576959,0.\H,0,-2.1
 30792,-1.930246,0.\H,0,2.153866,-1.920498,0.\H,0,-0.795242,-3.808449,0

 Normal termination of Gaussian 16 at Sat Apr  5 22:51:33 2025.
