 Gaussian 16, Revision C.01,

 ----------------------------------------------------------------------
 #t hf aug-cc-pvdz symm=none int=(grid=ultrafine) guess=(read,tcheck) s
 table=(opt,rrhf)
 ----------------------------------------------------------------------
 -----
 title
 -----
 Symbolic Z-matrix:
 Charge =  0 Multiplicity = 1

 SCF Done:  E(RHF) =  -504.085726373     A.U. after   17 cycles
 Normal termination of Gaussian 16 at Sat Apr  5 22:49:53 2025.
 Gaussian 16:  ES64L-G16RevC.01  3-Jul-2019

 ----------------------------------------------------------------------
 #t hf aug-cc-pvdz iop(5/13=1,5/36=2,99/5=2) pseudo=read geom=check gue
 ss=(read,tcheck) scf=(maxcycle=1)
 ----------------------------------------------------------------------
 -----
 title
 -----
 Structure from the checkpoint file:  "4-nitro-1H-pyrrole-2-carbonitrile.chk"
 Charge =  0 Multiplicity = 1

                         Standard orientation:
 ---------------------------------------------------------------------
 Center     Atomic      Atomic             Coordinates (Angstroms)
 Number     Number       Type             X           Y           Z
 ---------------------------------------------------------------------
      1          8           0        2.409384   -1.476771   -0.000003
      2          8           0        2.963804    0.626484    0.000002
      3          7           0       -1.062861    1.308586    0.000003
      4          7           0        2.141777   -0.283046   -0.000000
      5          7           0       -3.957177   -0.642796   -0.000002
      6          6           0        0.751730    0.081376   -0.000000
      7          6           0       -0.341936   -0.807462   -0.000002
      8          6           0        0.284912    1.380757    0.000003
      9          6           0       -1.469753   -0.017320   -0.000000
     10          6           0       -2.836470   -0.370988   -0.000001
     11          1           0       -0.303559   -1.881146   -0.000005
     12          1           0        0.823963    2.309913    0.000006
     13          1           0       -1.688970    2.096140    0.000005
 ---------------------------------------------------------------------

 SCF Done:  E(RHF) =  -504.574322064     A.U. after    2 cycles

 The electronic state is 1-A.
 Alpha  occ. eigenvalues --  -20.60028 -20.59720 -15.80697 -15.62427 -15.54486
 Alpha  occ. eigenvalues --  -11.34867 -11.34509 -11.32100 -11.31242 -11.30296
 Alpha  occ. eigenvalues --   -1.67990  -1.51618  -1.37651  -1.26127  -1.17391
 Alpha  occ. eigenvalues --   -1.10215  -1.03605  -0.91546  -0.87083  -0.85394
 Alpha  occ. eigenvalues --   -0.77630  -0.76096  -0.76015  -0.72422  -0.68035
 Alpha  occ. eigenvalues --   -0.67791  -0.63835  -0.63035  -0.55539  -0.53455
 Alpha  occ. eigenvalues --   -0.51323  -0.49759  -0.46094  -0.44779  -0.38174
 Alpha virt. eigenvalues --    0.01506   0.02305   0.04293   0.04364   0.04988
 Alpha virt. eigenvalues --    0.07164   0.07534   0.08928   0.09593   0.10668
 Alpha virt. eigenvalues --    0.11267   0.12179   0.13086   0.13185   0.13722

 Mulliken charges:
               1
     1  O   -1.392461
     2  O   -1.458625
     3  N    1.010393
     4  N    2.731563
     5  N    1.145120
     6  C   -0.351124
     7  C    0.755508
     8  C   -0.201055
     9  C    0.520668
    10  C   -2.410166
    11  H   -0.158291
    12  H   -0.174267
    13  H   -0.017264
 Sum of Mulliken charges =  -0.00000

 Dipole moment (field-independent basis, Debye):
    X=             -0.2533    Y=              3.8118    Z=              0.0000  Tot=              3.8203

 Test job not archived.
 1\1\GINC-SE177\SP\RHF\Aug-CC-pVDZ\C5H3N3O2\OHZDE\05-Apr-2025\0\\#t hf
 aug-cc-pvdz iop(5/13=1,5/36=2,99/5=2) pseudo=read geom=check guess=(re
 ad,tcheck) scf=(maxcycle=1)\\title\\0,1\O,0,2.409384,-1.476771,-0.0000
 03\O,0,2.963804,0.626484,0.000002\N,0,-1.062861,1.308586,0.000003\N,0,
 2.141777,-0.283046,0.\N,0,-3.957177,-0.642796,-0.000002\C,0,0.75173,0.
 081376,0.\C,0,-0.341936,-0.807462,-0.000002\C,0,0.284912,1.380757,0.00
 0003\C,0,-1.469753,-0.01732,0.\C,0,-2.83647,-0.370988,-0.000001\H,0,-0
 .303559,-1.881146,-0.000005\H,0,0.823963,2.309913,0.000006\H,0,-1.6889

 Normal termination of Gaussian 16 at Sat Apr  5 22:50:04 2025.
