 Gaussian 16, Revision C.01,

 ----------------------------------------------------------------------
 #t hf aug-cc-pvdz symm=none int=(grid=ultrafine) guess=(read,tcheck) s
 table=(opt,rrhf)
 ----------------------------------------------------------------------
 -----
 title
 -----
 Symbolic Z-matrix:
 Charge =  0 Multiplicity = 1

 SCF Done:  E(RHF) =  -733.946123502     A.U. after   17 cycles
 Normal termination of Gaussian 16 at Sat Apr  5 22:50:17 2025.
 Gaussian 16:  ES64L-G16RevC.01  3-Jul-2019

 ----------------------------------------------------------------------
 #t hf aug-cc-pvdz iop(5/13=1,5/36=2,99/5=2) pseudo=read geom=check gue
 ss=(read,tcheck) scf=(maxcycle=1)
 ----------------------------------------------------------------------
 -----
 title
 -----
 Structure from the checkpoint file:  "4-oxo-4-5-dihydro-1-3-thiazole-2-carbonitrile.chk"
 Charge =  0 Multiplicity = 1

                         Standard orientation:
 ---------------------------------------------------------------------
 Center     Atomic      Atomic             Coordinates (Angstroms)
 Number     Number       Type             X           Y           Z
 ---------------------------------------------------------------------
      1         16           0        0.234585    1.466163    0.000019
      2          8           0       -2.496898   -1.266018   -0.000007
      3          7           0       -0.187033   -1.159171   -0.000015
      4          7           0        3.238743   -0.724713   -0.000024
      5          6           0       -1.499104    0.930285    0.000020
      6          6           0       -1.494441   -0.611498   -0.000002
      7          6           0        0.703863   -0.238954   -0.000007
      8          6           0        2.103888   -0.535976   -0.000017
      9          1           0       -2.012693    1.296805   -0.885980
     10          1           0       -2.012684    1.296780    0.886036
 ---------------------------------------------------------------------

 SCF Done:  E(RHF) =  -734.330089534     A.U. after    2 cycles

 The electronic state is 1-A.
 Alpha  occ. eigenvalues --  -94.02475 -20.57283 -15.57173 -15.56587 -11.41785
 Alpha  occ. eigenvalues --  -11.40770 -11.32784 -11.32730  -8.30651  -6.28427
 Alpha  occ. eigenvalues --   -6.28292  -6.28052  -1.51812  -1.33760  -1.28071
 Alpha  occ. eigenvalues --   -1.13861  -1.06227  -0.93510  -0.85366  -0.77111
 Alpha  occ. eigenvalues --   -0.69884  -0.69508  -0.66113  -0.62787  -0.61771
 Alpha  occ. eigenvalues --   -0.59299  -0.56749  -0.54885  -0.51986  -0.51313
 Alpha  occ. eigenvalues --   -0.46494  -0.41732
 Alpha virt. eigenvalues --   -0.00832   0.02499   0.04017   0.05160   0.05803
 Alpha virt. eigenvalues --    0.08198   0.08767   0.09640   0.10088   0.10882
 Alpha virt. eigenvalues --    0.10953   0.11938   0.13561   0.13808   0.14094

 Mulliken charges:
               1
     1  S    0.628166
     2  O   -1.301722
     3  N    1.048266
     4  N    1.067151
     5  C   -0.595995
     6  C    1.045804
     7  C   -0.262424
     8  C   -2.175058
     9  H    0.272905
    10  H    0.272906
 Sum of Mulliken charges =  -0.00000

 Dipole moment (field-independent basis, Debye):
    X=             -2.0624    Y=              4.5881    Z=              0.0001  Tot=              5.0304

 Test job not archived.
 1\1\GINC-SE220\SP\RHF\Aug-CC-pVDZ\C4H2N2O1S1\OHZDE\05-Apr-2025\0\\#t h
 f aug-cc-pvdz iop(5/13=1,5/36=2,99/5=2) pseudo=read geom=check guess=(
 read,tcheck) scf=(maxcycle=1)\\title\\0,1\S,0,0.234585,1.466163,0.0000
 19\O,0,-2.496898,-1.266018,-0.000007\N,0,-0.187033,-1.159171,-0.000015
 \N,0,3.238743,-0.724713,-0.000024\C,0,-1.499104,0.930285,0.00002\C,0,-
 1.494441,-0.611498,-0.000002\C,0,0.703863,-0.238954,-0.000007\C,0,2.10
 3888,-0.535976,-0.000017\H,0,-2.012693,1.296805,-0.88598\H,0,-2.012684
 ,1.29678,0.886036\\Version=ES64L-G16RevC.01\State=1-A\HF=-734.3300895\

 Normal termination of Gaussian 16 at Sat Apr  5 22:50:24 2025.
