 Gaussian 16, Revision C.01,

 ----------------------------------------------------------------------
 #t hf aug-cc-pvdz symm=none int=(grid=ultrafine) guess=(read,tcheck) s
 table=(opt,rrhf)
 ----------------------------------------------------------------------
 -----
 title
 -----
 Symbolic Z-matrix:
 Charge =  0 Multiplicity = 1

 SCF Done:  E(RHF) =  -422.719186372     A.U. after   15 cycles

 1\1\GINC-SE221\Stability\RHF\Aug-CC-pVDZ\C9H12O1\OHZDE\05-Apr-2025\0\\
 #t hf aug-cc-pvdz symm=none int=(grid=ultrafine) guess=(read,tcheck) s
 table=(opt,rrhf)\\title\\0,1\C,0,-0.358008,-1.192497,-0.280254\C,0,-0.
 343198,1.192831,-0.28215\C,0,-1.721958,-1.189747,-0.010477\C,0,-1.7040
 67,1.215219,-0.013027\C,0,0.359997,-0.006025,-0.42022\C,0,-2.398815,0.
 017812,0.125458\C,0,4.192562,-0.004905,0.338317\C,0,1.847021,-0.015398
 ,-0.674427\C,0,2.689971,0.002765,0.610921\O,0,-3.741651,0.0889,0.38808
 8\H,0,0.152278,-2.141809,-0.388206\H,0,0.18303,2.133209,-0.392492\H,0,

 Normal termination of Gaussian 16 at Sat Apr  5 22:51:58 2025.
 Gaussian 16:  ES64L-G16RevC.01  3-Jul-2019

 ----------------------------------------------------------------------
 #t hf aug-cc-pvdz iop(5/13=1,5/36=2,99/5=2) pseudo=read geom=check gue
 ss=(read,tcheck) scf=(maxcycle=1)
 ----------------------------------------------------------------------
 -----
 title
 -----
 Structure from the checkpoint file:  "4-propylphenol.chk"
 Charge =  0 Multiplicity = 1

                         Standard orientation:
 ---------------------------------------------------------------------
 Center     Atomic      Atomic             Coordinates (Angstroms)
 Number     Number       Type             X           Y           Z
 ---------------------------------------------------------------------
      1          6           0       -0.358008   -1.192497   -0.280254
      2          6           0       -0.343198    1.192831   -0.282150
      3          6           0       -1.721958   -1.189747   -0.010477
      4          6           0       -1.704067    1.215219   -0.013027
      5          6           0        0.359997   -0.006025   -0.420220
      6          6           0       -2.398815    0.017812    0.125458
      7          6           0        4.192562   -0.004905    0.338317
      8          6           0        1.847021   -0.015398   -0.674427
      9          6           0        2.689971    0.002765    0.610921
     10          8           0       -3.741651    0.088900    0.388088
     11          1           0        0.152278   -2.141809   -0.388206
     12          1           0        0.183030    2.133209   -0.392492
     13          1           0       -2.257935   -2.126629    0.088883
     14          1           0       -2.239210    2.149244    0.086996
     15          1           0        4.489024   -0.895456   -0.219839
     16          1           0        4.492677    0.865907   -0.248259
     17          1           0        4.763947    0.008939    1.267358
     18          1           0        2.112002   -0.900851   -1.258622
     19          1           0        2.117837    0.849206   -1.286581
     20          1           0        2.424357    0.886004    1.197601
     21          1           0        2.420111   -0.860563    1.224708
     22          1           0       -4.105938   -0.798727    0.458901
 ---------------------------------------------------------------------

 SCF Done:  E(RHF) =  -423.163193312     A.U. after    2 cycles

 The electronic state is 1-A.
 Alpha  occ. eigenvalues --  -20.57670 -11.30333 -11.24255 -11.24088 -11.23874
 Alpha  occ. eigenvalues --  -11.23497 -11.23312 -11.23159 -11.22779 -11.22252
 Alpha  occ. eigenvalues --   -1.48865  -1.15638  -1.07455  -1.02000  -1.00989
 Alpha  occ. eigenvalues --   -0.92374  -0.85420  -0.82858  -0.79613  -0.73892
 Alpha  occ. eigenvalues --   -0.68640  -0.65765  -0.63174  -0.61542  -0.59919
 Alpha  occ. eigenvalues --   -0.58750  -0.58316  -0.57138  -0.55255  -0.53312
 Alpha  occ. eigenvalues --   -0.50029  -0.49857  -0.48584  -0.47528  -0.46770
 Alpha  occ. eigenvalues --   -0.34949  -0.31260
 Alpha virt. eigenvalues --    0.02997   0.03544   0.03832   0.04022   0.04542
 Alpha virt. eigenvalues --    0.05211   0.06473   0.06880   0.07238   0.07744
 Alpha virt. eigenvalues --    0.08166   0.10333   0.10920   0.11091   0.11629

 Mulliken charges:
               1
     1  C    0.161939
     2  C    0.435331
     3  C   -0.257242
     4  C    0.092202
     5  C    1.585984
     6  C    1.314083
     7  C   -0.420159
     8  C   -0.777589
     9  C   -0.237206
    10  O   -1.750085
    11  H   -0.343331
    12  H   -0.370222
    13  H   -0.327429
    14  H   -0.256796
    15  H    0.160027
    16  H    0.159522
    17  H    0.122802
    18  H    0.041336
    19  H    0.048297
    20  H    0.110897
    21  H    0.109112
    22  H    0.398525
 Sum of Mulliken charges =  -0.00000

 Dipole moment (field-independent basis, Debye):
    X=              0.5345    Y=             -1.3114    Z=              0.0152  Tot=              1.4163

 Test job not archived.
 1\1\GINC-SE221\SP\RHF\Aug-CC-pVDZ\C9H12O1\OHZDE\05-Apr-2025\0\\#t hf a
 ug-cc-pvdz iop(5/13=1,5/36=2,99/5=2) pseudo=read geom=check guess=(rea
 d,tcheck) scf=(maxcycle=1)\\title\\0,1\C,0,-0.358008,-1.192497,-0.2802
 54\C,0,-0.343198,1.192831,-0.28215\C,0,-1.721958,-1.189747,-0.010477\C
 ,0,-1.704067,1.215219,-0.013027\C,0,0.359997,-0.006025,-0.42022\C,0,-2
 .398815,0.017812,0.125458\C,0,4.192562,-0.004905,0.338317\C,0,1.847021
 ,-0.015398,-0.674427\C,0,2.689971,0.002765,0.610921\O,0,-3.741651,0.08
 89,0.388088\H,0,0.152278,-2.141809,-0.388206\H,0,0.18303,2.133209,-0.3

 Normal termination of Gaussian 16 at Sat Apr  5 22:52:57 2025.
