 Gaussian 16, Revision C.01,

 ----------------------------------------------------------------------
 #t hf aug-cc-pvdz symm=none int=(grid=ultrafine) guess=(read,tcheck) s
 table=(opt,rrhf)
 ----------------------------------------------------------------------
 -----
 title
 -----
 Symbolic Z-matrix:
 Charge =  0 Multiplicity = 1

 SCF Done:  E(RHF) =  -321.602293435     A.U. after   14 cycles
 Normal termination of Gaussian 16 at Sat Apr  5 22:49:09 2025.
 Gaussian 16:  ES64L-G16RevC.01  3-Jul-2019

 ----------------------------------------------------------------------
 #t hf aug-cc-pvdz iop(5/13=1,5/36=2,99/5=2) pseudo=read geom=check gue
 ss=(read,tcheck) scf=(maxcycle=1)
 ----------------------------------------------------------------------
 -----
 title
 -----
 Structure from the checkpoint file:  "4-pyridinol.chk"
 Charge =  0 Multiplicity = 1

                         Standard orientation:
 ---------------------------------------------------------------------
 Center     Atomic      Atomic             Coordinates (Angstroms)
 Number     Number       Type             X           Y           Z
 ---------------------------------------------------------------------
      1          7           0        0.022052   -1.868589    0.000000
      2          6           0       -1.118779   -1.180044    0.000000
      3          6           0       -1.190003    0.206824    0.000000
      4          6           0        0.000000    0.928441    0.000000
      5          6           0        1.202363    0.228588    0.000000
      6          6           0        1.152339   -1.156758    0.000000
      7          8           0        0.047471    2.286339    0.000000
      8          1           0       -2.032661   -1.763240    0.000000
      9          1           0       -2.150092    0.708021    0.000000
     10          1           0        2.143131    0.759763    0.000000
     11          1           0        2.074927   -1.725725    0.000000
     12          1           0       -0.844958    2.648295    0.000000
 ---------------------------------------------------------------------

 SCF Done:  E(RHF) =  -321.928337512     A.U. after    2 cycles

 The electronic state is 1-A'.
 Alpha  occ. eigenvalues --  -20.60040 -15.49726 -11.33472 -11.28771 -11.28508
 Alpha  occ. eigenvalues --  -11.24872 -11.24262  -1.51550  -1.25968  -1.08777
 Alpha  occ. eigenvalues --   -1.04552  -0.89495  -0.87078  -0.77012  -0.72346
 Alpha  occ. eigenvalues --   -0.67789  -0.64974  -0.61724  -0.61141  -0.59768
 Alpha  occ. eigenvalues --   -0.54482  -0.53063  -0.45835  -0.37758  -0.36599
 Alpha virt. eigenvalues --    0.02724   0.03984   0.04236   0.05534   0.06610
 Alpha virt. eigenvalues --    0.08999   0.09689   0.10032   0.12334   0.12343
 Alpha virt. eigenvalues --    0.12570   0.12841   0.13022   0.13264   0.14524

 Mulliken charges:
               1
     1  N    0.967498
     2  C   -0.978670
     3  C    0.978890
     4  C    1.013915
     5  C    1.128868
     6  C   -1.032939
     7  O   -1.651366
     8  H   -0.173012
     9  H   -0.263870
    10  H   -0.204306
    11  H   -0.174921
    12  H    0.389911
 Sum of Mulliken charges =  -0.00000

 Dipole moment (field-independent basis, Debye):
    X=             -1.3933    Y=              2.6092    Z=              0.0000  Tot=              2.9580

 Test job not archived.
 1\1\GINC-SE223\SP\RHF\Aug-CC-pVDZ\C5H5N1O1\OHZDE\05-Apr-2025\0\\#t hf
 aug-cc-pvdz iop(5/13=1,5/36=2,99/5=2) pseudo=read geom=check guess=(re
 ad,tcheck) scf=(maxcycle=1)\\title\\0,1\N,0,0.022052,-1.868589,0.\C,0,
 -1.118779,-1.180044,0.\C,0,-1.190003,0.206824,0.\C,0,0.,0.928441,0.\C,
 0,1.202363,0.228588,0.\C,0,1.152339,-1.156758,0.\O,0,0.047471,2.286339
 ,0.\H,0,-2.032661,-1.76324,0.\H,0,-2.150092,0.708021,0.\H,0,2.143131,0
 .759763,0.\H,0,2.074927,-1.725725,0.\H,0,-0.844958,2.648295,0.\\Versio
 n=ES64L-G16RevC.01\State=1-A'\HF=-321.9283375\RMSD=3.777e-02\Dipole=-0

 Normal termination of Gaussian 16 at Sat Apr  5 22:50:04 2025.
