 Gaussian 16, Revision C.01,

 ----------------------------------------------------------------------
 #t hf aug-cc-pvdz symm=none int=(grid=ultrafine) guess=(read,tcheck) s
 table=(opt,rrhf)
 ----------------------------------------------------------------------
 -----
 title
 -----
 Symbolic Z-matrix:
 Charge =  0 Multiplicity = 1

 SCF Done:  E(RHF) =  -1056.60060720     A.U. after   16 cycles
 Normal termination of Gaussian 16 at Sat Apr  5 22:50:20 2025.
 Gaussian 16:  ES64L-G16RevC.01  3-Jul-2019

 ----------------------------------------------------------------------
 #t hf aug-cc-pvdz iop(5/13=1,5/36=2,99/5=2) pseudo=read geom=check gue
 ss=(read,tcheck) scf=(maxcycle=1)
 ----------------------------------------------------------------------
 -----
 title
 -----
 Structure from the checkpoint file:  "4-sulfanyl-1-3-thiazole-5-carbonitrile.chk"
 Charge =  0 Multiplicity = 1

                         Standard orientation:
 ---------------------------------------------------------------------
 Center     Atomic      Atomic             Coordinates (Angstroms)
 Number     Number       Type             X           Y           Z
 ---------------------------------------------------------------------
      1         16           0        1.958243    0.228807    0.000000
      2         16           0       -2.220685   -0.683816   -0.000001
      3          7           0        0.289940   -1.729567   -0.000001
      4          7           0       -0.650712    2.984496    0.000000
      5          6           0        0.252301    0.588485    0.000000
      6          6           0       -0.464268   -0.591163    0.000000
      7          6           0        1.558175   -1.448494    0.000000
      8          6           0       -0.241588    1.904998    0.000000
      9          1           0       -2.237266   -2.028192   -0.000001
     10          1           0        2.334026   -2.199110    0.000000
 ---------------------------------------------------------------------

 SCF Done:  E(RHF) =  -1056.97017619     A.U. after    2 cycles

 The electronic state is 1-A.
 Alpha  occ. eigenvalues --  -94.03052 -93.99378 -15.55183 -15.53003 -11.36325
 Alpha  occ. eigenvalues --  -11.35836 -11.32299 -11.30052  -8.31205  -8.27510
 Alpha  occ. eigenvalues --   -6.28951  -6.28861  -6.28638  -6.25352  -6.25203
 Alpha  occ. eigenvalues --   -6.24964  -1.33964  -1.24842  -1.14072  -1.12093
 Alpha  occ. eigenvalues --   -1.01544  -0.91768  -0.83816  -0.76470  -0.66888
 Alpha  occ. eigenvalues --   -0.65273  -0.64121  -0.61563  -0.57421  -0.54823
 Alpha  occ. eigenvalues --   -0.53244  -0.51402  -0.49603  -0.46603  -0.43866
 Alpha  occ. eigenvalues --   -0.35260
 Alpha virt. eigenvalues --    0.02602   0.03191   0.04149   0.06003   0.06682
 Alpha virt. eigenvalues --    0.07653   0.08388   0.09446   0.09834   0.10378
 Alpha virt. eigenvalues --    0.11712   0.12040   0.12188   0.13401   0.13941

 Mulliken charges:
               1
     1  S    0.566194
     2  S    0.284539
     3  N    0.624183
     4  N    0.957568
     5  C    1.186286
     6  C   -0.821919
     7  C   -0.504510
     8  C   -2.649456
     9  H    0.361926
    10  H   -0.004809
 Sum of Mulliken charges =  -0.00000

 Dipole moment (field-independent basis, Debye):
    X=              2.9484    Y=             -4.5547    Z=              0.0000  Tot=              5.4257

 Test job not archived.
 1\1\GINC-SE155\SP\RHF\Aug-CC-pVDZ\C4H2N2S2\OHZDE\05-Apr-2025\0\\#t hf
 aug-cc-pvdz iop(5/13=1,5/36=2,99/5=2) pseudo=read geom=check guess=(re
 ad,tcheck) scf=(maxcycle=1)\\title\\0,1\S,0,-1.958243,0.228807,0.\S,0,
 2.220685,-0.683816,0.000001\N,0,-0.28994,-1.729567,0.000001\N,0,0.6507
 12,2.984496,0.\C,0,-0.252301,0.588485,0.\C,0,0.464268,-0.591163,0.\C,0
 ,-1.558175,-1.448494,0.\C,0,0.241588,1.904998,0.\H,0,2.237266,-2.02819
 2,0.000001\H,0,-2.334026,-2.19911,0.\\Version=ES64L-G16RevC.01\State=1
 -A\HF=-1056.9701762\RMSD=3.152e-02\Dipole=-1.1599792,-1.79195,-0.00000

 Normal termination of Gaussian 16 at Sat Apr  5 22:50:26 2025.
