 Gaussian 16, Revision C.01,

 ----------------------------------------------------------------------
 #t hf aug-cc-pvdz symm=none int=(grid=ultrafine) guess=(read,tcheck) s
 table=(opt,rrhf)
 ----------------------------------------------------------------------
 -----
 title
 -----
 Symbolic Z-matrix:
 Charge =  0 Multiplicity = 1

 SCF Done:  E(RHF) =  -1039.78222416     A.U. after   15 cycles
 Normal termination of Gaussian 16 at Sat Apr  5 22:49:09 2025.
 Gaussian 16:  ES64L-G16RevC.01  3-Jul-2019

 ----------------------------------------------------------------------
 #t hf aug-cc-pvdz iop(5/13=1,5/36=2,99/5=2) pseudo=read geom=check gue
 ss=(read,tcheck) scf=(maxcycle=1)
 ----------------------------------------------------------------------
 -----
 title
 -----
 Structure from the checkpoint file:  "4-thioxo-1-3-thiazolidin-2-one.chk"
 Charge =  0 Multiplicity = 1

                         Standard orientation:
 ---------------------------------------------------------------------
 Center     Atomic      Atomic             Coordinates (Angstroms)
 Number     Number       Type             X           Y           Z
 ---------------------------------------------------------------------
      1         16           0        1.535241    1.076974    0.000006
      2         16           0       -2.578025   -0.232305    0.000005
      3          8           0        2.214634   -1.515497   -0.000019
      4          7           0       -0.028314   -1.003049   -0.000009
      5          6           0       -0.279530    1.342985    0.000012
      6          6           0       -0.953928   -0.011648    0.000002
      7          6           0        1.338317   -0.698704   -0.000010
      8          1           0       -0.577310    1.904471   -0.882290
      9          1           0       -0.577306    1.904457    0.882325
     10          1           0       -0.308867   -1.974111   -0.000017
 ---------------------------------------------------------------------

 SCF Done:  E(RHF) =  -1040.13916648     A.U. after    2 cycles

 The electronic state is 1-A.
 Alpha  occ. eigenvalues --  -94.00313 -93.93625 -20.57073 -15.60110 -11.43384
 Alpha  occ. eigenvalues --  -11.39921 -11.32541  -8.28522  -8.21903  -6.26289
 Alpha  occ. eigenvalues --   -6.26173  -6.25924  -6.19758  -6.19468  -6.19319
 Alpha  occ. eigenvalues --   -1.52440  -1.34353  -1.13491  -1.10080  -0.96504
 Alpha  occ. eigenvalues --   -0.90000  -0.87564  -0.72379  -0.70125  -0.66762
 Alpha  occ. eigenvalues --   -0.64247  -0.63272  -0.58562  -0.54221  -0.52380
 Alpha  occ. eigenvalues --   -0.46933  -0.41862  -0.38486  -0.37019
 Alpha virt. eigenvalues --    0.02949   0.03543   0.04767   0.05217   0.06718
 Alpha virt. eigenvalues --    0.07252   0.08007   0.09672   0.10553   0.11720
 Alpha virt. eigenvalues --    0.12451   0.12914   0.13338   0.14003   0.14431

 Mulliken charges:
               1
     1  S    0.844303
     2  S    0.265334
     3  O   -1.116584
     4  N    0.815596
     5  C   -0.887537
     6  C   -0.923519
     7  C    0.269655
     8  H    0.328688
     9  H    0.328689
    10  H    0.075374
 Sum of Mulliken charges =  -0.00000

 Dipole moment (field-independent basis, Debye):
    X=             -0.2224    Y=              1.9087    Z=              0.0000  Tot=              1.9216

 Test job not archived.
 1\1\GINC-SE151\SP\RHF\Aug-CC-pVDZ\C3H3N1O1S2\OHZDE\05-Apr-2025\0\\#t h
 f aug-cc-pvdz iop(5/13=1,5/36=2,99/5=2) pseudo=read geom=check guess=(
 read,tcheck) scf=(maxcycle=1)\\title\\0,1\S,0,1.535241,1.076974,0.0000
 06\S,0,-2.578025,-0.232305,0.000005\O,0,2.214634,-1.515497,-0.000019\N
 ,0,-0.028314,-1.003049,-0.000009\C,0,-0.27953,1.342985,0.000012\C,0,-0
 .953928,-0.011648,0.000002\C,0,1.338317,-0.698704,-0.00001\H,0,-0.5773
 1,1.904471,-0.88229\H,0,-0.577306,1.904457,0.882325\H,0,-0.308867,-1.9
 74111,-0.000017\\Version=ES64L-G16RevC.01\State=1-A\HF=-1040.1391665\R

 Normal termination of Gaussian 16 at Sat Apr  5 22:50:03 2025.
