 Gaussian 16, Revision C.01,

 ----------------------------------------------------------------------
 #t hf aug-cc-pvdz symm=none int=(grid=ultrafine) guess=(read,tcheck) s
 table=(opt,rrhf)
 ----------------------------------------------------------------------
 -----
 title
 -----
 Symbolic Z-matrix:
 Charge =  0 Multiplicity = 1

 SCF Done:  E(RHF) =  -754.935562499     A.U. after   16 cycles
 Normal termination of Gaussian 16 at Sat Apr  5 22:50:17 2025.
 Gaussian 16:  ES64L-G16RevC.01  3-Jul-2019

 ----------------------------------------------------------------------
 #t hf aug-cc-pvdz iop(5/13=1,5/36=2,99/5=2) pseudo=read geom=check gue
 ss=(read,tcheck) scf=(maxcycle=1)
 ----------------------------------------------------------------------
 -----
 title
 -----
 Structure from the checkpoint file:  "4-thioxomethylene-1-3-oxazolidin-2-one.chk"
 Charge =  0 Multiplicity = 1

                         Standard orientation:
 ---------------------------------------------------------------------
 Center     Atomic      Atomic             Coordinates (Angstroms)
 Number     Number       Type             X           Y           Z
 ---------------------------------------------------------------------
      1         16           0       -3.117372   -0.219151   -0.000042
      2          8           0        1.880210    1.021564   -0.000017
      3          8           0        3.047958   -0.924185    0.000000
      4          7           0        0.735994   -0.877231    0.000067
      5          6           0       -0.262689    0.101627    0.000020
      6          6           0        2.003640   -0.340666    0.000015
      7          6           0        0.502611    1.419673    0.000015
      8          6           0       -1.560452   -0.063026   -0.000009
      9          1           0        0.587091   -1.870027    0.000039
     10          1           0        0.307433    2.016200   -0.890818
     11          1           0        0.307471    2.016180    0.890870
 ---------------------------------------------------------------------

 SCF Done:  E(RHF) =  -755.341540616     A.U. after    2 cycles

 The electronic state is 1-A.
 Alpha  occ. eigenvalues --  -93.98854 -20.61617 -20.54003 -15.57846 -11.43708
 Alpha  occ. eigenvalues --  -11.35089 -11.34777 -11.33637  -8.26957  -6.24793
 Alpha  occ. eigenvalues --   -6.24561  -6.24316  -1.57110  -1.47832  -1.29868
 Alpha  occ. eigenvalues --   -1.14385  -1.06526  -0.96569  -0.90314  -0.83927
 Alpha  occ. eigenvalues --   -0.74715  -0.73484  -0.67088  -0.64596  -0.62657
 Alpha  occ. eigenvalues --   -0.62347  -0.58521  -0.57758  -0.49078  -0.47857
 Alpha  occ. eigenvalues --   -0.47018  -0.45359  -0.32904
 Alpha virt. eigenvalues --    0.01466   0.02830   0.04271   0.04468   0.06018
 Alpha virt. eigenvalues --    0.08148   0.08224   0.09927   0.10013   0.10657
 Alpha virt. eigenvalues --    0.11264   0.13090   0.13664   0.13874   0.14749

 Mulliken charges:
               1
     1  S    0.144529
     2  O   -1.287625
     3  O   -1.267314
     4  N    0.956063
     5  C   -1.070972
     6  C    1.363359
     7  C    0.880486
     8  C   -0.055092
     9  H   -0.000806
    10  H    0.168677
    11  H    0.168695
 Sum of Mulliken charges =  -0.00000

 Dipole moment (field-independent basis, Debye):
    X=             -2.9145    Y=              0.9881    Z=              0.0000  Tot=              3.0774

 Test job not archived.
 1\1\GINC-SE152\SP\RHF\Aug-CC-pVDZ\C4H3N1O2S1\OHZDE\05-Apr-2025\0\\#t h
 f aug-cc-pvdz iop(5/13=1,5/36=2,99/5=2) pseudo=read geom=check guess=(
 read,tcheck) scf=(maxcycle=1)\\title\\0,1\S,0,-3.117372,-0.219151,-0.0
 00042\O,0,1.88021,1.021564,-0.000017\O,0,3.047958,-0.924185,0.\N,0,0.7
 35994,-0.877231,0.000067\C,0,-0.262689,0.101627,0.00002\C,0,2.00364,-0
 .340666,0.000015\C,0,0.502611,1.419673,0.000015\C,0,-1.560452,-0.06302
 6,-0.000009\H,0,0.587091,-1.870027,0.000039\H,0,0.307433,2.0162,-0.890
 818\H,0,0.307471,2.01618,0.89087\\Version=ES64L-G16RevC.01\State=1-A\H

 Normal termination of Gaussian 16 at Sat Apr  5 22:50:23 2025.
