 Gaussian 16, Revision C.01,

 ----------------------------------------------------------------------
 #t hf aug-cc-pvdz symm=none int=(grid=ultrafine) guess=(read,tcheck) s
 table=(opt,rrhf)
 ----------------------------------------------------------------------
 -----
 title
 -----
 Symbolic Z-matrix:
 Charge =  0 Multiplicity = 1

 SCF Done:  E(RHF) =  -321.596200421     A.U. after   15 cycles
 Normal termination of Gaussian 16 at Sat Apr  5 22:50:14 2025.
 Gaussian 16:  ES64L-G16RevC.01  3-Jul-2019

 ----------------------------------------------------------------------
 #t hf aug-cc-pvdz iop(5/13=1,5/36=2,99/5=2) pseudo=read geom=check gue
 ss=(read,tcheck) scf=(maxcycle=1)
 ----------------------------------------------------------------------
 -----
 title
 -----
 Structure from the checkpoint file:  "41H-pyridinone.chk"
 Charge =  0 Multiplicity = 1

                         Standard orientation:
 ---------------------------------------------------------------------
 Center     Atomic      Atomic             Coordinates (Angstroms)
 Number     Number       Type             X           Y           Z
 ---------------------------------------------------------------------
      1          6           0        0.000000    1.224565    0.305825
      2          6           0       -0.000000   -1.224565    0.305825
      3          6           0        0.000000    1.188942   -1.044134
      4          6           0       -0.000000   -1.188942   -1.044134
      5          6           0        0.000000   -0.000000    1.104808
      6          7           0        0.000000    0.000000   -1.722199
      7          8           0        0.000000   -0.000000    2.335063
      8          1           0        0.000000    2.171811    0.824427
      9          1           0       -0.000000   -2.171811    0.824427
     10          1           0        0.000000    2.077841   -1.658455
     11          1           0       -0.000000   -2.077841   -1.658455
     12          1           0        0.000000    0.000000   -2.726202
 ---------------------------------------------------------------------

 SCF Done:  E(RHF) =  -321.921749512     A.U. after    2 cycles

 The electronic state is 1-A1.
 Alpha  occ. eigenvalues --  -20.48930 -15.57786 -11.31962 -11.31623 -11.31608
 Alpha  occ. eigenvalues --  -11.24029 -11.24024  -1.42173  -1.31512  -1.07855
 Alpha  occ. eigenvalues --   -1.07273  -0.89934  -0.87214  -0.81596  -0.72000
 Alpha  occ. eigenvalues --   -0.68260  -0.64796  -0.63574  -0.62993  -0.57135
 Alpha  occ. eigenvalues --   -0.55588  -0.51748  -0.40014  -0.39202  -0.33815
 Alpha virt. eigenvalues --    0.01505   0.03374   0.04267   0.05344   0.06557
 Alpha virt. eigenvalues --    0.08112   0.09859   0.10080   0.11346   0.11471
 Alpha virt. eigenvalues --    0.11877   0.12054   0.12296   0.13467   0.14144

 Mulliken charges:
               1
     1  C    0.812651
     2  C    0.812651
     3  C   -0.346650
     4  C   -0.346650
     5  C    0.773805
     6  N    0.578367
     7  O   -1.475293
     8  H   -0.217948
     9  H   -0.217948
    10  H   -0.270150
    11  H   -0.270150
    12  H    0.167317
 Sum of Mulliken charges =  -0.00000

 Dipole moment (field-independent basis, Debye):
    X=              0.0000    Y=             -0.0000    Z=             -6.9143  Tot=              6.9143

 Test job not archived.
 1\1\GINC-SE153\SP\RHF\Aug-CC-pVDZ\C5H5N1O1\OHZDE\05-Apr-2025\0\\#t hf
 aug-cc-pvdz iop(5/13=1,5/36=2,99/5=2) pseudo=read geom=check guess=(re
 ad,tcheck) scf=(maxcycle=1)\\title\\0,1\C,0,0.,1.224565,0.305825\C,0,0
 .,-1.224565,0.305825\C,0,0.,1.188942,-1.044134\C,0,0.,-1.188942,-1.044
 134\C,0,0.,0.,1.104808\N,0,0.,0.,-1.722199\O,0,0.,0.,2.335063\H,0,0.,2
 .171811,0.824427\H,0,0.,-2.171811,0.824427\H,0,0.,2.077841,-1.658455\H
 ,0,0.,-2.077841,-1.658455\H,0,0.,0.,-2.726202\\Version=ES64L-G16RevC.0
 1\State=1-A1\HF=-321.9217495\RMSD=2.519e-02\Dipole=0.,0.,-2.7202767\Qu

 Normal termination of Gaussian 16 at Sat Apr  5 22:50:19 2025.
