 Gaussian 16, Revision C.01,

 ----------------------------------------------------------------------
 #t hf aug-cc-pvdz symm=none int=(grid=ultrafine) guess=(read,tcheck) s
 table=(opt,rrhf)
 ----------------------------------------------------------------------
 -----
 title
 -----
 Symbolic Z-matrix:
 Charge =  0 Multiplicity = 1

 SCF Done:  E(RHF) =  -321.574842578     A.U. after   15 cycles
 Normal termination of Gaussian 16 at Sat Apr  5 22:49:09 2025.
 Gaussian 16:  ES64L-G16RevC.01  3-Jul-2019

 ----------------------------------------------------------------------
 #t hf aug-cc-pvdz iop(5/13=1,5/36=2,99/5=2) pseudo=read geom=check gue
 ss=(read,tcheck) scf=(maxcycle=1)
 ----------------------------------------------------------------------
 -----
 title
 -----
 Structure from the checkpoint file:  "43H-pyridinone.chk"
 Charge =  0 Multiplicity = 1

                         Standard orientation:
 ---------------------------------------------------------------------
 Center     Atomic      Atomic             Coordinates (Angstroms)
 Number     Number       Type             X           Y           Z
 ---------------------------------------------------------------------
      1          7           0        1.836314    0.047911   -0.000037
      2          6           0        1.226255   -1.073102   -0.000001
      3          6           0       -0.257423   -1.256683    0.000068
      4          6           0       -1.075456    0.025969   -0.000044
      5          6           0       -0.291026    1.257772    0.000051
      6          6           0        1.053818    1.213993   -0.000020
      7          8           0       -2.292236    0.003283   -0.000067
      8          1           0        1.839628   -1.972339   -0.000073
      9          1           0       -0.551220   -1.860885    0.865345
     10          1           0       -0.825378    2.197611    0.000125
     11          1           0        1.634483    2.127729    0.000039
     12          1           0       -0.550829   -1.861455   -0.864964
 ---------------------------------------------------------------------

 SCF Done:  E(RHF) =  -321.898813120     A.U. after    2 cycles

 The electronic state is 1-A.
 Alpha  occ. eigenvalues --  -20.53509 -15.52446 -11.34983 -11.32520 -11.30860
 Alpha  occ. eigenvalues --  -11.27373 -11.25210  -1.46838  -1.28018  -1.07978
 Alpha  occ. eigenvalues --   -1.06432  -0.90910  -0.85101  -0.72796  -0.71853
 Alpha  occ. eigenvalues --   -0.69015  -0.65135  -0.62929  -0.61643  -0.57570
 Alpha  occ. eigenvalues --   -0.53625  -0.52354  -0.47574  -0.41926  -0.37402
 Alpha virt. eigenvalues --    0.02852   0.03722   0.03973   0.04745   0.04842
 Alpha virt. eigenvalues --    0.05410   0.07991   0.10498   0.10996   0.11837
 Alpha virt. eigenvalues --    0.12434   0.13108   0.13521   0.14311   0.14920

 Mulliken charges:
               1
     1  N    1.003342
     2  C   -0.697085
     3  C   -0.334552
     4  C    0.747806
     5  C    1.075176
     6  C   -0.612393
     7  O   -1.403965
     8  H   -0.091324
     9  H    0.345031
    10  H   -0.203072
    11  H   -0.173952
    12  H    0.344988
 Sum of Mulliken charges =  -0.00000

 Dipole moment (field-independent basis, Debye):
    X=              1.7661    Y=             -1.3682    Z=              0.0004  Tot=              2.2340

 Test job not archived.
 1\1\GINC-SE154\SP\RHF\Aug-CC-pVDZ\C5H5N1O1\OHZDE\05-Apr-2025\0\\#t hf
 aug-cc-pvdz iop(5/13=1,5/36=2,99/5=2) pseudo=read geom=check guess=(re
 ad,tcheck) scf=(maxcycle=1)\\title\\0,1\N,0,1.836314,0.047911,-0.00003
 7\C,0,1.226255,-1.073102,-0.000001\C,0,-0.257423,-1.256683,0.000068\C,
 0,-1.075456,0.025969,-0.000044\C,0,-0.291026,1.257772,0.000051\C,0,1.0
 53818,1.213993,-0.00002\O,0,-2.292236,0.003283,-0.000067\H,0,1.839628,
 -1.972339,-0.000073\H,0,-0.55122,-1.860885,0.865345\H,0,-0.825378,2.19
 7611,0.000125\H,0,1.634483,2.127729,0.000039\H,0,-0.550829,-1.861455,-

 Normal termination of Gaussian 16 at Sat Apr  5 22:50:03 2025.
