 Gaussian 16, Revision C.01,

 ----------------------------------------------------------------------
 #t hf aug-cc-pvdz symm=none int=(grid=ultrafine) guess=(read,tcheck) s
 table=(opt,rrhf)
 ----------------------------------------------------------------------
 -----
 title
 -----
 Symbolic Z-matrix:
 Charge =  0 Multiplicity = 1

 SCF Done:  E(RHF) =  -337.618373176     A.U. after   15 cycles
 Normal termination of Gaussian 16 at Sat Apr  5 22:49:08 2025.
 Gaussian 16:  ES64L-G16RevC.01  3-Jul-2019

 ----------------------------------------------------------------------
 #t hf aug-cc-pvdz iop(5/13=1,5/36=2,99/5=2) pseudo=read geom=check gue
 ss=(read,tcheck) scf=(maxcycle=1)
 ----------------------------------------------------------------------
 -----
 title
 -----
 Structure from the checkpoint file:  "43H-pyrimidinone.chk"
 Charge =  0 Multiplicity = 1

                         Standard orientation:
 ---------------------------------------------------------------------
 Center     Atomic      Atomic             Coordinates (Angstroms)
 Number     Number       Type             X           Y           Z
 ---------------------------------------------------------------------
      1          6           0        1.232892    0.302834   -0.000000
      2          6           0        1.206555   -1.054025   -0.000000
      3          6           0       -1.049356   -1.149467   -0.000000
      4          6           0       -0.000000    1.055988    0.000000
      5          7           0        0.061359   -1.812046   -0.000000
      6          7           0       -1.126414    0.202125    0.000000
      7          8           0       -0.144293    2.264784    0.000000
      8          1           0        2.159160    0.856946   -0.000000
      9          1           0        2.129679   -1.620129   -0.000000
     10          1           0       -1.994198   -1.680952    0.000000
     11          1           0       -2.025462    0.663333    0.000000
 ---------------------------------------------------------------------

 SCF Done:  E(RHF) =  -337.956237734     A.U. after    2 cycles

 The electronic state is 1-A'.
 Alpha  occ. eigenvalues --  -20.51961 -15.58160 -15.51557 -11.37782 -11.36457
 Alpha  occ. eigenvalues --  -11.31159 -11.25292  -1.46990  -1.33686  -1.22943
 Alpha  occ. eigenvalues --   -1.08749  -0.94563  -0.92407  -0.81701  -0.75580
 Alpha  occ. eigenvalues --   -0.72530  -0.66353  -0.66019  -0.63462  -0.58989
 Alpha  occ. eigenvalues --   -0.54105  -0.49939  -0.48446  -0.44199  -0.36609
 Alpha virt. eigenvalues --    0.02488   0.04183   0.05013   0.05359   0.06002
 Alpha virt. eigenvalues --    0.08387   0.08524   0.10347   0.11546   0.11829
 Alpha virt. eigenvalues --    0.12171   0.12700   0.13356   0.13498   0.15251

 Mulliken charges:
               1
     1  C    0.751805
     2  C   -0.427661
     3  C   -0.635261
     4  C    0.639678
     5  N    0.666370
     6  N    0.553879
     7  O   -1.361650
     8  H   -0.190102
     9  H   -0.130136
    10  H   -0.036193
    11  H    0.169272
 Sum of Mulliken charges =  -0.00000

 Dipole moment (field-independent basis, Debye):
    X=             -1.4537    Y=             -1.9765    Z=             -0.0000  Tot=              2.4535

 Test job not archived.
 1\1\GINC-SE170\SP\RHF\Aug-CC-pVDZ\C4H4N2O1\OHZDE\05-Apr-2025\0\\#t hf
 aug-cc-pvdz iop(5/13=1,5/36=2,99/5=2) pseudo=read geom=check guess=(re
 ad,tcheck) scf=(maxcycle=1)\\title\\0,1\C,0,1.232892,0.302834,0.\C,0,1
 .206555,-1.054025,0.\C,0,-1.049356,-1.149467,0.\C,0,0.,1.055988,0.\N,0
 ,0.061359,-1.812046,0.\N,0,-1.126414,0.202125,0.\O,0,-0.144293,2.26478
 4,0.\H,0,2.15916,0.856946,0.\H,0,2.129679,-1.620129,0.\H,0,-1.994198,-
 1.680952,0.\H,0,-2.025462,0.663333,0.\\Version=ES64L-G16RevC.01\State=
 1-A'\HF=-337.9562377\RMSD=2.401e-02\Dipole=-0.5719226,-0.777599,0.\Qua

 Normal termination of Gaussian 16 at Sat Apr  5 22:50:03 2025.
