 Gaussian 16, Revision C.01,

 ----------------------------------------------------------------------
 #t hf aug-cc-pvdz symm=none int=(grid=ultrafine) guess=(read,tcheck) s
 table=(opt,rrhf)
 ----------------------------------------------------------------------
 -----
 title
 -----
 Symbolic Z-matrix:
 Charge =  0 Multiplicity = 1

 SCF Done:  E(RHF) =  -224.829231011     A.U. after   14 cycles
 Normal termination of Gaussian 16 at Sat Apr  5 22:50:07 2025.
 Gaussian 16:  ES64L-G16RevC.01  3-Jul-2019

 ----------------------------------------------------------------------
 #t hf aug-cc-pvdz iop(5/13=1,5/36=2,99/5=2) pseudo=read geom=check gue
 ss=(read,tcheck) scf=(maxcycle=1)
 ----------------------------------------------------------------------
 -----
 title
 -----
 Structure from the checkpoint file:  "4H-imidazole.chk"
 Charge =  0 Multiplicity = 1

                         Standard orientation:
 ---------------------------------------------------------------------
 Center     Atomic      Atomic             Coordinates (Angstroms)
 Number     Number       Type             X           Y           Z
 ---------------------------------------------------------------------
      1          7           0       -1.193024    0.354700    0.000000
      2          6           0        0.000000    1.136486    0.000000
      3          7           0        1.111424    0.505412    0.000000
      4          6           0        0.730867   -0.899567    0.000000
      5          6           0       -0.764372   -0.854862    0.000000
      6          1           0       -0.075334    2.215149    0.000000
      7          1           0        1.139796   -1.410552    0.877155
      8          1           0        1.139796   -1.410552   -0.877155
      9          1           0       -1.432029   -1.707173    0.000000
 ---------------------------------------------------------------------

 SCF Done:  E(RHF) =  -225.058896347     A.U. after    2 cycles

 The electronic state is 1-A'.
 Alpha  occ. eigenvalues --  -15.51721 -15.50375 -11.31121 -11.30855 -11.28201
 Alpha  occ. eigenvalues --   -1.32887  -1.17466  -1.02016  -0.85463  -0.80489
 Alpha  occ. eigenvalues --   -0.72869  -0.66014  -0.63793  -0.59341  -0.51459
 Alpha  occ. eigenvalues --   -0.50052  -0.48340  -0.43210
 Alpha virt. eigenvalues --    0.03134   0.04614   0.05028   0.05261   0.06387
 Alpha virt. eigenvalues --    0.08063   0.10051   0.10694   0.11152   0.13215
 Alpha virt. eigenvalues --    0.13688   0.14981   0.15253   0.16703   0.16973

 Mulliken charges:
               1
     1  N    0.686676
     2  C   -0.538260
     3  N    0.496188
     4  C   -0.286328
     5  C   -0.644326
     6  H    0.010537
     7  H    0.152275
     8  H    0.152275
     9  H   -0.029036
 Sum of Mulliken charges =  -0.00000

 Dipole moment (field-independent basis, Debye):
    X=             -0.3279    Y=             -2.4490    Z=             -0.0000  Tot=              2.4709

 Test job not archived.
 1\1\GINC-SE028\SP\RHF\Aug-CC-pVDZ\C3H4N2\OHZDE\05-Apr-2025\0\\#t hf au
 g-cc-pvdz iop(5/13=1,5/36=2,99/5=2) pseudo=read geom=check guess=(read
 ,tcheck) scf=(maxcycle=1)\\title\\0,1\N,0,-1.193024,0.3547,0.\C,0,0.,1
 .136486,0.\N,0,1.111424,0.505412,0.\C,0,0.730867,-0.899567,0.\C,0,-0.7
 64372,-0.854862,0.\H,0,-0.075334,2.215149,0.\H,0,1.139796,-1.410552,0.
 877155\H,0,1.139796,-1.410552,-0.877155\H,0,-1.432029,-1.707173,0.\\Ve
 rsion=ES64L-G16RevC.01\State=1-A'\HF=-225.0588963\RMSD=2.290e-02\Dipol
 e=-0.1290044,-0.9635165,0.\Quadrupole=-4.9295047,5.028136,-0.0986313,-

 Normal termination of Gaussian 16 at Sat Apr  5 22:50:10 2025.
