 Gaussian 16, Revision C.01,

 ----------------------------------------------------------------------
 #t hf aug-cc-pvdz symm=none int=(grid=ultrafine) guess=(read,tcheck) s
 table=(opt,rrhf)
 ----------------------------------------------------------------------
 -----
 title
 -----
 Symbolic Z-matrix:
 Charge =  0 Multiplicity = 1

 SCF Done:  E(RHF) =  -1568.29314987     A.U. after   14 cycles

 1\1\GINC-SE084\Stability\RHF\Aug-CC-pVDZ\C5H1Cl3\OHZDE\05-Apr-2025\0\\
 #t hf aug-cc-pvdz symm=none int=(grid=ultrafine) guess=(read,tcheck) s
 table=(opt,rrhf)\\title\\0,1\C,0,1.977238,-0.001331,0.\C,0,0.770993,0.
 001118,0.\C,0,3.336251,-0.004812,0.\C,0,-0.659885,0.00164,0.\C,0,4.540
 805,-0.008521,0.\H,0,5.602698,-0.011921,0.\Cl,0,-1.282257,-0.846315,1.
 468789\Cl,0,-1.282257,-0.846315,-1.468789\Cl,0,-1.282257,1.697533,0.\\
 Version=ES64L-G16RevC.01\HF=-1568.2931499\RMSD=9.010e-09\Dipole=0.8852
 106,-0.0021514,0.\Quadrupole=8.113875,-4.0567057,-4.0571693,-0.0332959

 Normal termination of Gaussian 16 at Sat Apr  5 22:50:17 2025.
 Gaussian 16:  ES64L-G16RevC.01  3-Jul-2019

 ----------------------------------------------------------------------
 #t hf aug-cc-pvdz iop(5/13=1,5/36=2,99/5=2) pseudo=read geom=check gue
 ss=(read,tcheck) scf=(maxcycle=1)
 ----------------------------------------------------------------------
 -----
 title
 -----
 Structure from the checkpoint file:  "5-5-5-trichloro-1-3-pentadiyne.chk"
 Charge =  0 Multiplicity = 1

                         Standard orientation:
 ---------------------------------------------------------------------
 Center     Atomic      Atomic             Coordinates (Angstroms)
 Number     Number       Type             X           Y           Z
 ---------------------------------------------------------------------
      1          6           0        1.977238   -0.001331   -0.000000
      2          6           0        0.770993    0.001118   -0.000000
      3          6           0        3.336251   -0.004812   -0.000000
      4          6           0       -0.659885    0.001640    0.000000
      5          6           0        4.540805   -0.008521   -0.000000
      6          1           0        5.602698   -0.011921   -0.000000
      7         17           0       -1.282257   -0.846315    1.468789
      8         17           0       -1.282257   -0.846315   -1.468789
      9         17           0       -1.282257    1.697533    0.000000
 ---------------------------------------------------------------------

 SCF Done:  E(RHF) =  -1568.70506740     A.U. after    2 cycles

 The electronic state is 1-A'.
 Alpha  occ. eigenvalues -- -105.60398-105.60396-105.60396 -11.47982 -11.30575
 Alpha  occ. eigenvalues --  -11.29663 -11.29145 -11.28773 -10.65154 -10.65153
 Alpha  occ. eigenvalues --  -10.65151  -7.82108  -7.82107  -7.82096  -7.81664
 Alpha  occ. eigenvalues --   -7.81662  -7.81661  -7.81658  -7.81655  -7.81654
 Alpha  occ. eigenvalues --   -1.23360  -1.11594  -1.07323  -1.07322  -1.05252
 Alpha  occ. eigenvalues --   -0.93675  -0.85839  -0.74810  -0.71702  -0.65332
 Alpha  occ. eigenvalues --   -0.65331  -0.53510  -0.53506  -0.50943  -0.50941
 Alpha  occ. eigenvalues --   -0.50178  -0.47816  -0.47816  -0.46456  -0.39562
 Alpha  occ. eigenvalues --   -0.39561
 Alpha virt. eigenvalues --    0.02992   0.05265   0.05265   0.05959   0.07626
 Alpha virt. eigenvalues --    0.08917   0.09012   0.09012   0.09920   0.09922
 Alpha virt. eigenvalues --    0.12340   0.13900   0.13909   0.14400   0.14782

 Mulliken charges:
               1
     1  C    1.604662
     2  C    0.629785
     3  C    1.255264
     4  C   -2.663280
     5  C   -0.844168
     6  H   -0.554644
     7  Cl   0.190573
     8  Cl   0.190573
     9  Cl   0.191235
 Sum of Mulliken charges =  -0.00000

 Dipole moment (field-independent basis, Debye):
    X=              2.2641    Y=             -0.0055    Z=             -0.0000  Tot=              2.2641

 Test job not archived.
 1\1\GINC-SE084\SP\RHF\Aug-CC-pVDZ\C5H1Cl3\OHZDE\05-Apr-2025\0\\#t hf a
 ug-cc-pvdz iop(5/13=1,5/36=2,99/5=2) pseudo=read geom=check guess=(rea
 d,tcheck) scf=(maxcycle=1)\\title\\0,1\C,0,1.977238,-0.001331,0.\C,0,0
 .770993,0.001118,0.\C,0,3.336251,-0.004812,0.\C,0,-0.659885,0.00164,0.
 \C,0,4.540805,-0.008521,0.\H,0,5.602698,-0.011921,0.\Cl,0,-1.282257,-0
 .846315,1.468789\Cl,0,-1.282257,-0.846315,-1.468789\Cl,0,-1.282257,1.6
 97533,0.\\Version=ES64L-G16RevC.01\State=1-A'\HF=-1568.7050674\RMSD=3.
 124e-02\Dipole=0.8907609,-0.0021779,0.\Quadrupole=8.3984061,-4.1989712

 Normal termination of Gaussian 16 at Sat Apr  5 22:50:22 2025.
