 Gaussian 16, Revision C.01,

 ----------------------------------------------------------------------
 #t hf aug-cc-pvdz symm=none int=(grid=ultrafine) guess=(read,tcheck) s
 table=(opt,rrhf)
 ----------------------------------------------------------------------
 -----
 title
 -----
 Symbolic Z-matrix:
 Charge =  0 Multiplicity = 1

 SCF Done:  E(RHF) =  -488.162222307     A.U. after   13 cycles
 Normal termination of Gaussian 16 at Sat Apr  5 22:50:33 2025.
 Gaussian 16:  ES64L-G16RevC.01  3-Jul-2019

 ----------------------------------------------------------------------
 #t hf aug-cc-pvdz iop(5/13=1,5/36=2,99/5=2) pseudo=read geom=check gue
 ss=(read,tcheck) scf=(maxcycle=1)
 ----------------------------------------------------------------------
 -----
 title
 -----
 Structure from the checkpoint file:  "5-5-5-trifluoro-1-3-pentadiyne.chk"
 Charge =  0 Multiplicity = 1

                         Standard orientation:
 ---------------------------------------------------------------------
 Center     Atomic      Atomic             Coordinates (Angstroms)
 Number     Number       Type             X           Y           Z
 ---------------------------------------------------------------------
      1          6           0        0.151624    1.390687    0.000000
      2          6           0        0.020289    0.194427    0.000000
      3          6           0        0.300477    2.743694    0.000000
      4          6           0       -0.137549   -1.254142    0.000000
      5          6           0        0.432336    3.940048    0.000000
      6          1           0        0.548834    4.995753    0.000000
      7          9           0        0.432336   -1.811612    1.085585
      8          9           0        0.432336   -1.811612   -1.085585
      9          9           0       -1.437103   -1.608337    0.000000
 ---------------------------------------------------------------------

 SCF Done:  E(RHF) =  -488.618708786     A.U. after    2 cycles

 The electronic state is 1-A'.
 Alpha  occ. eigenvalues --  -26.51928 -26.51927 -26.51923 -11.56057 -11.31651
 Alpha  occ. eigenvalues --  -11.29820 -11.29710 -11.29428  -1.72862  -1.62564
 Alpha  occ. eigenvalues --   -1.62562  -1.13322  -1.07584  -1.00150  -0.89455
 Alpha  occ. eigenvalues --   -0.85063  -0.82373  -0.82373  -0.75363  -0.69850
 Alpha  occ. eigenvalues --   -0.69849  -0.64782  -0.64782  -0.63244  -0.63092
 Alpha  occ. eigenvalues --   -0.53194  -0.53194  -0.40970  -0.40969
 Alpha virt. eigenvalues --    0.02723   0.06066   0.06067   0.06674   0.07197
 Alpha virt. eigenvalues --    0.10072   0.10072   0.10594   0.10595   0.11282
 Alpha virt. eigenvalues --    0.14189   0.14190   0.14291   0.16924   0.20541

 Mulliken charges:
               1
     1  C    2.194875
     2  C   -2.234004
     3  C    0.927106
     4  C    2.581487
     5  C   -0.766628
     6  H   -0.558496
     7  F   -0.714708
     8  F   -0.714708
     9  F   -0.714922
 Sum of Mulliken charges =  -0.00000

 Dipole moment (field-independent basis, Debye):
    X=              0.3322    Y=              3.0243    Z=              0.0000  Tot=              3.0425

 Test job not archived.
 1\1\GINC-SE028\SP\RHF\Aug-CC-pVDZ\C5H1F3\OHZDE\05-Apr-2025\0\\#t hf au
 g-cc-pvdz iop(5/13=1,5/36=2,99/5=2) pseudo=read geom=check guess=(read
 ,tcheck) scf=(maxcycle=1)\\title\\0,1\C,0,0.151624,1.390687,0.\C,0,0.0
 20289,0.194427,0.\C,0,0.300477,2.743694,0.\C,0,-0.137549,-1.254142,0.\
 C,0,0.432336,3.940048,0.\H,0,0.548834,4.995753,0.\F,0,0.432336,-1.8116
 12,1.085585\F,0,0.432336,-1.811612,-1.085585\F,0,-1.437103,-1.608337,0
 .\\Version=ES64L-G16RevC.01\State=1-A'\HF=-488.6187088\RMSD=5.269e-02\
 Dipole=0.1307137,1.1898466,0.\Quadrupole=-3.7644,7.66847,-3.90407,1.27

 Normal termination of Gaussian 16 at Sat Apr  5 22:50:37 2025.
