 Gaussian 16, Revision C.01,

 ----------------------------------------------------------------------
 #t hf aug-cc-pvdz symm=none int=(grid=ultrafine) guess=(read,tcheck) s
 table=(opt,rrhf)
 ----------------------------------------------------------------------
 -----
 title
 -----
 Symbolic Z-matrix:
 Charge =  0 Multiplicity = 1

 SCF Done:  E(RHF) =  -344.596843562     A.U. after   13 cycles
 Normal termination of Gaussian 16 at Sat Apr  5 22:51:07 2025.
 Gaussian 16:  ES64L-G16RevC.01  3-Jul-2019

 ----------------------------------------------------------------------
 #t hf aug-cc-pvdz iop(5/13=1,5/36=2,99/5=2) pseudo=read geom=check gue
 ss=(read,tcheck) scf=(maxcycle=1)
 ----------------------------------------------------------------------
 -----
 title
 -----
 Structure from the checkpoint file:  "5-6-dihydro-4H-cyclopentacfuran.chk"
 Charge =  0 Multiplicity = 1

                         Standard orientation:
 ---------------------------------------------------------------------
 Center     Atomic      Atomic             Coordinates (Angstroms)
 Number     Number       Type             X           Y           Z
 ---------------------------------------------------------------------
      1          6           0        0.056743   -1.403063    1.105281
      2          6           0        0.056743   -1.403063   -1.105281
      3          6           0        0.056743   -0.108428    0.714480
      4          6           0        0.056743   -0.108428   -0.714480
      5          6           0        0.061614    1.293990    1.248837
      6          6           0        0.061614    1.293990   -1.248837
      7          6           0       -0.362168    2.121493   -0.000000
      8          8           0        0.055843   -2.213536    0.000000
      9          1           0        0.050540   -1.910773    2.052548
     10          1           0        0.050540   -1.910773   -2.052548
     11          1           0       -0.610306    1.450561    2.092349
     12          1           0        1.064430    1.578481    1.579793
     13          1           0        1.064430    1.578481   -1.579793
     14          1           0       -0.610306    1.450561   -2.092349
     15          1           0       -1.447985    2.228635   -0.000000
     16          1           0        0.063723    3.124156   -0.000000
 ---------------------------------------------------------------------

 SCF Done:  E(RHF) =  -344.954740478     A.U. after    2 cycles

 The electronic state is 1-A'.
 Alpha  occ. eigenvalues --  -20.59535 -11.28462 -11.28397 -11.24206 -11.24204
 Alpha  occ. eigenvalues --  -11.23806 -11.22587 -11.22538  -1.52495  -1.14739
 Alpha  occ. eigenvalues --   -1.02276  -1.01120  -0.94185  -0.83364  -0.78139
 Alpha  occ. eigenvalues --   -0.76044  -0.70959  -0.65504  -0.61277  -0.60357
 Alpha  occ. eigenvalues --   -0.58462  -0.57390  -0.56068  -0.50557  -0.49838
 Alpha  occ. eigenvalues --   -0.49784  -0.49314  -0.37118  -0.31752
 Alpha virt. eigenvalues --    0.03551   0.03687   0.03943   0.04097   0.05120
 Alpha virt. eigenvalues --    0.06324   0.06497   0.06913   0.09457   0.11123
 Alpha virt. eigenvalues --    0.11579   0.12060   0.13651   0.13956   0.13965

 Mulliken charges:
               1
     1  C    1.039480
     2  C    1.039480
     3  C   -0.089689
     4  C   -0.089689
     5  C   -0.500129
     6  C   -0.500129
     7  C   -0.023034
     8  O   -1.612485
     9  H   -0.175699
    10  H   -0.175699
    11  H    0.193641
    12  H    0.239526
    13  H    0.239526
    14  H    0.193641
    15  H    0.112174
    16  H    0.109086
 Sum of Mulliken charges =   0.00000

 Dipole moment (field-independent basis, Debye):
    X=             -0.0082    Y=              1.5489    Z=              0.0000  Tot=              1.5489

 Test job not archived.
 1\1\GINC-SE036\SP\RHF\Aug-CC-pVDZ\C7H8O1\OHZDE\05-Apr-2025\0\\#t hf au
 g-cc-pvdz iop(5/13=1,5/36=2,99/5=2) pseudo=read geom=check guess=(read
 ,tcheck) scf=(maxcycle=1)\\title\\0,1\C,0,0.056743,-1.403063,1.105281\
 C,0,0.056743,-1.403063,-1.105281\C,0,0.056743,-0.108428,0.71448\C,0,0.
 056743,-0.108428,-0.71448\C,0,0.061614,1.29399,1.248837\C,0,0.061614,1
 .29399,-1.248837\C,0,-0.362168,2.121493,0.\O,0,0.055843,-2.213536,0.\H
 ,0,0.05054,-1.910773,2.052548\H,0,0.05054,-1.910773,-2.052548\H,0,-0.6
 10306,1.450561,2.092349\H,0,1.06443,1.578481,1.579793\H,0,1.06443,1.57

 Normal termination of Gaussian 16 at Sat Apr  5 22:51:31 2025.
