 Gaussian 16, Revision C.01,

 ----------------------------------------------------------------------
 #t hf aug-cc-pvdz symm=none int=(grid=ultrafine) guess=(read,tcheck) s
 table=(opt,rrhf)
 ----------------------------------------------------------------------
 -----
 title
 -----
 Symbolic Z-matrix:
 Charge =  0 Multiplicity = 1

 SCF Done:  E(RHF) =  -1019.91019528     A.U. after   15 cycles
 Normal termination of Gaussian 16 at Sat Apr  5 22:50:38 2025.
 Gaussian 16:  ES64L-G16RevC.01  3-Jul-2019

 ----------------------------------------------------------------------
 #t hf aug-cc-pvdz iop(5/13=1,5/36=2,99/5=2) pseudo=read geom=check gue
 ss=(read,tcheck) scf=(maxcycle=1)
 ----------------------------------------------------------------------
 -----
 title
 -----
 Structure from the checkpoint file:  "5-amino-1-3-thiazole-23H-thione.chk"
 Charge =  0 Multiplicity = 1

                         Standard orientation:
 ---------------------------------------------------------------------
 Center     Atomic      Atomic             Coordinates (Angstroms)
 Number     Number       Type             X           Y           Z
 ---------------------------------------------------------------------
      1          7           0        2.935965   -0.304877   -0.073828
      2          6           0        1.606186    0.090118    0.012997
      3         16           0        0.316726   -1.115816   -0.018860
      4          6           0       -0.949684    0.127458   -0.004415
      5         16           0       -2.581806   -0.148817    0.010440
      6          6           0        1.075661    1.327803    0.016693
      7          7           0       -0.317561    1.323933   -0.009342
      8          1           0        3.193890   -1.060264    0.544728
      9          1           0        3.594248    0.457458   -0.006269
     10          1           0        1.603851    2.266439    0.028808
     11          1           0       -0.872523    2.164827   -0.002006
 ---------------------------------------------------------------------

 SCF Done:  E(RHF) =  -1020.25501918     A.U. after    2 cycles

 The electronic state is 1-A.
 Alpha  occ. eigenvalues --  -94.00073 -93.89739 -15.58055 -15.54390 -11.38117
 Alpha  occ. eigenvalues --  -11.33290 -11.29669  -8.28275  -8.17995  -6.26024
 Alpha  occ. eigenvalues --   -6.25922  -6.25680  -6.15884  -6.15530  -6.15446
 Alpha  occ. eigenvalues --   -1.33514  -1.24987  -1.10603  -1.07603  -0.96659
 Alpha  occ. eigenvalues --   -0.86208  -0.85004  -0.76576  -0.71232  -0.70920
 Alpha  occ. eigenvalues --   -0.64507  -0.62287  -0.56300  -0.52970  -0.51472
 Alpha  occ. eigenvalues --   -0.43930  -0.40510  -0.33815  -0.30442
 Alpha virt. eigenvalues --    0.01863   0.03215   0.04555   0.06505   0.07432
 Alpha virt. eigenvalues --    0.08245   0.08721   0.09359   0.09723   0.10044
 Alpha virt. eigenvalues --    0.12261   0.13133   0.13650   0.14297   0.14827

 Mulliken charges:
               1
     1  N    0.662008
     2  C   -1.401355
     3  S    0.803690
     4  C   -1.300661
     5  S    0.229800
     6  C    0.293599
     7  N    0.655667
     8  H    0.124178
     9  H    0.062787
    10  H   -0.164921
    11  H    0.035207
 Sum of Mulliken charges =  -0.00000

 Dipole moment (field-independent basis, Debye):
    X=              5.9397    Y=              2.5868    Z=              1.0198  Tot=              6.5583

 Test job not archived.
 1\1\GINC-SE055\SP\RHF\Aug-CC-pVDZ\C3H4N2S2\OHZDE\05-Apr-2025\0\\#t hf
 aug-cc-pvdz iop(5/13=1,5/36=2,99/5=2) pseudo=read geom=check guess=(re
 ad,tcheck) scf=(maxcycle=1)\\title\\0,1\N,0,2.935965,-0.304877,-0.0738
 28\C,0,1.606186,0.090118,0.012997\S,0,0.316726,-1.115816,-0.01886\C,0,
 -0.949684,0.127458,-0.004415\S,0,-2.581806,-0.148817,0.01044\C,0,1.075
 661,1.327803,0.016693\N,0,-0.317561,1.323933,-0.009342\H,0,3.19389,-1.
 060264,0.544728\H,0,3.594248,0.457458,-0.006269\H,0,1.603851,2.266439,
 0.028808\H,0,-0.872523,2.164827,-0.002006\\Version=ES64L-G16RevC.01\St

 Normal termination of Gaussian 16 at Sat Apr  5 22:50:43 2025.
