 Gaussian 16, Revision C.01,

 ----------------------------------------------------------------------
 #t hf aug-cc-pvdz symm=none int=(grid=ultrafine) guess=(read,tcheck) s
 table=(opt,rrhf)
 ----------------------------------------------------------------------
 -----
 title
 -----
 Symbolic Z-matrix:
 Charge =  0 Multiplicity = 1

 SCF Done:  E(RHF) =  -1081.29678915     A.U. after   15 cycles
 Normal termination of Gaussian 16 at Sat Apr  5 22:50:48 2025.
 Gaussian 16:  ES64L-G16RevC.01  3-Jul-2019

 ----------------------------------------------------------------------
 #t hf aug-cc-pvdz iop(5/13=1,5/36=2,99/5=2) pseudo=read geom=check gue
 ss=(read,tcheck) scf=(maxcycle=1)
 ----------------------------------------------------------------------
 -----
 title
 -----
 Structure from the checkpoint file:  "5-chloromethyl-1-2-4-thiadiazole.chk"
 Charge =  0 Multiplicity = 1

                         Standard orientation:
 ---------------------------------------------------------------------
 Center     Atomic      Atomic             Coordinates (Angstroms)
 Number     Number       Type             X           Y           Z
 ---------------------------------------------------------------------
      1         17           0       -2.472282   -0.267612   -0.000030
      2         16           0        0.639929   -1.110653    0.000024
      3          7           0        1.179481    1.352505   -0.000015
      4          7           0        2.252013   -0.695943   -0.000013
      5          6           0        0.152322    0.548818    0.000016
      6          6           0        2.324073    0.610198   -0.000029
      7          6           0       -1.251803    1.057260    0.000047
      8          1           0        3.286720    1.101720   -0.000055
      9          1           0       -1.432399    1.662317   -0.884472
     10          1           0       -1.432404    1.662208    0.884642
 ---------------------------------------------------------------------

 SCF Done:  E(RHF) =  -1081.65680184     A.U. after    2 cycles

 The electronic state is 1-A.
 Alpha  occ. eigenvalues -- -105.58552 -94.02613 -15.54107 -15.52946 -11.35442
 Alpha  occ. eigenvalues --  -11.34485 -11.32893 -10.63348  -8.30511  -7.80298
 Alpha  occ. eigenvalues --   -7.79915  -7.79892  -6.28234  -6.28111  -6.27907
 Alpha  occ. eigenvalues --   -1.35660  -1.20806  -1.14522  -1.06539  -0.96761
 Alpha  occ. eigenvalues --   -0.86255  -0.81234  -0.72670  -0.68490  -0.66126
 Alpha  occ. eigenvalues --   -0.61985  -0.58553  -0.57175  -0.51852  -0.49860
 Alpha  occ. eigenvalues --   -0.48107  -0.47227  -0.45512  -0.40040
 Alpha virt. eigenvalues --    0.03457   0.04554   0.04559   0.06444   0.06843
 Alpha virt. eigenvalues --    0.07603   0.08543   0.09494   0.10023   0.11790
 Alpha virt. eigenvalues --    0.12336   0.13245   0.13902   0.15140   0.15237

 Mulliken charges:
               1
     1  Cl   0.052204
     2  S    0.695832
     3  N    0.839611
     4  N    0.035911
     5  C   -1.272212
     6  C   -0.590955
     7  C   -0.432226
     8  H   -0.031657
     9  H    0.351739
    10  H    0.351753
 Sum of Mulliken charges =  -0.00000

 Dipole moment (field-independent basis, Debye):
    X=             -1.2742    Y=              1.6210    Z=              0.0001  Tot=              2.0619

 Test job not archived.
 1\1\GINC-SE084\SP\RHF\Aug-CC-pVDZ\C3H3Cl1N2S1\OHZDE\05-Apr-2025\0\\#t
 hf aug-cc-pvdz iop(5/13=1,5/36=2,99/5=2) pseudo=read geom=check guess=
 (read,tcheck) scf=(maxcycle=1)\\title\\0,1\Cl,0,-2.472282,-0.267612,-0
 .00003\S,0,0.639929,-1.110653,0.000024\N,0,1.179481,1.352505,-0.000015
 \N,0,2.252013,-0.695943,-0.000013\C,0,0.152322,0.548818,0.000016\C,0,2
 .324073,0.610198,-0.000029\C,0,-1.251803,1.05726,0.000047\H,0,3.28672,
 1.10172,-0.000055\H,0,-1.432399,1.662317,-0.884472\H,0,-1.432404,1.662
 208,0.884642\\Version=ES64L-G16RevC.01\State=1-A\HF=-1081.6568018\RMSD

 Normal termination of Gaussian 16 at Sat Apr  5 22:50:53 2025.
