 Gaussian 16, Revision C.01,

 ----------------------------------------------------------------------
 #t hf aug-cc-pvdz symm=none int=(grid=ultrafine) guess=(read,tcheck) s
 table=(opt,rrhf)
 ----------------------------------------------------------------------
 -----
 title
 -----
 Symbolic Z-matrix:
 Charge =  0 Multiplicity = 1

 SCF Done:  E(RHF) =  -814.470888217     A.U. after   16 cycles
 Normal termination of Gaussian 16 at Sat Apr  5 22:51:27 2025.
 Gaussian 16:  ES64L-G16RevC.01  3-Jul-2019

 ----------------------------------------------------------------------
 #t hf aug-cc-pvdz iop(5/13=1,5/36=2,99/5=2) pseudo=read geom=check gue
 ss=(read,tcheck) scf=(maxcycle=1)
 ----------------------------------------------------------------------
 -----
 title
 -----
 Structure from the checkpoint file:  "5-chloro-3-ethynyl-1-methyl-1H-1-2-4-triazole.chk"
 Charge =  0 Multiplicity = 1

                         Standard orientation:
 ---------------------------------------------------------------------
 Center     Atomic      Atomic             Coordinates (Angstroms)
 Number     Number       Type             X           Y           Z
 ---------------------------------------------------------------------
      1         17           0       -2.273721   -1.145016    0.000007
      2          7           0       -0.545925    0.931210   -0.000361
      3          7           0        0.780358    1.189764   -0.000206
      4          7           0        0.415924   -1.046068    0.000109
      5          6           0       -1.507346    2.016770    0.000250
      6          6           0       -0.725032   -0.407416   -0.000057
      7          6           0        1.323326   -0.022938    0.000027
      8          6           0        2.726873   -0.228945    0.000057
      9          6           0        3.911599   -0.413981    0.000075
     10          1           0       -1.359292    2.633377   -0.883814
     11          1           0       -2.508410    1.598147   -0.006840
     12          1           0       -1.368588    2.625200    0.891548
     13          1           0        4.960520   -0.576746    0.000087
 ---------------------------------------------------------------------

 SCF Done:  E(RHF) =  -814.905600761     A.U. after    2 cycles

 The electronic state is 1-A.
 Alpha  occ. eigenvalues -- -105.61475 -15.61548 -15.55557 -15.51933 -11.39108
 Alpha  occ. eigenvalues --  -11.33241 -11.30462 -11.25852 -11.25479 -10.66274
 Alpha  occ. eigenvalues --   -7.83253  -7.82808  -7.82796  -1.43827  -1.24834
 Alpha  occ. eigenvalues --   -1.19524  -1.10332  -1.06353  -1.00427  -0.92347
 Alpha  occ. eigenvalues --   -0.85355  -0.78854  -0.73404  -0.72865  -0.69095
 Alpha  occ. eigenvalues --   -0.65506  -0.61667  -0.61630  -0.57337  -0.54392
 Alpha  occ. eigenvalues --   -0.52639  -0.50264  -0.48316  -0.44373  -0.42537
 Alpha  occ. eigenvalues --   -0.37855
 Alpha virt. eigenvalues --    0.03075   0.04061   0.05001   0.05050   0.06614
 Alpha virt. eigenvalues --    0.07514   0.09009   0.09981   0.10386   0.10889
 Alpha virt. eigenvalues --    0.11653   0.11899   0.12413   0.13037   0.13892

 Mulliken charges:
               1
     1  Cl   0.062529
     2  N    0.194993
     3  N    0.373700
     4  N    0.886686
     5  C   -0.212678
     6  C   -0.799351
     7  C   -1.795402
     8  C    0.905926
     9  C    0.401654
    10  H    0.180655
    11  H    0.056849
    12  H    0.182886
    13  H   -0.438447
 Sum of Mulliken charges =   0.00000

 Dipole moment (field-independent basis, Debye):
    X=             -1.9154    Y=              1.6255    Z=              0.0001  Tot=              2.5122

 Test job not archived.
 1\1\GINC-SE146\SP\RHF\Aug-CC-pVDZ\C5H4Cl1N3\OHZDE\05-Apr-2025\0\\#t hf
  aug-cc-pvdz iop(5/13=1,5/36=2,99/5=2) pseudo=read geom=check guess=(r
 ead,tcheck) scf=(maxcycle=1)\\title\\0,1\Cl,0,-2.273721,-1.145016,0.00
 0007\N,0,-0.545925,0.93121,-0.000361\N,0,0.780358,1.189764,-0.000206\N
 ,0,0.415924,-1.046068,0.000109\C,0,-1.507346,2.01677,0.00025\C,0,-0.72
 5032,-0.407416,-0.000057\C,0,1.323326,-0.022938,0.000027\C,0,2.726873,
 -0.228945,0.000057\C,0,3.911599,-0.413981,0.000075\H,0,-1.359292,2.633
 377,-0.883814\H,0,-2.50841,1.598147,-0.00684\H,0,-1.368588,2.6252,0.89

 Normal termination of Gaussian 16 at Sat Apr  5 22:51:44 2025.
