 Gaussian 16, Revision C.01,

 ----------------------------------------------------------------------
 #t hf aug-cc-pvdz symm=none int=(grid=ultrafine) guess=(read,tcheck) s
 table=(opt,rrhf)
 ----------------------------------------------------------------------
 -----
 title
 -----
 Symbolic Z-matrix:
 Charge =  0 Multiplicity = 1

 SCF Done:  E(RHF) =  -820.518021039     A.U. after   14 cycles
 Normal termination of Gaussian 16 at Sat Apr  5 22:50:35 2025.
 Gaussian 16:  ES64L-G16RevC.01  3-Jul-2019

 ----------------------------------------------------------------------
 #t hf aug-cc-pvdz iop(5/13=1,5/36=2,99/5=2) pseudo=read geom=check gue
 ss=(read,tcheck) scf=(maxcycle=1)
 ----------------------------------------------------------------------
 -----
 title
 -----
 Structure from the checkpoint file:  "5-chloro-2-fluoropyrimidine.chk"
 Charge =  0 Multiplicity = 1

                         Standard orientation:
 ---------------------------------------------------------------------
 Center     Atomic      Atomic             Coordinates (Angstroms)
 Number     Number       Type             X           Y           Z
 ---------------------------------------------------------------------
      1         17           0        0.000000    0.000000    2.639630
      2          9           0        0.000000    0.000000   -3.046511
      3          7           0        0.000000    1.187688   -1.149552
      4          7           0       -0.000000   -1.187688   -1.149552
      5          6           0        0.000000    0.000000   -1.718678
      6          6           0        0.000000    0.000000    0.901715
      7          6           0        0.000000    1.186904    0.181469
      8          6           0       -0.000000   -1.186904    0.181469
      9          1           0        0.000000    2.147124    0.681378
     10          1           0       -0.000000   -2.147124    0.681378
 ---------------------------------------------------------------------

 SCF Done:  E(RHF) =  -820.943944323     A.U. after    2 cycles

 The electronic state is 1-A1.
 Alpha  occ. eigenvalues -- -105.60287 -26.50167 -15.54602 -15.54523 -11.42852
 Alpha  occ. eigenvalues --  -11.34273 -11.34256 -11.33352 -10.65082  -7.82058
 Alpha  occ. eigenvalues --   -7.81641  -7.81618  -1.64574  -1.35288  -1.24911
 Alpha  occ. eigenvalues --   -1.16965  -1.04871  -0.97556  -0.92381  -0.81006
 Alpha  occ. eigenvalues --   -0.80473  -0.72083  -0.70080  -0.67152  -0.65333
 Alpha  occ. eigenvalues --   -0.62843  -0.62192  -0.56516  -0.53494  -0.51761
 Alpha  occ. eigenvalues --   -0.49804  -0.47794  -0.39488
 Alpha virt. eigenvalues --    0.03339   0.03349   0.04079   0.06881   0.07627
 Alpha virt. eigenvalues --    0.08402   0.09459   0.09961   0.10087   0.11673
 Alpha virt. eigenvalues --    0.11999   0.12316   0.13443   0.14260   0.15062

 Mulliken charges:
               1
     1  Cl  -0.195510
     2  F   -0.769903
     3  N    0.803974
     4  N    0.803974
     5  C   -0.335756
     6  C    0.323152
     7  C   -0.269682
     8  C   -0.269682
     9  H   -0.045284
    10  H   -0.045284
 Sum of Mulliken charges =  -0.00000

 Dipole moment (field-independent basis, Debye):
    X=             -0.0000    Y=              0.0000    Z=              2.7692  Tot=              2.7692

 Test job not archived.
 1\1\GINC-SE085\SP\RHF\Aug-CC-pVDZ\C4H2Cl1F1N2\OHZDE\05-Apr-2025\0\\#t
 hf aug-cc-pvdz iop(5/13=1,5/36=2,99/5=2) pseudo=read geom=check guess=
 (read,tcheck) scf=(maxcycle=1)\\title\\0,1\Cl,0,0.,0.,2.63963\F,0,0.,0
 .,-3.046511\N,0,0.,1.187688,-1.149552\N,0,0.,-1.187688,-1.149552\C,0,0
 .,0.,-1.718678\C,0,0.,0.,0.901715\C,0,0.,1.186904,0.181469\C,0,0.,-1.1
 86904,0.181469\H,0,0.,2.147124,0.681378\H,0,0.,-2.147124,0.681378\\Ver
 sion=ES64L-G16RevC.01\State=1-A1\HF=-820.9439443\RMSD=3.092e-02\Dipole
 =0.,0.,1.089473\Quadrupole=1.2823286,2.4629416,-3.7452702,0.,0.,0.\PG=

 Normal termination of Gaussian 16 at Sat Apr  5 22:50:39 2025.
