 Gaussian 16, Revision C.01,

 ----------------------------------------------------------------------
 #t hf aug-cc-pvdz symm=none int=(grid=ultrafine) guess=(read,tcheck) s
 table=(opt,rrhf)
 ----------------------------------------------------------------------
 -----
 title
 -----
 Symbolic Z-matrix:
 Charge =  0 Multiplicity = 1

 SCF Done:  E(RHF) =  -854.076791118     A.U. after   16 cycles
 Normal termination of Gaussian 16 at Sat Apr  5 22:50:45 2025.
 Gaussian 16:  ES64L-G16RevC.01  3-Jul-2019

 ----------------------------------------------------------------------
 #t hf aug-cc-pvdz iop(5/13=1,5/36=2,99/5=2) pseudo=read geom=check gue
 ss=(read,tcheck) scf=(maxcycle=1)
 ----------------------------------------------------------------------
 -----
 title
 -----
 Structure from the checkpoint file:  "5-chloro-2-furylmethylidyneazane_oxide.chk"
 Charge =  0 Multiplicity = 1

                         Standard orientation:
 ---------------------------------------------------------------------
 Center     Atomic      Atomic             Coordinates (Angstroms)
 Number     Number       Type             X           Y           Z
 ---------------------------------------------------------------------
      1         17           0       -2.933937   -0.850434   -0.000044
      2          8           0       -0.346846   -0.549858   -0.000006
      3          8           0        4.235353   -0.675671   -0.000125
      4          7           0        3.080676   -0.335472   -0.000056
      5          6           0        0.058308    1.657615    0.000110
      6          6           0        0.637991    0.420462    0.000047
      7          6           0       -1.349070    1.455584    0.000089
      8          6           0       -1.524517    0.108140    0.000020
      9          6           0        1.968174   -0.006252    0.000050
     10          1           0        0.583129    2.596701    0.000164
     11          1           0       -2.124310    2.199912    0.000120
 ---------------------------------------------------------------------

 SCF Done:  E(RHF) =  -854.535222120     A.U. after    2 cycles

 The electronic state is 1-A.
 Alpha  occ. eigenvalues -- -105.61853 -20.66172 -20.57018 -15.69597 -11.39839
 Alpha  occ. eigenvalues --  -11.36489 -11.33166 -11.29874 -11.28224 -10.66640
 Alpha  occ. eigenvalues --   -7.83631  -7.83174  -7.83165  -1.60017  -1.57842
 Alpha  occ. eigenvalues --   -1.27384  -1.16776  -1.14710  -1.04658  -0.89806
 Alpha  occ. eigenvalues --   -0.84499  -0.81096  -0.75908  -0.71943  -0.70483
 Alpha  occ. eigenvalues --   -0.68971  -0.68866  -0.64332  -0.62328  -0.60640
 Alpha  occ. eigenvalues --   -0.54052  -0.51039  -0.46542  -0.43249  -0.41283
 Alpha  occ. eigenvalues --   -0.34322
 Alpha virt. eigenvalues --    0.02460   0.03702   0.05026   0.06107   0.07573
 Alpha virt. eigenvalues --    0.08247   0.09142   0.09476   0.10422   0.11522
 Alpha virt. eigenvalues --    0.12387   0.12654   0.13045   0.13719   0.14202

 Mulliken charges:
               1
     1  Cl  -0.107287
     2  O   -1.635556
     3  O   -1.459325
     4  N    1.853747
     5  C   -0.112388
     6  C    3.264924
     7  C    0.499694
     8  C    0.381632
     9  C   -2.451017
    10  H   -0.175041
    11  H   -0.059384
 Sum of Mulliken charges =  -0.00000

 Dipole moment (field-independent basis, Debye):
    X=             -4.5324    Y=              3.1386    Z=              0.0003  Tot=              5.5131

 Test job not archived.
 1\1\GINC-SE129\SP\RHF\Aug-CC-pVDZ\C5H2Cl1N1O2\OHZDE\05-Apr-2025\0\\#t
 hf aug-cc-pvdz iop(5/13=1,5/36=2,99/5=2) pseudo=read geom=check guess=
 (read,tcheck) scf=(maxcycle=1)\\title\\0,1\Cl,0,-2.933937,-0.850434,-0
 .000044\O,0,-0.346846,-0.549858,-0.000006\O,0,4.235353,-0.675671,-0.00
 0125\N,0,3.080676,-0.335472,-0.000056\C,0,0.058308,1.657615,0.00011\C,
 0,0.637991,0.420462,0.000047\C,0,-1.34907,1.455584,0.000089\C,0,-1.524
 517,0.10814,0.00002\C,0,1.968174,-0.006252,0.00005\H,0,0.583129,2.5967
 01,0.000164\H,0,-2.12431,2.199912,0.00012\\Version=ES64L-G16RevC.01\St

 Normal termination of Gaussian 16 at Sat Apr  5 22:50:54 2025.
