 Gaussian 16, Revision C.01,

 ----------------------------------------------------------------------
 #t hf aug-cc-pvdz symm=none int=(grid=ultrafine) guess=(read,tcheck) s
 table=(opt,rrhf)
 ----------------------------------------------------------------------
 -----
 title
 -----
 Symbolic Z-matrix:
 Charge =  0 Multiplicity = 1

 SCF Done:  E(RHF) =  -1081.24637528     A.U. after   16 cycles
 Normal termination of Gaussian 16 at Sat Apr  5 22:50:34 2025.
 Gaussian 16:  ES64L-G16RevC.01  3-Jul-2019

 ----------------------------------------------------------------------
 #t hf aug-cc-pvdz iop(5/13=1,5/36=2,99/5=2) pseudo=read geom=check gue
 ss=(read,tcheck) scf=(maxcycle=1)
 ----------------------------------------------------------------------
 -----
 title
 -----
 Structure from the checkpoint file:  "5-chloro-4-methyl-1-2-3-thiadiazole.chk"
 Charge =  0 Multiplicity = 1

                         Standard orientation:
 ---------------------------------------------------------------------
 Center     Atomic      Atomic             Coordinates (Angstroms)
 Number     Number       Type             X           Y           Z
 ---------------------------------------------------------------------
      1         17           0       -2.008971   -0.645634   -0.000016
      2         16           0        0.916996   -1.382670    0.000044
      3          7           0        1.562136    1.012519   -0.000064
      4          7           0        2.104548   -0.138902    0.000000
      5          6           0       -0.342527   -0.225321   -0.000029
      6          6           0        0.192585    1.037355   -0.000081
      7          6           0       -0.528303    2.343259    0.000042
      8          1           0       -0.251763    2.929510   -0.876767
      9          1           0       -1.605450    2.196555   -0.004895
     10          1           0       -0.259522    2.925361    0.882074
 ---------------------------------------------------------------------

 SCF Done:  E(RHF) =  -1081.60443554     A.U. after    2 cycles

 The electronic state is 1-A.
 Alpha  occ. eigenvalues -- -105.61453 -94.03060 -15.60515 -15.57991 -11.35693
 Alpha  occ. eigenvalues --  -11.30311 -11.25777 -10.66216  -8.31050  -7.83203
 Alpha  occ. eigenvalues --   -7.82764  -7.82747  -6.28765  -6.28649  -6.28428
 Alpha  occ. eigenvalues --   -1.40285  -1.18612  -1.12907  -1.07537  -0.98121
 Alpha  occ. eigenvalues --   -0.87425  -0.80690  -0.70014  -0.66376  -0.64336
 Alpha  occ. eigenvalues --   -0.59703  -0.58958  -0.58269  -0.55684  -0.54941
 Alpha  occ. eigenvalues --   -0.50117  -0.45834  -0.43192  -0.38213
 Alpha virt. eigenvalues --    0.03424   0.03692   0.05181   0.05412   0.06262
 Alpha virt. eigenvalues --    0.07261   0.07958   0.09841   0.11152   0.12232
 Alpha virt. eigenvalues --    0.13391   0.13498   0.14195   0.14962   0.15840

 Mulliken charges:
               1
     1  Cl  -0.169691
     2  S    0.830248
     3  N   -0.122701
     4  N   -0.217214
     5  C   -0.716791
     6  C   -0.218625
     7  C   -0.060145
     8  H    0.241600
     9  H    0.190696
    10  H    0.242625
 Sum of Mulliken charges =   0.00000

 Dipole moment (field-independent basis, Debye):
    X=             -3.2282    Y=             -0.1779    Z=              0.0003  Tot=              3.2331

 Test job not archived.
 1\1\GINC-SE158\SP\RHF\Aug-CC-pVDZ\C3H3Cl1N2S1\OHZDE\05-Apr-2025\0\\#t
 hf aug-cc-pvdz iop(5/13=1,5/36=2,99/5=2) pseudo=read geom=check guess=
 (read,tcheck) scf=(maxcycle=1)\\title\\0,1\Cl,0,-2.008972,-0.645633,-0
 .000016\S,0,0.916995,-1.38267,0.000044\N,0,1.562136,1.012518,-0.000064
 \N,0,2.104548,-0.138903,0.\C,0,-0.342527,-0.225321,-0.000029\C,0,0.192
 585,1.037355,-0.000081\C,0,-0.528302,2.343259,0.000042\H,0,-0.251761,2
 .92951,-0.876767\H,0,-1.605449,2.196556,-0.004895\H,0,-0.25952,2.92536
 1,0.882074\\Version=ES64L-G16RevC.01\State=1-A\HF=-1081.6044355\RMSD=3

 Normal termination of Gaussian 16 at Sat Apr  5 22:50:38 2025.
