 Gaussian 16, Revision C.01,

 ----------------------------------------------------------------------
 #t hf aug-cc-pvdz symm=none int=(grid=ultrafine) guess=(read,tcheck) s
 table=(opt,rrhf)
 ----------------------------------------------------------------------
 -----
 title
 -----
 Symbolic Z-matrix:
 Charge =  0 Multiplicity = 1

 SCF Done:  E(RHF) =  -1201.49899422     A.U. after   14 cycles
 Normal termination of Gaussian 16 at Sat Apr  5 22:50:46 2025.
 Gaussian 16:  ES64L-G16RevC.01  3-Jul-2019

 ----------------------------------------------------------------------
 #t hf aug-cc-pvdz iop(5/13=1,5/36=2,99/5=2) pseudo=read geom=check gue
 ss=(read,tcheck) scf=(maxcycle=1)
 ----------------------------------------------------------------------
 -----
 title
 -----
 Structure from the checkpoint file:  "5-dichloromethyl-1-2-oxazole.chk"
 Charge =  0 Multiplicity = 1

                         Standard orientation:
 ---------------------------------------------------------------------
 Center     Atomic      Atomic             Coordinates (Angstroms)
 Number     Number       Type             X           Y           Z
 ---------------------------------------------------------------------
      1         17           0       -1.769018   -1.402538    0.178117
      2         17           0       -1.547273    1.487912   -0.423243
      3          8           0        1.460798    0.667411    0.845353
      4          7           0        2.756231    0.418539    0.391564
      5          6           0        0.598785   -0.083649    0.134479
      6          6           0       -0.831962    0.092960    0.483695
      7          6           0        1.270958   -0.829507   -0.776098
      8          6           0        2.623928   -0.463831   -0.561859
      9          1           0       -0.948218    0.336127    1.532441
     10          1           0        0.868419   -1.532812   -1.480568
     11          1           0        3.506494   -0.819577   -1.069811
 ---------------------------------------------------------------------

 SCF Done:  E(RHF) =  -1201.93010407     A.U. after    2 cycles

 The electronic state is 1-A.
 Alpha  occ. eigenvalues -- -105.59830-105.59226 -20.65081 -15.58390 -11.40806
 Alpha  occ. eigenvalues --  -11.35222 -11.30478 -11.26863 -10.64625 -10.63991
 Alpha  occ. eigenvalues --   -7.81578  -7.81162  -7.81154  -7.80939  -7.80524
 Alpha  occ. eigenvalues --   -7.80515  -1.59285  -1.21461  -1.18899  -1.09288
 Alpha  occ. eigenvalues --   -1.06380  -0.94337  -0.86138  -0.82548  -0.76276
 Alpha  occ. eigenvalues --   -0.69372  -0.67255  -0.63581  -0.63218  -0.60874
 Alpha  occ. eigenvalues --   -0.59132  -0.54128  -0.49988  -0.49742  -0.47508
 Alpha  occ. eigenvalues --   -0.46877  -0.45695  -0.40146
 Alpha virt. eigenvalues --    0.03275   0.04323   0.04532   0.05941   0.07887
 Alpha virt. eigenvalues --    0.08146   0.08918   0.10563   0.11478   0.12034
 Alpha virt. eigenvalues --    0.12477   0.12726   0.13470   0.14184   0.15197

 Mulliken charges:
               1
     1  Cl   0.046312
     2  Cl   0.058621
     3  O   -1.661198
     4  N    1.196200
     5  C    1.654292
     6  C   -0.972738
     7  C    0.654167
     8  C   -0.939206
     9  H    0.224969
    10  H   -0.143945
    11  H   -0.117473
 Sum of Mulliken charges =  -0.00000

 Dipole moment (field-independent basis, Debye):
    X=             -0.4513    Y=             -2.1101    Z=             -1.1271  Tot=              2.4344

 Test job not archived.
 1\1\GINC-SE146\SP\RHF\Aug-CC-pVDZ\C4H3Cl2N1O1\OHZDE\05-Apr-2025\0\\#t
 hf aug-cc-pvdz iop(5/13=1,5/36=2,99/5=2) pseudo=read geom=check guess=
 (read,tcheck) scf=(maxcycle=1)\\title\\0,1\Cl,0,-1.769018,-1.402538,0.
 178117\Cl,0,-1.547273,1.487912,-0.423243\O,0,1.460798,0.667411,0.84535
 3\N,0,2.756231,0.418539,0.391564\C,0,0.598785,-0.083649,0.134479\C,0,-
 0.831962,0.09296,0.483695\C,0,1.270958,-0.829507,-0.776098\C,0,2.62392
 8,-0.463831,-0.561859\H,0,-0.948218,0.336127,1.532441\H,0,0.868419,-1.
 532812,-1.480568\H,0,3.506494,-0.819577,-1.069811\\Version=ES64L-G16Re

 Normal termination of Gaussian 16 at Sat Apr  5 22:50:53 2025.
