 Gaussian 16, Revision C.01,

 ----------------------------------------------------------------------
 #t hf aug-cc-pvdz symm=none int=(grid=ultrafine) guess=(read,tcheck) s
 table=(opt,rrhf)
 ----------------------------------------------------------------------
 -----
 title
 -----
 Symbolic Z-matrix:
 Charge =  0 Multiplicity = 1

 SCF Done:  E(RHF) =  -587.436563465     A.U. after   14 cycles
 Normal termination of Gaussian 16 at Sat Apr  5 22:51:29 2025.
 Gaussian 16:  ES64L-G16RevC.01  3-Jul-2019

 ----------------------------------------------------------------------
 #t hf aug-cc-pvdz iop(5/13=1,5/36=2,99/5=2) pseudo=read geom=check gue
 ss=(read,tcheck) scf=(maxcycle=1)
 ----------------------------------------------------------------------
 -----
 title
 -----
 Structure from the checkpoint file:  "5-fluoro-6-hydroxydihydro-2-41H-3H-pyrimidinedione.chk"
 Charge =  0 Multiplicity = 1

                         Standard orientation:
 ---------------------------------------------------------------------
 Center     Atomic      Atomic             Coordinates (Angstroms)
 Number     Number       Type             X           Y           Z
 ---------------------------------------------------------------------
      1          9           0        2.375832    0.341649   -0.121397
      2          8           0        1.124163   -2.287866    0.174880
      3          8           0        0.695969    2.490935   -0.051098
      4          8           0       -2.942224   -0.245940    0.022644
      5          7           0       -0.875008   -1.207874    0.004582
      6          7           0       -1.112015    1.111674   -0.020101
      7          6           0        1.090406    0.142282    0.334810
      8          6           0        0.527478   -1.113100   -0.322479
      9          6           0        0.238552    1.381307    0.053108
     10          6           0       -1.735828   -0.146180    0.002266
     11          1           0        1.129546   -0.014071    1.416546
     12          1           0        0.692280   -1.042947   -1.407061
     13          1           0        2.004927   -2.374716   -0.205212
     14          1           0       -1.307982   -2.113080   -0.090426
     15          1           0       -1.739008    1.900491   -0.090282
 ---------------------------------------------------------------------

 SCF Done:  E(RHF) =  -588.008013478     A.U. after    2 cycles

 The electronic state is 1-A.
 Alpha  occ. eigenvalues --  -26.49009 -20.60126 -20.55944 -20.53913 -15.57796
 Alpha  occ. eigenvalues --  -15.56220 -11.42788 -11.40684 -11.38333 -11.37122
 Alpha  occ. eigenvalues --   -1.61681  -1.51530  -1.50933  -1.49725  -1.31858
 Alpha  occ. eigenvalues --   -1.25404  -1.08405  -0.96324  -0.94301  -0.85729
 Alpha  occ. eigenvalues --   -0.81552  -0.79036  -0.74388  -0.72564  -0.71356
 Alpha  occ. eigenvalues --   -0.70744  -0.68081  -0.67285  -0.65316  -0.62061
 Alpha  occ. eigenvalues --   -0.59606  -0.57691  -0.56829  -0.51075  -0.48935
 Alpha  occ. eigenvalues --   -0.47845  -0.45858  -0.44860
 Alpha virt. eigenvalues --    0.02724   0.04009   0.04125   0.05011   0.05641
 Alpha virt. eigenvalues --    0.08839   0.09343   0.09727   0.10186   0.11077
 Alpha virt. eigenvalues --    0.11677   0.12635   0.13193   0.13858   0.14159

 Mulliken charges:
               1
     1  F   -0.848463
     2  O   -1.400807
     3  O   -1.281158
     4  O   -1.200856
     5  N    0.582349
     6  N    0.720293
     7  C    0.963248
     8  C    0.790394
     9  C    0.437190
    10  C    0.148032
    11  H    0.223030
    12  H    0.128577
    13  H    0.308104
    14  H    0.215166
    15  H    0.214900
 Sum of Mulliken charges =  -0.00000

 Dipole moment (field-independent basis, Debye):
    X=              1.5107    Y=             -2.5331    Z=             -0.7589  Tot=              3.0455

 Test job not archived.
 1\1\GINC-SE052\SP\RHF\Aug-CC-pVDZ\C4H5F1N2O3\OHZDE\05-Apr-2025\0\\#t h
 f aug-cc-pvdz iop(5/13=1,5/36=2,99/5=2) pseudo=read geom=check guess=(
 read,tcheck) scf=(maxcycle=1)\\title\\0,1\F,0,2.375832,0.341649,-0.121
 397\O,0,1.124163,-2.287866,0.17488\O,0,0.695969,2.490935,-0.051098\O,0
 ,-2.942224,-0.24594,0.022644\N,0,-0.875008,-1.207874,0.004582\N,0,-1.1
 12015,1.111674,-0.020101\C,0,1.090406,0.142282,0.33481\C,0,0.527478,-1
 .1131,-0.322479\C,0,0.238552,1.381307,0.053108\C,0,-1.735828,-0.14618,
 0.002266\H,0,1.129546,-0.014071,1.416546\H,0,0.69228,-1.042947,-1.4070

 Normal termination of Gaussian 16 at Sat Apr  5 22:51:45 2025.
