 Gaussian 16, Revision C.01,

 ----------------------------------------------------------------------
 #t hf aug-cc-pvdz symm=none int=(grid=ultrafine) guess=(read,tcheck) s
 table=(opt,rrhf)
 ----------------------------------------------------------------------
 -----
 title
 -----
 Symbolic Z-matrix:
 Charge =  0 Multiplicity = 1

 SCF Done:  E(RHF) =  -741.921895171     A.U. after   16 cycles
 Normal termination of Gaussian 16 at Sat Apr  5 22:50:43 2025.
 Gaussian 16:  ES64L-G16RevC.01  3-Jul-2019

 ----------------------------------------------------------------------
 #t hf aug-cc-pvdz iop(5/13=1,5/36=2,99/5=2) pseudo=read geom=check gue
 ss=(read,tcheck) scf=(maxcycle=1)
 ----------------------------------------------------------------------
 -----
 title
 -----
 Structure from the checkpoint file:  "5-fluoro-3-thiophenecarbonitrile.chk"
 Charge =  0 Multiplicity = 1

                         Standard orientation:
 ---------------------------------------------------------------------
 Center     Atomic      Atomic             Coordinates (Angstroms)
 Number     Number       Type             X           Y           Z
 ---------------------------------------------------------------------
      1         16           0        1.303707    1.137937   -0.000005
      2          9           0        2.339801   -1.305984    0.000004
      3          7           0       -3.545099   -0.372952    0.000002
      4          6           0       -0.996543   -0.005333    0.000000
      5          6           0       -0.047454   -1.079338    0.000004
      6          6           0       -0.415563    1.234811   -0.000005
      7          6           0        1.215353   -0.596779    0.000002
      8          6           0       -2.404958   -0.204569    0.000001
      9          1           0       -0.299796   -2.127042    0.000008
     10          1           0       -0.907038    2.191826   -0.000008
 ---------------------------------------------------------------------

 SCF Done:  E(RHF) =  -742.308710613     A.U. after    2 cycles

 The electronic state is 1-A.
 Alpha  occ. eigenvalues --  -94.02635 -26.52284 -15.52833 -11.39381 -11.32174
 Alpha  occ. eigenvalues --  -11.31419 -11.29697 -11.28552  -8.30822  -6.28580
 Alpha  occ. eigenvalues --   -6.28491  -6.28260  -1.65574  -1.25431  -1.23088
 Alpha  occ. eigenvalues --   -1.07388  -1.04209  -0.87764  -0.84486  -0.78586
 Alpha  occ. eigenvalues --   -0.72517  -0.71953  -0.69308  -0.63454  -0.62202
 Alpha  occ. eigenvalues --   -0.59021  -0.58024  -0.54103  -0.52535  -0.51189
 Alpha  occ. eigenvalues --   -0.40072  -0.37010
 Alpha virt. eigenvalues --    0.03115   0.03888   0.05051   0.05764   0.07574
 Alpha virt. eigenvalues --    0.08184   0.08312   0.09790   0.11475   0.11742
 Alpha virt. eigenvalues --    0.12436   0.12578   0.12739   0.13961   0.14357

 Mulliken charges:
               1
     1  S    0.764417
     2  F   -0.888018
     3  N    1.022726
     4  C    2.530216
     5  C   -0.033303
     6  C   -0.652012
     7  C    0.336823
     8  C   -2.685537
     9  H   -0.185051
    10  H   -0.210260
 Sum of Mulliken charges =  -0.00000

 Dipole moment (field-independent basis, Debye):
    X=              3.6417    Y=              1.3828    Z=             -0.0000  Tot=              3.8954

 Test job not archived.
 1\1\GINC-SE196\SP\RHF\Aug-CC-pVDZ\C5H2F1N1S1\OHZDE\05-Apr-2025\0\\#t h
 f aug-cc-pvdz iop(5/13=1,5/36=2,99/5=2) pseudo=read geom=check guess=(
 read,tcheck) scf=(maxcycle=1)\\title\\0,1\S,0,1.303707,1.137937,-0.000
 005\F,0,2.339801,-1.305984,0.000004\N,0,-3.545099,-0.372952,0.000002\C
 ,0,-0.996543,-0.005333,0.\C,0,-0.047454,-1.079338,0.000004\C,0,-0.4155
 63,1.234811,-0.000005\C,0,1.215353,-0.596779,0.000002\C,0,-2.404958,-0
 .204569,0.000001\H,0,-0.299796,-2.127042,0.000008\H,0,-0.907038,2.1918
 26,-0.000008\\Version=ES64L-G16RevC.01\State=1-A\HF=-742.3087106\RMSD=

 Normal termination of Gaussian 16 at Sat Apr  5 22:50:53 2025.
