 Gaussian 16, Revision C.01,

 ----------------------------------------------------------------------
 #t hf aug-cc-pvdz symm=none int=(grid=ultrafine) guess=(read,tcheck) s
 table=(opt,rrhf)
 ----------------------------------------------------------------------
 -----
 title
 -----
 Symbolic Z-matrix:
 Charge =  0 Multiplicity = 1

 SCF Done:  E(RHF) =  -415.012567675     A.U. after   17 cycles
 Normal termination of Gaussian 16 at Sat Apr  5 22:50:40 2025.
 Gaussian 16:  ES64L-G16RevC.01  3-Jul-2019

 ----------------------------------------------------------------------
 #t hf aug-cc-pvdz iop(5/13=1,5/36=2,99/5=2) pseudo=read geom=check gue
 ss=(read,tcheck) scf=(maxcycle=1)
 ----------------------------------------------------------------------
 -----
 title
 -----
 Structure from the checkpoint file:  "5-hydroxypenta-2-4-diynoic_acid.chk"
 Charge =  0 Multiplicity = 1

                         Standard orientation:
 ---------------------------------------------------------------------
 Center     Atomic      Atomic             Coordinates (Angstroms)
 Number     Number       Type             X           Y           Z
 ---------------------------------------------------------------------
      1          8           0        2.917786   -1.157943   -0.000019
      2          8           0        2.935541    1.069886   -0.000044
      3          8           0       -4.203167    0.107734    0.000034
      4          6           0        2.298217   -0.130187   -0.000019
      5          6           0        0.859664   -0.051301    0.000006
      6          6           0       -0.350583   -0.022132    0.000009
      7          6           0       -1.705579    0.003733    0.000014
      8          6           0       -2.911532    0.002168    0.000026
      9          1           0        2.290340    1.788517   -0.000042
     10          1           0       -4.632743   -0.759617    0.000060
 ---------------------------------------------------------------------

 SCF Done:  E(RHF) =  -415.415368542     A.U. after    2 cycles

 The electronic state is 1-A.
 Alpha  occ. eigenvalues --  -20.66557 -20.61316 -20.54953 -11.42677 -11.36123
 Alpha  occ. eigenvalues --  -11.30963 -11.28305 -11.28155  -1.58295  -1.55491
 Alpha  occ. eigenvalues --   -1.46743  -1.12111  -1.06024  -0.93977  -0.87608
 Alpha  occ. eigenvalues --   -0.83438  -0.80684  -0.70572  -0.67812  -0.65856
 Alpha  occ. eigenvalues --   -0.64399  -0.61047  -0.52083  -0.51440  -0.48234
 Alpha  occ. eigenvalues --   -0.47237  -0.39251  -0.38023
 Alpha virt. eigenvalues --    0.01590   0.03671   0.06189   0.06886   0.07745
 Alpha virt. eigenvalues --    0.08157   0.09075   0.09427   0.10391   0.10655
 Alpha virt. eigenvalues --    0.12709   0.13520   0.13644   0.14383   0.16514

 Mulliken charges:
               1
     1  O   -1.153702
     2  O   -1.197944
     3  O   -1.260522
     4  C    1.603487
     5  C   -1.446860
     6  C    2.043318
     7  C    2.046477
     8  C   -1.401992
     9  H    0.442988
    10  H    0.324750
 Sum of Mulliken charges =  -0.00000

 Dipole moment (field-independent basis, Debye):
    X=             -5.9068    Y=              1.2283    Z=              0.0001  Tot=              6.0331

 Test job not archived.
 1\1\GINC-SE183\SP\RHF\Aug-CC-pVDZ\C5H2O3\OHZDE\05-Apr-2025\0\\#t hf au
 g-cc-pvdz iop(5/13=1,5/36=2,99/5=2) pseudo=read geom=check guess=(read
 ,tcheck) scf=(maxcycle=1)\\title\\0,1\O,0,2.917786,-1.157943,-0.000019
 \O,0,2.935541,1.069886,-0.000044\O,0,-4.203167,0.107734,0.000034\C,0,2
 .298217,-0.130187,-0.000019\C,0,0.859664,-0.051301,0.000006\C,0,-0.350
 583,-0.022132,0.000009\C,0,-1.705579,0.003733,0.000014\C,0,-2.911532,0
 .002168,0.000026\H,0,2.29034,1.788517,-0.000042\H,0,-4.632743,-0.75961
 7,0.00006\\Version=ES64L-G16RevC.01\State=1-A\HF=-415.4153685\RMSD=5.4

 Normal termination of Gaussian 16 at Sat Apr  5 22:50:44 2025.
