 Gaussian 16, Revision C.01,

 ----------------------------------------------------------------------
 #t hf aug-cc-pvdz symm=none int=(grid=ultrafine) guess=(read,tcheck) s
 table=(opt,rrhf)
 ----------------------------------------------------------------------
 -----
 title
 -----
 Symbolic Z-matrix:
 Charge =  0 Multiplicity = 1

 SCF Done:  E(RHF) =  -627.363821413     A.U. after   14 cycles
 Normal termination of Gaussian 16 at Sat Apr  5 22:50:39 2025.
 Gaussian 16:  ES64L-G16RevC.01  3-Jul-2019

 ----------------------------------------------------------------------
 #t hf aug-cc-pvdz iop(5/13=1,5/36=2,99/5=2) pseudo=read geom=check gue
 ss=(read,tcheck) scf=(maxcycle=1)
 ----------------------------------------------------------------------
 -----
 title
 -----
 Structure from the checkpoint file:  "5-hydroxy-2-3-dihydrothiophene.chk"
 Charge =  0 Multiplicity = 1

                         Standard orientation:
 ---------------------------------------------------------------------
 Center     Atomic      Atomic             Coordinates (Angstroms)
 Number     Number       Type             X           Y           Z
 ---------------------------------------------------------------------
      1         16           0        0.063989   -1.268775   -0.106157
      2          6           0       -0.855000    0.245265    0.022198
      3          6           0       -0.124232    1.361916    0.026050
      4          6           0        1.350841    1.127767   -0.161767
      5          6           0        1.614187   -0.331939    0.244577
      6          8           0       -2.200117    0.086741    0.072454
      7          1           0       -0.557766    2.351675    0.076223
      8          1           0        1.963153    1.798750    0.443646
      9          1           0        1.811188   -0.410906    1.312550
     10          1           0        1.639154    1.290532   -1.207061
     11          1           0        2.432239   -0.791139   -0.303764
     12          1           0       -2.625644    0.949514    0.010935
 ---------------------------------------------------------------------

 SCF Done:  E(RHF) =  -627.660931389     A.U. after    2 cycles

 The electronic state is 1-A.
 Alpha  occ. eigenvalues --  -93.95106 -20.59231 -11.33209 -11.27338 -11.25032
 Alpha  occ. eigenvalues --  -11.22764  -8.23259  -6.21055  -6.20935  -6.20684
 Alpha  occ. eigenvalues --   -1.50684  -1.14927  -0.99659  -0.98475  -0.82572
 Alpha  occ. eigenvalues --   -0.79382  -0.69639  -0.66093  -0.63413  -0.59045
 Alpha  occ. eigenvalues --   -0.57019  -0.54060  -0.52048  -0.50623  -0.45936
 Alpha  occ. eigenvalues --   -0.40619  -0.31058
 Alpha virt. eigenvalues --    0.03125   0.03781   0.04567   0.04753   0.06547
 Alpha virt. eigenvalues --    0.06784   0.08682   0.11206   0.12135   0.12459
 Alpha virt. eigenvalues --    0.13874   0.14365   0.14583   0.14991   0.15810

 Mulliken charges:
               1
     1  S    0.543574
     2  C    0.852079
     3  C    0.221736
     4  C   -0.487841
     5  C   -0.473319
     6  O   -1.580604
     7  H   -0.190363
     8  H    0.184374
     9  H    0.187598
    10  H    0.179555
    11  H    0.183093
    12  H    0.380118
 Sum of Mulliken charges =  -0.00000

 Dipole moment (field-independent basis, Debye):
    X=              0.9395    Y=              2.5563    Z=              0.0984  Tot=              2.7253

 Test job not archived.
 1\1\GINC-SE115\SP\RHF\Aug-CC-pVDZ\C4H6O1S1\OHZDE\05-Apr-2025\0\\#t hf
 aug-cc-pvdz iop(5/13=1,5/36=2,99/5=2) pseudo=read geom=check guess=(re
 ad,tcheck) scf=(maxcycle=1)\\title\\0,1\S,0,0.063989,-1.268775,-0.1061
 57\C,0,-0.855,0.245265,0.022198\C,0,-0.124231,1.361916,0.02605\C,0,1.3
 50842,1.127767,-0.161767\C,0,1.614187,-0.33194,0.244577\O,0,-2.200117,
 0.086742,0.072454\H,0,-0.557765,2.351675,0.076223\H,0,1.963154,1.79874
 9,0.443646\H,0,1.811188,-0.410907,1.31255\H,0,1.639155,1.290531,-1.207
 061\H,0,2.432239,-0.79114,-0.303764\H,0,-2.625644,0.949515,0.010935\\V

 Normal termination of Gaussian 16 at Sat Apr  5 22:50:43 2025.
