 Gaussian 16, Revision C.01,

 ----------------------------------------------------------------------
 #t hf aug-cc-pvdz symm=none int=(grid=ultrafine) guess=(read,tcheck) s
 table=(opt,rrhf)
 ----------------------------------------------------------------------
 -----
 title
 -----
 Symbolic Z-matrix:
 Charge =  0 Multiplicity = 1

 SCF Done:  E(RHF) =  -411.248828412     A.U. after   15 cycles
 Normal termination of Gaussian 16 at Sat Apr  5 22:50:43 2025.
 Gaussian 16:  ES64L-G16RevC.01  3-Jul-2019

 ----------------------------------------------------------------------
 #t hf aug-cc-pvdz iop(5/13=1,5/36=2,99/5=2) pseudo=read geom=check gue
 ss=(read,tcheck) scf=(maxcycle=1)
 ----------------------------------------------------------------------
 -----
 title
 -----
 Structure from the checkpoint file:  "5-isocyanato-1-2-oxazole.chk"
 Charge =  0 Multiplicity = 1

                         Standard orientation:
 ---------------------------------------------------------------------
 Center     Atomic      Atomic             Coordinates (Angstroms)
 Number     Number       Type             X           Y           Z
 ---------------------------------------------------------------------
      1          8           0        0.546539   -0.953762   -0.000000
      2          8           0       -3.228086   -0.349170   -0.000000
      3          7           0       -1.101796    0.691502   -0.000000
      4          7           0        1.947764   -1.059792   -0.000000
      5          6           0        0.218242    0.351741   -0.000000
      6          6           0        1.335896    1.124727   -0.000000
      7          6           0        2.382875    0.171585   -0.000000
      8          6           0       -2.155264    0.095523   -0.000000
      9          1           0        1.392435    2.196850   -0.000000
     10          1           0        3.447671    0.343180    0.000001
 ---------------------------------------------------------------------

 SCF Done:  E(RHF) =  -411.648348310     A.U. after    2 cycles

 The electronic state is 1-A.
 Alpha  occ. eigenvalues --  -20.64602 -20.63904 -15.57638 -15.57097 -11.45776
 Alpha  occ. eigenvalues --  -11.39294 -11.30401 -11.26062  -1.59046  -1.58415
 Alpha  occ. eigenvalues --   -1.33301  -1.20172  -1.10879  -0.95820  -0.86684
 Alpha  occ. eigenvalues --   -0.80928  -0.76812  -0.71899  -0.69817  -0.68377
 Alpha  occ. eigenvalues --   -0.67271  -0.63602  -0.59129  -0.55883  -0.54024
 Alpha  occ. eigenvalues --   -0.51050  -0.45744  -0.38316
 Alpha virt. eigenvalues --    0.02840   0.04251   0.05850   0.07007   0.08358
 Alpha virt. eigenvalues --    0.08614   0.09167   0.10854   0.11373   0.11875
 Alpha virt. eigenvalues --    0.11954   0.13135   0.13414   0.14521   0.14957

 Mulliken charges:
               1
     1  O   -1.571381
     2  O   -0.868404
     3  N    0.977087
     4  N    1.147409
     5  C   -0.388800
     6  C    1.148596
     7  C   -0.720394
     8  C    0.530798
     9  H   -0.146787
    10  H   -0.108125
 Sum of Mulliken charges =  -0.00000

 Dipole moment (field-independent basis, Debye):
    X=              0.5065    Y=              2.9659    Z=              0.0000  Tot=              3.0088

 Test job not archived.
 1\1\GINC-SE187\SP\RHF\Aug-CC-pVDZ\C4H2N2O2\OHZDE\05-Apr-2025\0\\#t hf
 aug-cc-pvdz iop(5/13=1,5/36=2,99/5=2) pseudo=read geom=check guess=(re
 ad,tcheck) scf=(maxcycle=1)\\title\\0,1\O,0,0.546539,-0.953762,0.\O,0,
 -3.228086,-0.34917,0.\N,0,-1.101796,0.691502,0.\N,0,1.947764,-1.059792
 ,0.\C,0,0.218242,0.351741,0.\C,0,1.335896,1.124727,0.\C,0,2.382875,0.1
 71585,0.\C,0,-2.155264,0.095523,0.\H,0,1.392435,2.19685,0.\H,0,3.44767
 1,0.34318,0.000001\\Version=ES64L-G16RevC.01\State=1-A\HF=-411.6483483
 \RMSD=2.987e-02\Dipole=0.1992856,1.1668589,0.0000003\Quadrupole=1.5779

 Normal termination of Gaussian 16 at Sat Apr  5 22:50:52 2025.
