 Gaussian 16, Revision C.01,

 ----------------------------------------------------------------------
 #t hf aug-cc-pvdz symm=none int=(grid=ultrafine) guess=(read,tcheck) s
 table=(opt,rrhf)
 ----------------------------------------------------------------------
 -----
 title
 -----
 Symbolic Z-matrix:
 Charge =  0 Multiplicity = 1

 SCF Done:  E(RHF) =  -985.820266954     A.U. after   16 cycles
 Normal termination of Gaussian 16 at Sat Apr  5 22:50:39 2025.
 Gaussian 16:  ES64L-G16RevC.01  3-Jul-2019

 ----------------------------------------------------------------------
 #t hf aug-cc-pvdz iop(5/13=1,5/36=2,99/5=2) pseudo=read geom=check gue
 ss=(read,tcheck) scf=(maxcycle=1)
 ----------------------------------------------------------------------
 -----
 title
 -----
 Structure from the checkpoint file:  "5-methyl-1-2-3-oxadithiole.chk"
 Charge =  0 Multiplicity = 1

                         Standard orientation:
 ---------------------------------------------------------------------
 Center     Atomic      Atomic             Coordinates (Angstroms)
 Number     Number       Type             X           Y           Z
 ---------------------------------------------------------------------
      1         16           0       -1.381222    0.952357    0.131158
      2         16           0       -1.060922   -1.105763   -0.180184
      3          8           0        0.561045   -1.063545    0.339172
      4          6           0        1.148044    0.146398   -0.006454
      5          6           0        2.633844    0.082759   -0.038161
      6          6           0        0.357752    1.202401   -0.188373
      7          1           0        2.975948   -0.613159   -0.805738
      8          1           0        3.010492   -0.275655    0.922250
      9          1           0        3.055424    1.065713   -0.234875
     10          1           0        0.706232    2.196611   -0.412681
 ---------------------------------------------------------------------

 SCF Done:  E(RHF) =  -986.130870751     A.U. after    2 cycles

 The electronic state is 1-A.
 Alpha  occ. eigenvalues --  -94.03177 -93.98829 -20.60804 -11.32942 -11.27436
 Alpha  occ. eigenvalues --  -11.25752  -8.30535  -8.26842  -6.28297  -6.28137
 Alpha  occ. eigenvalues --   -6.27751  -6.24621  -6.24485  -6.24166  -1.51207
 Alpha  occ. eigenvalues --   -1.12059  -1.08233  -0.96529  -0.88124  -0.78371
 Alpha  occ. eigenvalues --   -0.68273  -0.65154  -0.62837  -0.57808  -0.57713
 Alpha  occ. eigenvalues --   -0.54273  -0.52217  -0.49223  -0.45016  -0.39521
 Alpha  occ. eigenvalues --   -0.31126
 Alpha virt. eigenvalues --    0.03262   0.03944   0.05282   0.05764   0.06294
 Alpha virt. eigenvalues --    0.06516   0.09108   0.10475   0.11184   0.11968
 Alpha virt. eigenvalues --    0.12699   0.13448   0.15135   0.15373   0.15669

 Mulliken charges:
               1
     1  S    0.007016
     2  S    0.539686
     3  O   -1.481841
     4  C    1.288751
     5  C   -0.665585
     6  C   -0.088372
     7  H    0.230224
     8  H    0.208035
     9  H    0.136298
    10  H   -0.174212
 Sum of Mulliken charges =  -0.00000

 Dipole moment (field-independent basis, Debye):
    X=              2.0206    Y=              1.1252    Z=             -0.4368  Tot=              2.3536

 Test job not archived.
 1\1\GINC-SE179\SP\RHF\Aug-CC-pVDZ\C3H4O1S2\OHZDE\05-Apr-2025\0\\#t hf
 aug-cc-pvdz iop(5/13=1,5/36=2,99/5=2) pseudo=read geom=check guess=(re
 ad,tcheck) scf=(maxcycle=1)\\title\\0,1\S,0,-1.381222,0.952356,0.13115
 8\S,0,-1.060922,-1.105763,-0.180184\O,0,0.561045,-1.063545,0.339172\C,
 0,1.148044,0.146398,-0.006454\C,0,2.633844,0.082759,-0.038161\C,0,0.35
 7752,1.202401,-0.188373\H,0,2.975948,-0.613159,-0.805738\H,0,3.010492,
 -0.275655,0.92225\H,0,3.055424,1.065713,-0.234875\H,0,0.706231,2.19661
 1,-0.412681\\Version=ES64L-G16RevC.01\State=1-A\HF=-986.1308708\RMSD=1

 Normal termination of Gaussian 16 at Sat Apr  5 22:50:44 2025.
