 Gaussian 16, Revision C.01,

 ----------------------------------------------------------------------
 #t hf aug-cc-pvdz symm=none int=(grid=ultrafine) guess=(read,tcheck) s
 table=(opt,rrhf)
 ----------------------------------------------------------------------
 -----
 title
 -----
 Symbolic Z-matrix:
 Charge =  0 Multiplicity = 1

 SCF Done:  E(RHF) =  -283.670032628     A.U. after   15 cycles
 Normal termination of Gaussian 16 at Sat Apr  5 22:50:38 2025.
 Gaussian 16:  ES64L-G16RevC.01  3-Jul-2019

 ----------------------------------------------------------------------
 #t hf aug-cc-pvdz iop(5/13=1,5/36=2,99/5=2) pseudo=read geom=check gue
 ss=(read,tcheck) scf=(maxcycle=1)
 ----------------------------------------------------------------------
 -----
 title
 -----
 Structure from the checkpoint file:  "5-methyl-1-2-oxazole.chk"
 Charge =  0 Multiplicity = 1

                         Standard orientation:
 ---------------------------------------------------------------------
 Center     Atomic      Atomic             Coordinates (Angstroms)
 Number     Number       Type             X           Y           Z
 ---------------------------------------------------------------------
      1          6           0       -0.346200    2.073702    0.000000
      2          1           0       -0.936846    2.330581    0.880543
      3          1           0        0.558932    2.676627    0.000000
      4          1           0       -0.936846    2.330581   -0.880543
      5          6           0        0.000000    0.630252    0.000000
      6          8           0       -1.025177   -0.242897    0.000000
      7          7           0       -0.522613   -1.551143    0.000000
      8          6           0        0.774494   -1.414513    0.000000
      9          1           0        1.390657   -2.299799    0.000000
     10          6           0        1.173944   -0.053727    0.000000
     11          1           0        2.170386    0.348899    0.000000
 ---------------------------------------------------------------------

 SCF Done:  E(RHF) =  -283.958405713     A.U. after    2 cycles

 The electronic state is 1-A'.
 Alpha  occ. eigenvalues --  -20.62396 -15.55860 -11.32653 -11.28507 -11.26057
 Alpha  occ. eigenvalues --  -11.24056  -1.56442  -1.18518  -1.09630  -0.98961
 Alpha  occ. eigenvalues --   -0.84081  -0.80770  -0.72160  -0.66900  -0.63545
 Alpha  occ. eigenvalues --   -0.59546  -0.58895  -0.57700  -0.56028  -0.51209
 Alpha  occ. eigenvalues --   -0.43791  -0.37689
 Alpha virt. eigenvalues --    0.03134   0.03651   0.04386   0.05368   0.06530
 Alpha virt. eigenvalues --    0.08725   0.09417   0.11701   0.11937   0.12671
 Alpha virt. eigenvalues --    0.13050   0.13703   0.14061   0.15147   0.16634

 Mulliken charges:
               1
     1  C   -0.430581
     2  H    0.223554
     3  H    0.155035
     4  H    0.223554
     5  C    0.971125
     6  O   -1.648816
     7  N    1.086005
     8  C   -0.686231
     9  H   -0.140569
    10  C    0.426882
    11  H   -0.179960
 Sum of Mulliken charges =  -0.00000

 Dipole moment (field-independent basis, Debye):
    X=              2.7320    Y=              2.8532    Z=              0.0000  Tot=              3.9503

 Test job not archived.
 1\1\GINC-SE180\SP\RHF\Aug-CC-pVDZ\C4H5N1O1\OHZDE\05-Apr-2025\0\\#t hf
 aug-cc-pvdz iop(5/13=1,5/36=2,99/5=2) pseudo=read geom=check guess=(re
 ad,tcheck) scf=(maxcycle=1)\\title\\0,1\C,0,-0.3462,2.073702,0.\H,0,-0
 .936846,2.330581,0.880543\H,0,0.558932,2.676627,0.\H,0,-0.936846,2.330
 581,-0.880543\C,0,0.,0.630252,0.\O,0,-1.025177,-0.242897,0.\N,0,-0.522
 613,-1.551143,0.\C,0,0.774494,-1.414513,0.\H,0,1.390658,-2.299799,0.\C
 ,0,1.173944,-0.053727,0.\H,0,2.170386,0.348899,0.\\Version=ES64L-G16Re
 vC.01\State=1-A'\HF=-283.9584057\RMSD=2.435e-02\Dipole=1.0748617,1.122

 Normal termination of Gaussian 16 at Sat Apr  5 22:50:42 2025.
