 Gaussian 16, Revision C.01,

 ----------------------------------------------------------------------
 #t hf aug-cc-pvdz symm=none int=(grid=ultrafine) guess=(read,tcheck) s
 table=(opt,rrhf)
 ----------------------------------------------------------------------
 -----
 title
 -----
 Symbolic Z-matrix:
 Charge =  0 Multiplicity = 1

 SCF Done:  E(RHF) =  -295.844758025     A.U. after   16 cycles
 Normal termination of Gaussian 16 at Sat Apr  5 22:50:36 2025.
 Gaussian 16:  ES64L-G16RevC.01  3-Jul-2019

 ----------------------------------------------------------------------
 #t hf aug-cc-pvdz iop(5/13=1,5/36=2,99/5=2) pseudo=read geom=check gue
 ss=(read,tcheck) scf=(maxcycle=1)
 ----------------------------------------------------------------------
 -----
 title
 -----
 Structure from the checkpoint file:  "5-methyl-2H-tetrazole.chk"
 Charge =  0 Multiplicity = 1

                         Standard orientation:
 ---------------------------------------------------------------------
 Center     Atomic      Atomic             Coordinates (Angstroms)
 Number     Number       Type             X           Y           Z
 ---------------------------------------------------------------------
      1          7           0       -1.139760   -0.058016    0.000000
      2          6           0        0.000000    0.597494    0.000000
      3          6           0        0.176443    2.072182    0.000000
      4          1           0        0.723233    2.405707    0.882916
      5          1           0        0.723233    2.405707   -0.882916
      6          1           0       -0.803151    2.542233    0.000000
      7          7           0        0.988808   -0.317104    0.000000
      8          7           0        0.447343   -1.553756    0.000000
      9          7           0       -0.823573   -1.381071    0.000000
     10          1           0        1.988304   -0.202077    0.000000
 ---------------------------------------------------------------------

 SCF Done:  E(RHF) =  -296.144911445     A.U. after    2 cycles

 The electronic state is 1-A'.
 Alpha  occ. eigenvalues --  -15.60946 -15.59355 -15.57860 -15.53094 -11.33938
 Alpha  occ. eigenvalues --  -11.27678  -1.47727  -1.25943  -1.21864  -1.03698
 Alpha  occ. eigenvalues --   -0.94500  -0.91136  -0.81410  -0.71976  -0.67191
 Alpha  occ. eigenvalues --   -0.61539  -0.61352  -0.59647  -0.52397  -0.51887
 Alpha  occ. eigenvalues --   -0.50107  -0.44530
 Alpha virt. eigenvalues --    0.02230   0.03820   0.04146   0.05419   0.07711
 Alpha virt. eigenvalues --    0.09206   0.11316   0.12743   0.12969   0.12999
 Alpha virt. eigenvalues --    0.14157   0.14690   0.15105   0.15540   0.16241

 Mulliken charges:
               1
     1  N    0.441360
     2  C   -1.230805
     3  C    0.053756
     4  H    0.232598
     5  H    0.232598
     6  H    0.194847
     7  N    0.420677
     8  N   -0.099605
     9  N   -0.305020
    10  H    0.059593
 Sum of Mulliken charges =  -0.00000

 Dipole moment (field-independent basis, Debye):
    X=              4.3682    Y=              4.6970    Z=             -0.0000  Tot=              6.4143

 Test job not archived.
 1\1\GINC-SE180\SP\RHF\Aug-CC-pVDZ\C2H4N4\OHZDE\05-Apr-2025\0\\#t hf au
 g-cc-pvdz iop(5/13=1,5/36=2,99/5=2) pseudo=read geom=check guess=(read
 ,tcheck) scf=(maxcycle=1)\\title\\0,1\N,0,-1.13976,-0.058016,0.\C,0,0.
 ,0.597494,0.\C,0,0.176443,2.072182,0.\H,0,0.723233,2.405707,0.882916\H
 ,0,0.723233,2.405707,-0.882916\H,0,-0.803151,2.542233,0.\N,0,0.988808,
 -0.317104,0.\N,0,0.447343,-1.553756,0.\N,0,-0.823573,-1.381071,0.\H,0,
 1.988304,-0.202077,0.\\Version=ES64L-G16RevC.01\State=1-A'\HF=-296.144
 9114\RMSD=4.517e-02\Dipole=1.7186002,1.847961,0.\Quadrupole=0.8558436,

 Normal termination of Gaussian 16 at Sat Apr  5 22:50:40 2025.
