 Gaussian 16, Revision C.01,

 ----------------------------------------------------------------------
 #t hf aug-cc-pvdz symm=none int=(grid=ultrafine) guess=(read,tcheck) s
 table=(opt,rrhf)
 ----------------------------------------------------------------------
 -----
 title
 -----
 Symbolic Z-matrix:
 Charge =  0 Multiplicity = 1

 SCF Done:  E(RHF) =  -492.299101318     A.U. after   16 cycles

 1\1\GINC-SE231\Stability\RHF\Aug-CC-pVDZ\C10H8N2\OHZDE\05-Apr-2025\0\\
 #t hf aug-cc-pvdz symm=none int=(grid=ultrafine) guess=(read,tcheck) s
 table=(opt,rrhf)\\title\\0,1\C,0,0.,0.,-0.75843\C,0,-0.75412,0.903797,
 -1.510292\C,0,0.75412,-0.903797,-1.510292\N,0,-0.757576,0.915186,-2.84
 0582\C,0,0.,0.,-3.441454\N,0,0.757576,-0.915186,-2.840582\C,0,0.,0.,0.
 718089\C,0,0.,1.201904,1.434398\C,0,-0.000714,1.201397,2.82281\C,0,0.,
 0.,3.522386\C,0,0.000714,-1.201397,2.82281\C,0,0.,-1.201904,1.434398\H
 ,0,0.,0.,-4.524887\H,0,-1.389638,1.632242,-1.018874\H,0,1.389638,-1.63

 Normal termination of Gaussian 16 at Sat Apr  5 22:53:06 2025.
 Gaussian 16:  ES64L-G16RevC.01  3-Jul-2019

 ----------------------------------------------------------------------
 #t hf aug-cc-pvdz iop(5/13=1,5/36=2,99/5=2) pseudo=read geom=check gue
 ss=(read,tcheck) scf=(maxcycle=1)
 ----------------------------------------------------------------------
 -----
 title
 -----
 Structure from the checkpoint file:  "5-phenylpyrimidine.chk"
 Charge =  0 Multiplicity = 1

                         Standard orientation:
 ---------------------------------------------------------------------
 Center     Atomic      Atomic             Coordinates (Angstroms)
 Number     Number       Type             X           Y           Z
 ---------------------------------------------------------------------
      1          6           0       -0.000000    0.000000   -0.758430
      2          6           0       -0.754120    0.903797   -1.510292
      3          6           0        0.754120   -0.903797   -1.510292
      4          7           0       -0.757576    0.915186   -2.840582
      5          6           0       -0.000000    0.000000   -3.441454
      6          7           0        0.757576   -0.915186   -2.840582
      7          6           0        0.000000   -0.000000    0.718089
      8          6           0        0.000000    1.201904    1.434398
      9          6           0       -0.000714    1.201397    2.822810
     10          6           0        0.000000   -0.000000    3.522386
     11          6           0        0.000714   -1.201397    2.822810
     12          6           0       -0.000000   -1.201904    1.434398
     13          1           0       -0.000000    0.000000   -4.524887
     14          1           0       -1.389638    1.632242   -1.018874
     15          1           0        1.389638   -1.632242   -1.018874
     16          1           0       -0.006602   -2.140956    3.358639
     17          1           0        0.000000   -0.000000    4.603795
     18          1           0        0.006602    2.140956    3.358639
     19          1           0        0.024377    2.142989    0.901579
     20          1           0       -0.024377   -2.142989    0.901579
 ---------------------------------------------------------------------

 SCF Done:  E(RHF) =  -492.798050565     A.U. after    2 cycles

 The electronic state is 1-A.
 Alpha  occ. eigenvalues --  -15.51472 -15.51443 -11.31763 -11.30404 -11.30391
 Alpha  occ. eigenvalues --  -11.26671 -11.26406 -11.25501 -11.25486 -11.25435
 Alpha  occ. eigenvalues --  -11.25390 -11.25251  -1.31529  -1.20285  -1.17713
 Alpha  occ. eigenvalues --   -1.10216  -1.03180  -1.02051  -0.92242  -0.92241
 Alpha  occ. eigenvalues --   -0.84857  -0.83696  -0.76094  -0.74772  -0.72839
 Alpha  occ. eigenvalues --   -0.67385  -0.65458  -0.62550  -0.61914  -0.61143
 Alpha  occ. eigenvalues --   -0.61035  -0.60410  -0.54401  -0.52971  -0.51917
 Alpha  occ. eigenvalues --   -0.50436  -0.45949  -0.45497  -0.41524  -0.36009
 Alpha  occ. eigenvalues --   -0.33469
 Alpha virt. eigenvalues --    0.03004   0.03160   0.03723   0.04705   0.04905
 Alpha virt. eigenvalues --    0.05536   0.05575   0.06443   0.06744   0.07064
 Alpha virt. eigenvalues --    0.09082   0.09654   0.09896   0.10383   0.10554

 Mulliken charges:
               1
     1  C    0.449797
     2  C   -1.050097
     3  C   -1.050097
     4  N    0.986711
     5  C   -0.827671
     6  N    0.986711
     7  C    2.236840
     8  C   -0.128352
     9  C    0.104492
    10  C    0.044822
    11  C    0.104492
    12  C   -0.128352
    13  H   -0.038572
    14  H   -0.220390
    15  H   -0.220390
    16  H   -0.237456
    17  H   -0.221148
    18  H   -0.237456
    19  H   -0.276943
    20  H   -0.276943
 Sum of Mulliken charges =  -0.00000

 Dipole moment (field-independent basis, Debye):
    X=             -0.0000    Y=             -0.0000    Z=              3.1953  Tot=              3.1953

 Test job not archived.
 1\1\GINC-SE231\SP\RHF\Aug-CC-pVDZ\C10H8N2\OHZDE\05-Apr-2025\0\\#t hf a
 ug-cc-pvdz iop(5/13=1,5/36=2,99/5=2) pseudo=read geom=check guess=(rea
 d,tcheck) scf=(maxcycle=1)\\title\\0,1\C,0,0.,0.,-0.75843\C,0,-0.75412
 ,0.903797,-1.510292\C,0,0.75412,-0.903797,-1.510292\N,0,-0.757576,0.91
 5186,-2.840582\C,0,0.,0.,-3.441454\N,0,0.757576,-0.915186,-2.840582\C,
 0,0.,0.,0.718089\C,0,0.,1.201904,1.434398\C,0,-0.000714,1.201397,2.822
 81\C,0,0.,0.,3.522386\C,0,0.000714,-1.201397,2.82281\C,0,0.,-1.201904,
 1.434398\H,0,0.,0.,-4.524887\H,0,-1.389638,1.632242,-1.018874\H,0,1.38

 Normal termination of Gaussian 16 at Sat Apr  5 22:53:15 2025.
