 Gaussian 16, Revision C.01,

 ----------------------------------------------------------------------
 #t hf aug-cc-pvdz symm=none int=(grid=ultrafine) guess=(read,tcheck) s
 table=(opt,rrhf)
 ----------------------------------------------------------------------
 -----
 title
 -----
 Symbolic Z-matrix:
 Charge =  0 Multiplicity = 1

 SCF Done:  E(RHF) =  -604.221839823     A.U. after   16 cycles
 Normal termination of Gaussian 16 at Sat Apr  5 22:50:32 2025.
 Gaussian 16:  ES64L-G16RevC.01  3-Jul-2019

 ----------------------------------------------------------------------
 #t hf aug-cc-pvdz iop(5/13=1,5/36=2,99/5=2) pseudo=read geom=check gue
 ss=(read,tcheck) scf=(maxcycle=1)
 ----------------------------------------------------------------------
 -----
 title
 -----
 Structure from the checkpoint file:  "5H-1-2-5-oxathiazole.chk"
 Charge =  0 Multiplicity = 1

                         Standard orientation:
 ---------------------------------------------------------------------
 Center     Atomic      Atomic             Coordinates (Angstroms)
 Number     Number       Type             X           Y           Z
 ---------------------------------------------------------------------
      1         16           0       -1.220858    0.001998    0.091689
      2          8           0       -0.018734   -1.194169   -0.271412
      3          7           0        1.276449   -0.701292    0.081978
      4          6           0        0.008231    1.252585   -0.070218
      5          6           0        1.225589    0.721438   -0.045189
      6          1           0        1.431922   -0.961286    1.061342
      7          1           0       -0.249835    2.295344   -0.144943
      8          1           0        2.163454    1.252241   -0.093527
 ---------------------------------------------------------------------

 SCF Done:  E(RHF) =  -604.486809445     A.U. after    2 cycles

 The electronic state is 1-A.
 Alpha  occ. eigenvalues --  -94.01320 -20.61117 -15.57967 -11.29434 -11.28515
 Alpha  occ. eigenvalues --   -8.28886  -6.26676  -6.26517  -6.26200  -1.50488
 Alpha  occ. eigenvalues --   -1.17570  -1.10196  -0.91869  -0.82144  -0.74999
 Alpha  occ. eigenvalues --   -0.70278  -0.63015  -0.59052  -0.54061  -0.53155
 Alpha  occ. eigenvalues --   -0.47707  -0.44670  -0.32646
 Alpha virt. eigenvalues --    0.03294   0.03936   0.05199   0.07295   0.07914
 Alpha virt. eigenvalues --    0.10098   0.10716   0.12153   0.12586   0.13365
 Alpha virt. eigenvalues --    0.14513   0.15915   0.16199   0.16742   0.17391

 Mulliken charges:
               1
     1  S    0.750919
     2  O   -1.373752
     3  N    0.987863
     4  C   -0.001771
     5  C   -0.382818
     6  H    0.241718
     7  H   -0.143631
     8  H   -0.078528
 Sum of Mulliken charges =  -0.00000

 Dipole moment (field-independent basis, Debye):
    X=              0.7297    Y=              2.4891    Z=              1.4462  Tot=              2.9698

 Test job not archived.
 1\1\GINC-SE041\SP\RHF\Aug-CC-pVDZ\C2H3N1O1S1\OHZDE\05-Apr-2025\0\\#t h
 f aug-cc-pvdz iop(5/13=1,5/36=2,99/5=2) pseudo=read geom=check guess=(
 read,tcheck) scf=(maxcycle=1)\\title\\0,1\S,0,-1.220858,0.001998,0.091
 689\O,0,-0.018734,-1.194169,-0.271412\N,0,1.276449,-0.701292,0.081978\
 C,0,0.008231,1.252585,-0.070218\C,0,1.225589,0.721438,-0.045189\H,0,1.
 431922,-0.961286,1.061342\H,0,-0.249835,2.295344,-0.144943\H,0,2.16345
 4,1.252241,-0.093527\\Version=ES64L-G16RevC.01\State=1-A\HF=-604.48680
 94\RMSD=1.999e-02\Dipole=0.2870835,0.979279,0.568974\Quadrupole=0.8744

 Normal termination of Gaussian 16 at Sat Apr  5 22:50:35 2025.
