 Gaussian 16, Revision C.01,

 ----------------------------------------------------------------------
 #t hf aug-cc-pvdz symm=none int=(grid=ultrafine) guess=(read,tcheck) s
 table=(opt,rrhf)
 ----------------------------------------------------------------------
 -----
 title
 -----
 Symbolic Z-matrix:
 Charge =  0 Multiplicity = 1

 SCF Done:  E(RHF) =  -813.337777787     A.U. after   17 cycles
 Normal termination of Gaussian 16 at Sat Apr  5 22:51:00 2025.
 Gaussian 16:  ES64L-G16RevC.01  3-Jul-2019

 ----------------------------------------------------------------------
 #t hf aug-cc-pvdz iop(5/13=1,5/36=2,99/5=2) pseudo=read geom=check gue
 ss=(read,tcheck) scf=(maxcycle=1)
 ----------------------------------------------------------------------
 -----
 title
 -----
 Structure from the checkpoint file:  "6-chloro-3-pyridazinecarbonitrile.chk"
 Charge =  0 Multiplicity = 1

                         Standard orientation:
 ---------------------------------------------------------------------
 Center     Atomic      Atomic             Coordinates (Angstroms)
 Number     Number       Type             X           Y           Z
 ---------------------------------------------------------------------
      1         17           0        2.930400   -0.091791    0.000009
      2          7           0       -0.768407   -1.166317   -0.000008
      3          7           0        0.553379   -1.155933   -0.000004
      4          7           0       -4.016345   -0.114795   -0.000012
      5          6           0       -0.799758    1.241089    0.000003
      6          6           0        0.573371    1.246721    0.000007
      7          6           0       -1.433356   -0.007434   -0.000005
      8          6           0        1.197294   -0.000622    0.000004
      9          6           0       -2.865884   -0.095394   -0.000009
     10          1           0       -1.376813    2.154336    0.000005
     11          1           0        1.149618    2.159260    0.000013
 ---------------------------------------------------------------------

 SCF Done:  E(RHF) =  -813.757606871     A.U. after    2 cycles

 The electronic state is 1-A.
 Alpha  occ. eigenvalues -- -105.60900 -15.60690 -15.59360 -15.54286 -11.38850
 Alpha  occ. eigenvalues --  -11.35780 -11.32715 -11.32082 -11.30572 -10.65728
 Alpha  occ. eigenvalues --   -7.82699  -7.82261  -7.82259  -1.40287  -1.26215
 Alpha  occ. eigenvalues --   -1.21194  -1.17629  -1.09552  -0.99505  -0.94816
 Alpha  occ. eigenvalues --   -0.84409  -0.79622  -0.72218  -0.67541  -0.67458
 Alpha  occ. eigenvalues --   -0.65705  -0.63208  -0.57740  -0.57163  -0.53714
 Alpha  occ. eigenvalues --   -0.52716  -0.50840  -0.49378  -0.46930  -0.42257
 Alpha virt. eigenvalues --    0.00765   0.02123   0.02379   0.03843   0.06136
 Alpha virt. eigenvalues --    0.07908   0.08490   0.08732   0.10906   0.11263
 Alpha virt. eigenvalues --    0.11598   0.12334   0.12907   0.13256   0.13745

 Mulliken charges:
               1
     1  Cl  -0.079833
     2  N    0.168195
     3  N    0.224465
     4  N    0.954097
     5  C    1.040379
     6  C    0.807410
     7  C    0.220202
     8  C   -1.007384
     9  C   -2.042630
    10  H   -0.191439
    11  H   -0.093463
 Sum of Mulliken charges =  -0.00000

 Dipole moment (field-independent basis, Debye):
    X=              3.5035    Y=              5.3595    Z=              0.0000  Tot=              6.4031

 Test job not archived.
 1\1\GINC-SE042\SP\RHF\Aug-CC-pVDZ\C5H2Cl1N3\OHZDE\05-Apr-2025\0\\#t hf
  aug-cc-pvdz iop(5/13=1,5/36=2,99/5=2) pseudo=read geom=check guess=(r
 ead,tcheck) scf=(maxcycle=1)\\title\\0,1\Cl,0,2.9304,-0.091791,0.00000
 9\N,0,-0.768407,-1.166317,-0.000008\N,0,0.553379,-1.155933,-0.000004\N
 ,0,-4.016345,-0.114795,-0.000012\C,0,-0.799758,1.241089,0.000003\C,0,0
 .573371,1.246721,0.000007\C,0,-1.433356,-0.007434,-0.000005\C,0,1.1972
 94,-0.000622,0.000004\C,0,-2.865884,-0.095394,-0.000009\H,0,-1.376813,
 2.154336,0.000005\H,0,1.149618,2.15926,0.000013\\Version=ES64L-G16RevC

 Normal termination of Gaussian 16 at Sat Apr  5 22:51:34 2025.
