 Gaussian 16, Revision C.01,

 ----------------------------------------------------------------------
 #t hf aug-cc-pvdz symm=none int=(grid=ultrafine) guess=(read,tcheck) s
 table=(opt,rrhf)
 ----------------------------------------------------------------------
 -----
 title
 -----
 Symbolic Z-matrix:
 Charge =  0 Multiplicity = 1

 SCF Done:  E(RHF) =  -851.463840756     A.U. after   16 cycles
 Normal termination of Gaussian 16 at Sat Apr  5 22:51:38 2025.
 Gaussian 16:  ES64L-G16RevC.01  3-Jul-2019

 ----------------------------------------------------------------------
 #t hf aug-cc-pvdz iop(5/13=1,5/36=2,99/5=2) pseudo=read geom=check gue
 ss=(read,tcheck) scf=(maxcycle=1)
 ----------------------------------------------------------------------
 -----
 title
 -----
 Structure from the checkpoint file:  "6-chloro-N-hydroxy-3-pyridazinamine.chk"
 Charge =  0 Multiplicity = 1

                         Standard orientation:
 ---------------------------------------------------------------------
 Center     Atomic      Atomic             Coordinates (Angstroms)
 Number     Number       Type             X           Y           Z
 ---------------------------------------------------------------------
      1         17           0       -3.081143    0.085415    0.053858
      2          8           0        3.477026    0.490747    0.348644
      3          7           0        0.521246   -1.313680   -0.003582
      4          7           0       -0.801147   -1.191495    0.027950
      5          7           0        2.647107   -0.500843   -0.241609
      6          6           0        1.286485   -0.231016   -0.098672
      7          6           0       -1.337020    0.006725   -0.003734
      8          6           0        0.766362    1.071813   -0.120508
      9          6           0       -0.597170    1.192029   -0.066717
     10          1           0        4.072324    0.747301   -0.364548
     11          1           0        2.880061   -1.402555    0.159613
     12          1           0        1.418677    1.929694   -0.168056
     13          1           0       -1.090219    2.152346   -0.073288
 ---------------------------------------------------------------------

 SCF Done:  E(RHF) =  -851.929822814     A.U. after    2 cycles

 The electronic state is 1-A.
 Alpha  occ. eigenvalues -- -105.58187 -20.61585 -15.58653 -15.56883 -15.55589
 Alpha  occ. eigenvalues --  -11.34867 -11.34018 -11.29632 -11.28738 -10.63006
 Alpha  occ. eigenvalues --   -7.79974  -7.79554  -7.79543  -1.52017  -1.36953
 Alpha  occ. eigenvalues --   -1.22305  -1.16097  -1.11109  -1.05159  -0.94223
 Alpha  occ. eigenvalues --   -0.90485  -0.80268  -0.76884  -0.73308  -0.69385
 Alpha  occ. eigenvalues --   -0.67902  -0.64498  -0.63999  -0.62624  -0.55319
 Alpha  occ. eigenvalues --   -0.53859  -0.52508  -0.49117  -0.48351  -0.46539
 Alpha  occ. eigenvalues --   -0.43883  -0.37733
 Alpha virt. eigenvalues --    0.02711   0.03618   0.03936   0.04578   0.06303
 Alpha virt. eigenvalues --    0.08307   0.08460   0.09760   0.10776   0.11675
 Alpha virt. eigenvalues --    0.12315   0.13246   0.13519   0.13747   0.14650

 Mulliken charges:
               1
     1  Cl  -0.126358
     2  O   -1.137176
     3  N    0.001505
     4  N    0.370103
     5  N    1.508016
     6  C   -1.941437
     7  C   -0.865681
     8  C    1.115508
     9  C    0.909495
    10  H    0.328157
    11  H    0.121632
    12  H   -0.168010
    13  H   -0.115753
 Sum of Mulliken charges =   0.00000

 Dipole moment (field-independent basis, Debye):
    X=              3.0650    Y=              4.5095    Z=             -0.7077  Tot=              5.4982

 Test job not archived.
 1\1\GINC-SE040\SP\RHF\Aug-CC-pVDZ\C4H4Cl1N3O1\OHZDE\05-Apr-2025\0\\#t
 hf aug-cc-pvdz iop(5/13=1,5/36=2,99/5=2) pseudo=read geom=check guess=
 (read,tcheck) scf=(maxcycle=1)\\title\\0,1\Cl,0,-3.081143,0.085415,0.0
 53858\O,0,3.477026,0.490747,0.348644\N,0,0.521246,-1.31368,-0.003582\N
 ,0,-0.801147,-1.191495,0.02795\N,0,2.647107,-0.500843,-0.241609\C,0,1.
 286485,-0.231016,-0.098672\C,0,-1.33702,0.006725,-0.003734\C,0,0.76636
 2,1.071813,-0.120508\C,0,-0.59717,1.192029,-0.066717\H,0,4.072324,0.74
 7301,-0.364548\H,0,2.880061,-1.402555,0.159613\H,0,1.418677,1.929694,-

 Normal termination of Gaussian 16 at Sat Apr  5 22:52:49 2025.
