 Gaussian 16, Revision C.01,

 ----------------------------------------------------------------------
 #t hf aug-cc-pvdz symm=none int=(grid=ultrafine) guess=(read,tcheck) s
 table=(opt,rrhf)
 ----------------------------------------------------------------------
 -----
 title
 -----
 Symbolic Z-matrix:
 Charge =  0 Multiplicity = 1

 SCF Done:  E(RHF) =  -634.219537960     A.U. after   16 cycles
 Normal termination of Gaussian 16 at Sat Apr  5 22:52:10 2025.
 Gaussian 16:  ES64L-G16RevC.01  3-Jul-2019

 ----------------------------------------------------------------------
 #t hf aug-cc-pvdz iop(5/13=1,5/36=2,99/5=2) pseudo=read geom=check gue
 ss=(read,tcheck) scf=(maxcycle=1)
 ----------------------------------------------------------------------
 -----
 title
 -----
 Structure from the checkpoint file:  "9H-purine-2-6-8-trione.chk"
 Charge =  0 Multiplicity = 1

                         Standard orientation:
 ---------------------------------------------------------------------
 Center     Atomic      Atomic             Coordinates (Angstroms)
 Number     Number       Type             X           Y           Z
 ---------------------------------------------------------------------
      1          6           0        0.000000    0.690260    0.000000
      2          6           0        0.612433   -0.524322    0.000000
      3          6           0       -1.421181    0.815858    0.000000
      4          6           0        2.250868    1.064696    0.000000
      5          6           0       -1.472895   -1.715075    0.000000
      6          7           0        1.008530    1.656063    0.000000
      7          7           0        1.963364   -0.327181    0.000000
      8          7           0       -0.075505   -1.702376    0.000000
      9          7           0       -2.045569   -0.457319    0.000000
     10          8           0       -2.078366    1.839915    0.000000
     11          8           0        3.351110    1.564725    0.000000
     12          8           0       -2.104133   -2.748954    0.000000
     13          1           0        0.868938    2.650817    0.000000
     14          1           0        2.693788   -1.017316    0.000000
     15          1           0        0.372696   -2.603452    0.000000
     16          1           0       -3.055399   -0.448350    0.000000
 ---------------------------------------------------------------------

 SCF Done:  E(RHF) =  -634.838942914     A.U. after    2 cycles

 The electronic state is 1-A'.
 Alpha  occ. eigenvalues --  -20.54786 -20.54156 -20.53496 -15.60552 -15.60006
 Alpha  occ. eigenvalues --  -15.57885 -15.57357 -11.44075 -11.42416 -11.40400
 Alpha  occ. eigenvalues --  -11.39065 -11.29653  -1.51335  -1.49676  -1.48748
 Alpha  occ. eigenvalues --   -1.38931  -1.33121  -1.27371  -1.24274  -1.09406
 Alpha  occ. eigenvalues --   -0.97422  -0.96374  -0.93277  -0.88292  -0.83939
 Alpha  occ. eigenvalues --   -0.79797  -0.75606  -0.73560  -0.73352  -0.71639
 Alpha  occ. eigenvalues --   -0.68275  -0.67269  -0.65753  -0.64107  -0.61490
 Alpha  occ. eigenvalues --   -0.56635  -0.53421  -0.50095  -0.49244  -0.47439
 Alpha  occ. eigenvalues --   -0.46495  -0.46038  -0.34412
 Alpha virt. eigenvalues --    0.01361   0.04484   0.04615   0.05049   0.07454
 Alpha virt. eigenvalues --    0.07729   0.08164   0.08636   0.08918   0.10047
 Alpha virt. eigenvalues --    0.10491   0.10621   0.11698   0.12031   0.12906

 Mulliken charges:
               1
     1  C   -0.700545
     2  C   -1.450824
     3  C    1.583542
     4  C    0.603341
     5  C    0.570772
     6  N    0.874030
     7  N    0.843690
     8  N    0.797314
     9  N    0.495945
    10  O   -1.546379
    11  O   -1.286057
    12  O   -1.300440
    13  H    0.039295
    14  H    0.010380
    15  H    0.165341
    16  H    0.300594
 Sum of Mulliken charges =  -0.00000

 Dipole moment (field-independent basis, Debye):
    X=              1.5778    Y=             -2.7798    Z=              0.0000  Tot=              3.1963

 Test job not archived.
 1\1\GINC-SE198\SP\RHF\Aug-CC-pVDZ\C5H4N4O3\OHZDE\05-Apr-2025\0\\#t hf
 aug-cc-pvdz iop(5/13=1,5/36=2,99/5=2) pseudo=read geom=check guess=(re
 ad,tcheck) scf=(maxcycle=1)\\title\\0,1\C,0,0.,0.69026,0.\C,0,0.612433
 ,-0.524322,0.\C,0,-1.421181,0.815858,0.\C,0,2.250868,1.064696,0.\C,0,-
 1.472895,-1.715075,0.\N,0,1.00853,1.656063,0.\N,0,1.963364,-0.327181,0
 .\N,0,-0.075505,-1.702376,0.\N,0,-2.045569,-0.457319,0.\O,0,-2.078366,
 1.839915,0.\O,0,3.35111,1.564725,0.\O,0,-2.104133,-2.748954,0.\H,0,0.8
 68938,2.650817,0.\H,0,2.693788,-1.017316,0.\H,0,0.372696,-2.603452,0.\

 Normal termination of Gaussian 16 at Sat Apr  5 22:52:54 2025.
