 Gaussian 16, Revision C.01,

 ----------------------------------------------------------------------
 #t hf aug-cc-pvdz symm=none int=(grid=ultrafine) guess=(read,tcheck) s
 table=(opt,rrhf)
 ----------------------------------------------------------------------
 -----
 title
 -----
 Symbolic Z-matrix:
 Charge =  0 Multiplicity = 1

 SCF Done:  E(RHF) =  -409.525258736     A.U. after   15 cycles
 Normal termination of Gaussian 16 at Sat Apr  5 22:51:10 2025.
 Gaussian 16:  ES64L-G16RevC.01  3-Jul-2019

 ----------------------------------------------------------------------
 #t hf aug-cc-pvdz iop(5/13=1,5/36=2,99/5=2) pseudo=read geom=check gue
 ss=(read,tcheck) scf=(maxcycle=1)
 ----------------------------------------------------------------------
 -----
 title
 -----
 Structure from the checkpoint file:  "9H-purine.chk"
 Charge =  0 Multiplicity = 1

                         Standard orientation:
 ---------------------------------------------------------------------
 Center     Atomic      Atomic             Coordinates (Angstroms)
 Number     Number       Type             X           Y           Z
 ---------------------------------------------------------------------
      1          6           0       -2.118438    0.068567   -0.000000
      2          7           0       -1.263191    1.092745   -0.000000
      3          6           0       -0.000000    0.698379   -0.000000
      4          6           0        0.447803   -0.635313    0.000000
      5          7           0        1.831505   -0.681693    0.000000
      6          6           0        2.197462    0.568529    0.000000
      7          7           0        1.143662    1.456527   -0.000000
      8          7           0       -1.827298   -1.239681   -0.000000
      9          6           0       -0.545581   -1.604990    0.000000
     10          1           0       -3.170670    0.323513   -0.000000
     11          1           0        3.218998    0.914021    0.000000
     12          1           0        1.191504    2.461120   -0.000000
     13          1           0       -0.320055   -2.664970    0.000000
 ---------------------------------------------------------------------

 SCF Done:  E(RHF) =  -409.934556570     A.U. after    2 cycles

 The electronic state is 1-A'.
 Alpha  occ. eigenvalues --  -15.57985 -15.51874 -15.51454 -15.50730 -11.34110
 Alpha  occ. eigenvalues --  -11.33176 -11.31945 -11.30447 -11.27240  -1.37609
 Alpha  occ. eigenvalues --   -1.30188  -1.22467  -1.18663  -1.06710  -0.94470
 Alpha  occ. eigenvalues --   -0.91537  -0.88815  -0.81870  -0.75718  -0.73761
 Alpha  occ. eigenvalues --   -0.67478  -0.67055  -0.65053  -0.61782  -0.57878
 Alpha  occ. eigenvalues --   -0.54869  -0.50625  -0.50312  -0.45469  -0.43176
 Alpha  occ. eigenvalues --   -0.35706
 Alpha virt. eigenvalues --    0.02438   0.04190   0.04585   0.05325   0.05738
 Alpha virt. eigenvalues --    0.07913   0.08981   0.09438   0.09502   0.10632
 Alpha virt. eigenvalues --    0.11190   0.11583   0.12463   0.12637   0.14025

 Mulliken charges:
               1
     1  C   -0.419188
     2  N    1.206514
     3  C   -1.786471
     4  C   -0.722718
     5  N    0.996771
     6  C   -0.772353
     7  N    0.919418
     8  N    0.707401
     9  C    0.100392
    10  H   -0.052252
    11  H   -0.072702
    12  H   -0.026103
    13  H   -0.078710
 Sum of Mulliken charges =   0.00000

 Dipole moment (field-independent basis, Debye):
    X=              2.4724    Y=              2.9120    Z=             -0.0000  Tot=              3.8200

 Test job not archived.
 1\1\GINC-SE199\SP\RHF\Aug-CC-pVDZ\C5H4N4\OHZDE\05-Apr-2025\0\\#t hf au
 g-cc-pvdz iop(5/13=1,5/36=2,99/5=2) pseudo=read geom=check guess=(read
 ,tcheck) scf=(maxcycle=1)\\title\\0,1\C,0,-2.118438,0.068567,0.\N,0,-1
 .263191,1.092745,0.\C,0,0.,0.698379,0.\C,0,0.447803,-0.635313,0.\N,0,1
 .831505,-0.681693,0.\C,0,2.197462,0.568529,0.\N,0,1.143662,1.456527,0.
 \N,0,-1.827298,-1.239681,0.\C,0,-0.545581,-1.60499,0.\H,0,-3.17067,0.3
 23513,0.\H,0,3.218998,0.914021,0.\H,0,1.191504,2.46112,0.\H,0,-0.32005
 5,-2.66497,0.\\Version=ES64L-G16RevC.01\State=1-A'\HF=-409.9345566\RMS

 Normal termination of Gaussian 16 at Sat Apr  5 22:51:32 2025.
