 Gaussian 16, Revision C.01,

 ----------------------------------------------------------------------
 #t hf aug-cc-pvdz symm=none int=(grid=ultrafine) guess=(read,tcheck) s
 table=(opt,rrhf)
 ----------------------------------------------------------------------
 -----
 title
 -----
 Symbolic Z-matrix:
 Charge =  0 Multiplicity = 1

 SCF Done:  E(RHF) =  -460.305851129     A.U. after   16 cycles
 Normal termination of Gaussian 16 at Sat Apr  5 22:58:06 2025.
 Gaussian 16:  ES64L-G16RevC.01  3-Jul-2019

 ----------------------------------------------------------------------
 #t hf aug-cc-pvdz iop(5/13=1,5/36=2,99/5=2) pseudo=read geom=check gue
 ss=(read,tcheck) scf=(maxcycle=1)
 ----------------------------------------------------------------------
 -----
 title
 -----
 Structure from the checkpoint file:  "acenaphthene.chk"
 Charge =  0 Multiplicity = 1

                         Standard orientation:
 ---------------------------------------------------------------------
 Center     Atomic      Atomic             Coordinates (Angstroms)
 Number     Number       Type             X           Y           Z
 ---------------------------------------------------------------------
      1          6           0        0.000000    2.417403    1.181934
      2          6           0       -0.000000   -2.417403    1.181934
      3          6           0        0.000000    1.271044    1.944423
      4          6           0       -0.000000   -1.271044    1.944423
      5          6           0        0.000000    2.386884   -0.235954
      6          6           0       -0.000000   -2.386884   -0.235954
      7          6           0       -0.000000   -0.000000    1.317592
      8          6           0        0.000000    0.000000   -0.091156
      9          6           0        0.000000    1.171139   -0.870305
     10          6           0       -0.000000   -1.171139   -0.870305
     11          6           0        0.000000    0.782271   -2.334961
     12          6           0       -0.000000   -0.782271   -2.334961
     13          1           0        0.000000    3.379258    1.678463
     14          1           0       -0.000000   -3.379258    1.678463
     15          1           0        0.000000    1.338083    3.024941
     16          1           0       -0.000000   -1.338083    3.024941
     17          1           0        0.000000    3.317350   -0.789309
     18          1           0       -0.000000   -3.317350   -0.789309
     19          1           0       -0.874591    1.180702   -2.852112
     20          1           0        0.874591    1.180702   -2.852112
     21          1           0        0.874591   -1.180702   -2.852112
     22          1           0       -0.874591   -1.180702   -2.852112
 ---------------------------------------------------------------------

 SCF Done:  E(RHF) =  -460.780819454     A.U. after    2 cycles

 The electronic state is 1-A1.
 Alpha  occ. eigenvalues --  -11.24436 -11.24430 -11.24429 -11.24388 -11.24371
 Alpha  occ. eigenvalues --  -11.24313 -11.24307 -11.23624 -11.23610 -11.23530
 Alpha  occ. eigenvalues --  -11.23520 -11.22698  -1.19419  -1.10935  -1.10227
 Alpha  occ. eigenvalues --   -1.00846  -0.99298  -0.98032  -0.88834  -0.85007
 Alpha  occ. eigenvalues --   -0.82100  -0.79410  -0.71244  -0.69825  -0.67496
 Alpha  occ. eigenvalues --   -0.64074  -0.63229  -0.61085  -0.59451  -0.58027
 Alpha  occ. eigenvalues --   -0.56408  -0.53156  -0.53112  -0.51308  -0.51193
 Alpha  occ. eigenvalues --   -0.48766  -0.48274  -0.44437  -0.38452  -0.32638
 Alpha  occ. eigenvalues --   -0.28564
 Alpha virt. eigenvalues --    0.03223   0.03385   0.03684   0.04287   0.04443
 Alpha virt. eigenvalues --    0.04521   0.06660   0.06841   0.07037   0.08505
 Alpha virt. eigenvalues --    0.08597   0.09261   0.09517   0.10902   0.12047

 Mulliken charges:
               1
     1  C   -0.192486
     2  C   -0.192486
     3  C    0.341435
     4  C    0.341435
     5  C    0.659523
     6  C    0.659523
     7  C    1.000274
     8  C   -0.106660
     9  C   -0.275018
    10  C   -0.275018
    11  C   -0.693107
    12  C   -0.693107
    13  H   -0.275466
    14  H   -0.275466
    15  H   -0.290481
    16  H   -0.290481
    17  H   -0.259993
    18  H   -0.259993
    19  H    0.269393
    20  H    0.269393
    21  H    0.269393
    22  H    0.269393
 Sum of Mulliken charges =  -0.00000

 Dipole moment (field-independent basis, Debye):
    X=             -0.0000    Y=              0.0000    Z=             -0.9949  Tot=              0.9949

 Test job not archived.
 1\1\GINC-SE169\SP\RHF\Aug-CC-pVDZ\C12H10\OHZDE\05-Apr-2025\0\\#t hf au
 g-cc-pvdz iop(5/13=1,5/36=2,99/5=2) pseudo=read geom=check guess=(read
 ,tcheck) scf=(maxcycle=1)\\title\\0,1\C,0,0.,2.417403,1.181934\C,0,0.,
 -2.417403,1.181934\C,0,0.,1.271044,1.944423\C,0,0.,-1.271044,1.944423\
 C,0,0.,2.386884,-0.235954\C,0,0.,-2.386884,-0.235954\C,0,0.,0.,1.31759
 2\C,0,0.,0.,-0.091156\C,0,0.,1.171139,-0.870305\C,0,0.,-1.171139,-0.87
 0305\C,0,0.,0.782271,-2.334961\C,0,0.,-0.782271,-2.334961\H,0,0.,3.379
 258,1.678463\H,0,0.,-3.379258,1.678463\H,0,0.,1.338083,3.024941\H,0,0.

 Normal termination of Gaussian 16 at Sat Apr  5 22:58:24 2025.
