 Gaussian 16, Revision C.01,

 ----------------------------------------------------------------------
 #t hf aug-cc-pvdz symm=none int=(grid=ultrafine) guess=(read,tcheck) s
 table=(opt,rrhf)
 ----------------------------------------------------------------------
 -----
 title
 -----
 Symbolic Z-matrix:
 Charge =  0 Multiplicity = 1

 SCF Done:  E(RHF) =  -459.119552830     A.U. after   16 cycles
 Normal termination of Gaussian 16 at Sat Apr  5 22:57:13 2025.
 Gaussian 16:  ES64L-G16RevC.01  3-Jul-2019

 ----------------------------------------------------------------------
 #t hf aug-cc-pvdz iop(5/13=1,5/36=2,99/5=2) pseudo=read geom=check gue
 ss=(read,tcheck) scf=(maxcycle=1)
 ----------------------------------------------------------------------
 -----
 title
 -----
 Structure from the checkpoint file:  "acenaphthylene.chk"
 Charge =  0 Multiplicity = 1

                         Standard orientation:
 ---------------------------------------------------------------------
 Center     Atomic      Atomic             Coordinates (Angstroms)
 Number     Number       Type             X           Y           Z
 ---------------------------------------------------------------------
      1          6           0       -0.000000    0.000000   -0.139949
      2          6           0        0.000000   -0.000000    1.250982
      3          6           0        0.000000    1.278325    1.873143
      4          6           0       -0.000000   -1.278325    1.873143
      5          6           0        0.000000    1.157671   -0.947530
      6          6           0       -0.000000   -1.157671   -0.947530
      7          6           0        0.000000    2.419948    1.100100
      8          6           0       -0.000000   -2.419948    1.100100
      9          6           0        0.000000    2.381426   -0.319988
     10          6           0       -0.000000   -2.381426   -0.319988
     11          6           0        0.000000    0.679125   -2.336932
     12          6           0       -0.000000   -0.679125   -2.336932
     13          1           0        0.000000    3.385258    1.589050
     14          1           0       -0.000000   -3.385258    1.589050
     15          1           0        0.000000    1.356296    2.952947
     16          1           0       -0.000000   -1.356296    2.952947
     17          1           0        0.000000    3.310213   -0.876427
     18          1           0       -0.000000   -3.310213   -0.876427
     19          1           0        0.000000    1.311632   -3.211425
     20          1           0       -0.000000   -1.311632   -3.211425
 ---------------------------------------------------------------------

 SCF Done:  E(RHF) =  -459.586866888     A.U. after    2 cycles

 The electronic state is 1-A1.
 Alpha  occ. eigenvalues --  -11.25504 -11.25492 -11.25128 -11.25128 -11.24721
 Alpha  occ. eigenvalues --  -11.24707 -11.24703 -11.24612 -11.24598 -11.24208
 Alpha  occ. eigenvalues --  -11.24195 -11.21921  -1.20483  -1.11709  -1.11529
 Alpha  occ. eigenvalues --   -1.01728  -0.99441  -0.98054  -0.88124  -0.85380
 Alpha  occ. eigenvalues --   -0.80493  -0.79439  -0.71964  -0.71129  -0.67315
 Alpha  occ. eigenvalues --   -0.64805  -0.62955  -0.60172  -0.60045  -0.57300
 Alpha  occ. eigenvalues --   -0.56296  -0.56182  -0.52736  -0.49750  -0.48873
 Alpha  occ. eigenvalues --   -0.46145  -0.45532  -0.33255  -0.31232  -0.31143
 Alpha virt. eigenvalues --    0.03192   0.03300   0.03313   0.03568   0.04191
 Alpha virt. eigenvalues --    0.04333   0.06750   0.06881   0.09071   0.09123
 Alpha virt. eigenvalues --    0.09776   0.10186   0.10562   0.11509   0.11990

 Mulliken charges:
               1
     1  C   -0.674791
     2  C    1.504420
     3  C    0.153680
     4  C    0.153680
     5  C    0.577576
     6  C    0.577576
     7  C   -0.338986
     8  C   -0.338986
     9  C    0.446273
    10  C    0.446273
    11  C   -0.175984
    12  C   -0.175984
    13  H   -0.277610
    14  H   -0.277610
    15  H   -0.290796
    16  H   -0.290796
    17  H   -0.227035
    18  H   -0.227035
    19  H   -0.281934
    20  H   -0.281934
 Sum of Mulliken charges =  -0.00000

 Dipole moment (field-independent basis, Debye):
    X=              0.0000    Y=             -0.0000    Z=              0.1982  Tot=              0.1982

 Test job not archived.
 1\1\GINC-SE155\SP\RHF\Aug-CC-pVDZ\C12H8\OHZDE\05-Apr-2025\0\\#t hf aug
 -cc-pvdz iop(5/13=1,5/36=2,99/5=2) pseudo=read geom=check guess=(read,
 tcheck) scf=(maxcycle=1)\\title\\0,1\C,0,0.,0.,-0.139949\C,0,0.,0.,1.2
 50982\C,0,0.,1.278325,1.873143\C,0,0.,-1.278325,1.873143\C,0,0.,1.1576
 71,-0.94753\C,0,0.,-1.157671,-0.94753\C,0,0.,2.419948,1.1001\C,0,0.,-2
 .419948,1.1001\C,0,0.,2.381426,-0.319988\C,0,0.,-2.381426,-0.319988\C,
 0,0.,0.679125,-2.336932\C,0,0.,-0.679125,-2.336932\H,0,0.,3.385258,1.5
 8905\H,0,0.,-3.385258,1.58905\H,0,0.,1.356296,2.952947\H,0,0.,-1.35629

 Normal termination of Gaussian 16 at Sat Apr  5 22:58:15 2025.
