 Gaussian 16, Revision C.01,

 ----------------------------------------------------------------------
 #t hf aug-cc-pvdz symm=none int=(grid=ultrafine) guess=(read,tcheck) s
 table=(opt,rrhf)
 ----------------------------------------------------------------------
 -----
 title
 -----
 Symbolic Z-matrix:
 Charge =  0 Multiplicity = 1

 SCF Done:  E(RHF) =  -382.520362625     A.U. after   15 cycles
 Normal termination of Gaussian 16 at Sat Apr  5 22:55:40 2025.
 Gaussian 16:  ES64L-G16RevC.01  3-Jul-2019

 ----------------------------------------------------------------------
 #t hf aug-cc-pvdz iop(5/13=1,5/36=2,99/5=2) pseudo=read geom=check gue
 ss=(read,tcheck) scf=(maxcycle=1)
 ----------------------------------------------------------------------
 -----
 title
 -----
 Structure from the checkpoint file:  "acetophenone.chk"
 Charge =  0 Multiplicity = 1

                         Standard orientation:
 ---------------------------------------------------------------------
 Center     Atomic      Atomic             Coordinates (Angstroms)
 Number     Number       Type             X           Y           Z
 ---------------------------------------------------------------------
      1          6           0        0.597275   -2.517032    0.000000
      2          6           0       -0.727050   -2.095954    0.000000
      3          6           0        1.625448   -1.577546    0.000000
      4          6           0       -1.024386   -0.738517    0.000000
      5          6           0        1.328876   -0.224101    0.000000
      6          6           0        0.000000    0.211798    0.000000
      7          6           0       -0.267977    1.685966    0.000000
      8          6           0       -1.703332    2.168927    0.000000
      9          8           0        0.649583    2.482840    0.000000
     10          1           0        0.828859   -3.573768    0.000000
     11          1           0       -1.527757   -2.822995    0.000000
     12          1           0        2.656503   -1.904436    0.000000
     13          1           0       -2.058803   -0.426121    0.000000
     14          1           0        2.113187    0.519224    0.000000
     15          1           0       -2.237541    1.804545    0.879154
     16          1           0       -2.237541    1.804545   -0.879154
     17          1           0       -1.706693    3.255036    0.000000
 ---------------------------------------------------------------------

 SCF Done:  E(RHF) =  -382.911944682     A.U. after    2 cycles

 The electronic state is 1-A'.
 Alpha  occ. eigenvalues --  -20.53244 -11.34289 -11.26148 -11.25937 -11.25411
 Alpha  occ. eigenvalues --  -11.25327 -11.25282 -11.25078 -11.24502  -1.46715
 Alpha  occ. eigenvalues --   -1.17159  -1.05849  -1.03193  -1.00211  -0.87506
 Alpha  occ. eigenvalues --   -0.84683  -0.77565  -0.72249  -0.66877  -0.66232
 Alpha  occ. eigenvalues --   -0.63854  -0.61368  -0.61196  -0.60657  -0.56249
 Alpha  occ. eigenvalues --   -0.53346  -0.53306  -0.51477  -0.49463  -0.41597
 Alpha  occ. eigenvalues --   -0.36034  -0.35580
 Alpha virt. eigenvalues --    0.02961   0.03278   0.03957   0.04801   0.04865
 Alpha virt. eigenvalues --    0.05799   0.06632   0.07248   0.08994   0.09180
 Alpha virt. eigenvalues --    0.09798   0.11068   0.11544   0.13183   0.13588

 Mulliken charges:
               1
     1  C   -0.041244
     2  C    0.080324
     3  C    0.308976
     4  C    0.347360
     5  C   -0.439236
     6  C    2.072424
     7  C    0.458496
     8  C   -0.604923
     9  O   -1.475063
    10  H   -0.224914
    11  H   -0.230572
    12  H   -0.224119
    13  H   -0.359542
    14  H   -0.311144
    15  H    0.306815
    16  H    0.306815
    17  H    0.029546
 Sum of Mulliken charges =  -0.00000

 Dipole moment (field-independent basis, Debye):
    X=             -2.0080    Y=             -2.5749    Z=              0.0000  Tot=              3.2652

 Test job not archived.
 1\1\GINC-SE221\SP\RHF\Aug-CC-pVDZ\C8H8O1\OHZDE\05-Apr-2025\0\\#t hf au
 g-cc-pvdz iop(5/13=1,5/36=2,99/5=2) pseudo=read geom=check guess=(read
 ,tcheck) scf=(maxcycle=1)\\title\\0,1\C,0,0.597274,-2.517032,0.\C,0,-0
 .727051,-2.095954,0.\C,0,1.625447,-1.577546,0.\C,0,-1.024386,-0.738517
 ,0.\C,0,1.328876,-0.224101,0.\C,0,0.,0.211798,0.\C,0,-0.267977,1.68596
 6,0.\C,0,-1.703331,2.168928,0.\O,0,0.649584,2.48284,0.\H,0,0.828858,-3
 .573768,0.\H,0,-1.527758,-2.822994,0.\H,0,2.656502,-1.904437,0.\H,0,-2
 .058803,-0.42612,0.\H,0,2.113187,0.519223,0.\H,0,-2.237541,1.804546,0.

 Normal termination of Gaussian 16 at Sat Apr  5 22:55:52 2025.
