 Gaussian 16, Revision C.01,

 ----------------------------------------------------------------------
 #t hf aug-cc-pvdz symm=none int=(grid=ultrafine) guess=(read,tcheck) s
 table=(opt,rrhf)
 ----------------------------------------------------------------------
 -----
 title
 -----
 Symbolic Z-matrix:
 Charge =  0 Multiplicity = 1

 SCF Done:  E(RHF) =  -251.832597723     A.U. after   13 cycles
 Normal termination of Gaussian 16 at Sat Apr  5 22:54:39 2025.
 Gaussian 16:  ES64L-G16RevC.01  3-Jul-2019

 ----------------------------------------------------------------------
 #t hf aug-cc-pvdz iop(5/13=1,5/36=2,99/5=2) pseudo=read geom=check gue
 ss=(read,tcheck) scf=(maxcycle=1)
 ----------------------------------------------------------------------
 -----
 title
 -----
 Structure from the checkpoint file:  "acetyl_fluoride.chk"
 Charge =  0 Multiplicity = 1

                         Standard orientation:
 ---------------------------------------------------------------------
 Center     Atomic      Atomic             Coordinates (Angstroms)
 Number     Number       Type             X           Y           Z
 ---------------------------------------------------------------------
      1          6           0        0.000000    0.188237    0.000000
      2          6           0        1.066415   -0.856832    0.000000
      3          8           0        0.099011    1.365638    0.000000
      4          9           0       -1.237794   -0.393574    0.000000
      5          1           0        2.044346   -0.386602    0.000000
      6          1           0        0.952609   -1.492385    0.878134
      7          1           0        0.952609   -1.492385   -0.878134
 ---------------------------------------------------------------------

 SCF Done:  E(RHF) =  -252.075939468     A.U. after    2 cycles

 The electronic state is 1-A'.
 Alpha  occ. eigenvalues --  -26.49171 -20.57383 -11.43851 -11.27859  -1.63281
 Alpha  occ. eigenvalues --   -1.51207  -1.05639  -0.83744  -0.72925  -0.72097
 Alpha  occ. eigenvalues --   -0.70687  -0.61888  -0.60892  -0.58722  -0.53003
 Alpha  occ. eigenvalues --   -0.48331
 Alpha virt. eigenvalues --    0.03073   0.04938   0.05318   0.07952   0.11518
 Alpha virt. eigenvalues --    0.11631   0.12023   0.14415   0.14572   0.14929
 Alpha virt. eigenvalues --    0.15303   0.20122   0.23783   0.24665   0.26688

 Mulliken charges:
               1
     1  C    1.546432
     2  C   -0.452242
     3  O   -1.019212
     4  F   -0.710621
     5  H    0.164296
     6  H    0.235673
     7  H    0.235673
 Sum of Mulliken charges =  -0.00000

 Dipole moment (field-independent basis, Debye):
    X=              1.8576    Y=             -2.5811    Z=              0.0000  Tot=              3.1800

 Test job not archived.
 1\1\GINC-SE209\SP\RHF\Aug-CC-pVDZ\C2H3F1O1\OHZDE\05-Apr-2025\0\\#t hf
 aug-cc-pvdz iop(5/13=1,5/36=2,99/5=2) pseudo=read geom=check guess=(re
 ad,tcheck) scf=(maxcycle=1)\\title\\0,1\C,0,0.,0.188237,0.\C,0,1.06641
 4,-0.856833,0.\O,0,0.099012,1.365638,0.\F,0,-1.237794,-0.393573,0.\H,0
 ,2.044346,-0.386604,0.\H,0,0.952608,-1.492386,0.878134\H,0,0.952608,-1
 .492386,-0.878134\\Version=ES64L-G16RevC.01\State=1-A'\HF=-252.0759395
 \RMSD=8.545e-03\Dipole=0.7308365,-1.0154667,0.\Quadrupole=0.2024218,-1
 .5645718,1.36215,-1.2280606,0.,0.\PG=CS [SG(C2H1F1O1),X(H2)]\\@

 Normal termination of Gaussian 16 at Sat Apr  5 22:54:41 2025.
