 Gaussian 16, Revision C.01,

 ----------------------------------------------------------------------
 #t hf aug-cc-pvdz symm=none int=(grid=ultrafine) guess=(read,tcheck) s
 table=(opt,rrhf)
 ----------------------------------------------------------------------
 -----
 title
 -----
 Symbolic Z-matrix:
 Charge =  0 Multiplicity = 1

 SCF Done:  E(RHF) =  -131.870647955     A.U. after   13 cycles
 Normal termination of Gaussian 16 at Sat Apr  5 22:54:38 2025.
 Gaussian 16:  ES64L-G16RevC.01  3-Jul-2019

 ----------------------------------------------------------------------
 #t hf aug-cc-pvdz iop(5/13=1,5/36=2,99/5=2) pseudo=read geom=check gue
 ss=(read,tcheck) scf=(maxcycle=1)
 ----------------------------------------------------------------------
 -----
 title
 -----
 Structure from the checkpoint file:  "acetylenamine.chk"
 Charge =  0 Multiplicity = 1

                         Standard orientation:
 ---------------------------------------------------------------------
 Center     Atomic      Atomic             Coordinates (Angstroms)
 Number     Number       Type             X           Y           Z
 ---------------------------------------------------------------------
      1          7           0        0.090626   -1.183995   -0.000000
      2          6           0        0.000000    0.161705    0.000000
      3          6           0       -0.019053    1.362621    0.000000
      4          1           0       -0.239895   -1.640016    0.837356
      5          1           0       -0.239895   -1.640016   -0.837356
      6          1           0       -0.040274    2.422038    0.000000
 ---------------------------------------------------------------------

 SCF Done:  E(RHF) =  -132.009970187     A.U. after    2 cycles

 The electronic state is 1-A'.
 Alpha  occ. eigenvalues --  -15.53730 -11.27176 -11.22220  -1.23304  -1.00730
 Alpha  occ. eigenvalues --   -0.79170  -0.74285  -0.69772  -0.56146  -0.40383
 Alpha  occ. eigenvalues --   -0.36604
 Alpha virt. eigenvalues --    0.02675   0.04634   0.05808   0.10673   0.11904
 Alpha virt. eigenvalues --    0.12019   0.12941   0.14275   0.16025   0.17010
 Alpha virt. eigenvalues --    0.18533   0.19280   0.20823   0.23270   0.26332

 Mulliken charges:
               1
     1  N    0.502485
     2  C   -1.333691
     3  C    0.868268
     4  H    0.107942
     5  H    0.107942
     6  H   -0.252947
 Sum of Mulliken charges =   0.00000

 Dipole moment (field-independent basis, Debye):
    X=             -1.0569    Y=             -1.2208    Z=              0.0000  Tot=              1.6147

 Test job not archived.
 1\1\GINC-SE210\SP\RHF\Aug-CC-pVDZ\C2H3N1\OHZDE\05-Apr-2025\0\\#t hf au
 g-cc-pvdz iop(5/13=1,5/36=2,99/5=2) pseudo=read geom=check guess=(read
 ,tcheck) scf=(maxcycle=1)\\title\\0,1\N,0,0.090626,-1.183995,0.\C,0,0.
 ,0.161705,0.\C,0,-0.019053,1.362621,0.\H,0,-0.239895,-1.640016,0.83735
 6\H,0,-0.239895,-1.640016,-0.837356\H,0,-0.040274,2.422038,0.\\Version
 =ES64L-G16RevC.01\State=1-A'\HF=-132.0099702\RMSD=2.821e-02\Dipole=-0.
 415822,-0.4802859,0.\Quadrupole=-3.1784695,3.6904273,-0.5119579,1.4397
 623,0.,0.\PG=CS [SG(C2H1N1),X(H2)]\\@

 Normal termination of Gaussian 16 at Sat Apr  5 22:54:39 2025.
