 Gaussian 16, Revision C.01,

 ----------------------------------------------------------------------
 #t hf aug-cc-pvdz symm=none int=(grid=ultrafine) guess=(read,tcheck) s
 table=(opt,rrhf)
 ----------------------------------------------------------------------
 -----
 title
 -----
 Symbolic Z-matrix:
 Charge =  0 Multiplicity = 1

 SCF Done:  E(RHF) =  -474.362011413     A.U. after   13 cycles
 Normal termination of Gaussian 16 at Sat Apr  5 22:54:38 2025.
 Gaussian 16:  ES64L-G16RevC.01  3-Jul-2019

 ----------------------------------------------------------------------
 #t hf aug-cc-pvdz iop(5/13=1,5/36=2,99/5=2) pseudo=read geom=check gue
 ss=(read,tcheck) scf=(maxcycle=1)
 ----------------------------------------------------------------------
 -----
 title
 -----
 Structure from the checkpoint file:  "acetylenethiol.chk"
 Charge =  0 Multiplicity = 1

                         Standard orientation:
 ---------------------------------------------------------------------
 Center     Atomic      Atomic             Coordinates (Angstroms)
 Number     Number       Type             X           Y           Z
 ---------------------------------------------------------------------
      1         16           0        1.039913   -0.088153   -0.000004
      2          6           0       -0.650468    0.025724    0.000041
      3          6           0       -1.852794    0.003642   -0.000042
      4          1           0        1.294484    1.236611   -0.000009
      5          1           0       -2.913523   -0.002355    0.000079
 ---------------------------------------------------------------------

 SCF Done:  E(RHF) =  -474.498769275     A.U. after    2 cycles

 The electronic state is 1-A.
 Alpha  occ. eigenvalues --  -93.99744 -11.27457 -11.25348  -8.27719  -6.25594
 Alpha  occ. eigenvalues --   -6.25420  -6.25180  -1.10692  -1.00247  -0.74408
 Alpha  occ. eigenvalues --   -0.65992  -0.55416  -0.49154  -0.41490  -0.36089
 Alpha virt. eigenvalues --    0.03551   0.04244   0.07582   0.09092   0.09931
 Alpha virt. eigenvalues --    0.10847   0.13640   0.14064   0.15059   0.16046
 Alpha virt. eigenvalues --    0.16531   0.16784   0.18629   0.22780   0.22848

 Mulliken charges:
               1
     1  S   -0.027412
     2  C   -0.016952
     3  C    0.011812
     4  H    0.306697
     5  H   -0.274145
 Sum of Mulliken charges =  -0.00000

 Dipole moment (field-independent basis, Debye):
    X=             -0.2159    Y=              0.9275    Z=              0.0001  Tot=              0.9523

 Test job not archived.
 1\1\GINC-SE211\SP\RHF\Aug-CC-pVDZ\C2H2S1\OHZDE\05-Apr-2025\0\\#t hf au
 g-cc-pvdz iop(5/13=1,5/36=2,99/5=2) pseudo=read geom=check guess=(read
 ,tcheck) scf=(maxcycle=1)\\title\\0,1\S,0,1.039913,-0.088153,-0.000004
 \C,0,-0.650468,0.025724,0.000041\C,0,-1.852794,0.003642,-0.000042\H,0,
 1.294484,1.236611,-0.000009\H,0,-2.913523,-0.002355,0.000079\\Version=
 ES64L-G16RevC.01\State=1-A\HF=-474.4987693\RMSD=2.511e-02\Dipole=-0.08
 49595,0.3649233,0.0000461\Quadrupole=3.6993697,-0.4624975,-3.2368722,1
 .3804729,-0.0003209,-0.0000151\PG=C01 [X(C2H2S1)]\\@

 Normal termination of Gaussian 16 at Sat Apr  5 22:54:40 2025.
