 Gaussian 16, Revision C.01,

 ----------------------------------------------------------------------
 #t hf aug-cc-pvdz symm=none int=(grid=ultrafine) guess=(read,tcheck) s
 table=(opt,rrhf)
 ----------------------------------------------------------------------
 -----
 title
 -----
 Symbolic Z-matrix:
 Charge =  0 Multiplicity = 1

 SCF Done:  E(RHF) =  -227.849661643     A.U. after   13 cycles
 Normal termination of Gaussian 16 at Sat Apr  5 22:54:40 2025.
 Gaussian 16:  ES64L-G16RevC.01  3-Jul-2019

 ----------------------------------------------------------------------
 #t hf aug-cc-pvdz iop(5/13=1,5/36=2,99/5=2) pseudo=read geom=check gue
 ss=(read,tcheck) scf=(maxcycle=1)
 ----------------------------------------------------------------------
 -----
 title
 -----
 Structure from the checkpoint file:  "acetic_acid.chk"
 Charge =  0 Multiplicity = 1

                         Standard orientation:
 ---------------------------------------------------------------------
 Center     Atomic      Atomic             Coordinates (Angstroms)
 Number     Number       Type             X           Y           Z
 ---------------------------------------------------------------------
      1          6           0       -0.000000    0.155267    0.000000
      2          6           0        1.069205   -0.899340    0.000000
      3          8           0        0.178355    1.345599    0.000000
      4          8           0       -1.241854   -0.392585    0.000000
      5          1           0        0.960615   -1.536193    0.877879
      6          1           0        0.960615   -1.536193   -0.877879
      7          1           0        2.046305   -0.427879    0.000000
      8          1           0       -1.874777    0.340589    0.000000
 ---------------------------------------------------------------------

 SCF Done:  E(RHF) =  -228.078712110     A.U. after    2 cycles

 The electronic state is 1-A'.
 Alpha  occ. eigenvalues --  -20.60217 -20.54098 -11.39918 -11.25764  -1.54918
 Alpha  occ. eigenvalues --   -1.45451  -1.03540  -0.82744  -0.71166  -0.68742
 Alpha  occ. eigenvalues --   -0.65355  -0.58540  -0.58064  -0.56407  -0.47843
 Alpha  occ. eigenvalues --   -0.44839
 Alpha virt. eigenvalues --    0.03464   0.04572   0.05301   0.06002   0.09851
 Alpha virt. eigenvalues --    0.11692   0.11765   0.14076   0.15188   0.15565
 Alpha virt. eigenvalues --    0.16291   0.16692   0.19626   0.21413   0.23171

 Mulliken charges:
               1
     1  C    1.797997
     2  C   -0.476877
     3  O   -1.149089
     4  O   -1.157917
     5  H    0.223959
     6  H    0.223959
     7  H    0.177358
     8  H    0.360609
 Sum of Mulliken charges =   0.00000

 Dipole moment (field-independent basis, Debye):
    X=             -0.2300    Y=             -1.8775    Z=             -0.0000  Tot=              1.8915

 Test job not archived.
 1\1\GINC-SE206\SP\RHF\Aug-CC-pVDZ\C2H4O2\OHZDE\05-Apr-2025\0\\#t hf au
 g-cc-pvdz iop(5/13=1,5/36=2,99/5=2) pseudo=read geom=check guess=(read
 ,tcheck) scf=(maxcycle=1)\\title\\0,1\C,0,0.,0.155267,0.\C,0,1.069204,
 -0.899341,0.\O,0,0.178356,1.345599,0.\O,0,-1.241854,-0.392584,0.\H,0,0
 .960614,-1.536194,0.877879\H,0,0.960614,-1.536194,-0.877879\H,0,2.0463
 05,-0.427881,0.\H,0,-1.874777,0.34059,0.\\Version=ES64L-G16RevC.01\Sta
 te=1-A'\HF=-228.0787121\RMSD=1.018e-02\Dipole=-0.0905036,-0.7386509,0.
 \Quadrupole=2.6764343,-2.9903464,0.3139121,-2.9452444,0.,0.\PG=CS [SG(

 Normal termination of Gaussian 16 at Sat Apr  5 22:54:42 2025.
