 Gaussian 16, Revision C.01,

 ----------------------------------------------------------------------
 #t hf aug-cc-pvdz symm=none int=(grid=ultrafine) guess=(read,tcheck) s
 table=(opt,rrhf)
 ----------------------------------------------------------------------
 -----
 title
 -----
 Symbolic Z-matrix:
 Charge =  0 Multiplicity = 1

 SCF Done:  E(RHF) =  -207.921413437     A.U. after   13 cycles
 Normal termination of Gaussian 16 at Sat Apr  5 22:54:40 2025.
 Gaussian 16:  ES64L-G16RevC.01  3-Jul-2019

 ----------------------------------------------------------------------
 #t hf aug-cc-pvdz iop(5/13=1,5/36=2,99/5=2) pseudo=read geom=check gue
 ss=(read,tcheck) scf=(maxcycle=1)
 ----------------------------------------------------------------------
 -----
 title
 -----
 Structure from the checkpoint file:  "acetaldoxime.chk"
 Charge =  0 Multiplicity = 1

                         Standard orientation:
 ---------------------------------------------------------------------
 Center     Atomic      Atomic             Coordinates (Angstroms)
 Number     Number       Type             X           Y           Z
 ---------------------------------------------------------------------
      1          6           0       -1.285321    1.316376    0.000000
      2          6           0        0.000000    0.560718    0.000000
      3          7           0       -0.003088   -0.706431    0.000000
      4          8           0        1.307613   -1.225774    0.000000
      5          1           0        1.160285   -2.176767    0.000000
      6          1           0       -2.132483    0.633899    0.000000
      7          1           0       -1.349609    1.963012    0.878124
      8          1           0       -1.349609    1.963012   -0.878124
      9          1           0        0.944054    1.105492    0.000000
 ---------------------------------------------------------------------

 SCF Done:  E(RHF) =  -208.136009673     A.U. after    2 cycles

 The electronic state is 1-A'.
 Alpha  occ. eigenvalues --  -20.58092 -15.55995 -11.28378 -11.24596  -1.49252
 Alpha  occ. eigenvalues --   -1.18780  -0.99334  -0.79097  -0.73029  -0.66921
 Alpha  occ. eigenvalues --   -0.61587  -0.58010  -0.56916  -0.55487  -0.46920
 Alpha  occ. eigenvalues --   -0.40744
 Alpha virt. eigenvalues --    0.03775   0.04900   0.05104   0.05372   0.06815
 Alpha virt. eigenvalues --    0.10291   0.10706   0.13048   0.14813   0.16161
 Alpha virt. eigenvalues --    0.16307   0.16672   0.16869   0.18371   0.19694

 Mulliken charges:
               1
     1  C   -0.495914
     2  C   -0.534854
     3  N    1.192581
     4  O   -1.090692
     5  H    0.307081
     6  H    0.179880
     7  H    0.214959
     8  H    0.214959
     9  H    0.011999
 Sum of Mulliken charges =  -0.00000

 Dipole moment (field-independent basis, Debye):
    X=             -0.4249    Y=              1.3310    Z=              0.0000  Tot=              1.3972

 Test job not archived.
 1\1\GINC-SE154\SP\RHF\Aug-CC-pVDZ\C2H5N1O1\OHZDE\05-Apr-2025\0\\#t hf
 aug-cc-pvdz iop(5/13=1,5/36=2,99/5=2) pseudo=read geom=check guess=(re
 ad,tcheck) scf=(maxcycle=1)\\title\\0,1\C,0,-1.285321,1.316376,0.\C,0,
 0.,0.560718,0.\N,0,-0.003088,-0.706431,0.\O,0,1.307613,-1.225774,0.\H,
 0,1.160285,-2.176767,0.\H,0,-2.132483,0.633899,0.\H,0,-1.349609,1.9630
 12,0.878124\H,0,-1.349609,1.963012,-0.878124\H,0,0.944054,1.105492,0.\
 \Version=ES64L-G16RevC.01\State=1-A'\HF=-208.1360097\RMSD=1.683e-02\Di
 pole=-0.1671528,0.5236575,0.\Quadrupole=-1.6520173,3.448537,-1.7965198

 Normal termination of Gaussian 16 at Sat Apr  5 22:54:42 2025.
