 Gaussian 16, Revision C.01,

 ----------------------------------------------------------------------
 #t hf aug-cc-pvdz symm=none int=(grid=ultrafine) guess=(read,tcheck) s
 table=(opt,rrhf)
 ----------------------------------------------------------------------
 -----
 title
 -----
 Symbolic Z-matrix:
 Charge =  0 Multiplicity = 1

 SCF Done:  E(RHF) =  -131.943651182     A.U. after   11 cycles
 Normal termination of Gaussian 16 at Sat Apr  5 22:54:40 2025.
 Gaussian 16:  ES64L-G16RevC.01  3-Jul-2019

 ----------------------------------------------------------------------
 #t hf aug-cc-pvdz iop(5/13=1,5/36=2,99/5=2) pseudo=read geom=check gue
 ss=(read,tcheck) scf=(maxcycle=1)
 ----------------------------------------------------------------------
 -----
 title
 -----
 Structure from the checkpoint file:  "acetonitrile.chk"
 Charge =  0 Multiplicity = 1

                         Standard orientation:
 ---------------------------------------------------------------------
 Center     Atomic      Atomic             Coordinates (Angstroms)
 Number     Number       Type             X           Y           Z
 ---------------------------------------------------------------------
      1          6           0        0.000000    0.280675    0.000000
      2          6           0        0.000000   -1.174129    0.000000
      3          7           0        0.000000    1.430070    0.000000
      4          1           0       -1.022452   -1.549923    0.000000
      5          1           0        0.511226   -1.549923    0.885470
      6          1           0        0.511226   -1.549923   -0.885470
 ---------------------------------------------------------------------

 SCF Done:  E(RHF) =  -132.078482558     A.U. after    2 cycles

 The electronic state is 1-A'.
 Alpha  occ. eigenvalues --  -15.51213 -11.29606 -11.28467  -1.23631  -1.04853
 Alpha  occ. eigenvalues --   -0.71144  -0.64005  -0.64005  -0.60128  -0.49686
 Alpha  occ. eigenvalues --   -0.49686
 Alpha virt. eigenvalues --    0.02736   0.04873   0.04873   0.06885   0.11811
 Alpha virt. eigenvalues --    0.12993   0.12993   0.13914   0.13914   0.14956
 Alpha virt. eigenvalues --    0.17364   0.17364   0.21134   0.24037   0.25011

 Mulliken charges:
               1
     1  C   -1.324873
     2  C   -0.049704
     3  N    0.693917
     4  H    0.226886
     5  H    0.226887
     6  H    0.226887
 Sum of Mulliken charges =   0.00000

 Dipole moment (field-independent basis, Debye):
    X=             -0.0000    Y=             -4.7649    Z=              0.0000  Tot=              4.7649

 Test job not archived.
 1\1\GINC-SE220\SP\RHF\Aug-CC-pVDZ\C2H3N1\OHZDE\05-Apr-2025\0\\#t hf au
 g-cc-pvdz iop(5/13=1,5/36=2,99/5=2) pseudo=read geom=check guess=(read
 ,tcheck) scf=(maxcycle=1)\\title\\0,1\C,0,0.,0.,0.280675\C,0,0.,0.,-1.
 174129\N,0,0.,0.,1.43007\H,0,0.,1.022452,-1.549923\H,0,-0.88547,-0.511
 226,-1.549923\H,0,0.88547,-0.511226,-1.549923\\Version=ES64L-G16RevC.0
 1\State=1-A'\HF=-132.0784826\RMSD=2.214e-02\Dipole=0.,0.0000001,-1.874
 6681\Quadrupole=0.9141276,0.9141256,-1.8282532,0.,0.,-0.0000005\PG=CS
 [SG(C2H1N1),X(H2)]\\@

 Normal termination of Gaussian 16 at Sat Apr  5 22:54:42 2025.
