 Gaussian 16, Revision C.01,

 ----------------------------------------------------------------------
 #t hf aug-cc-pvdz symm=none int=(grid=ultrafine) guess=(read,tcheck) s
 table=(opt,rrhf)
 ----------------------------------------------------------------------
 -----
 title
 -----
 Symbolic Z-matrix:
 Charge =  0 Multiplicity = 1

 SCF Done:  E(RHF) =  -611.878206649     A.U. after   13 cycles
 Normal termination of Gaussian 16 at Sat Apr  5 22:54:39 2025.
 Gaussian 16:  ES64L-G16RevC.01  3-Jul-2019

 ----------------------------------------------------------------------
 #t hf aug-cc-pvdz iop(5/13=1,5/36=2,99/5=2) pseudo=read geom=check gue
 ss=(read,tcheck) scf=(maxcycle=1)
 ----------------------------------------------------------------------
 -----
 title
 -----
 Structure from the checkpoint file:  "acetyl_chloride.chk"
 Charge =  0 Multiplicity = 1

                         Standard orientation:
 ---------------------------------------------------------------------
 Center     Atomic      Atomic             Coordinates (Angstroms)
 Number     Number       Type             X           Y           Z
 ---------------------------------------------------------------------
      1          6           0        0.000000    0.543632    0.000000
      2          6           0        1.484355    0.734756    0.000000
      3          8           0       -0.843840    1.368109    0.000000
      4         17           0       -0.452456   -1.230552    0.000000
      5          1           0        1.710473    1.798078    0.000000
      6          1           0        1.912935    0.253054    0.877971
      7          1           0        1.912935    0.253054   -0.877971
 ---------------------------------------------------------------------

 SCF Done:  E(RHF) =  -612.107161556     A.U. after    2 cycles

 The electronic state is 1-A'.
 Alpha  occ. eigenvalues -- -105.57586 -20.58980 -11.42611 -11.28146 -10.62456
 Alpha  occ. eigenvalues --   -7.79369  -7.79011  -7.78994  -1.53954  -1.10562
 Alpha  occ. eigenvalues --   -1.02627  -0.78558  -0.68819  -0.68132  -0.65305
 Alpha  occ. eigenvalues --   -0.59352  -0.55930  -0.47683  -0.47421  -0.45309
 Alpha virt. eigenvalues --    0.03171   0.05019   0.05246   0.07854   0.09822
 Alpha virt. eigenvalues --    0.11204   0.12141   0.13254   0.13552   0.14108
 Alpha virt. eigenvalues --    0.14547   0.16234   0.18309   0.18577   0.19763

 Mulliken charges:
               1
     1  C    0.653572
     2  C   -0.221414
     3  O   -1.002530
     4  Cl  -0.114495
     5  H    0.170006
     6  H    0.257430
     7  H    0.257430
 Sum of Mulliken charges =   0.00000

 Dipole moment (field-independent basis, Debye):
    X=              3.0224    Y=              0.3304    Z=             -0.0000  Tot=              3.0405

 Test job not archived.
 1\1\GINC-SE223\SP\RHF\Aug-CC-pVDZ\C2H3Cl1O1\OHZDE\05-Apr-2025\0\\#t hf
  aug-cc-pvdz iop(5/13=1,5/36=2,99/5=2) pseudo=read geom=check guess=(r
 ead,tcheck) scf=(maxcycle=1)\\title\\0,1\C,0,0.,0.543632,0.\C,0,1.4843
 55,0.734756,0.\O,0,-0.84384,1.368109,0.\Cl,0,-0.452456,-1.230552,0.\H,
 0,1.710473,1.798078,0.\H,0,1.912935,0.253054,0.877971\H,0,1.912935,0.2
 53054,-0.877971\\Version=ES64L-G16RevC.01\State=1-A'\HF=-612.1071616\R
 MSD=8.229e-03\Dipole=1.18912,0.1300075,0.\Quadrupole=0.8750391,-1.5948
 223,0.7197833,2.1913428,0.,0.\PG=CS [SG(C2H1Cl1O1),X(H2)]\\@

 Normal termination of Gaussian 16 at Sat Apr  5 22:54:42 2025.
