 Gaussian 16, Revision C.01,

 ----------------------------------------------------------------------
 #t hf aug-cc-pvdz symm=none int=(grid=ultrafine) guess=(read,tcheck) s
 table=(opt,rrhf)
 ----------------------------------------------------------------------
 -----
 title
 -----
 Symbolic Z-matrix:
 Charge =  0 Multiplicity = 1

 SCF Done:  E(RHF) =  -191.988840535     A.U. after   13 cycles
 Normal termination of Gaussian 16 at Sat Apr  5 22:54:42 2025.
 Gaussian 16:  ES64L-G16RevC.01  3-Jul-2019

 ----------------------------------------------------------------------
 #t hf aug-cc-pvdz iop(5/13=1,5/36=2,99/5=2) pseudo=read geom=check gue
 ss=(read,tcheck) scf=(maxcycle=1)
 ----------------------------------------------------------------------
 -----
 title
 -----
 Structure from the checkpoint file:  "acetone.chk"
 Charge =  0 Multiplicity = 1

                         Standard orientation:
 ---------------------------------------------------------------------
 Center     Atomic      Atomic             Coordinates (Angstroms)
 Number     Number       Type             X           Y           Z
 ---------------------------------------------------------------------
      1          6           0        0.000000    0.184262   -0.000004
      2          6           0        1.287739   -0.611432   -0.001319
      3          6           0       -1.287736   -0.611435    0.001318
      4          8           0       -0.000003    1.394523    0.000000
      5          1           0        1.360865   -1.200217    0.916077
      6          1           0        1.300040   -1.319506   -0.832407
      7          1           0        2.141095    0.057451   -0.072065
      8          1           0       -2.141098    0.057436    0.072061
      9          1           0       -1.300032   -1.319486    0.832420
     10          1           0       -1.360868   -1.200234   -0.916065
 ---------------------------------------------------------------------

 SCF Done:  E(RHF) =  -192.190588420     A.U. after    2 cycles

 The electronic state is 1-A.
 Alpha  occ. eigenvalues --  -20.53357 -11.34038 -11.24545 -11.24534  -1.46816
 Alpha  occ. eigenvalues --   -1.04979  -0.97154  -0.75020  -0.65318  -0.64402
 Alpha  occ. eigenvalues --   -0.62971  -0.56712  -0.56629  -0.54523  -0.48843
 Alpha  occ. eigenvalues --   -0.41030
 Alpha virt. eigenvalues --    0.03184   0.04229   0.04405   0.05742   0.07210
 Alpha virt. eigenvalues --    0.07412   0.09407   0.12529   0.12940   0.14857
 Alpha virt. eigenvalues --    0.15178   0.15476   0.15559   0.15953   0.17341

 Mulliken charges:
               1
     1  C    0.878904
     2  C   -0.392107
     3  C   -0.392080
     4  O   -1.257382
     5  H    0.239857
     6  H    0.236406
     7  H    0.105079
     8  H    0.105072
     9  H    0.236401
    10  H    0.239851
 Sum of Mulliken charges =  -0.00000

 Dipole moment (field-independent basis, Debye):
    X=              0.0000    Y=             -3.2391    Z=              0.0000  Tot=              3.2391

 Test job not archived.
 1\1\GINC-SE203\SP\RHF\Aug-CC-pVDZ\C3H6O1\OHZDE\05-Apr-2025\0\\#t hf au
 g-cc-pvdz iop(5/13=1,5/36=2,99/5=2) pseudo=read geom=check guess=(read
 ,tcheck) scf=(maxcycle=1)\\title\\0,1\C,0,0.,0.184262,-0.000004\C,0,1.
 287739,-0.611432,-0.001319\C,0,-1.287736,-0.611435,0.001318\O,0,-0.000
 003,1.394523,0.\H,0,1.360865,-1.200218,0.916077\H,0,1.30004,-1.319506,
 -0.832407\H,0,2.141095,0.05745,-0.072065\H,0,-2.141098,0.057436,0.0720
 61\H,0,-1.300032,-1.319486,0.83242\H,0,-1.360868,-1.200234,-0.916065\\
 Version=ES64L-G16RevC.01\State=1-A\HF=-192.1905884\RMSD=9.262e-03\Dipo

 Normal termination of Gaussian 16 at Sat Apr  5 22:54:45 2025.
