 Gaussian 16, Revision C.01,

 ----------------------------------------------------------------------
 #t hf aug-cc-pvdz symm=none int=(grid=ultrafine) guess=(read,tcheck) s
 table=(opt,rrhf)
 ----------------------------------------------------------------------
 -----
 title
 -----
 Symbolic Z-matrix:
 Charge =  0 Multiplicity = 1

 SCF Done:  E(RHF) =  -152.938907546     A.U. after   12 cycles
 Normal termination of Gaussian 16 at Sat Apr  5 22:54:38 2025.
 Gaussian 16:  ES64L-G16RevC.01  3-Jul-2019

 ----------------------------------------------------------------------
 #t hf aug-cc-pvdz iop(5/13=1,5/36=2,99/5=2) pseudo=read geom=check gue
 ss=(read,tcheck) scf=(maxcycle=1)
 ----------------------------------------------------------------------
 -----
 title
 -----
 Structure from the checkpoint file:  "acetaldehyde.chk"
 Charge =  0 Multiplicity = 1

                         Standard orientation:
 ---------------------------------------------------------------------
 Center     Atomic      Atomic             Coordinates (Angstroms)
 Number     Number       Type             X           Y           Z
 ---------------------------------------------------------------------
      1          6           0       -0.000000    0.459417    0.000000
      2          6           0        0.930230   -0.717881    0.000000
      3          8           0       -1.202256    0.385590    0.000000
      4          1           0        0.496537    1.452118    0.000000
      5          1           0        1.581866   -0.666235    0.876217
      6          1           0        0.376395   -1.653588    0.000000
      7          1           0        1.581866   -0.666235   -0.876217
 ---------------------------------------------------------------------

 SCF Done:  E(RHF) =  -153.096388940     A.U. after    2 cycles

 The electronic state is 1-A'.
 Alpha  occ. eigenvalues --  -20.54862 -11.34623 -11.25292  -1.47947  -1.02894
 Alpha  occ. eigenvalues --   -0.80892  -0.68291  -0.63202  -0.61155  -0.56788
 Alpha  occ. eigenvalues --   -0.50608  -0.42144
 Alpha virt. eigenvalues --    0.03288   0.04365   0.04974   0.06354   0.10393
 Alpha virt. eigenvalues --    0.10592   0.11812   0.14330   0.15361   0.15444
 Alpha virt. eigenvalues --    0.15511   0.16010   0.20292   0.25310   0.25326

 Mulliken charges:
               1
     1  C    0.912671
     2  C   -0.542141
     3  O   -1.057920
     4  H    0.131913
     5  H    0.210158
     6  H    0.135161
     7  H    0.210158
 Sum of Mulliken charges =  -0.00000

 Dipole moment (field-independent basis, Debye):
    X=              3.0647    Y=             -0.2653    Z=              0.0000  Tot=              3.0762

 Test job not archived.
 1\1\GINC-SE153\SP\RHF\Aug-CC-pVDZ\C2H4O1\OHZDE\05-Apr-2025\0\\#t hf au
 g-cc-pvdz iop(5/13=1,5/36=2,99/5=2) pseudo=read geom=check guess=(read
 ,tcheck) scf=(maxcycle=1)\\title\\0,1\C,0,0.,0.459417,0.\C,0,0.930231,
 -0.71788,0.\O,0,-1.202256,0.38559,0.\H,0,0.496537,1.452118,0.\H,0,1.58
 1867,-0.666234,0.876217\H,0,0.376396,-1.653588,0.\H,0,1.581867,-0.6662
 34,-0.876217\\Version=ES64L-G16RevC.01\State=1-A'\HF=-153.0963889\RMSD
 =9.002e-03\Dipole=1.205753,-0.1043788,0.\Quadrupole=-1.7561235,0.99353
 21,0.7625913,0.7051105,0.,0.\PG=CS [SG(C2H2O1),X(H2)]\\@

 Normal termination of Gaussian 16 at Sat Apr  5 22:54:40 2025.
