 Gaussian 16, Revision C.01,

 ----------------------------------------------------------------------
 #t hf aug-cc-pvdz symm=none int=(grid=ultrafine) guess=(read,tcheck) s
 table=(opt,rrhf)
 ----------------------------------------------------------------------
 -----
 title
 -----
 Symbolic Z-matrix:
 Charge =  0 Multiplicity = 1

 SCF Done:  E(RHF) =  -208.012593552     A.U. after   13 cycles
 Normal termination of Gaussian 16 at Sat Apr  5 22:54:41 2025.
 Gaussian 16:  ES64L-G16RevC.01  3-Jul-2019

 ----------------------------------------------------------------------
 #t hf aug-cc-pvdz iop(5/13=1,5/36=2,99/5=2) pseudo=read geom=check gue
 ss=(read,tcheck) scf=(maxcycle=1)
 ----------------------------------------------------------------------
 -----
 title
 -----
 Structure from the checkpoint file:  "acetamide.chk"
 Charge =  0 Multiplicity = 1

                         Standard orientation:
 ---------------------------------------------------------------------
 Center     Atomic      Atomic             Coordinates (Angstroms)
 Number     Number       Type             X           Y           Z
 ---------------------------------------------------------------------
      1          6           0       -0.074379    0.144688   -0.000004
      2          6           0        1.359129   -0.348133   -0.000001
      3          7           0       -1.037040   -0.821835    0.000088
      4          8           0       -0.350668    1.329673   -0.000014
      5          1           0        1.862975    0.053388   -0.878184
      6          1           0        1.862897    0.053118    0.878352
      7          1           0        1.450574   -1.433311   -0.000159
      8          1           0       -2.001439   -0.536726   -0.000165
      9          1           0       -0.818879   -1.800341   -0.000316
 ---------------------------------------------------------------------

 SCF Done:  E(RHF) =  -208.226903839     A.U. after    2 cycles

 The electronic state is 1-A.
 Alpha  occ. eigenvalues --  -20.50408 -15.52955 -11.36101 -11.24913  -1.45459
 Alpha  occ. eigenvalues --   -1.22348  -1.01178  -0.83362  -0.76129  -0.67910
 Alpha  occ. eigenvalues --   -0.62662  -0.59463  -0.57267  -0.54122  -0.43374
 Alpha  occ. eigenvalues --   -0.42165
 Alpha virt. eigenvalues --    0.02661   0.04464   0.05258   0.05864   0.06855
 Alpha virt. eigenvalues --    0.10107   0.12121   0.12524   0.14658   0.14696
 Alpha virt. eigenvalues --    0.15954   0.17147   0.17354   0.18182   0.19015

 Mulliken charges:
               1
     1  C    0.474035
     2  C   -0.354423
     3  N    0.499808
     4  O   -1.285369
     5  H    0.218316
     6  H    0.218348
     7  H    0.098147
     8  H    0.085784
     9  H    0.045354
 Sum of Mulliken charges =  -0.00000

 Dipole moment (field-independent basis, Debye):
    X=              0.4228    Y=             -3.9335    Z=             -0.0010  Tot=              3.9561

 Test job not archived.
 1\1\GINC-SE204\SP\RHF\Aug-CC-pVDZ\C2H5N1O1\OHZDE\05-Apr-2025\0\\#t hf
 aug-cc-pvdz iop(5/13=1,5/36=2,99/5=2) pseudo=read geom=check guess=(re
 ad,tcheck) scf=(maxcycle=1)\\title\\0,1\C,0,-0.074379,0.144688,-0.0000
 04\C,0,1.359129,-0.348132,-0.000001\N,0,-1.03704,-0.821835,0.000088\O,
 0,-0.350669,1.329673,-0.000014\H,0,1.862975,0.053389,-0.878184\H,0,1.8
 62897,0.053119,0.878352\H,0,1.450574,-1.43331,-0.000159\H,0,-2.001439,
 -0.536727,-0.000165\H,0,-0.818878,-1.800341,-0.000316\\Version=ES64L-G
 16RevC.01\State=1-A\HF=-208.2269038\RMSD=1.492e-02\Dipole=0.1663587,-1

 Normal termination of Gaussian 16 at Sat Apr  5 22:54:44 2025.
