 Gaussian 16, Revision C.01,

 ----------------------------------------------------------------------
 #t hf aug-cc-pvdz symm=none int=(grid=ultrafine) guess=(read,tcheck) s
 table=(opt,rrhf)
 ----------------------------------------------------------------------
 -----
 title
 -----
 Symbolic Z-matrix:
 Charge =  0 Multiplicity = 1

 SCF Done:  E(RHF) =  -379.633785340     A.U. after   13 cycles
 Normal termination of Gaussian 16 at Sat Apr  5 22:54:59 2025.
 Gaussian 16:  ES64L-G16RevC.01  3-Jul-2019

 ----------------------------------------------------------------------
 #t hf aug-cc-pvdz iop(5/13=1,5/36=2,99/5=2) pseudo=read geom=check gue
 ss=(read,tcheck) scf=(maxcycle=1)
 ----------------------------------------------------------------------
 -----
 title
 -----
 Structure from the checkpoint file:  "acetic_anhydride.chk"
 Charge =  0 Multiplicity = 1

                         Standard orientation:
 ---------------------------------------------------------------------
 Center     Atomic      Atomic             Coordinates (Angstroms)
 Number     Number       Type             X           Y           Z
 ---------------------------------------------------------------------
      1          6           0        0.000000    2.369460    0.740351
      2          6           0       -0.343853    1.165080   -0.083876
      3          8           0       -0.878029    1.154247   -1.148636
      4          1           0       -0.405130    3.260516    0.271345
      5          1           0       -0.391201    2.260041    1.751197
      6          1           0        1.085006    2.452696    0.818365
      7          8           0       -0.000000   -0.000000    0.602333
      8          6           0        0.343853   -1.165080   -0.083876
      9          6           0       -0.000000   -2.369460    0.740351
     10          8           0        0.878029   -1.154247   -1.148636
     11          1           0        0.391201   -2.260041    1.751197
     12          1           0        0.405130   -3.260516    0.271345
     13          1           0       -1.085006   -2.452696    0.818365
 ---------------------------------------------------------------------

 SCF Done:  E(RHF) =  -380.011644186     A.U. after    2 cycles

 The electronic state is 1-A.
 Alpha  occ. eigenvalues --  -20.61010 -20.55391 -20.55389 -11.40986 -11.40946
 Alpha  occ. eigenvalues --  -11.26392 -11.26392  -1.57439  -1.50177  -1.46343
 Alpha  occ. eigenvalues --   -1.06588  -1.02489  -0.88003  -0.74879  -0.71179
 Alpha  occ. eigenvalues --   -0.70964  -0.69083  -0.63638  -0.63182  -0.60758
 Alpha  occ. eigenvalues --   -0.58582  -0.58492  -0.56088  -0.52539  -0.47669
 Alpha  occ. eigenvalues --   -0.46907  -0.44292
 Alpha virt. eigenvalues --    0.02988   0.03891   0.04727   0.05068   0.06142
 Alpha virt. eigenvalues --    0.06575   0.08089   0.11442   0.12342   0.12496
 Alpha virt. eigenvalues --    0.12975   0.13137   0.14162   0.14923   0.15445

 Mulliken charges:
               1
     1  C   -0.593929
     2  C    1.782031
     3  O   -1.139963
     4  H    0.185464
     5  H    0.222078
     6  H    0.248602
     7  O   -1.408566
     8  C    1.782031
     9  C   -0.593929
    10  O   -1.139963
    11  H    0.222078
    12  H    0.185464
    13  H    0.248602
 Sum of Mulliken charges =  -0.00000

 Dipole moment (field-independent basis, Debye):
    X=              0.0000    Y=             -0.0000    Z=              4.1822  Tot=              4.1822

 Test job not archived.
 1\1\GINC-SE202\SP\RHF\Aug-CC-pVDZ\C4H6O3\OHZDE\05-Apr-2025\0\\#t hf au
 g-cc-pvdz iop(5/13=1,5/36=2,99/5=2) pseudo=read geom=check guess=(read
 ,tcheck) scf=(maxcycle=1)\\title\\0,1\C,0,0.,2.36946,0.740351\C,0,-0.3
 43853,1.16508,-0.083876\O,0,-0.878029,1.154247,-1.148636\H,0,-0.40513,
 3.260516,0.271345\H,0,-0.391201,2.260041,1.751197\H,0,1.085006,2.45269
 6,0.818365\O,0,0.,0.,0.602333\C,0,0.343853,-1.16508,-0.083876\C,0,0.,-
 2.36946,0.740351\O,0,0.878029,-1.154247,-1.148636\H,0,0.391201,-2.2600
 41,1.751197\H,0,0.40513,-3.260516,0.271345\H,0,-1.085006,-2.452696,0.8

 Normal termination of Gaussian 16 at Sat Apr  5 22:55:48 2025.
