 Gaussian 16, Revision C.01,

 ----------------------------------------------------------------------
 #t hf aug-cc-pvdz symm=none int=(grid=ultrafine) guess=(read,tcheck) s
 table=(opt,rrhf)
 ----------------------------------------------------------------------
 -----
 title
 -----
 Symbolic Z-matrix:
 Charge =  0 Multiplicity = 1

 SCF Done:  E(RHF) =  -188.154762373     A.U. after   13 cycles
 Normal termination of Gaussian 16 at Sat Apr  5 22:54:41 2025.
 Gaussian 16:  ES64L-G16RevC.01  3-Jul-2019

 ----------------------------------------------------------------------
 #t hf aug-cc-pvdz iop(5/13=1,5/36=2,99/5=2) pseudo=read geom=check gue
 ss=(read,tcheck) scf=(maxcycle=1)
 ----------------------------------------------------------------------
 -----
 title
 -----
 Structure from the checkpoint file:  "acetamidine.chk"
 Charge =  0 Multiplicity = 1

                         Standard orientation:
 ---------------------------------------------------------------------
 Center     Atomic      Atomic             Coordinates (Angstroms)
 Number     Number       Type             X           Y           Z
 ---------------------------------------------------------------------
      1          6           0       -0.078977    0.122141    0.000466
      2          6           0        1.411558   -0.089218    0.001120
      3          7           0       -0.551943    1.306982    0.008721
      4          7           0       -0.819018   -1.045939   -0.060148
      5          1           0        1.910930    0.874019    0.006173
      6          1           0        1.722529   -0.656815    0.881242
      7          1           0        1.720668   -0.651511   -0.881909
      8          1           0       -1.571786    1.312846    0.003132
      9          1           0       -1.803736   -0.993261    0.139354
     10          1           0       -0.377363   -1.910115    0.202483
 ---------------------------------------------------------------------

 SCF Done:  E(RHF) =  -188.355161427     A.U. after    2 cycles

 The electronic state is 1-A.
 Alpha  occ. eigenvalues --  -15.51955 -15.46027 -11.31930 -11.23754  -1.25840
 Alpha  occ. eigenvalues --   -1.14575  -0.99582  -0.80928  -0.74101  -0.72986
 Alpha  occ. eigenvalues --   -0.61165  -0.57681  -0.56061  -0.52550  -0.46023
 Alpha  occ. eigenvalues --   -0.41050
 Alpha virt. eigenvalues --    0.02690   0.04798   0.04964   0.05528   0.06646
 Alpha virt. eigenvalues --    0.07678   0.10332   0.12926   0.14063   0.15165
 Alpha virt. eigenvalues --    0.15658   0.15753   0.16416   0.17202   0.18132

 Mulliken charges:
               1
     1  C   -1.684335
     2  C   -0.232517
     3  N    0.685889
     4  N    0.490287
     5  H    0.173636
     6  H    0.182792
     7  H    0.224147
     8  H    0.061565
     9  H    0.053505
    10  H    0.045031
 Sum of Mulliken charges =  -0.00000

 Dipole moment (field-independent basis, Debye):
    X=             -0.3449    Y=             -3.5404    Z=              0.6988  Tot=              3.6251

 Test job not archived.
 1\1\GINC-SE206\SP\RHF\Aug-CC-pVDZ\C2H6N2\OHZDE\05-Apr-2025\0\\#t hf au
 g-cc-pvdz iop(5/13=1,5/36=2,99/5=2) pseudo=read geom=check guess=(read
 ,tcheck) scf=(maxcycle=1)\\title\\0,1\C,0,-0.078977,0.122141,0.000466\
 C,0,1.411558,-0.08922,0.00112\N,0,-0.551941,1.306983,0.008721\N,0,-0.8
 1902,-1.045938,-0.060148\H,0,1.910931,0.874016,0.006173\H,0,1.722528,-
 0.656817,0.881242\H,0,1.720667,-0.651513,-0.881909\H,0,-1.571784,1.312
 848,0.003132\H,0,-1.803738,-0.993258,0.139354\H,0,-0.377366,-1.910114,
 0.202483\\Version=ES64L-G16RevC.01\State=1-A\HF=-188.3551614\RMSD=2.03

 Normal termination of Gaussian 16 at Sat Apr  5 22:54:44 2025.
