 Gaussian 16, Revision C.01,

 ----------------------------------------------------------------------
 #t hf aug-cc-pvdz symm=none int=(grid=ultrafine) guess=(read,tcheck) s
 table=(opt,rrhf)
 ----------------------------------------------------------------------
 -----
 title
 -----
 Symbolic Z-matrix:
 Charge =  0 Multiplicity = 1

 SCF Done:  E(RHF) =  -190.790135202     A.U. after   13 cycles
 Normal termination of Gaussian 16 at Sat Apr  5 22:54:40 2025.
 Gaussian 16:  ES64L-G16RevC.01  3-Jul-2019

 ----------------------------------------------------------------------
 #t hf aug-cc-pvdz iop(5/13=1,5/36=2,99/5=2) pseudo=read geom=check gue
 ss=(read,tcheck) scf=(maxcycle=1)
 ----------------------------------------------------------------------
 -----
 title
 -----
 Structure from the checkpoint file:  "acrolein.chk"
 Charge =  0 Multiplicity = 1

                         Standard orientation:
 ---------------------------------------------------------------------
 Center     Atomic      Atomic             Coordinates (Angstroms)
 Number     Number       Type             X           Y           Z
 ---------------------------------------------------------------------
      1          6           0       -0.146975   -0.745307    0.000000
      2          6           0       -0.000000    0.717816   -0.000000
      3          6           0        1.203301    1.287661    0.000000
      4          8           0       -1.208534   -1.324424   -0.000000
      5          1           0        0.808295   -1.308935    0.000000
      6          1           0       -0.915368    1.296860   -0.000000
      7          1           0        1.332889    2.360924    0.000000
      8          1           0        2.104499    0.685522    0.000000
 ---------------------------------------------------------------------

 SCF Done:  E(RHF) =  -190.983583212     A.U. after    2 cycles

 The electronic state is 1-A'.
 Alpha  occ. eigenvalues --  -20.54814 -11.34605 -11.28099 -11.26462  -1.47656
 Alpha  occ. eigenvalues --   -1.09533  -0.89634  -0.79561  -0.68433  -0.67822
 Alpha  occ. eigenvalues --   -0.61401  -0.56664  -0.54675  -0.42711  -0.40839
 Alpha virt. eigenvalues --    0.03091   0.03891   0.04866   0.06335   0.06627
 Alpha virt. eigenvalues --    0.09473   0.10701   0.12896   0.12909   0.14415
 Alpha virt. eigenvalues --    0.15048   0.15571   0.15958   0.16799   0.18469

 Mulliken charges:
               1
     1  C    0.761031
     2  C    0.624516
     3  C   -0.088769
     4  O   -1.120769
     5  H    0.096978
     6  H   -0.158595
     7  H   -0.071605
     8  H   -0.042787
 Sum of Mulliken charges =  -0.00000

 Dipole moment (field-independent basis, Debye):
    X=              2.8536    Y=              2.2458    Z=              0.0000  Tot=              3.6313

 Test job not archived.
 1\1\GINC-SE211\SP\RHF\Aug-CC-pVDZ\C3H4O1\OHZDE\05-Apr-2025\0\\#t hf au
 g-cc-pvdz iop(5/13=1,5/36=2,99/5=2) pseudo=read geom=check guess=(read
 ,tcheck) scf=(maxcycle=1)\\title\\0,1\C,0,-0.146975,-0.745307,0.\C,0,0
 .,0.717816,0.\C,0,1.203301,1.287661,0.\O,0,-1.208534,-1.324424,0.\H,0,
 0.808295,-1.308935,0.\H,0,-0.915368,1.29686,0.\H,0,1.332889,2.360924,0
 .\H,0,2.104499,0.685522,0.\\Version=ES64L-G16RevC.01\State=1-A'\HF=-19
 0.9835832\RMSD=1.397e-02\Dipole=1.1226811,0.8835716,0.\Quadrupole=0.13
 1615,0.4647244,-0.5963394,-2.2003553,0.,0.\PG=CS [SG(C3H4O1)]\\@

 Normal termination of Gaussian 16 at Sat Apr  5 22:54:42 2025.
