 Gaussian 16, Revision C.01,

 ----------------------------------------------------------------------
 #t hf aug-cc-pvdz symm=none int=(grid=ultrafine) guess=(read,tcheck) s
 table=(opt,rrhf)
 ----------------------------------------------------------------------
 -----
 title
 -----
 Symbolic Z-matrix:
 Charge =  0 Multiplicity = 1

 SCF Done:  E(RHF) =  -265.697307115     A.U. after   14 cycles
 Normal termination of Gaussian 16 at Sat Apr  5 22:55:52 2025.
 Gaussian 16:  ES64L-G16RevC.01  3-Jul-2019

 ----------------------------------------------------------------------
 #t hf aug-cc-pvdz iop(5/13=1,5/36=2,99/5=2) pseudo=read geom=check gue
 ss=(read,tcheck) scf=(maxcycle=1)
 ----------------------------------------------------------------------
 -----
 title
 -----
 Structure from the checkpoint file:  "acrylic_acid.chk"
 Charge =  0 Multiplicity = 1

                         Standard orientation:
 ---------------------------------------------------------------------
 Center     Atomic      Atomic             Coordinates (Angstroms)
 Number     Number       Type             X           Y           Z
 ---------------------------------------------------------------------
      1          6           0        0.434679   -1.920126    0.000000
      2          6           0       -0.444755   -0.925478    0.000000
      3          6           0        0.000000    0.486809    0.000000
      4          8           0        1.141969    0.875860    0.000000
      5          8           0       -1.059533    1.335003    0.000000
      6          1           0        1.497057   -1.715390    0.000000
      7          1           0        0.116438   -2.953067    0.000000
      8          1           0       -1.511645   -1.100215    0.000000
      9          1           0       -0.700884    2.234531    0.000000
 ---------------------------------------------------------------------

 SCF Done:  E(RHF) =  -265.962580682     A.U. after    2 cycles

 The electronic state is 1-A'.
 Alpha  occ. eigenvalues --  -20.60340 -20.53792 -11.39961 -11.27455 -11.26304
 Alpha  occ. eigenvalues --   -1.54868  -1.45295  -1.08911  -0.91511  -0.77824
 Alpha  occ. eigenvalues --   -0.72601  -0.70541  -0.63287  -0.63212  -0.60412
 Alpha  occ. eigenvalues --   -0.55622  -0.48487  -0.45081  -0.40844
 Alpha virt. eigenvalues --    0.03462   0.03995   0.05003   0.06279   0.06718
 Alpha virt. eigenvalues --    0.10584   0.10954   0.12872   0.13249   0.13293
 Alpha virt. eigenvalues --    0.15256   0.15371   0.15900   0.16357   0.19079

 Mulliken charges:
               1
     1  C   -0.112560
     2  C    0.568717
     3  C    1.924898
     4  O   -1.271837
     5  O   -1.350543
     6  H   -0.017634
     7  H   -0.060013
     8  H   -0.156925
     9  H    0.475898
 Sum of Mulliken charges =  -0.00000

 Dipole moment (field-independent basis, Debye):
    X=             -1.2977    Y=             -1.1622    Z=              0.0000  Tot=              1.7421

 Test job not archived.
 1\1\GINC-SE012\SP\RHF\Aug-CC-pVDZ\C3H4O2\OHZDE\05-Apr-2025\0\\#t hf au
 g-cc-pvdz iop(5/13=1,5/36=2,99/5=2) pseudo=read geom=check guess=(read
 ,tcheck) scf=(maxcycle=1)\\title\\0,1\C,0,0.434679,-1.920126,0.\C,0,-0
 .444755,-0.925478,0.\C,0,0.,0.486809,0.\O,0,1.141969,0.87586,0.\O,0,-1
 .059533,1.335003,0.\H,0,1.497057,-1.71539,0.\H,0,0.116437,-2.953067,0.
 \H,0,-1.511645,-1.100215,0.\H,0,-0.700884,2.234531,0.\\Version=ES64L-G
 16RevC.01\State=1-A'\HF=-265.9625807\RMSD=1.650e-02\Dipole=-0.5105544,
 -0.4572575,0.\Quadrupole=-3.1875757,5.1346539,-1.9470782,-1.9054128,0.

 Normal termination of Gaussian 16 at Sat Apr  5 22:55:55 2025.
