 Gaussian 16, Revision C.01,

 ----------------------------------------------------------------------
 #t hf aug-cc-pvdz symm=none int=(grid=ultrafine) guess=(read,tcheck) s
 table=(opt,rrhf)
 ----------------------------------------------------------------------
 -----
 title
 -----
 Symbolic Z-matrix:
 Charge =  0 Multiplicity = 1

 SCF Done:  E(RHF) =  -169.788507401     A.U. after   14 cycles
 Normal termination of Gaussian 16 at Sat Apr  5 22:55:01 2025.
 Gaussian 16:  ES64L-G16RevC.01  3-Jul-2019

 ----------------------------------------------------------------------
 #t hf aug-cc-pvdz iop(5/13=1,5/36=2,99/5=2) pseudo=read geom=check gue
 ss=(read,tcheck) scf=(maxcycle=1)
 ----------------------------------------------------------------------
 -----
 title
 -----
 Structure from the checkpoint file:  "acrylonitrile.chk"
 Charge =  0 Multiplicity = 1

                         Standard orientation:
 ---------------------------------------------------------------------
 Center     Atomic      Atomic             Coordinates (Angstroms)
 Number     Number       Type             X           Y           Z
 ---------------------------------------------------------------------
      1          6           0       -0.574872   -0.536672   -0.000000
      2          7           0       -1.065007   -1.579735   -0.000000
      3          6           0        0.000000    0.768522   -0.000000
      4          1           0       -0.704356    1.590862   -0.000000
      5          6           0        1.313391    0.985354    0.000000
      6          1           0        2.024361    0.171397    0.000000
      7          1           0        1.703931    1.992659    0.000000
 ---------------------------------------------------------------------

 SCF Done:  E(RHF) =  -169.958945438     A.U. after    2 cycles

 The electronic state is 1-A'.
 Alpha  occ. eigenvalues --  -15.51971 -11.30089 -11.29292 -11.28782  -1.24024
 Alpha  occ. eigenvalues --   -1.10714  -0.89611  -0.74108  -0.67789  -0.61722
 Alpha  occ. eigenvalues --   -0.57984  -0.54790  -0.50703  -0.41766
 Alpha virt. eigenvalues --    0.02755   0.04020   0.04714   0.05423   0.09193
 Alpha virt. eigenvalues --    0.10761   0.10913   0.13195   0.13427   0.14255
 Alpha virt. eigenvalues --    0.14796   0.14965   0.16365   0.16838   0.17755

 Mulliken charges:
               1
     1  C   -1.811517
     2  N    0.781457
     3  C    1.118008
     4  H   -0.108247
     5  C    0.072522
     6  H   -0.009056
     7  H   -0.043166
 Sum of Mulliken charges =  -0.00000

 Dipole moment (field-independent basis, Debye):
    X=              2.5854    Y=              4.2758    Z=              0.0000  Tot=              4.9967

 Test job not archived.
 1\1\GINC-SE050\SP\RHF\Aug-CC-pVDZ\C3H3N1\OHZDE\05-Apr-2025\0\\#t hf au
 g-cc-pvdz iop(5/13=1,5/36=2,99/5=2) pseudo=read geom=check guess=(read
 ,tcheck) scf=(maxcycle=1)\\title\\0,1\C,0,-0.574872,-0.536672,0.\N,0,-
 1.065007,-1.579735,0.\C,0,0.,0.768522,0.\H,0,-0.704356,1.590862,0.\C,0
 ,1.313391,0.985354,0.\H,0,2.024361,0.171397,0.\H,0,1.703931,1.992659,0
 .\\Version=ES64L-G16RevC.01\State=1-A'\HF=-169.9589454\RMSD=2.205e-02\
 Dipole=1.0171768,1.6822471,0.\Quadrupole=1.7637271,-1.3863311,-0.37739
 6,-2.4187991,0.,0.\PG=CS [SG(C3H3N1)]\\@

 Normal termination of Gaussian 16 at Sat Apr  5 22:55:47 2025.
