 Gaussian 16, Revision C.01,

 ----------------------------------------------------------------------
 #t hf aug-cc-pvdz symm=none int=(grid=ultrafine) guess=(read,tcheck) s
 table=(opt,rrhf)
 ----------------------------------------------------------------------
 -----
 title
 -----
 Symbolic Z-matrix:
 Charge =  0 Multiplicity = 1

 SCF Done:  E(RHF) =  -245.861059887     A.U. after   14 cycles
 Normal termination of Gaussian 16 at Sat Apr  5 22:54:45 2025.
 Gaussian 16:  ES64L-G16RevC.01  3-Jul-2019

 ----------------------------------------------------------------------
 #t hf aug-cc-pvdz iop(5/13=1,5/36=2,99/5=2) pseudo=read geom=check gue
 ss=(read,tcheck) scf=(maxcycle=1)
 ----------------------------------------------------------------------
 -----
 title
 -----
 Structure from the checkpoint file:  "acrylamide.chk"
 Charge =  0 Multiplicity = 1

                         Standard orientation:
 ---------------------------------------------------------------------
 Center     Atomic      Atomic             Coordinates (Angstroms)
 Number     Number       Type             X           Y           Z
 ---------------------------------------------------------------------
      1          6           0       -0.802490   -0.641917   -0.000049
      2          6           0        0.476208    0.129519   -0.000019
      3          7           0        1.603597   -0.640957   -0.000091
      4          8           0        0.524695    1.347317   -0.000004
      5          6           0       -1.976832   -0.024715    0.000041
      6          1           0       -0.744777   -1.724573   -0.000141
      7          1           0        2.497946   -0.182204    0.000312
      8          1           0        1.570738   -1.643448    0.000506
      9          1           0       -2.020997    1.056447    0.000120
     10          1           0       -2.906961   -0.575387    0.000032
 ---------------------------------------------------------------------

 SCF Done:  E(RHF) =  -246.111068077     A.U. after    2 cycles

 The electronic state is 1-A.
 Alpha  occ. eigenvalues --  -20.50469 -15.53006 -11.36230 -11.26267 -11.25500
 Alpha  occ. eigenvalues --   -1.45432  -1.22462  -1.07293  -0.89503  -0.80065
 Alpha  occ. eigenvalues --   -0.74629  -0.71220  -0.62297  -0.61740  -0.59521
 Alpha  occ. eigenvalues --   -0.54785  -0.44123  -0.42676  -0.39691
 Alpha virt. eigenvalues --    0.02598   0.03847   0.05047   0.06327   0.07121
 Alpha virt. eigenvalues --    0.07548   0.11602   0.11751   0.12302   0.13066
 Alpha virt. eigenvalues --    0.13766   0.14029   0.15260   0.16529   0.17270

 Mulliken charges:
               1
     1  C    0.913212
     2  C    0.211616
     3  N    0.627153
     4  O   -1.341228
     5  C   -0.164910
     6  H   -0.239663
     7  H    0.081191
     8  H    0.001925
     9  H   -0.018914
    10  H   -0.070383
 Sum of Mulliken charges =  -0.00000

 Dipole moment (field-independent basis, Debye):
    X=             -0.1509    Y=             -3.6197    Z=              0.0016  Tot=              3.6229

 Test job not archived.
 1\1\GINC-SE108\SP\RHF\Aug-CC-pVDZ\C3H5N1O1\OHZDE\05-Apr-2025\0\\#t hf
 aug-cc-pvdz iop(5/13=1,5/36=2,99/5=2) pseudo=read geom=check guess=(re
 ad,tcheck) scf=(maxcycle=1)\\title\\0,1\C,0,-0.80249,-0.641917,-0.0000
 49\C,0,0.476208,0.129519,-0.000019\N,0,1.603597,-0.640957,-0.000091\O,
 0,0.524695,1.347317,-0.000004\C,0,-1.976832,-0.024715,0.000041\H,0,-0.
 744777,-1.724573,-0.000141\H,0,2.497946,-0.182204,0.000312\H,0,1.57073
 8,-1.643448,0.000506\H,0,-2.020997,1.056447,0.00012\H,0,-2.906961,-0.5
 75387,0.000032\\Version=ES64L-G16RevC.01\State=1-A\HF=-246.1110681\RMS

 Normal termination of Gaussian 16 at Sat Apr  5 22:54:49 2025.
