 Gaussian 16, Revision C.01,

 ----------------------------------------------------------------------
 #t hf aug-cc-pvdz symm=none int=(grid=ultrafine) guess=(read,tcheck) s
 table=(opt,rrhf)
 ----------------------------------------------------------------------
 -----
 title
 -----
 Symbolic Z-matrix:
 Charge =  0 Multiplicity = 1

 SCF Done:  E(RHF) =  -388.065171971     A.U. after   11 cycles
 Normal termination of Gaussian 16 at Sat Apr  5 23:01:34 2025.
 Gaussian 16:  ES64L-G16RevC.01  3-Jul-2019

 ----------------------------------------------------------------------
 #t hf aug-cc-pvdz iop(5/13=1,5/36=2,99/5=2) pseudo=read geom=check gue
 ss=(read,tcheck) scf=(maxcycle=1)
 ----------------------------------------------------------------------
 -----
 title
 -----
 Structure from the checkpoint file:  "adamantane.chk"
 Charge =  0 Multiplicity = 1

                         Standard orientation:
 ---------------------------------------------------------------------
 Center     Atomic      Atomic             Coordinates (Angstroms)
 Number     Number       Type             X           Y           Z
 ---------------------------------------------------------------------
      1          6           0       -0.889735    0.889735    0.889735
      2          6           0        0.000000    0.000000    1.775473
      3          6           0        0.000000    1.775473   -0.000000
      4          6           0        0.889735   -0.889735    0.889735
      5          6           0       -1.775473    0.000000   -0.000000
      6          6           0       -0.889735   -0.889735   -0.889735
      7          6           0       -0.000000   -1.775473    0.000000
      8          6           0        0.889735    0.889735   -0.889735
      9          6           0        0.000000   -0.000000   -1.775473
     10          6           0        1.775473   -0.000000    0.000000
     11          1           0        1.520690   -1.520690    1.520690
     12          1           0       -1.520690   -1.520690   -1.520690
     13          1           0       -1.520690    1.520690    1.520690
     14          1           0        2.427208   -0.621055   -0.621055
     15          1           0        1.520690    1.520690   -1.520690
     16          1           0       -2.427208    0.621055   -0.621055
     17          1           0        0.621055   -0.621055   -2.427208
     18          1           0        2.427208    0.621055    0.621055
     19          1           0        0.621055   -2.427208   -0.621055
     20          1           0        0.621055    2.427208    0.621055
     21          1           0       -0.621055   -2.427208    0.621055
     22          1           0        0.621055    0.621055    2.427208
     23          1           0       -0.621055    0.621055   -2.427208
     24          1           0       -0.621055    2.427208   -0.621055
     25          1           0       -2.427208   -0.621055    0.621055
     26          1           0       -0.621055   -0.621055    2.427208
 ---------------------------------------------------------------------

 SCF Done:  E(RHF) =  -388.487157202     A.U. after    2 cycles

 The electronic state is 1-A1.
 Alpha  occ. eigenvalues --  -11.22123 -11.22123 -11.22123 -11.22080 -11.21549
 Alpha  occ. eigenvalues --  -11.21549 -11.21549 -11.21538 -11.21538 -11.21465
 Alpha  occ. eigenvalues --   -1.16200  -1.03320  -1.03320  -1.03320  -0.90454
 Alpha  occ. eigenvalues --   -0.90454  -0.79550  -0.79550  -0.79550  -0.71225
 Alpha  occ. eigenvalues --   -0.63860  -0.61932  -0.61932  -0.61932  -0.56389
 Alpha  occ. eigenvalues --   -0.56389  -0.56389  -0.54784  -0.54784  -0.54784
 Alpha  occ. eigenvalues --   -0.46840  -0.46840  -0.46488  -0.46488  -0.46488
 Alpha  occ. eigenvalues --   -0.40869  -0.40869  -0.40869
 Alpha virt. eigenvalues --    0.03263   0.03263   0.03263   0.03728   0.05269
 Alpha virt. eigenvalues --    0.05269   0.05269   0.05394   0.05394   0.08954
 Alpha virt. eigenvalues --    0.09107   0.09107   0.09107   0.09386   0.09386

 Mulliken charges:
               1
     1  C   -0.238776
     2  C   -0.032633
     3  C   -0.032633
     4  C   -0.238776
     5  C   -0.032633
     6  C   -0.238776
     7  C   -0.032633
     8  C   -0.238776
     9  C   -0.032633
    10  C   -0.032633
    11  H    0.061072
    12  H    0.061072
    13  H    0.061072
    14  H    0.075551
    15  H    0.061072
    16  H    0.075551
    17  H    0.075551
    18  H    0.075551
    19  H    0.075551
    20  H    0.075551
    21  H    0.075551
    22  H    0.075551
    23  H    0.075551
    24  H    0.075551
    25  H    0.075551
    26  H    0.075551
 Sum of Mulliken charges =   0.00000

 Dipole moment (field-independent basis, Debye):
    X=             -0.0000    Y=             -0.0000    Z=              0.0000  Tot=              0.0000

 Test job not archived.
 1\1\GINC-SE052\SP\RHF\Aug-CC-pVDZ\C10H16\OHZDE\05-Apr-2025\0\\#t hf au
 g-cc-pvdz iop(5/13=1,5/36=2,99/5=2) pseudo=read geom=check guess=(read
 ,tcheck) scf=(maxcycle=1)\\title\\0,1\C,0,-0.889735,0.889735,0.889735\
 C,0,0.,0.,1.775473\C,0,0.,1.775473,0.\C,0,0.889735,-0.889735,0.889735\
 C,0,-1.775473,0.,0.\C,0,-0.889735,-0.889735,-0.889735\C,0,0.,-1.775473
 ,0.\C,0,0.889735,0.889735,-0.889735\C,0,0.,0.,-1.775473\C,0,1.775473,0
 .,0.\H,0,1.52069,-1.52069,1.52069\H,0,-1.52069,-1.52069,-1.52069\H,0,-
 1.52069,1.52069,1.52069\H,0,2.427208,-0.621055,-0.621055\H,0,1.52069,1

 Normal termination of Gaussian 16 at Sat Apr  5 23:02:33 2025.
