 Gaussian 16, Revision C.01,

 ----------------------------------------------------------------------
 #t hf aug-cc-pvdz symm=none int=(grid=ultrafine) guess=(read,tcheck) s
 table=(opt,rrhf)
 ----------------------------------------------------------------------
 -----
 title
 -----
 Symbolic Z-matrix:
 Charge =  0 Multiplicity = 1

 SCF Done:  E(RHF) =  -321.912949170     A.U. after   14 cycles
 Normal termination of Gaussian 16 at Sat Apr  5 22:56:07 2025.
 Gaussian 16:  ES64L-G16RevC.01  3-Jul-2019

 ----------------------------------------------------------------------
 #t hf aug-cc-pvdz iop(5/13=1,5/36=2,99/5=2) pseudo=read geom=check gue
 ss=(read,tcheck) scf=(maxcycle=1)
 ----------------------------------------------------------------------
 -----
 title
 -----
 Structure from the checkpoint file:  "alanine.chk"
 Charge =  0 Multiplicity = 1

                         Standard orientation:
 ---------------------------------------------------------------------
 Center     Atomic      Atomic             Coordinates (Angstroms)
 Number     Number       Type             X           Y           Z
 ---------------------------------------------------------------------
      1          1           0       -2.372022    1.258779   -0.041328
      2          8           0        1.579853    0.982519    0.090040
      3          1           0        1.029092    1.754950    0.261797
      4          6           0        0.826544   -0.141556    0.027243
      5          8           0        1.341664   -1.193160   -0.229770
      6          6           0       -0.660281    0.015379    0.360045
      7          1           0       -0.675584    0.146310    1.454547
      8          6           0       -1.307277    1.254476   -0.272188
      9          1           0       -0.900543    2.193255    0.114105
     10          1           0       -1.199468    1.234270   -1.355735
     11          1           0       -2.167312   -1.374487    0.506707
     12          1           0       -0.734896   -1.985047   -0.035084
     13          7           0       -1.357902   -1.187528   -0.068252
 ---------------------------------------------------------------------

 SCF Done:  E(RHF) =  -322.243361227     A.U. after    2 cycles

 The electronic state is 1-A.
 Alpha  occ. eigenvalues --  -20.60613 -20.53875 -15.49507 -11.39663 -11.30092
 Alpha  occ. eigenvalues --  -11.25602  -1.54934  -1.46051  -1.20505  -1.03622
 Alpha  occ. eigenvalues --   -0.91673  -0.82850  -0.75512  -0.70809  -0.67155
 Alpha  occ. eigenvalues --   -0.66840  -0.61826  -0.58691  -0.57276  -0.56959
 Alpha  occ. eigenvalues --   -0.54759  -0.47707  -0.45033  -0.43837
 Alpha virt. eigenvalues --    0.02692   0.03660   0.04190   0.05034   0.06427
 Alpha virt. eigenvalues --    0.07022   0.07925   0.10785   0.11357   0.12460
 Alpha virt. eigenvalues --    0.13736   0.13944   0.14713   0.15422   0.16703

 Mulliken charges:
               1
     1  H    0.112820
     2  O   -1.335608
     3  H    0.427573
     4  C    2.420009
     5  O   -1.255590
     6  C   -1.806769
     7  H    0.243132
     8  C   -0.015246
     9  H    0.148395
    10  H    0.208164
    11  H    0.205431
    12  H    0.182398
    13  N    0.465291
 Sum of Mulliken charges =  -0.00000

 Dipole moment (field-independent basis, Debye):
    X=             -3.0493    Y=              2.7798    Z=              2.1326  Tot=              4.6447

 Test job not archived.
 1\1\GINC-SE104\SP\RHF\Aug-CC-pVDZ\C3H7N1O2\OHZDE\05-Apr-2025\0\\#t hf
 aug-cc-pvdz iop(5/13=1,5/36=2,99/5=2) pseudo=read geom=check guess=(re
 ad,tcheck) scf=(maxcycle=1)\\title\\0,1\H,0,-2.372022,1.258779,-0.0413
 28\O,0,1.579853,0.982519,0.09004\H,0,1.029092,1.75495,0.261797\C,0,0.8
 26544,-0.141556,0.027243\O,0,1.341664,-1.19316,-0.22977\C,0,-0.660281,
 0.015379,0.360045\H,0,-0.675584,0.14631,1.454547\C,0,-1.307277,1.25447
 6,-0.272188\H,0,-0.900542,2.193255,0.114105\H,0,-1.199468,1.23427,-1.3
 55735\H,0,-2.167312,-1.374487,0.506707\H,0,-0.734896,-1.985047,-0.0350

 Normal termination of Gaussian 16 at Sat Apr  5 22:56:11 2025.
