 Gaussian 16, Revision C.01,

 ----------------------------------------------------------------------
 #t hf aug-cc-pvdz symm=none int=(grid=ultrafine) guess=(read,tcheck) s
 table=(opt,rrhf)
 ----------------------------------------------------------------------
 -----
 title
 -----
 Symbolic Z-matrix:
 Charge =  0 Multiplicity = 1

 SCF Done:  E(RHF) =  -115.876845096     A.U. after   10 cycles
 Normal termination of Gaussian 16 at Sat Apr  5 22:55:00 2025.
 Gaussian 16:  ES64L-G16RevC.01  3-Jul-2019

 ----------------------------------------------------------------------
 #t hf aug-cc-pvdz iop(5/13=1,5/36=2,99/5=2) pseudo=read geom=check gue
 ss=(read,tcheck) scf=(maxcycle=1)
 ----------------------------------------------------------------------
 -----
 title
 -----
 Structure from the checkpoint file:  "allene.chk"
 Charge =  0 Multiplicity = 1

                         Standard orientation:
 ---------------------------------------------------------------------
 Center     Atomic      Atomic             Coordinates (Angstroms)
 Number     Number       Type             X           Y           Z
 ---------------------------------------------------------------------
      1          6           0        0.000000    0.000000    0.000000
      2          6           0        0.000000    0.000000    1.299944
      3          6           0        0.000000    0.000000   -1.299944
      4          1           0        0.000000    0.925401    1.862995
      5          1           0       -0.000000   -0.925401    1.862995
      6          1           0        0.925401   -0.000000   -1.862995
      7          1           0       -0.925401    0.000000   -1.862995
 ---------------------------------------------------------------------

 SCF Done:  E(RHF) =  -116.000528742     A.U. after    2 cycles

 The electronic state is 1-A1.
 Alpha  occ. eigenvalues --  -11.27012 -11.24701 -11.24662  -1.07831  -0.96599
 Alpha  occ. eigenvalues --   -0.72421  -0.64506  -0.61674  -0.61674  -0.38763
 Alpha  occ. eigenvalues --   -0.38763
 Alpha virt. eigenvalues --    0.03780   0.04481   0.05111   0.05111   0.09250
 Alpha virt. eigenvalues --    0.11014   0.11014   0.11515   0.16003   0.16003
 Alpha virt. eigenvalues --    0.16392   0.16750   0.18464   0.18464   0.21320

 Mulliken charges:
               1
     1  C    0.083648
     2  C    0.001407
     3  C    0.001407
     4  H   -0.021616
     5  H   -0.021616
     6  H   -0.021616
     7  H   -0.021616
 Sum of Mulliken charges =   0.00000

 Dipole moment (field-independent basis, Debye):
    X=              0.0000    Y=              0.0000    Z=              0.0000  Tot=              0.0000

 Test job not archived.
 1\1\GINC-SE183\SP\RHF\Aug-CC-pVDZ\C3H4\OHZDE\05-Apr-2025\0\\#t hf aug-
 cc-pvdz iop(5/13=1,5/36=2,99/5=2) pseudo=read geom=check guess=(read,t
 check) scf=(maxcycle=1)\\title\\0,1\C,0,0.,0.,0.\C,0,0.,0.,1.299944\C,
 0,0.,0.,-1.299944\H,0,0.,0.925401,1.862995\H,0,0.,-0.925401,1.862995\H
 ,0,0.925401,0.,-1.862995\H,0,-0.925401,0.,-1.862995\\Version=ES64L-G16
 RevC.01\State=1-A1\HF=-116.0005287\RMSD=1.610e-02\Dipole=0.,0.,0.\Quad
 rupole=-1.144608,-1.144608,2.289216,0.,0.,0.\PG=D02D [O(C1),C2(C1.C1),
 2SGD(H2)]\\@

 Normal termination of Gaussian 16 at Sat Apr  5 22:55:46 2025.
