 Gaussian 16, Revision C.01,

 ----------------------------------------------------------------------
 #t hf aug-cc-pvdz symm=none int=(grid=ultrafine) guess=(read,tcheck) s
 table=(opt,rrhf)
 ----------------------------------------------------------------------
 -----
 title
 -----
 Symbolic Z-matrix:
 Charge =  0 Multiplicity = 1

 SCF Done:  E(RHF) =  -569.545676700     A.U. after   12 cycles

 1\1\GINC-SE223\Stability\RHF\Aug-CC-pVDZ\C5H10O5\OHZDE\05-Apr-2025\0\\
 #t hf aug-cc-pvdz symm=none int=(grid=ultrafine) guess=(read,tcheck) s
 table=(opt,rrhf)\\title\\0,1\C,0,-0.379463,-0.952795,0.667838\C,0,-1.2
 16504,-0.612725,-0.585325\C,0,0.778841,0.063866,0.600579\C,0,-0.988784
 ,0.890637,-0.69343\C,0,2.095188,-0.498544,0.089983\O,0,0.349765,1.1013
 51,-0.325741\O,0,-1.140863,-0.858323,1.860672\O,0,-0.69921,-1.200894,-
 1.77128\O,0,-1.886143,1.504898,0.226296\O,0,3.091379,0.506028,-0.02303
 8\H,0,-0.014736,-1.978871,0.624883\H,0,-2.268903,-0.855465,-0.435326\H

 Normal termination of Gaussian 16 at Sat Apr  5 22:56:41 2025.
 Gaussian 16:  ES64L-G16RevC.01  3-Jul-2019

 ----------------------------------------------------------------------
 #t hf aug-cc-pvdz iop(5/13=1,5/36=2,99/5=2) pseudo=read geom=check gue
 ss=(read,tcheck) scf=(maxcycle=1)
 ----------------------------------------------------------------------
 -----
 title
 -----
 Structure from the checkpoint file:  "alpha-l-arabinofuranose.chk"
 Charge =  0 Multiplicity = 1

                         Standard orientation:
 ---------------------------------------------------------------------
 Center     Atomic      Atomic             Coordinates (Angstroms)
 Number     Number       Type             X           Y           Z
 ---------------------------------------------------------------------
      1          6           0       -0.379463   -0.952795    0.667838
      2          6           0       -1.216504   -0.612725   -0.585325
      3          6           0        0.778841    0.063866    0.600579
      4          6           0       -0.988784    0.890637   -0.693430
      5          6           0        2.095188   -0.498544    0.089983
      6          8           0        0.349765    1.101351   -0.325741
      7          8           0       -1.140863   -0.858323    1.860672
      8          8           0       -0.699210   -1.200894   -1.771280
      9          8           0       -1.886143    1.504898    0.226296
     10          8           0        3.091379    0.506028   -0.023038
     11          1           0       -0.014736   -1.978871    0.624883
     12          1           0       -2.268903   -0.855465   -0.435326
     13          1           0        0.930469    0.517790    1.580985
     14          1           0       -1.123910    1.287185   -1.699521
     15          1           0        1.930774   -0.998818   -0.869860
     16          1           0        2.475020   -1.231156    0.803418
     17          1           0       -1.576805    0.003890    1.866101
     18          1           0       -0.895993   -2.142073   -1.764060
     19          1           0       -1.658150    2.439069    0.286412
     20          1           0        2.747131    1.191335   -0.606172
 ---------------------------------------------------------------------

 SCF Done:  E(RHF) =  -570.121522079     A.U. after    2 cycles

 The electronic state is 1-A.
 Alpha  occ. eigenvalues --  -20.57697 -20.57320 -20.56436 -20.55599 -20.54483
 Alpha  occ. eigenvalues --  -11.35646 -11.30642 -11.30475 -11.29560 -11.28604
 Alpha  occ. eigenvalues --   -1.52166  -1.47295  -1.45749  -1.45446  -1.43717
 Alpha  occ. eigenvalues --   -1.06491  -1.03285  -0.91779  -0.84201  -0.82566
 Alpha  occ. eigenvalues --   -0.75905  -0.74577  -0.71506  -0.68997  -0.65678
 Alpha  occ. eigenvalues --   -0.64806  -0.62480  -0.62110  -0.61081  -0.58559
 Alpha  occ. eigenvalues --   -0.56908  -0.56036  -0.52844  -0.52112  -0.50705
 Alpha  occ. eigenvalues --   -0.47940  -0.47237  -0.46539  -0.43286  -0.42073
 Alpha virt. eigenvalues --    0.03054   0.03400   0.04183   0.04509   0.05750
 Alpha virt. eigenvalues --    0.05897   0.06522   0.06754   0.07187   0.09375
 Alpha virt. eigenvalues --    0.11928   0.12302   0.12623   0.13022   0.14094

 Mulliken charges:
               1
     1  C    0.964701
     2  C    0.812773
     3  C    0.578846
     4  C    2.027068
     5  C    0.841820
     6  O   -1.709806
     7  O   -1.490972
     8  O   -1.428414
     9  O   -1.335118
    10  O   -1.229131
    11  H    0.079793
    12  H    0.193869
    13  H    0.042787
    14  H    0.123751
    15  H    0.158913
    16  H    0.150691
    17  H    0.313731
    18  H    0.293255
    19  H    0.282626
    20  H    0.328817
 Sum of Mulliken charges =   0.00000

 Dipole moment (field-independent basis, Debye):
    X=             -1.9967    Y=             -0.0745    Z=             -1.1408  Tot=              2.3008

 Test job not archived.
 1\1\GINC-SE223\SP\RHF\Aug-CC-pVDZ\C5H10O5\OHZDE\05-Apr-2025\0\\#t hf a
 ug-cc-pvdz iop(5/13=1,5/36=2,99/5=2) pseudo=read geom=check guess=(rea
 d,tcheck) scf=(maxcycle=1)\\title\\0,1\C,0,-0.379463,-0.952795,0.66783
 8\C,0,-1.216504,-0.612725,-0.585325\C,0,0.778841,0.063866,0.600579\C,0
 ,-0.988784,0.890637,-0.69343\C,0,2.095188,-0.498544,0.089983\O,0,0.349
 765,1.101351,-0.325741\O,0,-1.140863,-0.858323,1.860672\O,0,-0.69921,-
 1.200894,-1.77128\O,0,-1.886143,1.504898,0.226296\O,0,3.091379,0.50602
 8,-0.023038\H,0,-0.014736,-1.978871,0.624883\H,0,-2.268903,-0.855465,-

 Normal termination of Gaussian 16 at Sat Apr  5 22:56:53 2025.
