 Gaussian 16, Revision C.01,

 ----------------------------------------------------------------------
 #t hf aug-cc-pvdz symm=none int=(grid=ultrafine) guess=(read,tcheck) s
 table=(opt,rrhf)
 ----------------------------------------------------------------------
 -----
 title
 -----
 Symbolic Z-matrix:
 Charge =  0 Multiplicity = 1

 SCF Done:  E(RHF) =  -206.726900337     A.U. after   13 cycles
 Normal termination of Gaussian 16 at Sat Apr  5 22:55:02 2025.
 Gaussian 16:  ES64L-G16RevC.01  3-Jul-2019

 ----------------------------------------------------------------------
 #t hf aug-cc-pvdz iop(5/13=1,5/36=2,99/5=2) pseudo=read geom=check gue
 ss=(read,tcheck) scf=(maxcycle=1)
 ----------------------------------------------------------------------
 -----
 title
 -----
 Structure from the checkpoint file:  "aminoethynol.chk"
 Charge =  0 Multiplicity = 1

                         Standard orientation:
 ---------------------------------------------------------------------
 Center     Atomic      Atomic             Coordinates (Angstroms)
 Number     Number       Type             X           Y           Z
 ---------------------------------------------------------------------
      1          8           0       -1.938443    0.000039   -0.123358
      2          7           0        1.923699    0.000027    0.086116
      3          6           0        0.571151   -0.000066   -0.003646
      4          6           0       -0.628026   -0.000043    0.028755
      5          1           0        2.378420    0.835039   -0.252203
      6          1           0        2.378550   -0.834876   -0.252294
      7          1           0       -2.374067   -0.000010    0.737900
 ---------------------------------------------------------------------

 SCF Done:  E(RHF) =  -206.937915987     A.U. after    2 cycles

 The electronic state is 1-A.
 Alpha  occ. eigenvalues --  -20.60900 -15.52772 -11.27857 -11.25523  -1.51644
 Alpha  occ. eigenvalues --   -1.21820  -1.00378  -0.80511  -0.75367  -0.73086
 Alpha  occ. eigenvalues --   -0.65085  -0.59557  -0.54706  -0.37178  -0.35487
 Alpha virt. eigenvalues --    0.02834   0.03893   0.06073   0.10639   0.11929
 Alpha virt. eigenvalues --    0.12027   0.12974   0.13491   0.15366   0.16820
 Alpha virt. eigenvalues --    0.18513   0.20013   0.21627   0.23702   0.24850

 Mulliken charges:
               1
     1  O   -1.208472
     2  N    0.838026
     3  C   -1.647261
     4  C    1.408894
     5  H    0.120138
     6  H    0.120094
     7  H    0.368582
 Sum of Mulliken charges =   0.00000

 Dipole moment (field-independent basis, Debye):
    X=              0.5486    Y=              0.0002    Z=              0.3698  Tot=              0.6616

 Test job not archived.
 1\1\GINC-SE084\SP\RHF\Aug-CC-pVDZ\C2H3N1O1\OHZDE\05-Apr-2025\0\\#t hf
 aug-cc-pvdz iop(5/13=1,5/36=2,99/5=2) pseudo=read geom=check guess=(re
 ad,tcheck) scf=(maxcycle=1)\\title\\0,1\O,0,-1.938443,0.000039,-0.1233
 58\N,0,1.923699,0.000027,0.086116\C,0,0.571151,-0.000066,-0.003646\C,0
 ,-0.628026,-0.000043,0.028755\H,0,2.37842,0.835039,-0.252203\H,0,2.378
 55,-0.834876,-0.252294\H,0,-2.374067,-0.00001,0.7379\\Version=ES64L-G1
 6RevC.01\State=1-A\HF=-206.937916\RMSD=6.395e-02\Dipole=0.2158307,0.00
 00606,0.1455054\Quadrupole=4.0709988,-1.3818626,-2.6891361,0.0003403,-

 Normal termination of Gaussian 16 at Sat Apr  5 22:55:46 2025.
