 Gaussian 16, Revision C.01,

 ----------------------------------------------------------------------
 #t hf aug-cc-pvdz symm=none int=(grid=ultrafine) guess=(read,tcheck) s
 table=(opt,rrhf)
 ----------------------------------------------------------------------
 -----
 title
 -----
 Symbolic Z-matrix:
 Charge =  0 Multiplicity = 1

 SCF Done:  E(RHF) =  -584.497484942     A.U. after   14 cycles
 Normal termination of Gaussian 16 at Sat Apr  5 22:55:04 2025.
 Gaussian 16:  ES64L-G16RevC.01  3-Jul-2019

 ----------------------------------------------------------------------
 #t hf aug-cc-pvdz iop(5/13=1,5/36=2,99/5=2) pseudo=read geom=check gue
 ss=(read,tcheck) scf=(maxcycle=1)
 ----------------------------------------------------------------------
 -----
 title
 -----
 Structure from the checkpoint file:  "aminoethylthiocyanate.chk"
 Charge =  0 Multiplicity = 1

                         Standard orientation:
 ---------------------------------------------------------------------
 Center     Atomic      Atomic             Coordinates (Angstroms)
 Number     Number       Type             X           Y           Z
 ---------------------------------------------------------------------
      1         16           0       -0.154598    0.797920   -0.000126
      2          7           0       -2.619333   -0.626920    0.000187
      3          7           0        2.422422   -0.270399    0.000050
      4          6           0       -1.619108   -0.044584    0.000062
      5          6           0        1.077109   -0.690019   -0.000032
      6          1           0        2.715554    0.220385    0.831850
      7          1           0        2.715654    0.220307   -0.831658
      8          1           0        0.836423   -1.259219   -0.891167
      9          1           0        0.836311   -1.259342    0.891152
 ---------------------------------------------------------------------

 SCF Done:  E(RHF) =  -584.745196038     A.U. after    2 cycles

 The electronic state is 1-A.
 Alpha  occ. eigenvalues --  -93.99848 -15.53556 -15.51969 -11.34388 -11.30088
 Alpha  occ. eigenvalues --   -8.27959  -6.25804  -6.25553  -6.25351  -1.24588
 Alpha  occ. eigenvalues --   -1.23706  -1.08476  -0.93168  -0.76555  -0.69885
 Alpha  occ. eigenvalues --   -0.69203  -0.61209  -0.61138  -0.56125  -0.54332
 Alpha  occ. eigenvalues --   -0.51855  -0.43218  -0.39696
 Alpha virt. eigenvalues --    0.02168   0.04504   0.04722   0.06612   0.06775
 Alpha virt. eigenvalues --    0.08388   0.09837   0.10658   0.12231   0.12562
 Alpha virt. eigenvalues --    0.13899   0.14602   0.15548   0.16389   0.16454

 Mulliken charges:
               1
     1  S    0.676354
     2  N    0.636146
     3  N    0.365842
     4  C   -1.350258
     5  C   -0.975073
     6  H    0.145669
     7  H    0.145599
     8  H    0.177742
     9  H    0.177978
 Sum of Mulliken charges =  -0.00000

 Dipole moment (field-independent basis, Debye):
    X=              5.2987    Y=              1.1669    Z=             -0.0003  Tot=              5.4257

 Test job not archived.
 1\1\GINC-SE010\SP\RHF\Aug-CC-pVDZ\C2H4N2S1\OHZDE\05-Apr-2025\0\\#t hf
 aug-cc-pvdz iop(5/13=1,5/36=2,99/5=2) pseudo=read geom=check guess=(re
 ad,tcheck) scf=(maxcycle=1)\\title\\0,1\S,0,-0.154598,0.79792,-0.00012
 6\N,0,-2.619333,-0.62692,0.000187\N,0,2.422422,-0.270399,0.00005\C,0,-
 1.619108,-0.044584,0.000062\C,0,1.077109,-0.690019,-0.000032\H,0,2.715
 554,0.220385,0.83185\H,0,2.715654,0.220307,-0.831658\H,0,0.836423,-1.2
 59219,-0.891167\H,0,0.836311,-1.259342,0.891152\\Version=ES64L-G16RevC
 .01\State=1-A\HF=-584.745196\RMSD=1.243e-02\Dipole=2.0846833,0.4591056

 Normal termination of Gaussian 16 at Sat Apr  5 22:55:47 2025.
