 Gaussian 16, Revision C.01,

 ----------------------------------------------------------------------
 #t hf aug-cc-pvdz symm=none int=(grid=ultrafine) guess=(read,tcheck) s
 table=(opt,rrhf)
 ----------------------------------------------------------------------
 -----
 title
 -----
 Symbolic Z-matrix:
 Charge =  0 Multiplicity = 1

 SCF Done:  E(RHF) =  -285.770885018     A.U. after   15 cycles
 Normal termination of Gaussian 16 at Sat Apr  5 22:55:29 2025.
 Gaussian 16:  ES64L-G16RevC.01  3-Jul-2019

 ----------------------------------------------------------------------
 #t hf aug-cc-pvdz iop(5/13=1,5/36=2,99/5=2) pseudo=read geom=check gue
 ss=(read,tcheck) scf=(maxcycle=1)
 ----------------------------------------------------------------------
 -----
 title
 -----
 Structure from the checkpoint file:  "aniline.chk"
 Charge =  0 Multiplicity = 1

                         Standard orientation:
 ---------------------------------------------------------------------
 Center     Atomic      Atomic             Coordinates (Angstroms)
 Number     Number       Type             X           Y           Z
 ---------------------------------------------------------------------
      1          6           0       -0.003357   -1.874982   -0.000000
      2          6           0       -0.003231   -1.167816    1.197776
      3          6           0       -0.003231   -1.167816   -1.197776
      4          6           0       -0.003231    0.219824    1.202965
      5          6           0       -0.003231    0.219824   -1.202965
      6          6           0       -0.002373    0.934694    0.000000
      7          7           0       -0.059398    2.328540    0.000000
      8          1           0       -0.002994   -2.955765   -0.000000
      9          1           0       -0.002518   -1.699840    2.140057
     10          1           0       -0.002518   -1.699840   -2.140057
     11          1           0       -0.008370    0.757854    2.143040
     12          1           0       -0.008370    0.757854   -2.143040
     13          1           0        0.276236    2.778796   -0.835682
     14          1           0        0.276236    2.778796    0.835682
 ---------------------------------------------------------------------

 SCF Done:  E(RHF) =  -286.070026882     A.U. after    2 cycles

 The electronic state is 1-A'.
 Alpha  occ. eigenvalues --  -15.50809 -11.28237 -11.24096 -11.24081 -11.22918
 Alpha  occ. eigenvalues --  -11.22917 -11.22471  -1.22472  -1.13016  -1.01459
 Alpha  occ. eigenvalues --   -0.99133  -0.84253  -0.82898  -0.72991  -0.71803
 Alpha  occ. eigenvalues --   -0.67273  -0.61600  -0.61441  -0.59397  -0.55658
 Alpha  occ. eigenvalues --   -0.52170  -0.49949  -0.47136  -0.34554  -0.31015
 Alpha virt. eigenvalues --    0.03058   0.03934   0.04050   0.05234   0.05263
 Alpha virt. eigenvalues --    0.07717   0.08725   0.10479   0.11107   0.11674
 Alpha virt. eigenvalues --    0.12891   0.13159   0.13729   0.14403   0.14775

 Mulliken charges:
               1
     1  C   -0.069820
     2  C    0.380381
     3  C    0.380381
     4  C    0.499179
     5  C    0.499179
     6  C   -1.162825
     7  N    0.739480
     8  H   -0.224059
     9  H   -0.234755
    10  H   -0.234755
    11  H   -0.287849
    12  H   -0.287849
    13  H    0.001656
    14  H    0.001656
 Sum of Mulliken charges =  -0.00000

 Dipole moment (field-independent basis, Debye):
    X=              0.9950    Y=              0.9117    Z=              0.0000  Tot=              1.3495

 Test job not archived.
 1\1\GINC-SE115\SP\RHF\Aug-CC-pVDZ\C6H7N1\OHZDE\05-Apr-2025\0\\#t hf au
 g-cc-pvdz iop(5/13=1,5/36=2,99/5=2) pseudo=read geom=check guess=(read
 ,tcheck) scf=(maxcycle=1)\\title\\0,1\C,0,-0.003357,-1.874982,0.\C,0,-
 0.003231,-1.167816,1.197776\C,0,-0.003231,-1.167816,-1.197776\C,0,-0.0
 03231,0.219824,1.202965\C,0,-0.003231,0.219824,-1.202965\C,0,-0.002373
 ,0.934694,0.\N,0,-0.059398,2.32854,0.\H,0,-0.002994,-2.955765,0.\H,0,-
 0.002518,-1.69984,2.140057\H,0,-0.002518,-1.69984,-2.140057\H,0,-0.008
 37,0.757854,2.14304\H,0,-0.00837,0.757854,-2.14304\H,0,0.276236,2.7787

 Normal termination of Gaussian 16 at Sat Apr  5 22:55:48 2025.
