 Gaussian 16, Revision C.01,

 ----------------------------------------------------------------------
 #t hf aug-cc-pvdz symm=none int=(grid=ultrafine) guess=(read,tcheck) s
 table=(opt,rrhf)
 ----------------------------------------------------------------------
 -----
 title
 -----
 Symbolic Z-matrix:
 Charge =  0 Multiplicity = 1

 SCF Done:  E(RHF) =  -344.623736527     A.U. after   15 cycles
 Normal termination of Gaussian 16 at Sat Apr  5 22:56:34 2025.
 Gaussian 16:  ES64L-G16RevC.01  3-Jul-2019

 ----------------------------------------------------------------------
 #t hf aug-cc-pvdz iop(5/13=1,5/36=2,99/5=2) pseudo=read geom=check gue
 ss=(read,tcheck) scf=(maxcycle=1)
 ----------------------------------------------------------------------
 -----
 title
 -----
 Structure from the checkpoint file:  "anisole.chk"
 Charge =  0 Multiplicity = 1

                         Standard orientation:
 ---------------------------------------------------------------------
 Center     Atomic      Atomic             Coordinates (Angstroms)
 Number     Number       Type             X           Y           Z
 ---------------------------------------------------------------------
      1          6           0        0.893738   -2.119560    0.000000
      2          6           0       -0.463564   -1.836161    0.000000
      3          6           0        1.807314   -1.066569    0.000000
      4          6           0       -0.921006   -0.519558    0.000000
      5          6           0        1.369118    0.246605    0.000000
      6          6           0        0.000000    0.526996    0.000000
      7          6           0       -1.709890    2.199611    0.000000
      8          8           0       -0.335558    1.848902    0.000000
      9          1           0        1.239334   -3.143772    0.000000
     10          1           0       -1.185110   -2.642410    0.000000
     11          1           0        2.869659   -1.271259    0.000000
     12          1           0       -1.982692   -0.326351    0.000000
     13          1           0        2.067189    1.072124    0.000000
     14          1           0       -2.218233    1.823281    0.891490
     15          1           0       -2.218233    1.823281   -0.891490
     16          1           0       -1.741707    3.285711    0.000000
 ---------------------------------------------------------------------

 SCF Done:  E(RHF) =  -344.980402512     A.U. after    2 cycles

 The electronic state is 1-A'.
 Alpha  occ. eigenvalues --  -20.57082 -11.30508 -11.29460 -11.24533 -11.24393
 Alpha  occ. eigenvalues --  -11.23652 -11.23249 -11.23151  -1.49564  -1.15110
 Alpha  occ. eigenvalues --   -1.02543  -1.01667  -0.94640  -0.84176  -0.81674
 Alpha  occ. eigenvalues --   -0.73213  -0.67420  -0.67179  -0.65668  -0.62949
 Alpha  occ. eigenvalues --   -0.60184  -0.58711  -0.53373  -0.53283  -0.52103
 Alpha  occ. eigenvalues --   -0.48705  -0.46933  -0.34917  -0.31799
 Alpha virt. eigenvalues --    0.03443   0.03642   0.03930   0.05058   0.05356
 Alpha virt. eigenvalues --    0.05384   0.07317   0.09079   0.10262   0.10459
 Alpha virt. eigenvalues --    0.12035   0.12998   0.13248   0.13606   0.14043

 Mulliken charges:
               1
     1  C   -0.048762
     2  C    0.615703
     3  C    0.664354
     4  C   -0.318206
     5  C   -0.238768
     6  C    2.121605
     7  C    0.134517
     8  O   -1.864097
     9  H   -0.222569
    10  H   -0.230061
    11  H   -0.220670
    12  H   -0.435422
    13  H   -0.262450
    14  H    0.173853
    15  H    0.173853
    16  H   -0.042879
 Sum of Mulliken charges =  -0.00000

 Dipole moment (field-independent basis, Debye):
    X=             -1.3106    Y=              0.0274    Z=             -0.0000  Tot=              1.3109

 Test job not archived.
 1\1\GINC-SE115\SP\RHF\Aug-CC-pVDZ\C7H8O1\OHZDE\05-Apr-2025\0\\#t hf au
 g-cc-pvdz iop(5/13=1,5/36=2,99/5=2) pseudo=read geom=check guess=(read
 ,tcheck) scf=(maxcycle=1)\\title\\0,1\C,0,0.893738,-2.11956,0.\C,0,-0.
 463564,-1.836161,0.\C,0,1.807314,-1.066569,0.\C,0,-0.921006,-0.519558,
 0.\C,0,1.369118,0.246605,0.\C,0,0.,0.526996,0.\C,0,-1.70989,2.199611,0
 .\O,0,-0.335558,1.848902,0.\H,0,1.239334,-3.143772,0.\H,0,-1.18511,-2.
 64241,0.\H,0,2.869659,-1.271259,0.\H,0,-1.982692,-0.326351,0.\H,0,2.06
 7189,1.072124,0.\H,0,-2.218233,1.823281,0.89149\H,0,-2.218233,1.823281

 Normal termination of Gaussian 16 at Sat Apr  5 22:56:43 2025.
