 Gaussian 16, Revision C.01,

 ----------------------------------------------------------------------
 #t hf aug-cc-pvdz symm=none int=(grid=ultrafine) guess=(read,tcheck) s
 table=(opt,rrhf)
 ----------------------------------------------------------------------
 -----
 title
 -----
 Symbolic Z-matrix:
 Charge =  0 Multiplicity = 1

 SCF Done:  E(RHF) =  -536.051751064     A.U. after   14 cycles
 Normal termination of Gaussian 16 at Sat Apr  5 22:59:57 2025.
 Gaussian 16:  ES64L-G16RevC.01  3-Jul-2019

 ----------------------------------------------------------------------
 #t hf aug-cc-pvdz iop(5/13=1,5/36=2,99/5=2) pseudo=read geom=check gue
 ss=(read,tcheck) scf=(maxcycle=1)
 ----------------------------------------------------------------------
 -----
 title
 -----
 Structure from the checkpoint file:  "anthracene.chk"
 Charge =  0 Multiplicity = 1

                         Standard orientation:
 ---------------------------------------------------------------------
 Center     Atomic      Atomic             Coordinates (Angstroms)
 Number     Number       Type             X           Y           Z
 ---------------------------------------------------------------------
      1          6           0        0.000000    1.218890    0.719869
      2          6           0        0.000000    1.218890   -0.719869
      3          6           0        0.000000    0.000000    1.398321
      4          6           0        0.000000    2.470807    1.401530
      5          6           0        0.000000   -0.000000   -1.398321
      6          6           0        0.000000    2.470807   -1.401530
      7          6           0       -0.000000   -1.218890    0.719869
      8          6           0        0.000000    3.646151    0.710698
      9          6           0       -0.000000   -1.218890   -0.719869
     10          6           0        0.000000    3.646151   -0.710698
     11          6           0       -0.000000   -2.470807    1.401530
     12          6           0       -0.000000   -2.470807   -1.401530
     13          6           0       -0.000000   -3.646151    0.710698
     14          6           0       -0.000000   -3.646151   -0.710698
     15          1           0        0.000000    0.000000    2.481982
     16          1           0        0.000000    2.470066    2.484308
     17          1           0        0.000000   -0.000000   -2.481982
     18          1           0        0.000000    2.470066   -2.484308
     19          1           0        0.000000    4.588686    1.241764
     20          1           0        0.000000    4.588686   -1.241764
     21          1           0       -0.000000   -2.470066    2.484308
     22          1           0       -0.000000   -2.470066   -2.484308
     23          1           0       -0.000000   -4.588686    1.241764
     24          1           0       -0.000000   -4.588686   -1.241764
 ---------------------------------------------------------------------

 SCF Done:  E(RHF) =  -536.598435522     A.U. after    2 cycles

 The electronic state is 1-AG.
 Alpha  occ. eigenvalues --  -11.25115 -11.25104 -11.25051 -11.25028 -11.24553
 Alpha  occ. eigenvalues --  -11.24533 -11.24526 -11.24516 -11.24510 -11.24502
 Alpha  occ. eigenvalues --  -11.24409 -11.24406 -11.24390 -11.24388  -1.19141
 Alpha  occ. eigenvalues --   -1.15097  -1.08918  -1.06793  -1.02673  -1.00932
 Alpha  occ. eigenvalues --   -0.96662  -0.88913  -0.85584  -0.82850  -0.82063
 Alpha  occ. eigenvalues --   -0.75722  -0.72830  -0.70440  -0.66005  -0.65920
 Alpha  occ. eigenvalues --   -0.63900  -0.63646  -0.60632  -0.59362  -0.59183
 Alpha  occ. eigenvalues --   -0.56285  -0.55656  -0.55204  -0.50913  -0.50458
 Alpha  occ. eigenvalues --   -0.50160  -0.48345  -0.42390  -0.41720  -0.35757
 Alpha  occ. eigenvalues --   -0.32119  -0.26878
 Alpha virt. eigenvalues --    0.02976   0.03153   0.03541   0.04072   0.04103
 Alpha virt. eigenvalues --    0.04107   0.05911   0.06287   0.08391   0.08568
 Alpha virt. eigenvalues --    0.08981   0.09237   0.10025   0.10371   0.10740

 Mulliken charges:
               1
     1  C    0.887305
     2  C    0.887305
     3  C   -0.270676
     4  C    0.132982
     5  C   -0.270676
     6  C    0.132982
     7  C    0.887305
     8  C   -0.163195
     9  C    0.887305
    10  C   -0.163195
    11  C    0.132982
    12  C    0.132982
    13  C   -0.163195
    14  C   -0.163195
    15  H   -0.310919
    16  H   -0.304266
    17  H   -0.310919
    18  H   -0.304266
    19  H   -0.262028
    20  H   -0.262028
    21  H   -0.304266
    22  H   -0.304266
    23  H   -0.262028
    24  H   -0.262028
 Sum of Mulliken charges =  -0.00000

 Dipole moment (field-independent basis, Debye):
    X=              0.0000    Y=             -0.0000    Z=              0.0000  Tot=              0.0000

 Test job not archived.
 1\1\GINC-SE164\SP\RHF\Aug-CC-pVDZ\C14H10\OHZDE\05-Apr-2025\0\\#t hf au
 g-cc-pvdz iop(5/13=1,5/36=2,99/5=2) pseudo=read geom=check guess=(read
 ,tcheck) scf=(maxcycle=1)\\title\\0,1\C,0,0.,0.719869,1.21889\C,0,0.,-
 0.719869,1.21889\C,0,0.,1.398321,0.\C,0,0.,1.40153,2.470807\C,0,0.,-1.
 398321,0.\C,0,0.,-1.40153,2.470807\C,0,0.,0.719869,-1.21889\C,0,0.,0.7
 10698,3.646151\C,0,0.,-0.719869,-1.21889\C,0,0.,-0.710698,3.646151\C,0
 ,0.,1.40153,-2.470807\C,0,0.,-1.40153,-2.470807\C,0,0.,0.710698,-3.646
 151\C,0,0.,-0.710698,-3.646151\H,0,0.,2.481982,0.\H,0,0.,2.484308,2.47

 Normal termination of Gaussian 16 at Sat Apr  5 23:00:07 2025.
