 Gaussian 16, Revision C.01,

 ----------------------------------------------------------------------
 #t hf aug-cc-pvdz symm=none int=(grid=ultrafine) guess=(read,tcheck) s
 table=(opt,rrhf)
 ----------------------------------------------------------------------
 -----
 title
 -----
 Symbolic Z-matrix:
 Charge =  0 Multiplicity = 1

 SCF Done:  E(RHF) =  -309.869486483     A.U. after   11 cycles
 Normal termination of Gaussian 16 at Sat Apr  5 22:56:06 2025.
 Gaussian 16:  ES64L-G16RevC.01  3-Jul-2019

 ----------------------------------------------------------------------
 #t hf aug-cc-pvdz iop(5/13=1,5/36=2,99/5=2) pseudo=read geom=check gue
 ss=(read,tcheck) scf=(maxcycle=1)
 ----------------------------------------------------------------------
 -----
 title
 -----
 Structure from the checkpoint file:  "anti-tricyclo-4-2-0-0-octane.chk"
 Charge =  0 Multiplicity = 1

                         Standard orientation:
 ---------------------------------------------------------------------
 Center     Atomic      Atomic             Coordinates (Angstroms)
 Number     Number       Type             X           Y           Z
 ---------------------------------------------------------------------
      1          6           0       -0.418466    0.644989    0.791107
      2          6           0       -0.418466    0.644989   -0.791107
      3          6           0        0.418466   -0.644989    0.791107
      4          6           0        0.418466    1.946235    0.777144
      5          6           0        0.418466   -0.644989   -0.791107
      6          6           0        0.418466    1.946235   -0.777144
      7          6           0       -0.418466   -1.946235   -0.777144
      8          6           0       -0.418466   -1.946235    0.777144
      9          1           0       -1.320254    0.645883    1.403108
     10          1           0       -1.320254    0.645883   -1.403108
     11          1           0        1.320254   -0.645883    1.403108
     12          1           0       -0.103896    2.800429    1.206129
     13          1           0        1.394828    1.871332    1.257928
     14          1           0        1.320254   -0.645883   -1.403108
     15          1           0        1.394828    1.871332   -1.257928
     16          1           0       -0.103896    2.800429   -1.206129
     17          1           0       -1.394828   -1.871332   -1.257928
     18          1           0        0.103896   -2.800429   -1.206129
     19          1           0        0.103896   -2.800429    1.206129
     20          1           0       -1.394828   -1.871332    1.257928
 ---------------------------------------------------------------------

 SCF Done:  E(RHF) =  -310.206341404     A.U. after    2 cycles

 The electronic state is 1-AG.
 Alpha  occ. eigenvalues --  -11.22405 -11.22385 -11.22348 -11.22342 -11.22161
 Alpha  occ. eigenvalues --  -11.22131 -11.22119 -11.22118  -1.17961  -1.07717
 Alpha  occ. eigenvalues --   -0.93616  -0.93441  -0.86156  -0.82530  -0.75602
 Alpha  occ. eigenvalues --   -0.68691  -0.67120  -0.66538  -0.64568  -0.58636
 Alpha  occ. eigenvalues --   -0.55792  -0.52986  -0.51479  -0.50447  -0.46826
 Alpha  occ. eigenvalues --   -0.46712  -0.43836  -0.42715  -0.39494  -0.38600
 Alpha virt. eigenvalues --    0.03401   0.03540   0.03894   0.03986   0.05151
 Alpha virt. eigenvalues --    0.05625   0.05819   0.06062   0.08385   0.08818
 Alpha virt. eigenvalues --    0.08987   0.11017   0.11474   0.12078   0.12086

 Mulliken charges:
               1
     1  C    0.144156
     2  C    0.144156
     3  C    0.144156
     4  C    0.006684
     5  C    0.144156
     6  C    0.006684
     7  C    0.006684
     8  C    0.006684
     9  H   -0.185049
    10  H   -0.185049
    11  H   -0.185049
    12  H    0.023003
    13  H    0.011205
    14  H   -0.185049
    15  H    0.011205
    16  H    0.023003
    17  H    0.011205
    18  H    0.023003
    19  H    0.023003
    20  H    0.011205
 Sum of Mulliken charges =  -0.00000

 Dipole moment (field-independent basis, Debye):
    X=              0.0000    Y=              0.0000    Z=              0.0000  Tot=              0.0000

 Test job not archived.
 1\1\GINC-SE172\SP\RHF\Aug-CC-pVDZ\C8H12\OHZDE\05-Apr-2025\0\\#t hf aug
 -cc-pvdz iop(5/13=1,5/36=2,99/5=2) pseudo=read geom=check guess=(read,
 tcheck) scf=(maxcycle=1)\\title\\0,1\C,0,-0.418466,0.644989,0.791107\C
 ,0,-0.418466,0.644989,-0.791107\C,0,0.418466,-0.644989,0.791107\C,0,0.
 418466,1.946235,0.777144\C,0,0.418466,-0.644989,-0.791107\C,0,0.418466
 ,1.946235,-0.777144\C,0,-0.418466,-1.946235,-0.777144\C,0,-0.418466,-1
 .946235,0.777144\H,0,-1.320254,0.645883,1.403108\H,0,-1.320254,0.64588
 3,-1.403108\H,0,1.320254,-0.645883,1.403108\H,0,-0.103896,2.800429,1.2

 Normal termination of Gaussian 16 at Sat Apr  5 22:56:13 2025.
