 Gaussian 16, Revision C.01,

 ----------------------------------------------------------------------
 #t hf aug-cc-pvdz symm=none int=(grid=ultrafine) guess=(read,tcheck) s
 table=(opt,rrhf)
 ----------------------------------------------------------------------
 -----
 title
 -----
 Symbolic Z-matrix:
 Charge =  0 Multiplicity = 1

 SCF Done:  E(RHF) =  -602.992426212     A.U. after   14 cycles
 Normal termination of Gaussian 16 at Sat Apr  5 22:58:43 2025.
 Gaussian 16:  ES64L-G16RevC.01  3-Jul-2019

 ----------------------------------------------------------------------
 #t hf aug-cc-pvdz iop(5/13=1,5/36=2,99/5=2) pseudo=read geom=check gue
 ss=(read,tcheck) scf=(maxcycle=1)
 ----------------------------------------------------------------------
 -----
 title
 -----
 Structure from the checkpoint file:  "arginine.chk"
 Charge =  0 Multiplicity = 1

                         Standard orientation:
 ---------------------------------------------------------------------
 Center     Atomic      Atomic             Coordinates (Angstroms)
 Number     Number       Type             X           Y           Z
 ---------------------------------------------------------------------
      1          7           0       -2.526983    1.644610    0.539401
      2          6           0       -2.309574    0.430804   -0.263716
      3          6           0       -3.543059   -0.493877   -0.155950
      4          8           0       -3.559770   -1.614822   -0.589237
      5          8           0       -4.602147    0.075386    0.430775
      6          1           0       -4.303472    0.974710    0.689949
      7          6           0       -1.025447   -0.342914    0.052142
      8          6           0        0.250781    0.404006   -0.330854
      9          6           0        1.510265   -0.390892    0.003386
     10          7           0        2.702104    0.351444   -0.372440
     11          6           0        3.997767    0.022671   -0.008400
     12          7           0        4.099684   -0.984055    0.943541
     13          7           0        5.063631    0.606486   -0.414314
     14          1           0       -2.286412    0.732459   -1.314703
     15          1           0       -1.014272   -0.576246    1.122559
     16          1           0       -1.076507   -1.298385   -0.469583
     17          1           0        0.232932    0.616099   -1.405631
     18          1           0        0.304202    1.368500    0.179891
     19          1           0        1.544459   -0.575336    1.078269
     20          1           0        1.458323   -1.369138   -0.495193
     21          1           0        2.638588    0.883680   -1.223524
     22          1           0        3.488801   -1.778017    0.839937
     23          1           0        5.061405   -1.240273    1.103040
     24          1           0        4.860793    1.403058   -1.010069
     25          1           0       -2.070153    1.586068    1.441314
     26          1           0       -2.196817    2.480125    0.078473
 ---------------------------------------------------------------------

 SCF Done:  E(RHF) =  -603.615199122     A.U. after    2 cycles

 The electronic state is 1-A.
 Alpha  occ. eigenvalues --  -20.58985 -20.53025 -15.53549 -15.52425 -15.51541
 Alpha  occ. eigenvalues --  -15.44786 -11.38918 -11.34951 -11.30899 -11.29115
 Alpha  occ. eigenvalues --  -11.26220 -11.26081  -1.53968  -1.45163  -1.29960
 Alpha  occ. eigenvalues --   -1.23388  -1.19717  -1.14530  -1.09283  -1.01230
 Alpha  occ. eigenvalues --   -0.92655  -0.85590  -0.84361  -0.81519  -0.77879
 Alpha  occ. eigenvalues --   -0.76473  -0.73266  -0.71143  -0.69716  -0.68587
 Alpha  occ. eigenvalues --   -0.67215  -0.64931  -0.64393  -0.62473  -0.61895
 Alpha  occ. eigenvalues --   -0.59129  -0.57496  -0.55254  -0.53674  -0.52793
 Alpha  occ. eigenvalues --   -0.51435  -0.49760  -0.46972  -0.46457  -0.45761
 Alpha  occ. eigenvalues --   -0.42888  -0.39257
 Alpha virt. eigenvalues --    0.01822   0.02544   0.02913   0.03919   0.04718
 Alpha virt. eigenvalues --    0.05150   0.05689   0.05756   0.06678   0.07549
 Alpha virt. eigenvalues --    0.07779   0.08109   0.08835   0.09800   0.11298

 Mulliken charges:
               1
     1  N    0.132399
     2  C   -1.587476
     3  C    2.608360
     4  O   -1.348959
     5  O   -1.359627
     6  H    0.494001
     7  C   -0.048244
     8  C   -0.456421
     9  C   -0.102253
    10  N    0.408502
    11  C   -2.108985
    12  N    0.454961
    13  N    0.804358
    14  H    0.283946
    15  H    0.142564
    16  H    0.105184
    17  H    0.066742
    18  H    0.131904
    19  H    0.030202
    20  H   -0.018026
    21  H    0.262777
    22  H    0.187405
    23  H    0.194114
    24  H    0.145091
    25  H    0.275899
    26  H    0.301582
 Sum of Mulliken charges =  -0.00000

 Dipole moment (field-independent basis, Debye):
    X=             -0.3608    Y=              2.6243    Z=              0.1364  Tot=              2.6525

 Test job not archived.
 1\1\GINC-SE173\SP\RHF\Aug-CC-pVDZ\C6H14N4O2\OHZDE\05-Apr-2025\0\\#t hf
  aug-cc-pvdz iop(5/13=1,5/36=2,99/5=2) pseudo=read geom=check guess=(r
 ead,tcheck) scf=(maxcycle=1)\\title\\0,1\N,0,-2.526983,1.64461,0.53940
 1\C,0,-2.309574,0.430804,-0.263716\C,0,-3.543059,-0.493877,-0.15595\O,
 0,-3.55977,-1.614822,-0.589237\O,0,-4.602147,0.075386,0.430775\H,0,-4.
 303472,0.97471,0.689949\C,0,-1.025447,-0.342914,0.052142\C,0,0.250781,
 0.404006,-0.330854\C,0,1.510265,-0.390892,0.003386\N,0,2.702104,0.3514
 44,-0.37244\C,0,3.997767,0.022671,-0.0084\N,0,4.099684,-0.984055,0.943

 Normal termination of Gaussian 16 at Sat Apr  5 22:59:04 2025.
