 Gaussian 16, Revision C.01,

 ----------------------------------------------------------------------
 #t hf aug-cc-pvdz symm=none int=(grid=ultrafine) guess=(read,tcheck) s
 table=(opt,rrhf)
 ----------------------------------------------------------------------
 -----
 title
 -----
 Symbolic Z-matrix:
 Charge =  0 Multiplicity = 1

 SCF Done:  E(RHF) =  -489.736109003     A.U. after   14 cycles
 Normal termination of Gaussian 16 at Sat Apr  5 22:56:46 2025.
 Gaussian 16:  ES64L-G16RevC.01  3-Jul-2019

 ----------------------------------------------------------------------
 #t hf aug-cc-pvdz iop(5/13=1,5/36=2,99/5=2) pseudo=read geom=check gue
 ss=(read,tcheck) scf=(maxcycle=1)
 ----------------------------------------------------------------------
 -----
 title
 -----
 Structure from the checkpoint file:  "asparagine.chk"
 Charge =  0 Multiplicity = 1

                         Standard orientation:
 ---------------------------------------------------------------------
 Center     Atomic      Atomic             Coordinates (Angstroms)
 Number     Number       Type             X           Y           Z
 ---------------------------------------------------------------------
      1          7           0       -0.537636    1.634468   -0.311017
      2          6           0       -0.506076    0.174773   -0.439687
      3          6           0       -1.882737   -0.418460   -0.080577
      4          8           0       -2.175140   -1.564324   -0.298926
      5          8           0       -2.703547    0.449095    0.519188
      6          1           0       -2.201073    1.295665    0.555522
      7          6           0        0.530887   -0.449933    0.513055
      8          6           0        1.954459   -0.058137    0.153171
      9          8           0        2.308657    1.111421    0.104908
     10          7           0        2.806159   -1.080562   -0.108786
     11          1           0       -0.288369   -0.160572   -1.457832
     12          1           0        0.343314   -0.088713    1.526973
     13          1           0        0.392111   -1.529176    0.509676
     14          1           0        2.517736   -2.040866   -0.075861
     15          1           0        3.761371   -0.865241   -0.340502
     16          1           0        0.386763    1.982426   -0.073290
     17          1           0       -0.810476    2.070141   -1.183197
 ---------------------------------------------------------------------

 SCF Done:  E(RHF) =  -490.228693460     A.U. after    2 cycles

 The electronic state is 1-A.
 Alpha  occ. eigenvalues --  -20.58894 -20.53054 -20.53017 -15.55169 -15.51635
 Alpha  occ. eigenvalues --  -11.38799 -11.38463 -11.30848 -11.27699  -1.53852
 Alpha  occ. eigenvalues --   -1.48041  -1.45091  -1.24808  -1.22210  -1.06640
 Alpha  occ. eigenvalues --   -0.94886  -0.85419  -0.81409  -0.78164  -0.75271
 Alpha  occ. eigenvalues --   -0.72831  -0.71364  -0.68851  -0.64447  -0.63699
 Alpha  occ. eigenvalues --   -0.62014  -0.60394  -0.57878  -0.55584  -0.54525
 Alpha  occ. eigenvalues --   -0.49101  -0.46517  -0.45605  -0.45131  -0.42448
 Alpha virt. eigenvalues --    0.02231   0.03641   0.04557   0.05051   0.05616
 Alpha virt. eigenvalues --    0.06684   0.07067   0.07538   0.09738   0.10304
 Alpha virt. eigenvalues --    0.11637   0.12093   0.12843   0.13726   0.14160

 Mulliken charges:
               1
     1  N    0.363225
     2  C   -1.457482
     3  C    2.688015
     4  O   -1.397824
     5  O   -1.364514
     6  H    0.513066
     7  C   -0.421703
     8  C    0.515681
     9  O   -1.418883
    10  N    0.834767
    11  H    0.138951
    12  H    0.270688
    13  H    0.106445
    14  H    0.062052
    15  H    0.096939
    16  H    0.236354
    17  H    0.234224
 Sum of Mulliken charges =  -0.00000

 Dipole moment (field-independent basis, Debye):
    X=              3.7354    Y=             -0.1472    Z=             -0.8834  Tot=              3.8413

 Test job not archived.
 1\1\GINC-SE196\SP\RHF\Aug-CC-pVDZ\C4H8N2O3\OHZDE\05-Apr-2025\0\\#t hf
 aug-cc-pvdz iop(5/13=1,5/36=2,99/5=2) pseudo=read geom=check guess=(re
 ad,tcheck) scf=(maxcycle=1)\\title\\0,1\N,0,-0.537636,1.634468,-0.3110
 17\C,0,-0.506076,0.174773,-0.439687\C,0,-1.882737,-0.41846,-0.080577\O
 ,0,-2.17514,-1.564324,-0.298926\O,0,-2.703547,0.449095,0.519188\H,0,-2
 .201073,1.295665,0.555522\C,0,0.530887,-0.449933,0.513055\C,0,1.954459
 ,-0.058137,0.153171\O,0,2.308657,1.111421,0.104908\N,0,2.806159,-1.080
 562,-0.108786\H,0,-0.288369,-0.160572,-1.457832\H,0,0.343314,-0.088713

 Normal termination of Gaussian 16 at Sat Apr  5 22:56:55 2025.
