 Gaussian 16, Revision C.01,

 ----------------------------------------------------------------------
 #t hf aug-cc-pvdz symm=none int=(grid=ultrafine) guess=(read,tcheck) s
 table=(opt,rrhf)
 ----------------------------------------------------------------------
 -----
 title
 -----
 Symbolic Z-matrix:
 Charge =  0 Multiplicity = 1

 SCF Done:  E(RHF) =  -509.570865086     A.U. after   14 cycles
 Normal termination of Gaussian 16 at Sat Apr  5 22:55:55 2025.
 Gaussian 16:  ES64L-G16RevC.01  3-Jul-2019

 ----------------------------------------------------------------------
 #t hf aug-cc-pvdz iop(5/13=1,5/36=2,99/5=2) pseudo=read geom=check gue
 ss=(read,tcheck) scf=(maxcycle=1)
 ----------------------------------------------------------------------
 -----
 title
 -----
 Structure from the checkpoint file:  "aspartic_acid.chk"
 Charge =  0 Multiplicity = 1

                         Standard orientation:
 ---------------------------------------------------------------------
 Center     Atomic      Atomic             Coordinates (Angstroms)
 Number     Number       Type             X           Y           Z
 ---------------------------------------------------------------------
      1          7           0       -0.559751    1.671657    0.045915
      2          6           0       -0.532972    0.280240   -0.418930
      3          6           0       -1.890012   -0.388824   -0.132659
      4          8           0       -2.226830   -1.423048   -0.641390
      5          8           0       -2.644131    0.266174    0.760645
      6          1           0       -2.137138    1.070719    1.003194
      7          6           0        0.538406   -0.536571    0.312301
      8          6           0        1.953822   -0.103384    0.017412
      9          8           0        2.287312    0.951709   -0.465001
     10          8           0        2.843745   -1.045709    0.388575
     11          1           0       -0.363243    0.188219   -1.494723
     12          1           0        0.398061   -0.461864    1.395187
     13          1           0        0.431236   -1.589892    0.058200
     14          1           0        0.385487    2.025817    0.133560
     15          1           0       -1.022701    2.261966   -0.635773
     16          1           0        3.730329   -0.698333    0.207579
 ---------------------------------------------------------------------

 SCF Done:  E(RHF) =  -510.078430196     A.U. after    2 cycles

 The electronic state is 1-A.
 Alpha  occ. eigenvalues --  -20.62371 -20.59451 -20.56509 -20.53443 -15.52519
 Alpha  occ. eigenvalues --  -11.42289 -11.39264 -11.31073 -11.28511  -1.57372
 Alpha  occ. eigenvalues --   -1.54302  -1.47907  -1.45560  -1.22976  -1.08320
 Alpha  occ. eigenvalues --   -0.96431  -0.84581  -0.81694  -0.76198  -0.73754
 Alpha  occ. eigenvalues --   -0.72990  -0.71353  -0.69770  -0.66819  -0.64134
 Alpha  occ. eigenvalues --   -0.62868  -0.60300  -0.57912  -0.56492  -0.55879
 Alpha  occ. eigenvalues --   -0.50189  -0.49404  -0.47327  -0.46570  -0.43537
 Alpha virt. eigenvalues --    0.02944   0.03424   0.04406   0.05356   0.06082
 Alpha virt. eigenvalues --    0.06499   0.06731   0.09320   0.10340   0.11298
 Alpha virt. eigenvalues --    0.12390   0.13120   0.13615   0.13974   0.14462

 Mulliken charges:
               1
     1  N    0.430705
     2  C   -1.316450
     3  C    2.658964
     4  O   -1.383480
     5  O   -1.358183
     6  H    0.503336
     7  C   -0.689519
     8  C    2.331610
     9  O   -1.273668
    10  O   -1.313775
    11  H    0.110203
    12  H    0.279078
    13  H    0.204724
    14  H    0.207373
    15  H    0.197740
    16  H    0.411342
 Sum of Mulliken charges =  -0.00000

 Dipole moment (field-independent basis, Debye):
    X=              3.5284    Y=              2.1916    Z=              0.4768  Tot=              4.1809

 Test job not archived.
 1\1\GINC-SE225\SP\RHF\Aug-CC-pVDZ\C4H7N1O4\OHZDE\05-Apr-2025\0\\#t hf
 aug-cc-pvdz iop(5/13=1,5/36=2,99/5=2) pseudo=read geom=check guess=(re
 ad,tcheck) scf=(maxcycle=1)\\title\\0,1\N,0,-0.559751,1.671657,0.04591
 5\C,0,-0.532972,0.28024,-0.41893\C,0,-1.890012,-0.388824,-0.132659\O,0
 ,-2.22683,-1.423048,-0.64139\O,0,-2.644131,0.266174,0.760645\H,0,-2.13
 7138,1.070719,1.003194\C,0,0.538406,-0.536571,0.312301\C,0,1.953822,-0
 .103384,0.017412\O,0,2.287312,0.951709,-0.465001\O,0,2.843745,-1.04570
 9,0.388575\H,0,-0.363243,0.188219,-1.494723\H,0,0.398061,-0.461864,1.3

 Normal termination of Gaussian 16 at Sat Apr  5 22:56:02 2025.
