 Gaussian 16, Revision C.01,

 ----------------------------------------------------------------------
 #t hf aug-cc-pvdz symm=none int=(grid=ultrafine) guess=(read,tcheck) s
 table=(opt,rrhf)
 ----------------------------------------------------------------------
 -----
 title
 -----
 Symbolic Z-matrix:
 Charge =  0 Multiplicity = 1

 SCF Done:  E(RHF) =  -172.103281639     A.U. after   12 cycles
 Normal termination of Gaussian 16 at Sat Apr  5 22:55:04 2025.
 Gaussian 16:  ES64L-G16RevC.01  3-Jul-2019

 ----------------------------------------------------------------------
 #t hf aug-cc-pvdz iop(5/13=1,5/36=2,99/5=2) pseudo=read geom=check gue
 ss=(read,tcheck) scf=(maxcycle=1)
 ----------------------------------------------------------------------
 -----
 title
 -----
 Structure from the checkpoint file:  "azetidine.chk"
 Charge =  0 Multiplicity = 1

                         Standard orientation:
 ---------------------------------------------------------------------
 Center     Atomic      Atomic             Coordinates (Angstroms)
 Number     Number       Type             X           Y           Z
 ---------------------------------------------------------------------
      1          6           0        0.082897    1.078427   -0.000000
      2          6           0        0.082897   -0.051210    1.054630
      3          6           0        0.082897   -0.051210   -1.054630
      4          7           0       -0.374490   -0.989590    0.000000
      5          1           0       -0.845440    1.645623   -0.000000
      6          1           0        0.926741    1.763706   -0.000000
      7          1           0        1.090133   -0.261322    1.431487
      8          1           0       -0.597396    0.043257    1.901760
      9          1           0       -0.597396    0.043257   -1.901760
     10          1           0        1.090133   -0.261322   -1.431487
     11          1           0        0.062512   -1.902110    0.000000
 ---------------------------------------------------------------------

 SCF Done:  E(RHF) =  -172.292806866     A.U. after    2 cycles

 The electronic state is 1-A'.
 Alpha  occ. eigenvalues --  -15.47810 -11.25474 -11.25416 -11.22833  -1.22441
 Alpha  occ. eigenvalues --   -0.97694  -0.91544  -0.77503  -0.71211  -0.66557
 Alpha  occ. eigenvalues --   -0.57289  -0.54865  -0.53192  -0.48841  -0.46642
 Alpha  occ. eigenvalues --   -0.40277
 Alpha virt. eigenvalues --    0.03800   0.04576   0.04733   0.04808   0.06389
 Alpha virt. eigenvalues --    0.06509   0.07272   0.10715   0.11126   0.13874
 Alpha virt. eigenvalues --    0.14593   0.15490   0.16236   0.16680   0.17387

 Mulliken charges:
               1
     1  C   -0.072990
     2  C   -0.157886
     3  C   -0.157886
     4  N    0.176719
     5  H    0.052842
     6  H    0.047759
     7  H   -0.027754
     8  H   -0.000584
     9  H   -0.000584
    10  H   -0.027754
    11  H    0.168117
 Sum of Mulliken charges =  -0.00000

 Dipole moment (field-independent basis, Debye):
    X=              1.4638    Y=              0.4055    Z=             -0.0000  Tot=              1.5190

 Test job not archived.
 1\1\GINC-SE047\SP\RHF\Aug-CC-pVDZ\C3H7N1\OHZDE\05-Apr-2025\0\\#t hf au
 g-cc-pvdz iop(5/13=1,5/36=2,99/5=2) pseudo=read geom=check guess=(read
 ,tcheck) scf=(maxcycle=1)\\title\\0,1\C,0,0.082897,1.078427,0.\C,0,0.0
 82897,-0.05121,1.05463\C,0,0.082897,-0.05121,-1.05463\N,0,-0.37449,-0.
 98959,0.\H,0,-0.84544,1.645623,0.\H,0,0.926741,1.763706,0.\H,0,1.09013
 3,-0.261322,1.431487\H,0,-0.597396,0.043257,1.90176\H,0,-0.597396,0.04
 3257,-1.90176\H,0,1.090133,-0.261322,-1.431487\H,0,0.062512,-1.90211,0
 .\\Version=ES64L-G16RevC.01\State=1-A'\HF=-172.2928069\RMSD=1.775e-02\

 Normal termination of Gaussian 16 at Sat Apr  5 22:55:47 2025.
