 Gaussian 16, Revision C.01,

 ----------------------------------------------------------------------
 #t hf aug-cc-pvdz symm=none int=(grid=ultrafine) guess=(read,tcheck) s
 table=(opt,rrhf)
 ----------------------------------------------------------------------
 -----
 title
 -----
 Symbolic Z-matrix:
 Charge =  0 Multiplicity = 1

 SCF Done:  E(RHF) =  -240.751863280     A.U. after   15 cycles
 Normal termination of Gaussian 16 at Sat Apr  5 22:55:03 2025.
 Gaussian 16:  ES64L-G16RevC.01  3-Jul-2019

 ----------------------------------------------------------------------
 #t hf aug-cc-pvdz iop(5/13=1,5/36=2,99/5=2) pseudo=read geom=check gue
 ss=(read,tcheck) scf=(maxcycle=1)
 ----------------------------------------------------------------------
 -----
 title
 -----
 Structure from the checkpoint file:  "azidoethene.chk"
 Charge =  0 Multiplicity = 1

                         Standard orientation:
 ---------------------------------------------------------------------
 Center     Atomic      Atomic             Coordinates (Angstroms)
 Number     Number       Type             X           Y           Z
 ---------------------------------------------------------------------
      1          7           0       -0.091593   -0.542859   -0.000002
      2          7           0       -1.235025   -0.089021    0.000000
      3          7           0       -2.326717    0.196979    0.000000
      4          6           0        0.978435    0.373808    0.000000
      5          6           0        2.241526   -0.037019    0.000000
      6          1           0        0.716580    1.426207    0.000003
      7          1           0        2.493945   -1.087536   -0.000002
      8          1           0        3.043059    0.684904    0.000002
 ---------------------------------------------------------------------

 SCF Done:  E(RHF) =  -240.991471084     A.U. after    2 cycles

 The electronic state is 1-A.
 Alpha  occ. eigenvalues --  -15.73487 -15.62264 -15.56351 -11.29993 -11.24272
 Alpha  occ. eigenvalues --   -1.52971  -1.34830  -1.08518  -0.90190  -0.79259
 Alpha  occ. eigenvalues --   -0.77263  -0.73960  -0.73541  -0.63126  -0.57951
 Alpha  occ. eigenvalues --   -0.51887  -0.50311  -0.36153
 Alpha virt. eigenvalues --    0.03664   0.04695   0.04839   0.06866   0.07056
 Alpha virt. eigenvalues --    0.08853   0.10957   0.11119   0.12144   0.13751
 Alpha virt. eigenvalues --    0.14156   0.16318   0.17357   0.17493   0.17697

 Mulliken charges:
               1
     1  N    0.163449
     2  N   -1.300936
     3  N    0.967317
     4  C    0.113159
     5  C    0.185834
     6  H   -0.051102
     7  H   -0.006086
     8  H   -0.071635
 Sum of Mulliken charges =   0.00000

 Dipole moment (field-independent basis, Debye):
    X=              1.2289    Y=              1.1469    Z=              0.0000  Tot=              1.6809

 Test job not archived.
 1\1\GINC-SE213\SP\RHF\Aug-CC-pVDZ\C2H3N3\OHZDE\05-Apr-2025\0\\#t hf au
 g-cc-pvdz iop(5/13=1,5/36=2,99/5=2) pseudo=read geom=check guess=(read
 ,tcheck) scf=(maxcycle=1)\\title\\0,1\N,0,-0.091593,-0.542859,-0.00000
 2\N,0,-1.235025,-0.089021,0.\N,0,-2.326717,0.196979,0.\C,0,0.978435,0.
 373808,0.\C,0,2.241526,-0.037019,0.\H,0,0.71658,1.426207,0.000003\H,0,
 2.493945,-1.087536,-0.000002\H,0,3.043059,0.684904,0.000002\\Version=E
 S64L-G16RevC.01\State=1-A\HF=-240.9914711\RMSD=1.003e-01\Dipole=0.4834
 92,0.4512175,0.0000018\Quadrupole=0.642641,0.8023522,-1.4449932,0.4286

 Normal termination of Gaussian 16 at Sat Apr  5 22:55:47 2025.
