 Gaussian 16, Revision C.01,

 ----------------------------------------------------------------------
 #t hf aug-cc-pvdz symm=none int=(grid=ultrafine) guess=(read,tcheck) s
 table=(opt,rrhf)
 ----------------------------------------------------------------------
 -----
 title
 -----
 Symbolic Z-matrix:
 Charge =  0 Multiplicity = 1

 SCF Done:  E(RHF) =  -133.059615408     A.U. after   11 cycles
 Normal termination of Gaussian 16 at Sat Apr  5 22:55:00 2025.
 Gaussian 16:  ES64L-G16RevC.01  3-Jul-2019

 ----------------------------------------------------------------------
 #t hf aug-cc-pvdz iop(5/13=1,5/36=2,99/5=2) pseudo=read geom=check gue
 ss=(read,tcheck) scf=(maxcycle=1)
 ----------------------------------------------------------------------
 -----
 title
 -----
 Structure from the checkpoint file:  "aziridine.chk"
 Charge =  0 Multiplicity = 1

                         Standard orientation:
 ---------------------------------------------------------------------
 Center     Atomic      Atomic             Coordinates (Angstroms)
 Number     Number       Type             X           Y           Z
 ---------------------------------------------------------------------
      1          7           0       -0.037940    0.872541   -0.000000
      2          1           0        0.888780    1.282744   -0.000000
      3          6           0       -0.037940   -0.397603    0.739990
      4          6           0       -0.037940   -0.397603   -0.739990
      5          1           0       -0.952512   -0.607514    1.278587
      6          1           0        0.868549   -0.702138    1.248293
      7          1           0       -0.952512   -0.607514   -1.278587
      8          1           0        0.868549   -0.702138   -1.248293
 ---------------------------------------------------------------------

 SCF Done:  E(RHF) =  -133.208327416     A.U. after    2 cycles

 The electronic state is 1-A'.
 Alpha  occ. eigenvalues --  -15.49896 -11.26281 -11.26203  -1.25828  -0.90943
 Alpha  occ. eigenvalues --   -0.84618  -0.72075  -0.66087  -0.53667  -0.51478
 Alpha  occ. eigenvalues --   -0.50161  -0.42506
 Alpha virt. eigenvalues --    0.03714   0.04890   0.04957   0.05584   0.06659
 Alpha virt. eigenvalues --    0.10490   0.11669   0.11886   0.14659   0.16488
 Alpha virt. eigenvalues --    0.16920   0.18053   0.19056   0.20288   0.20741

 Mulliken charges:
               1
     1  N    0.117249
     2  H    0.120838
     3  C    0.032478
     4  C    0.032478
     5  H   -0.065981
     6  H   -0.085541
     7  H   -0.065981
     8  H   -0.085541
 Sum of Mulliken charges =   0.00000

 Dipole moment (field-independent basis, Debye):
    X=              1.3861    Y=             -1.4607    Z=              0.0000  Tot=              2.0137

 Test job not archived.
 1\1\GINC-SE214\SP\RHF\Aug-CC-pVDZ\C2H5N1\OHZDE\05-Apr-2025\0\\#t hf au
 g-cc-pvdz iop(5/13=1,5/36=2,99/5=2) pseudo=read geom=check guess=(read
 ,tcheck) scf=(maxcycle=1)\\title\\0,1\N,0,-0.03794,0.872541,0.\H,0,0.8
 8878,1.282744,0.\C,0,-0.03794,-0.397603,0.73999\C,0,-0.03794,-0.397603
 ,-0.73999\H,0,-0.952512,-0.607514,1.278587\H,0,0.868549,-0.702138,1.24
 8293\H,0,-0.952512,-0.607514,-1.278587\H,0,0.868549,-0.702138,-1.24829
 3\\Version=ES64L-G16RevC.01\State=1-A'\HF=-133.2083274\RMSD=1.422e-02\
 Dipole=0.5453304,-0.5746966,0.\Quadrupole=1.1270622,-1.6674327,0.54037

 Normal termination of Gaussian 16 at Sat Apr  5 22:55:46 2025.
