 Gaussian 16, Revision C.01,

 ----------------------------------------------------------------------
 #t hf aug-cc-pvdz symm=none int=(grid=ultrafine) guess=(read,tcheck) s
 table=(opt,rrhf)
 ----------------------------------------------------------------------
 -----
 title
 -----
 Symbolic Z-matrix:
 Charge =  0 Multiplicity = 1

 SCF Done:  E(RHF) =  -383.324824200     A.U. after   16 cycles
 Normal termination of Gaussian 16 at Sat Apr  5 22:56:27 2025.
 Gaussian 16:  ES64L-G16RevC.01  3-Jul-2019

 ----------------------------------------------------------------------
 #t hf aug-cc-pvdz iop(5/13=1,5/36=2,99/5=2) pseudo=read geom=check gue
 ss=(read,tcheck) scf=(maxcycle=1)
 ----------------------------------------------------------------------
 -----
 title
 -----
 Structure from the checkpoint file:  "azulene.chk"
 Charge =  0 Multiplicity = 1

                         Standard orientation:
 ---------------------------------------------------------------------
 Center     Atomic      Atomic             Coordinates (Angstroms)
 Number     Number       Type             X           Y           Z
 ---------------------------------------------------------------------
      1          6           0        0.000000    0.000000   -2.493269
      2          6           0        0.000000    1.260954   -1.903510
      3          6           0        0.000000    0.747825    0.551519
      4          6           0        0.000000    1.588911   -0.550232
      5          6           0        0.000000    0.000000    2.698578
      6          6           0        0.000000   -1.145715    1.894921
      7          6           0       -0.000000   -0.747825    0.551519
      8          6           0        0.000000    1.145715    1.894921
      9          6           0       -0.000000   -1.588911   -0.550232
     10          6           0       -0.000000   -1.260954   -1.903510
     11          1           0        0.000000    0.000000   -3.577631
     12          1           0        0.000000    2.098972   -2.589739
     13          1           0        0.000000    2.650420   -0.323058
     14          1           0        0.000000    0.000000    3.778585
     15          1           0        0.000000   -2.167642    2.240201
     16          1           0        0.000000    2.167642    2.240201
     17          1           0       -0.000000   -2.650420   -0.323058
     18          1           0       -0.000000   -2.098972   -2.589739
 ---------------------------------------------------------------------

 SCF Done:  E(RHF) =  -383.718060610     A.U. after    2 cycles

 The electronic state is 1-A1.
 Alpha  occ. eigenvalues --  -11.27149 -11.27126 -11.26908 -11.25169 -11.25147
 Alpha  occ. eigenvalues --  -11.24785 -11.24745 -11.23758 -11.22127 -11.22124
 Alpha  occ. eigenvalues --   -1.18042  -1.11748  -1.07268  -1.00769  -0.96579
 Alpha  occ. eigenvalues --   -0.89122  -0.85686  -0.76431  -0.76091  -0.72601
 Alpha  occ. eigenvalues --   -0.69237  -0.64317  -0.64095  -0.59018  -0.56877
 Alpha  occ. eigenvalues --   -0.54527  -0.54495  -0.53880  -0.52535  -0.49139
 Alpha  occ. eigenvalues --   -0.46069  -0.41644  -0.31025  -0.26962
 Alpha virt. eigenvalues --    0.03044   0.03167   0.03325   0.03871   0.04527
 Alpha virt. eigenvalues --    0.04697   0.06177   0.06982   0.07346   0.09392
 Alpha virt. eigenvalues --    0.10488   0.10831   0.11561   0.12292   0.12925

 Mulliken charges:
               1
     1  C   -0.026159
     2  C    0.181080
     3  C    1.044336
     4  C    0.537867
     5  C   -0.272175
     6  C   -0.519230
     7  C    1.044336
     8  C   -0.519230
     9  C    0.537867
    10  C    0.181080
    11  H   -0.259385
    12  H   -0.295150
    13  H   -0.281902
    14  H   -0.172061
    15  H   -0.302111
    16  H   -0.302111
    17  H   -0.281902
    18  H   -0.295150
 Sum of Mulliken charges =  -0.00000

 Dipole moment (field-independent basis, Debye):
    X=             -0.0000    Y=             -0.0000    Z=             -1.4680  Tot=              1.4680

 Test job not archived.
 1\1\GINC-SE221\SP\RHF\Aug-CC-pVDZ\C10H8\OHZDE\05-Apr-2025\0\\#t hf aug
 -cc-pvdz iop(5/13=1,5/36=2,99/5=2) pseudo=read geom=check guess=(read,
 tcheck) scf=(maxcycle=1)\\title\\0,1\C,0,0.,0.,-2.493269\C,0,0.,1.2609
 54,-1.90351\C,0,0.,0.747825,0.551519\C,0,0.,1.588911,-0.550232\C,0,0.,
 0.,2.698578\C,0,0.,-1.145715,1.894921\C,0,0.,-0.747825,0.551519\C,0,0.
 ,1.145715,1.894921\C,0,0.,-1.588911,-0.550232\C,0,0.,-1.260954,-1.9035
 1\H,0,0.,0.,-3.577631\H,0,0.,2.098972,-2.589739\H,0,0.,2.65042,-0.3230
 58\H,0,0.,0.,3.778585\H,0,0.,-2.167642,2.240201\H,0,0.,2.167642,2.2402

 Normal termination of Gaussian 16 at Sat Apr  5 22:56:42 2025.
