 Gaussian 16, Revision C.01,

 ----------------------------------------------------------------------
 #t hf aug-cc-pvdz symm=none int=(grid=ultrafine) guess=(read,tcheck) s
 table=(opt,rrhf)
 ----------------------------------------------------------------------
 -----
 title
 -----
 Symbolic Z-matrix:
 Charge =  0 Multiplicity = 1

 SCF Done:  E(RHF) =  -343.473603836     A.U. after   16 cycles
 Normal termination of Gaussian 16 at Sat Apr  5 22:56:36 2025.
 Gaussian 16:  ES64L-G16RevC.01  3-Jul-2019

 ----------------------------------------------------------------------
 #t hf aug-cc-pvdz iop(5/13=1,5/36=2,99/5=2) pseudo=read geom=check gue
 ss=(read,tcheck) scf=(maxcycle=1)
 ----------------------------------------------------------------------
 -----
 title
 -----
 Structure from the checkpoint file:  "benzaldehyde.chk"
 Charge =  0 Multiplicity = 1

                         Standard orientation:
 ---------------------------------------------------------------------
 Center     Atomic      Atomic             Coordinates (Angstroms)
 Number     Number       Type             X           Y           Z
 ---------------------------------------------------------------------
      1          6           0        0.571069   -2.149970   -0.000000
      2          6           0        1.611083   -1.227341   -0.000000
      3          6           0       -0.754728   -1.717051   -0.000000
      4          6           0        1.324206    0.131604    0.000000
      5          6           0       -1.041517   -0.362317   -0.000000
      6          6           0        0.000000    0.570512    0.000000
      7          6           0       -0.284070    2.020789    0.000000
      8          8           0       -1.388905    2.512174    0.000000
      9          1           0        0.790975   -3.209245   -0.000000
     10          1           0        2.637810   -1.566777   -0.000000
     11          1           0       -1.558218   -2.441065   -0.000000
     12          1           0        2.126678    0.859329    0.000000
     13          1           0       -2.060939   -0.001955   -0.000000
     14          1           0        0.618676    2.664963    0.000000
 ---------------------------------------------------------------------

 SCF Done:  E(RHF) =  -343.821567402     A.U. after    2 cycles

 The electronic state is 1-A'.
 Alpha  occ. eigenvalues --  -20.54486 -11.34476 -11.26795 -11.26577 -11.26111
 Alpha  occ. eigenvalues --  -11.25859 -11.25775 -11.25702  -1.47485  -1.17790
 Alpha  occ. eigenvalues --   -1.05560  -1.03806  -0.90471  -0.85736  -0.80461
 Alpha  occ. eigenvalues --   -0.73441  -0.69104  -0.66538  -0.63399  -0.62592
 Alpha  occ. eigenvalues --   -0.61854  -0.56113  -0.54258  -0.52201  -0.50880
 Alpha  occ. eigenvalues --   -0.42485  -0.36565  -0.36188
 Alpha virt. eigenvalues --    0.02908   0.03275   0.04020   0.05028   0.05484
 Alpha virt. eigenvalues --    0.05996   0.07719   0.08462   0.09513   0.10783
 Alpha virt. eigenvalues --    0.11642   0.12377   0.13443   0.13517   0.13750

 Mulliken charges:
               1
     1  C   -0.193755
     2  C    0.182528
     3  C    0.372025
     4  C    0.056880
     5  C   -0.156521
     6  C    1.698270
     7  C    0.590405
     8  O   -1.288126
     9  H   -0.211089
    10  H   -0.230394
    11  H   -0.218870
    12  H   -0.275554
    13  H   -0.298682
    14  H   -0.027116
 Sum of Mulliken charges =  -0.00000

 Dipole moment (field-independent basis, Debye):
    X=              2.5029    Y=             -2.5269    Z=              0.0000  Tot=              3.5567

 Test job not archived.
 1\1\GINC-SE220\SP\RHF\Aug-CC-pVDZ\C7H6O1\OHZDE\05-Apr-2025\0\\#t hf au
 g-cc-pvdz iop(5/13=1,5/36=2,99/5=2) pseudo=read geom=check guess=(read
 ,tcheck) scf=(maxcycle=1)\\title\\0,1\C,0,0.571069,-2.14997,0.\C,0,1.6
 11083,-1.227341,0.\C,0,-0.754728,-1.717051,0.\C,0,1.324206,0.131604,0.
 \C,0,-1.041517,-0.362317,0.\C,0,0.,0.570512,0.\C,0,-0.28407,2.020789,0
 .\O,0,-1.388905,2.512174,0.\H,0,0.790975,-3.209245,0.\H,0,2.63781,-1.5
 66777,0.\H,0,-1.558218,-2.441065,0.\H,0,2.126678,0.859329,0.\H,0,-2.06
 0939,-0.001955,0.\H,0,0.618676,2.664963,0.\\Version=ES64L-G16RevC.01\S

 Normal termination of Gaussian 16 at Sat Apr  5 22:56:43 2025.
