 Gaussian 16, Revision C.01,

 ----------------------------------------------------------------------
 #t hf aug-cc-pvdz symm=none int=(grid=ultrafine) guess=(read,tcheck) s
 table=(opt,rrhf)
 ----------------------------------------------------------------------
 -----
 title
 -----
 Symbolic Z-matrix:
 Charge =  0 Multiplicity = 1

 SCF Done:  E(RHF) =  -306.368413149     A.U. after   14 cycles
 Normal termination of Gaussian 16 at Sat Apr  5 22:55:35 2025.
 Gaussian 16:  ES64L-G16RevC.01  3-Jul-2019

 ----------------------------------------------------------------------
 #t hf aug-cc-pvdz iop(5/13=1,5/36=2,99/5=2) pseudo=read geom=check gue
 ss=(read,tcheck) scf=(maxcycle=1)
 ----------------------------------------------------------------------
 -----
 title
 -----
 Structure from the checkpoint file:  "benzocyclobutadiene.chk"
 Charge =  0 Multiplicity = 1

                         Standard orientation:
 ---------------------------------------------------------------------
 Center     Atomic      Atomic             Coordinates (Angstroms)
 Number     Number       Type             X           Y           Z
 ---------------------------------------------------------------------
      1          6           0        0.000000    1.439760   -0.621675
      2          6           0        0.000000    0.686345   -1.839508
      3          6           0       -0.000000   -0.686345   -1.839508
      4          6           0       -0.000000   -1.439760   -0.621675
      5          6           0        0.000000   -0.673165    2.041672
      6          6           0        0.000000    0.673165    2.041672
      7          6           0        0.000000    0.709390    0.520531
      8          6           0       -0.000000   -0.709390    0.520531
      9          1           0        0.000000    2.521064   -0.642939
     10          1           0        0.000000    1.216563   -2.782280
     11          1           0       -0.000000   -1.216563   -2.782280
     12          1           0       -0.000000   -2.521064   -0.642939
     13          1           0        0.000000   -1.421348    2.819103
     14          1           0        0.000000    1.421348    2.819103
 ---------------------------------------------------------------------

 SCF Done:  E(RHF) =  -306.683551806     A.U. after    2 cycles

 The electronic state is 1-A1.
 Alpha  occ. eigenvalues --  -11.26806 -11.26682 -11.24896 -11.24826 -11.24030
 Alpha  occ. eigenvalues --  -11.23999 -11.23768 -11.23684  -1.20138  -1.10264
 Alpha  occ. eigenvalues --   -1.01717  -0.95428  -0.84447  -0.82795  -0.76281
 Alpha  occ. eigenvalues --   -0.71706  -0.66600  -0.63257  -0.58917  -0.57510
 Alpha  occ. eigenvalues --   -0.56718  -0.54236  -0.49072  -0.48346  -0.42944
 Alpha  occ. eigenvalues --   -0.35549  -0.28367
 Alpha virt. eigenvalues --    0.03393   0.03437   0.03839   0.04734   0.05135
 Alpha virt. eigenvalues --    0.06092   0.07524   0.09227   0.10790   0.11463
 Alpha virt. eigenvalues --    0.11845   0.12843   0.13174   0.13319   0.14174

 Mulliken charges:
               1
     1  C    0.563653
     2  C    0.097336
     3  C    0.097336
     4  C    0.563653
     5  C   -0.015072
     6  C   -0.015072
     7  C   -0.008902
     8  C   -0.008902
     9  H   -0.201697
    10  H   -0.240495
    11  H   -0.240495
    12  H   -0.201697
    13  H   -0.194823
    14  H   -0.194823
 Sum of Mulliken charges =  -0.00000

 Dipole moment (field-independent basis, Debye):
    X=             -0.0000    Y=             -0.0000    Z=              0.8791  Tot=              0.8791

 Test job not archived.
 1\1\GINC-SE146\SP\RHF\Aug-CC-pVDZ\C8H6\OHZDE\05-Apr-2025\0\\#t hf aug-
 cc-pvdz iop(5/13=1,5/36=2,99/5=2) pseudo=read geom=check guess=(read,t
 check) scf=(maxcycle=1)\\title\\0,1\C,0,0.,1.43976,-0.621675\C,0,0.,0.
 686345,-1.839508\C,0,0.,-0.686345,-1.839508\C,0,0.,-1.43976,-0.621675\
 C,0,0.,-0.673165,2.041672\C,0,0.,0.673165,2.041672\C,0,0.,0.70939,0.52
 0531\C,0,0.,-0.70939,0.520531\H,0,0.,2.521064,-0.642939\H,0,0.,1.21656
 3,-2.78228\H,0,0.,-1.216563,-2.78228\H,0,0.,-2.521064,-0.642939\H,0,0.
 ,-1.421348,2.819103\H,0,0.,1.421348,2.819103\\Version=ES64L-G16RevC.01

 Normal termination of Gaussian 16 at Sat Apr  5 22:55:48 2025.
