 Gaussian 16, Revision C.01,

 ----------------------------------------------------------------------
 #t hf aug-cc-pvdz symm=none int=(grid=ultrafine) guess=(read,tcheck) s
 table=(opt,rrhf)
 ----------------------------------------------------------------------
 -----
 title
 -----
 Symbolic Z-matrix:
 Charge =  0 Multiplicity = 1

 SCF Done:  E(RHF) =  -418.381410535     A.U. after   16 cycles
 Normal termination of Gaussian 16 at Sat Apr  5 22:55:51 2025.
 Gaussian 16:  ES64L-G16RevC.01  3-Jul-2019

 ----------------------------------------------------------------------
 #t hf aug-cc-pvdz iop(5/13=1,5/36=2,99/5=2) pseudo=read geom=check gue
 ss=(read,tcheck) scf=(maxcycle=1)
 ----------------------------------------------------------------------
 -----
 title
 -----
 Structure from the checkpoint file:  "benzoic_acid.chk"
 Charge =  0 Multiplicity = 1

                         Standard orientation:
 ---------------------------------------------------------------------
 Center     Atomic      Atomic             Coordinates (Angstroms)
 Number     Number       Type             X           Y           Z
 ---------------------------------------------------------------------
      1          6           0        0.307786   -2.544530    0.000000
      2          6           0        1.429809   -1.720826   -0.000000
      3          6           0       -0.966751   -1.987681    0.000000
      4          6           0        1.277760   -0.342753   -0.000000
      5          6           0       -1.123948   -0.608404    0.000000
      6          6           0       -0.000000    0.220374   -0.000000
      7          6           0       -0.110623    1.700856   -0.000000
      8          8           0        0.823931    2.465863   -0.000000
      9          8           0       -1.394622    2.140425    0.000000
     10          1           0        0.427050   -3.619739    0.000000
     11          1           0        2.420556   -2.154119   -0.000000
     12          1           0       -1.837930   -2.628373    0.000000
     13          1           0        2.135639    0.314086   -0.000000
     14          1           0       -2.111190   -0.171656    0.000000
     15          1           0       -1.352794    3.107284   -0.000000
 ---------------------------------------------------------------------

 SCF Done:  E(RHF) =  -418.800983337     A.U. after    2 cycles

 The electronic state is 1-A'.
 Alpha  occ. eigenvalues --  -20.60227 -20.53779 -11.39957 -11.26314 -11.26306
 Alpha  occ. eigenvalues --  -11.26197 -11.25993 -11.25433 -11.25361  -1.54954
 Alpha  occ. eigenvalues --   -1.45222  -1.17576  -1.05489  -1.03492  -0.90938
 Alpha  occ. eigenvalues --   -0.85501  -0.81223  -0.74502  -0.71199  -0.68612
 Alpha  occ. eigenvalues --   -0.65382  -0.64018  -0.63444  -0.61748  -0.59099
 Alpha  occ. eigenvalues --   -0.53896  -0.52699  -0.51941  -0.47972  -0.45071
 Alpha  occ. eigenvalues --   -0.36490  -0.36048
 Alpha virt. eigenvalues --    0.03114   0.03538   0.03885   0.04929   0.06044
 Alpha virt. eigenvalues --    0.06262   0.07389   0.09127   0.09717   0.11029
 Alpha virt. eigenvalues --    0.11256   0.12730   0.13225   0.13676   0.13833

 Mulliken charges:
               1
     1  C   -0.197592
     2  C    0.461966
     3  C    0.323980
     4  C   -0.340506
     5  C   -0.044757
     6  C    1.654770
     7  C    1.844769
     8  O   -1.395446
     9  O   -1.616556
    10  H   -0.210575
    11  H   -0.219970
    12  H   -0.237245
    13  H   -0.323823
    14  H   -0.263278
    15  H    0.564263
 Sum of Mulliken charges =  -0.00000

 Dipole moment (field-independent basis, Debye):
    X=             -1.2404    Y=             -1.8987    Z=              0.0000  Tot=              2.2679

 Test job not archived.
 1\1\GINC-SE209\SP\RHF\Aug-CC-pVDZ\C7H6O2\OHZDE\05-Apr-2025\0\\#t hf au
 g-cc-pvdz iop(5/13=1,5/36=2,99/5=2) pseudo=read geom=check guess=(read
 ,tcheck) scf=(maxcycle=1)\\title\\0,1\C,0,0.307786,-2.54453,0.\C,0,1.4
 29809,-1.720826,0.\C,0,-0.966751,-1.987681,0.\C,0,1.27776,-0.342753,0.
 \C,0,-1.123948,-0.608404,0.\C,0,0.,0.220374,0.\C,0,-0.110623,1.700856,
 0.\O,0,0.823931,2.465863,0.\O,0,-1.394622,2.140425,0.\H,0,0.427051,-3.
 619739,0.\H,0,2.420556,-2.154119,0.\H,0,-1.83793,-2.628373,0.\H,0,2.13
 5639,0.314086,0.\H,0,-2.11119,-0.171656,0.\H,0,-1.352794,3.107284,0.\\

 Normal termination of Gaussian 16 at Sat Apr  5 22:55:57 2025.
