 Gaussian 16, Revision C.01,

 ----------------------------------------------------------------------
 #t hf aug-cc-pvdz symm=none int=(grid=ultrafine) guess=(read,tcheck) s
 table=(opt,rrhf)
 ----------------------------------------------------------------------
 -----
 title
 -----
 Symbolic Z-matrix:
 Charge =  0 Multiplicity = 1

 SCF Done:  E(RHF) =  -395.860565625     A.U. after   14 cycles
 Normal termination of Gaussian 16 at Sat Apr  5 22:56:05 2025.
 Gaussian 16:  ES64L-G16RevC.01  3-Jul-2019

 ----------------------------------------------------------------------
 #t hf aug-cc-pvdz iop(5/13=1,5/36=2,99/5=2) pseudo=read geom=check gue
 ss=(read,tcheck) scf=(maxcycle=1)
 ----------------------------------------------------------------------
 -----
 title
 -----
 Structure from the checkpoint file:  "benzene-1-3-5-triamine.chk"
 Charge =  0 Multiplicity = 1

                         Standard orientation:
 ---------------------------------------------------------------------
 Center     Atomic      Atomic             Coordinates (Angstroms)
 Number     Number       Type             X           Y           Z
 ---------------------------------------------------------------------
      1          6           0       -0.005270   -1.396197   -0.000000
      2          6           0       -0.005270    0.698099    1.209142
      3          6           0       -0.005270    0.698099   -1.209142
      4          6           0       -0.006832   -0.697921    1.208834
      5          6           0       -0.006832   -0.697921   -1.208834
      6          6           0       -0.006832    1.395841   -0.000000
      7          7           0       -0.064461   -1.395250    2.416644
      8          7           0       -0.064461   -1.395250   -2.416644
      9          7           0       -0.064461    2.790500   -0.000000
     10          1           0       -0.023214   -2.479119   -0.000000
     11          1           0       -0.023214    1.239560    2.146980
     12          1           0       -0.023214    1.239560   -2.146980
     13          1           0        0.273528   -0.895252    3.222171
     14          1           0        0.273528   -2.342856    2.386397
     15          1           0        0.273528   -2.342856   -2.386397
     16          1           0        0.273528   -0.895252   -3.222171
     17          1           0        0.273528    3.238108   -0.835774
     18          1           0        0.273528    3.238108    0.835774
 ---------------------------------------------------------------------

 SCF Done:  E(RHF) =  -396.273646418     A.U. after    2 cycles

 The electronic state is 1-A'.
 Alpha  occ. eigenvalues --  -15.50310 -15.50255 -15.50255 -11.28023 -11.28010
 Alpha  occ. eigenvalues --  -11.28010 -11.20194 -11.20194 -11.20181  -1.23148
 Alpha  occ. eigenvalues --   -1.20829  -1.20829  -1.08587  -0.97932  -0.97932
 Alpha  occ. eigenvalues --   -0.83737  -0.83737  -0.74988  -0.74399  -0.69777
 Alpha  occ. eigenvalues --   -0.69777  -0.66939  -0.63107  -0.63107  -0.58479
 Alpha  occ. eigenvalues --   -0.57104  -0.53024  -0.53024  -0.51440  -0.51440
 Alpha  occ. eigenvalues --   -0.41120  -0.30028  -0.30028
 Alpha virt. eigenvalues --    0.03169   0.03649   0.03649   0.05021   0.05021
 Alpha virt. eigenvalues --    0.07738   0.08014   0.09520   0.09520   0.09784
 Alpha virt. eigenvalues --    0.12102   0.12102   0.12621   0.13396   0.13396

 Mulliken charges:
               1
     1  C    1.017339
     2  C    1.017325
     3  C    1.017325
     4  C   -1.458789
     5  C   -1.458789
     6  C   -1.458778
     7  N    0.733349
     8  N    0.733349
     9  N    0.733349
    10  H   -0.328954
    11  H   -0.328954
    12  H   -0.328954
    13  H    0.018530
    14  H    0.018531
    15  H    0.018531
    16  H    0.018530
    17  H    0.018530
    18  H    0.018530
 Sum of Mulliken charges =   0.00000

 Dipole moment (field-independent basis, Debye):
    X=              2.9451    Y=             -0.0000    Z=             -0.0000  Tot=              2.9451

 Test job not archived.
 1\1\GINC-SE232\SP\RHF\Aug-CC-pVDZ\C6H9N3\OHZDE\05-Apr-2025\0\\#t hf au
 g-cc-pvdz iop(5/13=1,5/36=2,99/5=2) pseudo=read geom=check guess=(read
 ,tcheck) scf=(maxcycle=1)\\title\\0,1\C,0,0.,1.396197,-0.00527\C,0,1.2
 09142,-0.698099,-0.00527\C,0,-1.209142,-0.698099,-0.00527\C,0,1.208834
 ,0.697921,-0.006832\C,0,-1.208834,0.697921,-0.006832\C,0,0.,-1.395841,
 -0.006832\N,0,2.416644,1.39525,-0.064461\N,0,-2.416644,1.39525,-0.0644
 61\N,0,0.,-2.7905,-0.064461\H,0,0.,2.479119,-0.023214\H,0,2.14698,-1.2
 3956,-0.023214\H,0,-2.14698,-1.23956,-0.023214\H,0,3.222171,0.895252,0

 Normal termination of Gaussian 16 at Sat Apr  5 22:56:11 2025.
