 Gaussian 16, Revision C.01,

 ----------------------------------------------------------------------
 #t hf aug-cc-pvdz symm=none int=(grid=ultrafine) guess=(read,tcheck) s
 table=(opt,rrhf)
 ----------------------------------------------------------------------
 -----
 title
 -----
 Symbolic Z-matrix:
 Charge =  0 Multiplicity = 1

 SCF Done:  E(RHF) =  -344.635452400     A.U. after   14 cycles
 Normal termination of Gaussian 16 at Sat Apr  5 22:55:42 2025.
 Gaussian 16:  ES64L-G16RevC.01  3-Jul-2019

 ----------------------------------------------------------------------
 #t hf aug-cc-pvdz iop(5/13=1,5/36=2,99/5=2) pseudo=read geom=check gue
 ss=(read,tcheck) scf=(maxcycle=1)
 ----------------------------------------------------------------------
 -----
 title
 -----
 Structure from the checkpoint file:  "benzyl_alcohol.chk"
 Charge =  0 Multiplicity = 1

                         Standard orientation:
 ---------------------------------------------------------------------
 Center     Atomic      Atomic             Coordinates (Angstroms)
 Number     Number       Type             X           Y           Z
 ---------------------------------------------------------------------
      1          6           0        2.295875   -0.194875    0.152817
      2          6           0        1.760211    1.086177    0.147384
      3          6           0        1.459304   -1.293258   -0.029852
      4          6           0        0.392585    1.267430   -0.038587
      5          6           0        0.097012   -1.108725   -0.219163
      6          6           0       -0.452614    0.175941   -0.226405
      7          6           0       -1.935484    0.370754   -0.429766
      8          8           0       -2.736278   -0.345146    0.513236
      9          1           0        3.357833   -0.339687    0.298826
     10          1           0        2.403036    1.944269    0.291616
     11          1           0        1.872130   -2.293318   -0.028077
     12          1           0       -0.021144    2.268461   -0.038507
     13          1           0       -0.552474   -1.963339   -0.357038
     14          1           0       -2.174626    1.438864   -0.408291
     15          1           0       -2.241931   -0.013856   -1.403463
     16          1           0       -2.453932   -0.100885    1.400478
 ---------------------------------------------------------------------

 SCF Done:  E(RHF) =  -344.992389004     A.U. after    2 cycles

 The electronic state is 1-A.
 Alpha  occ. eigenvalues --  -20.54981 -11.29184 -11.24748 -11.24612 -11.24560
 Alpha  occ. eigenvalues --  -11.24511 -11.24449 -11.24232  -1.44652  -1.16163
 Alpha  occ. eigenvalues --   -1.04443  -1.02128  -0.92820  -0.84151  -0.81649
 Alpha  occ. eigenvalues --   -0.72354  -0.68872  -0.65925  -0.63358  -0.61115
 Alpha  occ. eigenvalues --   -0.60702  -0.59945  -0.54157  -0.51280  -0.50885
 Alpha  occ. eigenvalues --   -0.48928  -0.44984  -0.35063  -0.34451
 Alpha virt. eigenvalues --    0.03318   0.03541   0.04053   0.04868   0.05141
 Alpha virt. eigenvalues --    0.05390   0.07852   0.08073   0.09733   0.10235
 Alpha virt. eigenvalues --    0.11070   0.12472   0.13051   0.13770   0.13910

 Mulliken charges:
               1
     1  C    0.007702
     2  C    0.091776
     3  C    0.187936
     4  C    0.340667
     5  C    0.128745
     6  C    0.909802
     7  C    0.260512
     8  O   -1.124643
     9  H   -0.218972
    10  H   -0.237732
    11  H   -0.230318
    12  H   -0.269037
    13  H   -0.268620
    14  H   -0.021491
    15  H    0.106324
    16  H    0.337348
 Sum of Mulliken charges =  -0.00000

 Dipole moment (field-independent basis, Debye):
    X=              1.3031    Y=              0.9233    Z=              0.3160  Tot=              1.6280

 Test job not archived.
 1\1\GINC-SE205\SP\RHF\Aug-CC-pVDZ\C7H8O1\OHZDE\05-Apr-2025\0\\#t hf au
 g-cc-pvdz iop(5/13=1,5/36=2,99/5=2) pseudo=read geom=check guess=(read
 ,tcheck) scf=(maxcycle=1)\\title\\0,1\C,0,2.295875,-0.194875,0.152817\
 C,0,1.760211,1.086177,0.147384\C,0,1.459304,-1.293258,-0.029852\C,0,0.
 392585,1.26743,-0.038587\C,0,0.097012,-1.108725,-0.219163\C,0,-0.45261
 4,0.175941,-0.226405\C,0,-1.935484,0.370754,-0.429766\O,0,-2.736278,-0
 .345146,0.513236\H,0,3.357833,-0.339687,0.298826\H,0,2.403036,1.944269
 ,0.291616\H,0,1.87213,-2.293318,-0.028077\H,0,-0.021144,2.268461,-0.03

 Normal termination of Gaussian 16 at Sat Apr  5 22:55:51 2025.
