 Gaussian 16, Revision C.01,

 ----------------------------------------------------------------------
 #t hf aug-cc-pvdz symm=none int=(grid=ultrafine) guess=(read,tcheck) s
 table=(opt,rrhf)
 ----------------------------------------------------------------------
 -----
 title
 -----
 Symbolic Z-matrix:
 Charge =  0 Multiplicity = 1

 SCF Done:  E(RHF) =  -704.003136738     A.U. after   18 cycles
 Normal termination of Gaussian 16 at Sat Apr  5 22:56:08 2025.
 Gaussian 16:  ES64L-G16RevC.01  3-Jul-2019

 ----------------------------------------------------------------------
 #t hf aug-cc-pvdz iop(5/13=1,5/36=2,99/5=2) pseudo=read geom=check gue
 ss=(read,tcheck) scf=(maxcycle=1)
 ----------------------------------------------------------------------
 -----
 title
 -----
 Structure from the checkpoint file:  "benzothiophene.chk"
 Charge =  0 Multiplicity = 1

                         Standard orientation:
 ---------------------------------------------------------------------
 Center     Atomic      Atomic             Coordinates (Angstroms)
 Number     Number       Type             X           Y           Z
 ---------------------------------------------------------------------
      1          6           0        2.419842   -0.781506    0.000000
      2          6           0        2.384977    0.620139    0.000000
      3          6           0        1.250934   -1.517608   -0.000000
      4          6           0        1.179130    1.298960    0.000000
      5          6           0       -1.312092   -1.405181   -0.000000
      6          6           0       -2.275718   -0.456495   -0.000000
      7          6           0        0.014337   -0.856085   -0.000000
      8          6           0        0.000000    0.556152    0.000000
      9         16           0       -1.639275    1.165435   -0.000000
     10          1           0        3.374674   -1.289610    0.000000
     11          1           0        3.311216    1.178597    0.000000
     12          1           0        1.282913   -2.599422   -0.000000
     13          1           0        1.154241    2.380060    0.000000
     14          1           0       -1.519954   -2.465202   -0.000000
     15          1           0       -3.343153   -0.601646   -0.000000
 ---------------------------------------------------------------------

 SCF Done:  E(RHF) =  -704.374472400     A.U. after    2 cycles

 The electronic state is 1-A'.
 Alpha  occ. eigenvalues --  -93.97436 -11.27865 -11.27527 -11.25287 -11.25205
 Alpha  occ. eigenvalues --  -11.25027 -11.24914 -11.24721 -11.24467  -8.25624
 Alpha  occ. eigenvalues --   -6.23407  -6.23312  -6.23080  -1.20394  -1.12448
 Alpha  occ. eigenvalues --   -1.05012  -0.99641  -0.97656  -0.85177  -0.81412
 Alpha  occ. eigenvalues --   -0.78690  -0.70392  -0.67608  -0.65214  -0.61342
 Alpha  occ. eigenvalues --   -0.61247  -0.55995  -0.55875  -0.52695  -0.51408
 Alpha  occ. eigenvalues --   -0.47857  -0.46751  -0.39863  -0.32779  -0.30921
 Alpha virt. eigenvalues --    0.03302   0.03480   0.03869   0.04634   0.05403
 Alpha virt. eigenvalues --    0.07539   0.08236   0.08947   0.09415   0.10518
 Alpha virt. eigenvalues --    0.10702   0.12305   0.12307   0.12851   0.13558

 Mulliken charges:
               1
     1  C    0.031846
     2  C   -0.010515
     3  C    0.735700
     4  C   -0.223205
     5  C    0.098319
     6  C   -0.770034
     7  C    1.055085
     8  C   -0.135225
     9  S    0.565105
    10  H   -0.239826
    11  H   -0.230838
    12  H   -0.260291
    13  H   -0.204752
    14  H   -0.212579
    15  H   -0.198790
 Sum of Mulliken charges =  -0.00000

 Dipole moment (field-independent basis, Debye):
    X=              0.2293    Y=             -0.9064    Z=             -0.0000  Tot=              0.9349

 Test job not archived.
 1\1\GINC-SE204\SP\RHF\Aug-CC-pVDZ\C8H6S1\OHZDE\05-Apr-2025\0\\#t hf au
 g-cc-pvdz iop(5/13=1,5/36=2,99/5=2) pseudo=read geom=check guess=(read
 ,tcheck) scf=(maxcycle=1)\\title\\0,1\C,0,2.419842,-0.781506,0.\C,0,2.
 384977,0.620139,0.\C,0,1.250934,-1.517608,0.\C,0,1.17913,1.29896,0.\C,
 0,-1.312092,-1.405181,0.\C,0,-2.275718,-0.456495,0.\C,0,0.014337,-0.85
 6085,0.\C,0,0.,0.556152,0.\S,0,-1.639275,1.165435,0.\H,0,3.374674,-1.2
 8961,0.\H,0,3.311216,1.178597,0.\H,0,1.282913,-2.599422,0.\H,0,1.15424
 1,2.38006,0.\H,0,-1.519954,-2.465202,0.\H,0,-3.343153,-0.601646,0.\\Ve

 Normal termination of Gaussian 16 at Sat Apr  5 22:56:15 2025.
