 Gaussian 16, Revision C.01,

 ----------------------------------------------------------------------
 #t hf aug-cc-pvdz symm=none int=(grid=ultrafine) guess=(read,tcheck) s
 table=(opt,rrhf)
 ----------------------------------------------------------------------
 -----
 title
 -----
 Symbolic Z-matrix:
 Charge =  0 Multiplicity = 1

 SCF Done:  E(RHF) =  -230.728350653     A.U. after   10 cycles
 Normal termination of Gaussian 16 at Sat Apr  5 22:55:08 2025.
 Gaussian 16:  ES64L-G16RevC.01  3-Jul-2019

 ----------------------------------------------------------------------
 #t hf aug-cc-pvdz iop(5/13=1,5/36=2,99/5=2) pseudo=read geom=check gue
 ss=(read,tcheck) scf=(maxcycle=1)
 ----------------------------------------------------------------------
 -----
 title
 -----
 Structure from the checkpoint file:  "benzene.chk"
 Charge =  0 Multiplicity = 1

                         Standard orientation:
 ---------------------------------------------------------------------
 Center     Atomic      Atomic             Coordinates (Angstroms)
 Number     Number       Type             X           Y           Z
 ---------------------------------------------------------------------
      1          6           0       -0.000000   -0.000000    1.390589
      2          6           0        0.000000    1.204285    0.695294
      3          6           0       -0.000000   -1.204285    0.695294
      4          6           0        0.000000    1.204285   -0.695294
      5          6           0       -0.000000   -1.204285   -0.695294
      6          6           0        0.000000   -0.000000   -1.390589
      7          1           0       -0.000000    0.000000    2.472617
      8          1           0        0.000000    0.000000   -2.472617
      9          1           0       -0.000000   -2.141349    1.236308
     10          1           0        0.000000    2.141349   -1.236308
     11          1           0        0.000000    2.141349    1.236308
     12          1           0        0.000000   -2.141349   -1.236308
 ---------------------------------------------------------------------

 SCF Done:  E(RHF) =  -230.970648372     A.U. after    2 cycles

 The electronic state is 1-AG.
 Alpha  occ. eigenvalues --  -11.24229 -11.24198 -11.24198 -11.24110 -11.24094
 Alpha  occ. eigenvalues --  -11.24094  -1.15448  -1.01725  -1.01725  -0.83259
 Alpha  occ. eigenvalues --   -0.83259  -0.72370  -0.64954  -0.63820  -0.60068
 Alpha  occ. eigenvalues --   -0.60068  -0.51185  -0.50582  -0.50582  -0.34607
 Alpha  occ. eigenvalues --   -0.34607
 Alpha virt. eigenvalues --    0.03700   0.03801   0.03801   0.05289   0.05289
 Alpha virt. eigenvalues --    0.07882   0.10473   0.10473   0.12079   0.14121
 Alpha virt. eigenvalues --    0.14121   0.14594   0.14594   0.14640   0.14921

 Mulliken charges:
               1
     1  C    0.216363
     2  C    0.216371
     3  C    0.216371
     4  C    0.216371
     5  C    0.216371
     6  C    0.216363
     7  H   -0.216369
     8  H   -0.216369
     9  H   -0.216369
    10  H   -0.216369
    11  H   -0.216369
    12  H   -0.216369
 Sum of Mulliken charges =  -0.00000

 Dipole moment (field-independent basis, Debye):
    X=             -0.0000    Y=              0.0000    Z=              0.0000  Tot=              0.0000

 Test job not archived.
 1\1\GINC-SE231\SP\RHF\Aug-CC-pVDZ\C6H6\OHZDE\05-Apr-2025\0\\#t hf aug-
 cc-pvdz iop(5/13=1,5/36=2,99/5=2) pseudo=read geom=check guess=(read,t
 check) scf=(maxcycle=1)\\title\\0,1\C,0,0.,1.390589,0.\C,0,1.204285,0.
 695294,0.\C,0,-1.204285,0.695294,0.\C,0,1.204285,-0.695294,0.\C,0,-1.2
 04285,-0.695294,0.\C,0,0.,-1.390589,0.\H,0,0.,2.472617,0.\H,0,0.,-2.47
 2617,0.\H,0,-2.141349,1.236308,0.\H,0,2.141349,-1.236308,0.\H,0,2.1413
 49,1.236308,0.\H,0,-2.141349,-1.236308,0.\\Version=ES64L-G16RevC.01\St
 ate=1-AG\HF=-230.9706484\RMSD=5.827e-02\Dipole=0.,0.,0.\Quadrupole=2.3

 Normal termination of Gaussian 16 at Sat Apr  5 22:55:47 2025.
