 Gaussian 16, Revision C.01,

 ----------------------------------------------------------------------
 #t hf aug-cc-pvdz symm=none int=(grid=ultrafine) guess=(read,tcheck) s
 table=(opt,rrhf)
 ----------------------------------------------------------------------
 -----
 title
 -----
 Symbolic Z-matrix:
 Charge =  0 Multiplicity = 1

 SCF Done:  E(RHF) =  -229.412704976     A.U. after   13 cycles
 Normal termination of Gaussian 16 at Sat Apr  5 22:55:06 2025.
 Gaussian 16:  ES64L-G16RevC.01  3-Jul-2019

 ----------------------------------------------------------------------
 #t hf aug-cc-pvdz iop(5/13=1,5/36=2,99/5=2) pseudo=read geom=check gue
 ss=(read,tcheck) scf=(maxcycle=1)
 ----------------------------------------------------------------------
 -----
 title
 -----
 Structure from the checkpoint file:  "benzyne.chk"
 Charge =  0 Multiplicity = 1

                         Standard orientation:
 ---------------------------------------------------------------------
 Center     Atomic      Atomic             Coordinates (Angstroms)
 Number     Number       Type             X           Y           Z
 ---------------------------------------------------------------------
      1          6           0        0.000000    1.455634   -0.133697
      2          6           0        0.000000    0.700529    1.053581
      3          6           0       -0.000000   -0.700529    1.053581
      4          6           0       -0.000000   -1.455634   -0.133697
      5          6           0        0.000000   -0.620534   -1.230930
      6          6           0        0.000000    0.620534   -1.230930
      7          1           0        0.000000    2.535415   -0.135167
      8          1           0        0.000000    1.224463    2.001444
      9          1           0       -0.000000   -1.224463    2.001444
     10          1           0       -0.000000   -2.535415   -0.135167
 ---------------------------------------------------------------------

 SCF Done:  E(RHF) =  -229.647956582     A.U. after    2 cycles

 The electronic state is 1-A1.
 Alpha  occ. eigenvalues --  -11.28317 -11.28286 -11.26131 -11.26055 -11.25836
 Alpha  occ. eigenvalues --  -11.25565  -1.18144  -1.03467  -1.02142  -0.86121
 Alpha  occ. eigenvalues --   -0.80608  -0.70932  -0.65800  -0.65490  -0.56631
 Alpha  occ. eigenvalues --   -0.56277  -0.54051  -0.38759  -0.36728  -0.36427
 Alpha virt. eigenvalues --    0.03387   0.03476   0.04273   0.04408   0.06596
 Alpha virt. eigenvalues --    0.08458   0.08615   0.11612   0.11696   0.11749
 Alpha virt. eigenvalues --    0.13576   0.13941   0.13982   0.14123   0.14860

 Mulliken charges:
               1
     1  C    0.134489
     2  C    0.336580
     3  C    0.336580
     4  C    0.134489
     5  C   -0.140307
     6  C   -0.140307
     7  H   -0.131616
     8  H   -0.199146
     9  H   -0.199146
    10  H   -0.131616
 Sum of Mulliken charges =   0.00000

 Dipole moment (field-independent basis, Debye):
    X=              0.0000    Y=              0.0000    Z=              1.8443  Tot=              1.8443

 Test job not archived.
 1\1\GINC-SE206\SP\RHF\Aug-CC-pVDZ\C6H4\OHZDE\05-Apr-2025\0\\#t hf aug-
 cc-pvdz iop(5/13=1,5/36=2,99/5=2) pseudo=read geom=check guess=(read,t
 check) scf=(maxcycle=1)\\title\\0,1\C,0,0.,1.455634,-0.133697\C,0,0.,0
 .700529,1.053581\C,0,0.,-0.700529,1.053581\C,0,0.,-1.455634,-0.133697\
 C,0,0.,-0.620534,-1.23093\C,0,0.,0.620534,-1.23093\H,0,0.,2.535415,-0.
 135167\H,0,0.,1.224463,2.001444\H,0,0.,-1.224463,2.001444\H,0,0.,-2.53
 5415,-0.135167\\Version=ES64L-G16RevC.01\State=1-A1\HF=-229.6479566\RM
 SD=3.100e-02\Dipole=0.,0.,0.7255844\Quadrupole=-3.6208005,4.3072796,-0

 Normal termination of Gaussian 16 at Sat Apr  5 22:55:47 2025.
