 Gaussian 16, Revision C.01,

 ----------------------------------------------------------------------
 #t hf aug-cc-pvdz symm=none int=(grid=ultrafine) guess=(read,tcheck) s
 table=(opt,rrhf)
 ----------------------------------------------------------------------
 -----
 title
 -----
 Symbolic Z-matrix:
 Charge =  0 Multiplicity = 1

 SCF Done:  E(RHF) =  -623.077506327     A.U. after   16 cycles

 1\1\GINC-SE145\Stability\RHF\Aug-CC-pVDZ\C12H9N3\OHZDE\05-Apr-2025\0\\
 #t hf aug-cc-pvdz symm=none int=(grid=ultrafine) guess=(read,tcheck) s
 table=(opt,rrhf)\\title\\0,1\C,0,-2.260008,1.718793,0.\C,0,2.618522,1.
 097828,0.\C,0,-0.358514,-2.816621,0.\C,0,-1.636395,2.936436,0.\C,0,3.3
 61226,-0.051059,0.\C,0,-1.724831,-2.885378,0.\C,0,-1.235698,0.719678,0
 .\C,0,1.241108,0.710307,0.\C,0,-0.00541,-1.429985,0.\C,0,0.,1.392828,0
 .\C,0,1.206225,-0.696414,0.\C,0,-1.206225,-0.696414,0.\N,0,-0.273028,2
 .739129,0.\N,0,2.508669,-1.133115,0.\N,0,-2.235641,-1.606014,0.\H,0,-3

 Normal termination of Gaussian 16 at Sat Apr  5 23:01:39 2025.
 Gaussian 16:  ES64L-G16RevC.01  3-Jul-2019

 ----------------------------------------------------------------------
 #t hf aug-cc-pvdz iop(5/13=1,5/36=2,99/5=2) pseudo=read geom=check gue
 ss=(read,tcheck) scf=(maxcycle=1)
 ----------------------------------------------------------------------
 -----
 title
 -----
 Structure from the checkpoint file:  "benzo1-2-b-3-4-b--5-6-b--tripyrrole.chk"
 Charge =  0 Multiplicity = 1

                         Standard orientation:
 ---------------------------------------------------------------------
 Center     Atomic      Atomic             Coordinates (Angstroms)
 Number     Number       Type             X           Y           Z
 ---------------------------------------------------------------------
      1          6           0       -2.260008    1.718793    0.000000
      2          6           0        2.618522    1.097828   -0.000000
      3          6           0       -0.358514   -2.816621    0.000000
      4          6           0       -1.636395    2.936436   -0.000000
      5          6           0        3.361226   -0.051059   -0.000000
      6          6           0       -1.724831   -2.885378    0.000000
      7          6           0       -1.235698    0.719678    0.000000
      8          6           0        1.241108    0.710307   -0.000000
      9          6           0       -0.005410   -1.429985    0.000000
     10          6           0       -0.000000    1.392828   -0.000000
     11          6           0        1.206225   -0.696414   -0.000000
     12          6           0       -1.206225   -0.696414    0.000000
     13          7           0       -0.273028    2.739129   -0.000000
     14          7           0        2.508669   -1.133115   -0.000000
     15          7           0       -2.235641   -1.606014    0.000000
     16          1           0       -3.326106    1.566758    0.000000
     17          1           0        3.019905    2.097113   -0.000000
     18          1           0        0.306200   -3.663871    0.000000
     19          1           0       -2.050289    3.929412   -0.000000
     20          1           0        4.428115   -0.189104   -0.000000
     21          1           0       -2.377826   -3.740308    0.000000
     22          1           0        0.415105    3.468383   -0.000000
     23          1           0        2.796155   -2.093683   -0.000000
     24          1           0       -3.211260   -1.374700    0.000000
 ---------------------------------------------------------------------

 SCF Done:  E(RHF) =  -623.710185354     A.U. after    2 cycles

 The electronic state is 1-A'.
 Alpha  occ. eigenvalues --  -15.53830 -15.53830 -15.53804 -11.26272 -11.26272
 Alpha  occ. eigenvalues --  -11.26267 -11.26246 -11.26246 -11.26242 -11.22055
 Alpha  occ. eigenvalues --  -11.22049 -11.22049 -11.21875 -11.21865 -11.21865
 Alpha  occ. eigenvalues --   -1.29769  -1.28380  -1.28380  -1.10330  -1.05950
 Alpha  occ. eigenvalues --   -1.05950  -1.01456  -0.97093  -0.97093  -0.84072
 Alpha  occ. eigenvalues --   -0.84072  -0.83494  -0.81475  -0.79553  -0.79553
 Alpha  occ. eigenvalues --   -0.70491  -0.69662  -0.69662  -0.62280  -0.61891
 Alpha  occ. eigenvalues --   -0.61049  -0.61049  -0.59618  -0.58837  -0.58837
 Alpha  occ. eigenvalues --   -0.58796  -0.58796  -0.56155  -0.51570  -0.51570
 Alpha  occ. eigenvalues --   -0.42930  -0.39190  -0.39190  -0.33451  -0.26285
 Alpha  occ. eigenvalues --   -0.26285
 Alpha virt. eigenvalues --    0.03186   0.03186   0.03198   0.04005   0.04005
 Alpha virt. eigenvalues --    0.05727   0.06601   0.08555   0.08555   0.09157
 Alpha virt. eigenvalues --    0.09217   0.10431   0.10431   0.11678   0.11678

 Mulliken charges:
               1
     1  C    0.335902
     2  C    0.335901
     3  C    0.335908
     4  C   -0.626860
     5  C   -0.626858
     6  C   -0.626858
     7  C    2.580727
     8  C    2.580723
     9  C    2.580714
    10  C   -3.083356
    11  C   -3.083357
    12  C   -3.083356
    13  N    1.404029
    14  N    1.404030
    15  N    1.404029
    16  H   -0.257332
    17  H   -0.257333
    18  H   -0.257334
    19  H   -0.326101
    20  H   -0.326102
    21  H   -0.326103
    22  H   -0.027005
    23  H   -0.027004
    24  H   -0.027004
 Sum of Mulliken charges =  -0.00000

 Dipole moment (field-independent basis, Debye):
    X=             -0.0000    Y=             -0.0000    Z=              0.0000  Tot=              0.0000

 Test job not archived.
 1\1\GINC-SE145\SP\RHF\Aug-CC-pVDZ\C12H9N3\OHZDE\05-Apr-2025\0\\#t hf a
 ug-cc-pvdz iop(5/13=1,5/36=2,99/5=2) pseudo=read geom=check guess=(rea
 d,tcheck) scf=(maxcycle=1)\\title\\0,1\C,0,-2.260008,1.718793,0.\C,0,2
 .618522,1.097828,0.\C,0,-0.358514,-2.816621,0.\C,0,-1.636395,2.936436,
 0.\C,0,3.361226,-0.051059,0.\C,0,-1.724831,-2.885378,0.\C,0,-1.235698,
 0.719678,0.\C,0,1.241108,0.710307,0.\C,0,-0.00541,-1.429985,0.\C,0,0.,
 1.392828,0.\C,0,1.206225,-0.696414,0.\C,0,-1.206225,-0.696414,0.\N,0,-
 0.273028,2.739129,0.\N,0,2.508669,-1.133115,0.\N,0,-2.235641,-1.606014

 Normal termination of Gaussian 16 at Sat Apr  5 23:02:38 2025.
