 Gaussian 16, Revision C.01,

 ----------------------------------------------------------------------
 #t hf aug-cc-pvdz symm=none int=(grid=ultrafine) guess=(read,tcheck) s
 table=(opt,rrhf)
 ----------------------------------------------------------------------
 -----
 title
 -----
 Symbolic Z-matrix:
 Charge =  0 Multiplicity = 1

 SCF Done:  E(RHF) =  -628.258473862     A.U. after   15 cycles
 Normal termination of Gaussian 16 at Sat Apr  5 22:55:29 2025.
 Gaussian 16:  ES64L-G16RevC.01  3-Jul-2019

 ----------------------------------------------------------------------
 #t hf aug-cc-pvdz iop(5/13=1,5/36=2,99/5=2) pseudo=read geom=check gue
 ss=(read,tcheck) scf=(maxcycle=1)
 ----------------------------------------------------------------------
 -----
 title
 -----
 Structure from the checkpoint file:  "benzenethiol.chk"
 Charge =  0 Multiplicity = 1

                         Standard orientation:
 ---------------------------------------------------------------------
 Center     Atomic      Atomic             Coordinates (Angstroms)
 Number     Number       Type             X           Y           Z
 ---------------------------------------------------------------------
      1          6           0        0.007083   -2.289118    0.000000
      2          6           0        1.204721   -1.583554    0.000000
      3          6           0       -1.194960   -1.590256   -0.000000
      4          6           0        1.206584   -0.194173    0.000000
      5          6           0       -1.203315   -0.201715   -0.000000
      6          6           0       -0.000000    0.505241   -0.000000
      7         16           0       -0.086475    2.284006   -0.000000
      8          1           0        0.010419   -3.370141    0.000000
      9          1           0        2.147471   -2.114249    0.000000
     10          1           0       -2.134602   -2.126238   -0.000000
     11          1           0        2.146513    0.340962    0.000000
     12          1           0       -2.144219    0.332370   -0.000000
     13          1           0        1.237336    2.514654    0.000000
 ---------------------------------------------------------------------

 SCF Done:  E(RHF) =  -628.556017600     A.U. after    2 cycles

 The electronic state is 1-A'.
 Alpha  occ. eigenvalues --  -93.96457 -11.28543 -11.25198 -11.25144 -11.25065
 Alpha  occ. eigenvalues --  -11.24908 -11.24458  -8.24571  -6.22430  -6.22277
 Alpha  occ. eigenvalues --   -6.22042  -1.17342  -1.07475  -1.02801  -0.97187
 Alpha  occ. eigenvalues --   -0.84855  -0.82298  -0.71846  -0.66265  -0.64834
 Alpha  occ. eigenvalues --   -0.61075  -0.59308  -0.53738  -0.53440  -0.51517
 Alpha  occ. eigenvalues --   -0.48018  -0.42598  -0.35651  -0.31795
 Alpha virt. eigenvalues --    0.03413   0.03569   0.04030   0.05182   0.05716
 Alpha virt. eigenvalues --    0.07796   0.08694   0.09620   0.10284   0.11555
 Alpha virt. eigenvalues --    0.11778   0.13038   0.13699   0.13782   0.14091

 Mulliken charges:
               1
     1  C   -0.086037
     2  C    0.521353
     3  C    0.287057
     4  C    0.201483
     5  C   -0.361316
     6  C    0.405447
     7  S   -0.115438
     8  H   -0.210609
     9  H   -0.221260
    10  H   -0.218937
    11  H   -0.288287
    12  H   -0.218325
    13  H    0.304869
 Sum of Mulliken charges =  -0.00000

 Dipole moment (field-independent basis, Debye):
    X=              0.8697    Y=             -1.0196    Z=              0.0000  Tot=              1.3401

 Test job not archived.
 1\1\GINC-SE108\SP\RHF\Aug-CC-pVDZ\C6H6S1\OHZDE\05-Apr-2025\0\\#t hf au
 g-cc-pvdz iop(5/13=1,5/36=2,99/5=2) pseudo=read geom=check guess=(read
 ,tcheck) scf=(maxcycle=1)\\title\\0,1\C,0,0.007083,-2.289118,0.\C,0,1.
 204721,-1.583554,0.\C,0,-1.19496,-1.590256,0.\C,0,1.206584,-0.194173,0
 .\C,0,-1.203315,-0.201715,0.\C,0,0.,0.505241,0.\S,0,-0.086475,2.284006
 ,0.\H,0,0.010418,-3.370141,0.\H,0,2.147471,-2.114249,0.\H,0,-2.134602,
 -2.126238,0.\H,0,2.146513,0.340962,0.\H,0,-2.144219,0.33237,0.\H,0,1.2
 37336,2.514654,0.\\Version=ES64L-G16RevC.01\State=1-A'\HF=-628.5560176

 Normal termination of Gaussian 16 at Sat Apr  5 22:55:49 2025.
