 Gaussian 16, Revision C.01,

 ----------------------------------------------------------------------
 #t hf aug-cc-pvdz symm=none int=(grid=ultrafine) guess=(read,tcheck) s
 table=(opt,rrhf)
 ----------------------------------------------------------------------
 -----
 title
 -----
 Symbolic Z-matrix:
 Charge =  0 Multiplicity = 1

 SCF Done:  E(RHF) =  -379.284340741     A.U. after   12 cycles
 Normal termination of Gaussian 16 at Sat Apr  5 22:55:15 2025.
 Gaussian 16:  ES64L-G16RevC.01  3-Jul-2019

 ----------------------------------------------------------------------
 #t hf aug-cc-pvdz iop(5/13=1,5/36=2,99/5=2) pseudo=read geom=check gue
 ss=(read,tcheck) scf=(maxcycle=1)
 ----------------------------------------------------------------------
 -----
 title
 -----
 Structure from the checkpoint file:  "benzoquinone.chk"
 Charge =  0 Multiplicity = 1

                         Standard orientation:
 ---------------------------------------------------------------------
 Center     Atomic      Atomic             Coordinates (Angstroms)
 Number     Number       Type             X           Y           Z
 ---------------------------------------------------------------------
      1          6           0        0.000000    0.000000    1.438198
      2          6           0        0.000000    0.000000   -1.438198
      3          8           0        0.000000    0.000000    2.656988
      4          8           0        0.000000    0.000000   -2.656988
      5          6           0        0.000000    1.265716    0.667837
      6          6           0       -0.000000   -1.265716    0.667837
      7          6           0       -0.000000   -1.265716   -0.667837
      8          6           0        0.000000    1.265716   -0.667837
      9          1           0        0.000000    2.176019    1.252736
     10          1           0       -0.000000   -2.176019    1.252736
     11          1           0       -0.000000   -2.176019   -1.252736
     12          1           0        0.000000    2.176019   -1.252736
 ---------------------------------------------------------------------

 SCF Done:  E(RHF) =  -379.657855246     A.U. after    2 cycles

 The electronic state is 1-AG.
 Alpha  occ. eigenvalues --  -20.56919 -20.56917 -11.36990 -11.36968 -11.29137
 Alpha  occ. eigenvalues --  -11.29116 -11.29024 -11.29000  -1.49605  -1.49463
 Alpha  occ. eigenvalues --   -1.16997  -1.08176  -0.97707  -0.88532  -0.84589
 Alpha  occ. eigenvalues --   -0.73389  -0.72725  -0.69592  -0.65657  -0.63827
 Alpha  occ. eigenvalues --   -0.61398  -0.60274  -0.58997  -0.55732  -0.46018
 Alpha  occ. eigenvalues --   -0.44227  -0.42251  -0.42004
 Alpha virt. eigenvalues --   -0.00170   0.03185   0.03373   0.04472   0.05410
 Alpha virt. eigenvalues --    0.08377   0.09401   0.10002   0.11521   0.12307
 Alpha virt. eigenvalues --    0.12877   0.12954   0.12986   0.14049   0.14057

 Mulliken charges:
               1
     1  C    0.625986
     2  C    0.625986
     3  O   -1.414458
     4  O   -1.414458
     5  C    0.600847
     6  C    0.600847
     7  C    0.600847
     8  C    0.600847
     9  H   -0.206610
    10  H   -0.206610
    11  H   -0.206610
    12  H   -0.206610
 Sum of Mulliken charges =  -0.00000

 Dipole moment (field-independent basis, Debye):
    X=             -0.0000    Y=             -0.0000    Z=             -0.0000  Tot=              0.0000

 Test job not archived.
 1\1\GINC-SE202\SP\RHF\Aug-CC-pVDZ\C6H4O2\OHZDE\05-Apr-2025\0\\#t hf au
 g-cc-pvdz iop(5/13=1,5/36=2,99/5=2) pseudo=read geom=check guess=(read
 ,tcheck) scf=(maxcycle=1)\\title\\0,1\C,0,0.,0.,1.438198\C,0,0.,0.,-1.
 438198\O,0,0.,0.,2.656988\O,0,0.,0.,-2.656988\C,0,0.,1.265716,0.667837
 \C,0,0.,-1.265716,0.667837\C,0,0.,-1.265716,-0.667837\C,0,0.,1.265716,
 -0.667837\H,0,0.,2.176019,1.252736\H,0,0.,-2.176019,1.252736\H,0,0.,-2
 .176019,-1.252736\H,0,0.,2.176019,-1.252736\\Version=ES64L-G16RevC.01\
 State=1-AG\HF=-379.6578552\RMSD=3.552e-02\Dipole=0.,0.,0.\Quadrupole=1

 Normal termination of Gaussian 16 at Sat Apr  5 22:55:48 2025.
