 Gaussian 16, Revision C.01,

 ----------------------------------------------------------------------
 #t hf aug-cc-pvdz symm=none int=(grid=ultrafine) guess=(read,tcheck) s
 table=(opt,rrhf)
 ----------------------------------------------------------------------
 -----
 title
 -----
 Symbolic Z-matrix:
 Charge =  0 Multiplicity = 1

 SCF Done:  E(RHF) =  -398.542734039     A.U. after   16 cycles
 Normal termination of Gaussian 16 at Sat Apr  5 22:55:59 2025.
 Gaussian 16:  ES64L-G16RevC.01  3-Jul-2019

 ----------------------------------------------------------------------
 #t hf aug-cc-pvdz iop(5/13=1,5/36=2,99/5=2) pseudo=read geom=check gue
 ss=(read,tcheck) scf=(maxcycle=1)
 ----------------------------------------------------------------------
 -----
 title
 -----
 Structure from the checkpoint file:  "benzamide.chk"
 Charge =  0 Multiplicity = 1

                         Standard orientation:
 ---------------------------------------------------------------------
 Center     Atomic      Atomic             Coordinates (Angstroms)
 Number     Number       Type             X           Y           Z
 ---------------------------------------------------------------------
      1          6           0       -2.571902    0.046888    0.020768
      2          6           0       -1.848389    1.223950   -0.131564
      3          6           0       -1.902431   -1.166543    0.145550
      4          6           0       -0.459401    1.189827   -0.147202
      5          6           0       -0.515903   -1.202319    0.120287
      6          6           0        0.218670   -0.023721   -0.016122
      7          6           0        1.715052   -0.135921   -0.035243
      8          7           0        2.416666    1.006941    0.237137
      9          8           0        2.280280   -1.184451   -0.295323
     10          1           0       -3.653148    0.074322    0.035323
     11          1           0       -2.364586    2.167480   -0.245942
     12          1           0       -2.462548   -2.084753    0.259361
     13          1           0        0.086801    2.111464   -0.297061
     14          1           0        0.020859   -2.136416    0.202736
     15          1           0        1.984571    1.789885    0.692283
     16          1           0        3.414974    0.912074    0.317082
 ---------------------------------------------------------------------

 SCF Done:  E(RHF) =  -398.947592540     A.U. after    2 cycles

 The electronic state is 1-A.
 Alpha  occ. eigenvalues --  -20.50982 -15.52837 -11.36462 -11.26249 -11.25864
 Alpha  occ. eigenvalues --  -11.25826 -11.25448 -11.25322 -11.25148  -1.45894
 Alpha  occ. eigenvalues --   -1.22566  -1.16967  -1.04470  -1.03206  -0.89549
 Alpha  occ. eigenvalues --   -0.85166  -0.81779  -0.77493  -0.72400  -0.68889
 Alpha  occ. eigenvalues --   -0.65505  -0.63514  -0.61507  -0.60921  -0.59470
 Alpha  occ. eigenvalues --   -0.53548  -0.52095  -0.51731  -0.44188  -0.42953
 Alpha  occ. eigenvalues --   -0.36181  -0.35689
 Alpha virt. eigenvalues --    0.02684   0.03225   0.03821   0.04976   0.06129
 Alpha virt. eigenvalues --    0.06206   0.07297   0.07553   0.09573   0.10580
 Alpha virt. eigenvalues --    0.10736   0.11597   0.12589   0.12768   0.13180

 Mulliken charges:
               1
     1  C   -0.129246
     2  C   -0.026288
     3  C    0.397988
     4  C    0.390211
     5  C   -0.246196
     6  C    1.848122
     7  C   -0.362912
     8  N    0.687001
     9  O   -1.385924
    10  H   -0.209548
    11  H   -0.249246
    12  H   -0.218173
    13  H   -0.310901
    14  H   -0.332624
    15  H    0.031348
    16  H    0.116386
 Sum of Mulliken charges =   0.00000

 Dipole moment (field-independent basis, Debye):
    X=             -1.8941    Y=              2.9834    Z=              1.3026  Tot=              3.7663

 Test job not archived.
 1\1\GINC-SE220\SP\RHF\Aug-CC-pVDZ\C7H7N1O1\OHZDE\05-Apr-2025\0\\#t hf
 aug-cc-pvdz iop(5/13=1,5/36=2,99/5=2) pseudo=read geom=check guess=(re
 ad,tcheck) scf=(maxcycle=1)\\title\\0,1\C,0,-2.571902,0.046888,0.02076
 8\C,0,-1.848389,1.22395,-0.131564\C,0,-1.902431,-1.166543,0.14555\C,0,
 -0.459401,1.189827,-0.147202\C,0,-0.515903,-1.202319,0.120287\C,0,0.21
 867,-0.023721,-0.016122\C,0,1.715052,-0.135921,-0.035243\N,0,2.416666,
 1.006941,0.237137\O,0,2.28028,-1.184451,-0.295323\H,0,-3.653148,0.0743
 22,0.035323\H,0,-2.364586,2.16748,-0.245942\H,0,-2.462548,-2.084753,0.

 Normal termination of Gaussian 16 at Sat Apr  5 22:56:07 2025.
