 Gaussian 16, Revision C.01,

 ----------------------------------------------------------------------
 #t hf aug-cc-pvdz symm=none int=(grid=ultrafine) guess=(read,tcheck) s
 table=(opt,rrhf)
 ----------------------------------------------------------------------
 -----
 title
 -----
 Symbolic Z-matrix:
 Charge =  0 Multiplicity = 1

 SCF Done:  E(RHF) =  -381.330845280     A.U. after   17 cycles
 Normal termination of Gaussian 16 at Sat Apr  5 22:56:44 2025.
 Gaussian 16:  ES64L-G16RevC.01  3-Jul-2019

 ----------------------------------------------------------------------
 #t hf aug-cc-pvdz iop(5/13=1,5/36=2,99/5=2) pseudo=read geom=check gue
 ss=(read,tcheck) scf=(maxcycle=1)
 ----------------------------------------------------------------------
 -----
 title
 -----
 Structure from the checkpoint file:  "benzofuran.chk"
 Charge =  0 Multiplicity = 1

                         Standard orientation:
 ---------------------------------------------------------------------
 Center     Atomic      Atomic             Coordinates (Angstroms)
 Number     Number       Type             X           Y           Z
 ---------------------------------------------------------------------
      1          6           0        1.747263   -1.406167    0.000000
      2          6           0        2.223038   -0.087275    0.000000
      3          6           0        0.389336   -1.682725    0.000000
      4          6           0        1.351487    0.993360   -0.000000
      5          6           0       -1.940990   -0.463643   -0.000000
      6          6           0       -2.180642    0.864075   -0.000000
      7          6           0       -0.508089   -0.610981    0.000000
      8          6           0        0.000000    0.695937   -0.000000
      9          8           0       -1.024824    1.601092   -0.000000
     10          1           0        2.457684   -2.221739    0.000000
     11          1           0        3.289485    0.091942    0.000000
     12          1           0        0.033887   -2.704379    0.000000
     13          1           0        1.703212    2.015004   -0.000000
     14          1           0       -2.683681   -1.242643    0.000000
     15          1           0       -3.090416    1.437594   -0.000000
 ---------------------------------------------------------------------

 SCF Done:  E(RHF) =  -381.717515362     A.U. after    2 cycles

 The electronic state is 1-A'.
 Alpha  occ. eigenvalues --  -20.60742 -11.30943 -11.29899 -11.24881 -11.24695
 Alpha  occ. eigenvalues --  -11.24654 -11.24592 -11.24456 -11.24027  -1.54313
 Alpha  occ. eigenvalues --   -1.16128  -1.09021  -1.02159  -0.99726  -0.86645
 Alpha  occ. eigenvalues --   -0.82798  -0.81170  -0.72890  -0.68818  -0.67597
 Alpha  occ. eigenvalues --   -0.64165  -0.62478  -0.61273  -0.58289  -0.56689
 Alpha  occ. eigenvalues --   -0.53479  -0.50381  -0.49978  -0.41738  -0.33517
 Alpha  occ. eigenvalues --   -0.31282
 Alpha virt. eigenvalues --    0.03364   0.03521   0.03783   0.04763   0.05211
 Alpha virt. eigenvalues --    0.07485   0.08025   0.10427   0.10500   0.11184
 Alpha virt. eigenvalues --    0.11819   0.12203   0.12733   0.13400   0.13686

 Mulliken charges:
               1
     1  C    0.204979
     2  C    0.146253
     3  C    0.791357
     4  C   -0.084086
     5  C   -0.145511
     6  C    0.844531
     7  C    0.508695
     8  C    0.881617
     9  O   -1.825399
    10  H   -0.244461
    11  H   -0.235081
    12  H   -0.230302
    13  H   -0.263953
    14  H   -0.184013
    15  H   -0.164624
 Sum of Mulliken charges =  -0.00000

 Dipole moment (field-independent basis, Debye):
    X=             -0.5226    Y=             -0.5993    Z=              0.0000  Tot=              0.7952

 Test job not archived.
 1\1\GINC-SE153\SP\RHF\Aug-CC-pVDZ\C8H6O1\OHZDE\05-Apr-2025\0\\#t hf au
 g-cc-pvdz iop(5/13=1,5/36=2,99/5=2) pseudo=read geom=check guess=(read
 ,tcheck) scf=(maxcycle=1)\\title\\0,1\C,0,1.747263,-1.406167,0.\C,0,2.
 223038,-0.087275,0.\C,0,0.389336,-1.682725,0.\C,0,1.351487,0.99336,0.\
 C,0,-1.94099,-0.463643,0.\C,0,-2.180642,0.864075,0.\C,0,-0.508089,-0.6
 10981,0.\C,0,0.,0.695937,0.\O,0,-1.024824,1.601092,0.\H,0,2.457684,-2.
 221739,0.\H,0,3.289485,0.091942,0.\H,0,0.033887,-2.704379,0.\H,0,1.703
 212,2.015004,0.\H,0,-2.683681,-1.242643,0.\H,0,-3.090416,1.437594,0.\\

 Normal termination of Gaussian 16 at Sat Apr  5 22:56:51 2025.
