 Gaussian 16, Revision C.01,

 ----------------------------------------------------------------------
 #t hf aug-cc-pvdz symm=none int=(grid=ultrafine) guess=(read,tcheck) s
 table=(opt,rrhf)
 ----------------------------------------------------------------------
 -----
 title
 -----
 Symbolic Z-matrix:
 Charge =  0 Multiplicity = 1

 SCF Done:  E(RHF) =  -265.677743007     A.U. after   13 cycles
 Normal termination of Gaussian 16 at Sat Apr  5 22:55:51 2025.
 Gaussian 16:  ES64L-G16RevC.01  3-Jul-2019

 ----------------------------------------------------------------------
 #t hf aug-cc-pvdz iop(5/13=1,5/36=2,99/5=2) pseudo=read geom=check gue
 ss=(read,tcheck) scf=(maxcycle=1)
 ----------------------------------------------------------------------
 -----
 title
 -----
 Structure from the checkpoint file:  "beta-propiolactone.chk"
 Charge =  0 Multiplicity = 1

                         Standard orientation:
 ---------------------------------------------------------------------
 Center     Atomic      Atomic             Coordinates (Angstroms)
 Number     Number       Type             X           Y           Z
 ---------------------------------------------------------------------
      1          8           0       -1.034291   -0.277068    0.000000
      2          6           0        0.000000    0.628638    0.000000
      3          8           0       -0.070941    1.813015    0.000000
      4          6           0        1.084794   -0.444247    0.000000
      5          1           0        1.709429   -0.440463    0.889880
      6          1           0        1.709429   -0.440463   -0.889880
      7          6           0       -0.101764   -1.414106    0.000000
      8          1           0       -0.237589   -2.014177   -0.895897
      9          1           0       -0.237589   -2.014177    0.895897
 ---------------------------------------------------------------------

 SCF Done:  E(RHF) =  -265.943274146     A.U. after    2 cycles

 The electronic state is 1-A'.
 Alpha  occ. eigenvalues --  -20.59394 -20.54693 -11.39852 -11.32463 -11.27800
 Alpha  occ. eigenvalues --   -1.54649  -1.47309  -1.06899  -0.92865  -0.76837
 Alpha  occ. eigenvalues --   -0.71945  -0.70882  -0.68628  -0.58289  -0.57349
 Alpha  occ. eigenvalues --   -0.57069  -0.52798  -0.45839  -0.44174
 Alpha virt. eigenvalues --    0.02865   0.03900   0.04083   0.06484   0.07079
 Alpha virt. eigenvalues --    0.10765   0.11340   0.11587   0.11638   0.13928
 Alpha virt. eigenvalues --    0.14760   0.15665   0.15920   0.16673   0.18854

 Mulliken charges:
               1
     1  O   -1.210880
     2  C    1.766170
     3  O   -1.165568
     4  C   -0.509141
     5  H    0.146125
     6  H    0.146125
     7  C    0.720431
     8  H    0.053369
     9  H    0.053369
 Sum of Mulliken charges =   0.00000

 Dipole moment (field-independent basis, Debye):
    X=              2.2808    Y=             -4.0387    Z=              0.0000  Tot=              4.6383

 Test job not archived.
 1\1\GINC-SE190\SP\RHF\Aug-CC-pVDZ\C3H4O2\OHZDE\05-Apr-2025\0\\#t hf au
 g-cc-pvdz iop(5/13=1,5/36=2,99/5=2) pseudo=read geom=check guess=(read
 ,tcheck) scf=(maxcycle=1)\\title\\0,1\O,0,-1.034291,-0.277068,0.\C,0,0
 .,0.628638,0.\O,0,-0.070941,1.813015,0.\C,0,1.084794,-0.444247,0.\H,0,
 1.709429,-0.440463,0.88988\H,0,1.709429,-0.440463,-0.88988\C,0,-0.1017
 64,-1.414106,0.\H,0,-0.237589,-2.014177,-0.895897\H,0,-0.237589,-2.014
 177,0.895897\\Version=ES64L-G16RevC.01\State=1-A'\HF=-265.9432741\RMSD
 =1.321e-02\Dipole=0.8973376,-1.5889659,0.\Quadrupole=-0.0191556,-1.967

 Normal termination of Gaussian 16 at Sat Apr  5 22:55:53 2025.
