 Gaussian 16, Revision C.01,

 ----------------------------------------------------------------------
 #t hf aug-cc-pvdz symm=none int=(grid=ultrafine) guess=(read,tcheck) s
 table=(opt,rrhf)
 ----------------------------------------------------------------------
 -----
 title
 -----
 Symbolic Z-matrix:
 Charge =  0 Multiplicity = 1

 SCF Done:  E(RHF) =  -321.915101656     A.U. after   14 cycles
 Normal termination of Gaussian 16 at Sat Apr  5 22:56:06 2025.
 Gaussian 16:  ES64L-G16RevC.01  3-Jul-2019

 ----------------------------------------------------------------------
 #t hf aug-cc-pvdz iop(5/13=1,5/36=2,99/5=2) pseudo=read geom=check gue
 ss=(read,tcheck) scf=(maxcycle=1)
 ----------------------------------------------------------------------
 -----
 title
 -----
 Structure from the checkpoint file:  "beta-alanine.chk"
 Charge =  0 Multiplicity = 1

                         Standard orientation:
 ---------------------------------------------------------------------
 Center     Atomic      Atomic             Coordinates (Angstroms)
 Number     Number       Type             X           Y           Z
 ---------------------------------------------------------------------
      1          1           0        2.844792   -0.788170    0.777220
      2          1           0        3.404575    0.345604   -0.245141
      3          7           0        2.637944   -0.294370   -0.082906
      4          1           0        1.280732    1.064160    0.901267
      5          1           0        1.287489    1.091764   -0.849294
      6          6           0        1.367895    0.430365    0.012626
      7          1           0        0.282574   -1.185743   -0.904827
      8          1           0        0.265487   -1.235933    0.844398
      9          6           0        0.206748   -0.556935   -0.013182
     10          8           0       -1.337293    1.297083    0.023560
     11          6           0       -1.152003    0.113743    0.002622
     12          1           0       -1.923395   -1.652577   -0.039753
     13          8           0       -2.218170   -0.734777   -0.013051
 ---------------------------------------------------------------------

 SCF Done:  E(RHF) =  -322.244959296     A.U. after    2 cycles

 The electronic state is 1-A.
 Alpha  occ. eigenvalues --  -20.60153 -20.53591 -15.49715 -11.39542 -11.27170
 Alpha  occ. eigenvalues --  -11.26575  -1.54289  -1.45551  -1.19425  -1.05210
 Alpha  occ. eigenvalues --   -0.89127  -0.82382  -0.74108  -0.70464  -0.67138
 Alpha  occ. eigenvalues --   -0.65656  -0.64196  -0.60333  -0.57282  -0.54708
 Alpha  occ. eigenvalues --   -0.52130  -0.47506  -0.44949  -0.43640
 Alpha virt. eigenvalues --    0.02677   0.03339   0.04537   0.05561   0.06260
 Alpha virt. eigenvalues --    0.06541   0.07881   0.09768   0.11452   0.12232
 Alpha virt. eigenvalues --    0.13003   0.13455   0.14937   0.16336   0.16465

 Mulliken charges:
               1
     1  H    0.132061
     2  H    0.140605
     3  N    0.249200
     4  H    0.069304
     5  H    0.044944
     6  C   -0.637873
     7  H    0.234026
     8  H    0.194253
     9  C   -0.403832
    10  O   -1.191206
    11  C    2.051862
    12  H    0.428486
    13  O   -1.311829
 Sum of Mulliken charges =   0.00000

 Dipole moment (field-independent basis, Debye):
    X=              2.5604    Y=             -2.8847    Z=              0.9219  Tot=              3.9657

 Test job not archived.
 1\1\GINC-SE171\SP\RHF\Aug-CC-pVDZ\C3H7N1O2\OHZDE\05-Apr-2025\0\\#t hf
 aug-cc-pvdz iop(5/13=1,5/36=2,99/5=2) pseudo=read geom=check guess=(re
 ad,tcheck) scf=(maxcycle=1)\\title\\0,1\H,0,2.844792,-0.78817,0.77722\
 H,0,3.404575,0.345604,-0.245141\N,0,2.637944,-0.29437,-0.082906\H,0,1.
 280732,1.06416,0.901267\H,0,1.287489,1.091764,-0.849294\C,0,1.367895,0
 .430365,0.012626\H,0,0.282574,-1.185743,-0.904827\H,0,0.265487,-1.2359
 33,0.844398\C,0,0.206748,-0.556935,-0.013182\O,0,-1.337293,1.297083,0.
 02356\C,0,-1.152003,0.113743,0.002622\H,0,-1.923395,-1.652577,-0.03975

 Normal termination of Gaussian 16 at Sat Apr  5 22:56:10 2025.
