 Gaussian 16, Revision C.01,

 ----------------------------------------------------------------------
 #t hf aug-cc-pvdz symm=none int=(grid=ultrafine) guess=(read,tcheck) s
 table=(opt,rrhf)
 ----------------------------------------------------------------------
 -----
 title
 -----
 Symbolic Z-matrix:
 Charge =  0 Multiplicity = 1

 SCF Done:  E(RHF) =  -311.101738453     A.U. after   12 cycles
 Normal termination of Gaussian 16 at Sat Apr  5 22:57:26 2025.
 Gaussian 16:  ES64L-G16RevC.01  3-Jul-2019

 ----------------------------------------------------------------------
 #t hf aug-cc-pvdz iop(5/13=1,5/36=2,99/5=2) pseudo=read geom=check gue
 ss=(read,tcheck) scf=(maxcycle=1)
 ----------------------------------------------------------------------
 -----
 title
 -----
 Structure from the checkpoint file:  "bicyclo-5-1-0-octane.chk"
 Charge =  0 Multiplicity = 1

                         Standard orientation:
 ---------------------------------------------------------------------
 Center     Atomic      Atomic             Coordinates (Angstroms)
 Number     Number       Type             X           Y           Z
 ---------------------------------------------------------------------
      1          6           0        0.322882   -1.211271    0.752902
      2          6           0        0.322882   -1.211271   -0.752902
      3          6           0       -0.466950   -2.251492   -0.000000
      4          6           0       -0.345255   -0.092908    1.527147
      5          6           0       -0.345255   -0.092908   -1.527147
      6          6           0        0.322882    1.274175    1.311568
      7          6           0        0.322882    1.274175   -1.311568
      8          6           0       -0.056876    1.976267    0.000000
      9          1           0        1.240243   -1.564633   -1.210344
     10          1           0       -0.116933   -3.274616   -0.000000
     11          1           0       -1.545089   -2.152272    0.000000
     12          1           0       -1.402559   -0.021790    1.258165
     13          1           0       -0.326225   -0.345142    2.590759
     14          1           0       -0.326225   -0.345142   -2.590759
     15          1           0       -1.402559   -0.021790   -1.258165
     16          1           0        0.048720    1.937680    2.136366
     17          1           0        1.410002    1.155998    1.365948
     18          1           0        1.410002    1.155998   -1.365948
     19          1           0        0.048720    1.937680   -2.136366
     20          1           0       -1.139984    2.143490    0.000000
     21          1           0        0.398488    2.970578    0.000000
     22          1           0        1.240243   -1.564633    1.210344
 ---------------------------------------------------------------------

 SCF Done:  E(RHF) =  -311.444927512     A.U. after    2 cycles

 The electronic state is 1-A'.
 Alpha  occ. eigenvalues --  -11.22550 -11.22491 -11.22296 -11.22266 -11.22250
 Alpha  occ. eigenvalues --  -11.22085 -11.22052 -11.22041  -1.15496  -1.06824
 Alpha  occ. eigenvalues --   -1.02525  -0.92737  -0.87231  -0.80509  -0.77291
 Alpha  occ. eigenvalues --   -0.73453  -0.67941  -0.64347  -0.62542  -0.59272
 Alpha  occ. eigenvalues --   -0.56843  -0.56616  -0.52466  -0.51989  -0.51300
 Alpha  occ. eigenvalues --   -0.47446  -0.46987  -0.46250  -0.45484  -0.40222
 Alpha  occ. eigenvalues --   -0.38868
 Alpha virt. eigenvalues --    0.03299   0.03327   0.03519   0.04140   0.05392
 Alpha virt. eigenvalues --    0.05725   0.05947   0.06017   0.06372   0.08724
 Alpha virt. eigenvalues --    0.09085   0.09353   0.09498   0.09645   0.11986

 Mulliken charges:
               1
     1  C    0.553110
     2  C    0.553110
     3  C    0.228978
     4  C   -0.576672
     5  C   -0.576672
     6  C   -0.172118
     7  C   -0.172118
     8  C   -0.381208
     9  H   -0.224559
    10  H   -0.169995
    11  H   -0.103734
    12  H    0.184345
    13  H    0.079891
    14  H    0.079891
    15  H    0.184345
    16  H    0.104898
    17  H    0.135833
    18  H    0.135833
    19  H    0.104898
    20  H    0.147172
    21  H    0.109331
    22  H   -0.224559
 Sum of Mulliken charges =  -0.00000

 Dipole moment (field-independent basis, Debye):
    X=              0.0947    Y=              0.1446    Z=              0.0000  Tot=              0.1729

 Test job not archived.
 1\1\GINC-SE180\SP\RHF\Aug-CC-pVDZ\C8H14\OHZDE\05-Apr-2025\0\\#t hf aug
 -cc-pvdz iop(5/13=1,5/36=2,99/5=2) pseudo=read geom=check guess=(read,
 tcheck) scf=(maxcycle=1)\\title\\0,1\C,0,0.322882,-1.211271,0.752902\C
 ,0,0.322882,-1.211271,-0.752902\C,0,-0.46695,-2.251492,0.\C,0,-0.34525
 5,-0.092908,1.527147\C,0,-0.345255,-0.092908,-1.527147\C,0,0.322882,1.
 274175,1.311568\C,0,0.322882,1.274175,-1.311568\C,0,-0.056876,1.976267
 ,0.\H,0,1.240243,-1.564633,-1.210344\H,0,-0.116933,-3.274616,0.\H,0,-1
 .545089,-2.152272,0.\H,0,-1.402559,-0.02179,1.258165\H,0,-0.326225,-0.

 Normal termination of Gaussian 16 at Sat Apr  5 22:58:12 2025.
