 Gaussian 16, Revision C.01,

 ----------------------------------------------------------------------
 #t hf aug-cc-pvdz symm=none int=(grid=ultrafine) guess=(read,tcheck) s
 table=(opt,rrhf)
 ----------------------------------------------------------------------
 -----
 title
 -----
 Symbolic Z-matrix:
 Charge =  0 Multiplicity = 1

 SCF Done:  E(RHF) =  -154.888396087     A.U. after   11 cycles
 Normal termination of Gaussian 16 at Sat Apr  5 22:56:05 2025.
 Gaussian 16:  ES64L-G16RevC.01  3-Jul-2019

 ----------------------------------------------------------------------
 #t hf aug-cc-pvdz iop(5/13=1,5/36=2,99/5=2) pseudo=read geom=check gue
 ss=(read,tcheck) scf=(maxcycle=1)
 ----------------------------------------------------------------------
 -----
 title
 -----
 Structure from the checkpoint file:  "bicyclo-1-1-0-butane.chk"
 Charge =  0 Multiplicity = 1

                         Standard orientation:
 ---------------------------------------------------------------------
 Center     Atomic      Atomic             Coordinates (Angstroms)
 Number     Number       Type             X           Y           Z
 ---------------------------------------------------------------------
      1          6           0       -0.742813    0.000000   -0.317669
      2          6           0        0.742813   -0.000000   -0.317669
      3          6           0        0.000000    1.134528    0.312889
      4          6           0       -0.000000   -1.134528    0.312889
      5          1           0        0.000000   -1.232016    1.397188
      6          1           0        0.000000    1.232016    1.397188
      7          1           0        0.000000   -2.078551   -0.219647
      8          1           0        0.000000    2.078551   -0.219647
      9          1           0       -1.425483    0.000000   -1.148859
     10          1           0        1.425483   -0.000000   -1.148859
 ---------------------------------------------------------------------

 SCF Done:  E(RHF) =  -155.058282107     A.U. after    2 cycles

 The electronic state is 1-A1.
 Alpha  occ. eigenvalues --  -11.24715 -11.24694 -11.24228 -11.24112  -1.22045
 Alpha  occ. eigenvalues --   -0.93290  -0.79056  -0.78899  -0.70615  -0.60000
 Alpha  occ. eigenvalues --   -0.59011  -0.52355  -0.46744  -0.44481  -0.36277
 Alpha virt. eigenvalues --    0.03731   0.04145   0.04550   0.04576   0.06477
 Alpha virt. eigenvalues --    0.07380   0.09936   0.12142   0.12846   0.13716
 Alpha virt. eigenvalues --    0.14559   0.15256   0.15934   0.16123   0.16442

 Mulliken charges:
               1
     1  C    0.407737
     2  C    0.407737
     3  C   -0.008213
     4  C   -0.008213
     5  H   -0.098143
     6  H   -0.098143
     7  H   -0.100061
     8  H   -0.100061
     9  H   -0.201320
    10  H   -0.201320
 Sum of Mulliken charges =  -0.00000

 Dipole moment (field-independent basis, Debye):
    X=             -0.0000    Y=             -0.0000    Z=             -0.7044  Tot=              0.7044

 Test job not archived.
 1\1\GINC-SE040\SP\RHF\Aug-CC-pVDZ\C4H6\OHZDE\05-Apr-2025\0\\#t hf aug-
 cc-pvdz iop(5/13=1,5/36=2,99/5=2) pseudo=read geom=check guess=(read,t
 check) scf=(maxcycle=1)\\title\\0,1\C,0,-0.742813,0.,-0.317669\C,0,0.7
 42813,0.,-0.317669\C,0,0.,1.134528,0.312889\C,0,0.,-1.134528,0.312889\
 H,0,0.,-1.232016,1.397188\H,0,0.,1.232016,1.397188\H,0,0.,-2.078551,-0
 .219647\H,0,0.,2.078551,-0.219647\H,0,-1.425483,0.,-1.148859\H,0,1.425
 483,0.,-1.148859\\Version=ES64L-G16RevC.01\State=1-A1\HF=-155.0582821\
 RMSD=1.238e-02\Dipole=0.,0.,-0.2771183\Quadrupole=-1.3823253,0.7200258

 Normal termination of Gaussian 16 at Sat Apr  5 22:56:07 2025.
