 Gaussian 16, Revision C.01,

 ----------------------------------------------------------------------
 #t hf aug-cc-pvdz symm=none int=(grid=ultrafine) guess=(read,tcheck) s
 table=(opt,rrhf)
 ----------------------------------------------------------------------
 -----
 title
 -----
 Symbolic Z-matrix:
 Charge =  0 Multiplicity = 1

 SCF Done:  E(RHF) =  -232.986323561     A.U. after   11 cycles
 Normal termination of Gaussian 16 at Sat Apr  5 22:56:25 2025.
 Gaussian 16:  ES64L-G16RevC.01  3-Jul-2019

 ----------------------------------------------------------------------
 #t hf aug-cc-pvdz iop(5/13=1,5/36=2,99/5=2) pseudo=read geom=check gue
 ss=(read,tcheck) scf=(maxcycle=1)
 ----------------------------------------------------------------------
 -----
 title
 -----
 Structure from the checkpoint file:  "bicyclopropyl.chk"
 Charge =  0 Multiplicity = 1

                         Standard orientation:
 ---------------------------------------------------------------------
 Center     Atomic      Atomic             Coordinates (Angstroms)
 Number     Number       Type             X           Y           Z
 ---------------------------------------------------------------------
      1          6           0       -0.000000    1.843020    0.753782
      2          6           0        0.427743    0.611952   -0.000000
      3          6           0       -0.000000    1.843020   -0.753782
      4          6           0       -0.427743   -0.611952   -0.000000
      5          6           0       -0.000000   -1.843020    0.753782
      6          6           0       -0.000000   -1.843020   -0.753782
      7          1           0        0.754138    2.423213    1.266843
      8          1           0       -0.956630    1.813429    1.257842
      9          1           0        1.492677    0.407118   -0.000000
     10          1           0       -0.956630    1.813429   -1.257842
     11          1           0        0.754138    2.423213   -1.266843
     12          1           0       -1.492677   -0.407118   -0.000000
     13          1           0       -0.754138   -2.423213    1.266843
     14          1           0        0.956630   -1.813429    1.257842
     15          1           0        0.956630   -1.813429   -1.257842
     16          1           0       -0.754138   -2.423213   -1.266843
 ---------------------------------------------------------------------

 SCF Done:  E(RHF) =  -233.243735514     A.U. after    2 cycles

 The electronic state is 1-AG.
 Alpha  occ. eigenvalues --  -11.23505 -11.23468 -11.22726 -11.22720 -11.22693
 Alpha  occ. eigenvalues --  -11.22679  -1.16314  -1.11428  -0.86928  -0.82659
 Alpha  occ. eigenvalues --   -0.81502  -0.77141  -0.67984  -0.66898  -0.62907
 Alpha  occ. eigenvalues --   -0.58167  -0.52007  -0.51806  -0.49414  -0.48089
 Alpha  occ. eigenvalues --   -0.44819  -0.40807  -0.37702
 Alpha virt. eigenvalues --    0.03515   0.03697   0.04046   0.04134   0.05960
 Alpha virt. eigenvalues --    0.06032   0.06338   0.06568   0.08895   0.09319
 Alpha virt. eigenvalues --    0.10565   0.12390   0.13009   0.14323   0.14366

 Mulliken charges:
               1
     1  C    0.255876
     2  C    0.235740
     3  C    0.255876
     4  C    0.235740
     5  C    0.255876
     6  C    0.255876
     7  H   -0.144426
     8  H   -0.137435
     9  H   -0.183770
    10  H   -0.137435
    11  H   -0.144426
    12  H   -0.183770
    13  H   -0.144426
    14  H   -0.137435
    15  H   -0.137435
    16  H   -0.144426
 Sum of Mulliken charges =  -0.00000

 Dipole moment (field-independent basis, Debye):
    X=              0.0000    Y=             -0.0000    Z=              0.0000  Tot=              0.0000

 Test job not archived.
 1\1\GINC-SE183\SP\RHF\Aug-CC-pVDZ\C6H10\OHZDE\05-Apr-2025\0\\#t hf aug
 -cc-pvdz iop(5/13=1,5/36=2,99/5=2) pseudo=read geom=check guess=(read,
 tcheck) scf=(maxcycle=1)\\title\\0,1\C,0,0.,1.84302,0.753782\C,0,0.427
 743,0.611952,0.\C,0,0.,1.84302,-0.753782\C,0,-0.427743,-0.611952,0.\C,
 0,0.,-1.84302,0.753782\C,0,0.,-1.84302,-0.753782\H,0,0.754138,2.423213
 ,1.266843\H,0,-0.95663,1.813429,1.257842\H,0,1.492677,0.407118,0.\H,0,
 -0.95663,1.813429,-1.257842\H,0,0.754138,2.423213,-1.266843\H,0,-1.492
 677,-0.407118,0.\H,0,-0.754138,-2.423213,1.266843\H,0,0.95663,-1.81342

 Normal termination of Gaussian 16 at Sat Apr  5 22:56:29 2025.
