 Gaussian 16, Revision C.01,

 ----------------------------------------------------------------------
 #t hf aug-cc-pvdz symm=none int=(grid=ultrafine) guess=(read,tcheck) s
 table=(opt,rrhf)
 ----------------------------------------------------------------------
 -----
 title
 -----
 Symbolic Z-matrix:
 Charge =  0 Multiplicity = 1

 SCF Done:  E(RHF) =  -231.835667685     A.U. after   14 cycles
 Normal termination of Gaussian 16 at Sat Apr  5 22:56:22 2025.
 Gaussian 16:  ES64L-G16RevC.01  3-Jul-2019

 ----------------------------------------------------------------------
 #t hf aug-cc-pvdz iop(5/13=1,5/36=2,99/5=2) pseudo=read geom=check gue
 ss=(read,tcheck) scf=(maxcycle=1)
 ----------------------------------------------------------------------
 -----
 title
 -----
 Structure from the checkpoint file:  "bicyclo-3-1-0-hex-2-ene.chk"
 Charge =  0 Multiplicity = 1

                         Standard orientation:
 ---------------------------------------------------------------------
 Center     Atomic      Atomic             Coordinates (Angstroms)
 Number     Number       Type             X           Y           Z
 ---------------------------------------------------------------------
      1          6           0        0.645070   -0.770527   -0.387053
      2          6           0       -0.789799   -1.153566   -0.033586
      3          6           0        0.710734    0.747733   -0.438274
      4          6           0        1.457988   -0.021657    0.630098
      5          6           0       -1.464834    0.179434    0.203670
      6          6           0       -0.653112    1.204214   -0.052761
      7          1           0        1.177895   -1.366546   -1.113656
      8          1           0       -1.269345   -1.698798   -0.852718
      9          1           0       -0.844021   -1.804885    0.843900
     10          1           0        1.275524    1.279992   -1.191271
     11          1           0        1.092367    0.049534    1.646341
     12          1           0        2.533970   -0.086125    0.538571
     13          1           0       -2.482396    0.264631    0.559582
     14          1           0       -0.920271    2.248412    0.036679
 ---------------------------------------------------------------------

 SCF Done:  E(RHF) =  -232.086006599     A.U. after    2 cycles

 The electronic state is 1-A.
 Alpha  occ. eigenvalues --  -11.23416 -11.23322 -11.23263 -11.23035 -11.23028
 Alpha  occ. eigenvalues --  -11.22757  -1.18239  -1.03508  -0.95804  -0.83149
 Alpha  occ. eigenvalues --   -0.77114  -0.73463  -0.70788  -0.63070  -0.58369
 Alpha  occ. eigenvalues --   -0.57143  -0.53359  -0.52020  -0.48562  -0.45328
 Alpha  occ. eigenvalues --   -0.40868  -0.33725
 Alpha virt. eigenvalues --    0.03650   0.03879   0.04027   0.04288   0.05839
 Alpha virt. eigenvalues --    0.06108   0.06635   0.07196   0.10389   0.12118
 Alpha virt. eigenvalues --    0.12823   0.14393   0.14535   0.14813   0.15230

 Mulliken charges:
               1
     1  C    0.513904
     2  C   -0.744534
     3  C    0.078916
     4  C    0.217372
     5  C    0.280834
     6  C    0.189248
     7  H   -0.176864
     8  H    0.162023
     9  H    0.167814
    10  H   -0.178696
    11  H   -0.110427
    12  H   -0.154731
    13  H   -0.115179
    14  H   -0.129680
 Sum of Mulliken charges =  -0.00000

 Dipole moment (field-independent basis, Debye):
    X=              0.1714    Y=             -0.2022    Z=             -0.1018  Tot=              0.2840

 Test job not archived.
 1\1\GINC-SE185\SP\RHF\Aug-CC-pVDZ\C6H8\OHZDE\05-Apr-2025\0\\#t hf aug-
 cc-pvdz iop(5/13=1,5/36=2,99/5=2) pseudo=read geom=check guess=(read,t
 check) scf=(maxcycle=1)\\title\\0,1\C,0,0.64507,-0.770527,-0.387053\C,
 0,-0.789799,-1.153566,-0.033586\C,0,0.710734,0.747733,-0.438274\C,0,1.
 457988,-0.021657,0.630098\C,0,-1.464834,0.179434,0.20367\C,0,-0.653112
 ,1.204214,-0.052761\H,0,1.177895,-1.366546,-1.113656\H,0,-1.269345,-1.
 698798,-0.852718\H,0,-0.844021,-1.804885,0.8439\H,0,1.275524,1.279992,
 -1.191271\H,0,1.092367,0.049534,1.646341\H,0,2.53397,-0.086125,0.53857

 Normal termination of Gaussian 16 at Sat Apr  5 22:56:26 2025.
