 Gaussian 16, Revision C.01,

 ----------------------------------------------------------------------
 #t hf aug-cc-pvdz symm=none int=(grid=ultrafine) guess=(read,tcheck) s
 table=(opt,rrhf)
 ----------------------------------------------------------------------
 -----
 title
 -----
 Symbolic Z-matrix:
 Charge =  0 Multiplicity = 1

 SCF Done:  E(RHF) =  -311.107221745     A.U. after   12 cycles
 Normal termination of Gaussian 16 at Sat Apr  5 22:57:33 2025.
 Gaussian 16:  ES64L-G16RevC.01  3-Jul-2019

 ----------------------------------------------------------------------
 #t hf aug-cc-pvdz iop(5/13=1,5/36=2,99/5=2) pseudo=read geom=check gue
 ss=(read,tcheck) scf=(maxcycle=1)
 ----------------------------------------------------------------------
 -----
 title
 -----
 Structure from the checkpoint file:  "bicyclo-4-2-0-octane.chk"
 Charge =  0 Multiplicity = 1

                         Standard orientation:
 ---------------------------------------------------------------------
 Center     Atomic      Atomic             Coordinates (Angstroms)
 Number     Number       Type             X           Y           Z
 ---------------------------------------------------------------------
      1          6           0       -1.791427   -0.546342   -0.470725
      2          6           0       -1.753453    0.902887    0.021944
      3          6           0       -0.346099    1.484644   -0.136504
      4          6           0        0.713967    0.691652    0.641171
      5          6           0        2.060839    0.553545   -0.118966
      6          6           0        1.570404   -0.813571   -0.662948
      7          6           0        0.552087   -0.854996    0.508236
      8          6           0       -0.849517   -1.436058    0.348591
      9          1           0       -2.807213   -0.943726   -0.416752
     10          1           0       -1.508563   -0.568405   -1.527994
     11          1           0       -2.059618    0.940911    1.073243
     12          1           0       -2.471421    1.510462   -0.533276
     13          1           0       -0.099323    1.483279   -1.202799
     14          1           0       -0.319965    2.530882    0.176897
     15          1           0        0.774332    1.062996    1.665761
     16          1           0        2.903852    0.434271    0.561752
     17          1           0        2.304420    1.332097   -0.842353
     18          1           0        2.293715   -1.626176   -0.723529
     19          1           0        1.084176   -0.713631   -1.633483
     20          1           0        1.040476   -1.331839    1.360944
     21          1           0       -1.285091   -1.564400    1.345109
     22          1           0       -0.790578   -2.437289   -0.088318
 ---------------------------------------------------------------------

 SCF Done:  E(RHF) =  -311.450417564     A.U. after    2 cycles

 The electronic state is 1-A.
 Alpha  occ. eigenvalues --  -11.22204 -11.22176 -11.21985 -11.21957 -11.21934
 Alpha  occ. eigenvalues --  -11.21922 -11.21873 -11.21844  -1.14757  -1.06034
 Alpha  occ. eigenvalues --   -1.00393  -0.91736  -0.87021  -0.82199  -0.79028
 Alpha  occ. eigenvalues --   -0.71004  -0.67135  -0.63328  -0.61556  -0.60174
 Alpha  occ. eigenvalues --   -0.58436  -0.54306  -0.52673  -0.50363  -0.50208
 Alpha  occ. eigenvalues --   -0.49046  -0.47530  -0.45569  -0.42724  -0.41987
 Alpha  occ. eigenvalues --   -0.40918
 Alpha virt. eigenvalues --    0.03274   0.03409   0.03534   0.04112   0.05442
 Alpha virt. eigenvalues --    0.05582   0.05870   0.06065   0.06094   0.08918
 Alpha virt. eigenvalues --    0.09083   0.09249   0.09735   0.09824   0.13225

 Mulliken charges:
               1
     1  C   -0.276356
     2  C   -0.114330
     3  C   -0.372869
     4  C   -0.072567
     5  C    0.222446
     6  C   -0.062461
     7  C   -0.048122
     8  C   -0.244237
     9  H    0.101885
    10  H    0.149699
    11  H    0.137045
    12  H    0.106846
    13  H    0.120729
    14  H    0.110877
    15  H   -0.070720
    16  H    0.003356
    17  H    0.001109
    18  H   -0.004906
    19  H    0.039982
    20  H   -0.051563
    21  H    0.199109
    22  H    0.125048
 Sum of Mulliken charges =  -0.00000

 Dipole moment (field-independent basis, Debye):
    X=             -0.0938    Y=             -0.0181    Z=              0.1103  Tot=              0.1459

 Test job not archived.
 1\1\GINC-SE085\SP\RHF\Aug-CC-pVDZ\C8H14\OHZDE\05-Apr-2025\0\\#t hf aug
 -cc-pvdz iop(5/13=1,5/36=2,99/5=2) pseudo=read geom=check guess=(read,
 tcheck) scf=(maxcycle=1)\\title\\0,1\C,0,-1.791427,-0.546342,-0.470725
 \C,0,-1.753453,0.902887,0.021944\C,0,-0.346099,1.484644,-0.136504\C,0,
 0.713967,0.691652,0.641171\C,0,2.060839,0.553545,-0.118966\C,0,1.57040
 4,-0.813571,-0.662948\C,0,0.552087,-0.854996,0.508236\C,0,-0.849517,-1
 .436058,0.348591\H,0,-2.807213,-0.943727,-0.416752\H,0,-1.508563,-0.56
 8405,-1.527994\H,0,-2.059618,0.940911,1.073243\H,0,-2.471421,1.510461,

 Normal termination of Gaussian 16 at Sat Apr  5 22:58:17 2025.
