 Gaussian 16, Revision C.01,

 ----------------------------------------------------------------------
 #t hf aug-cc-pvdz symm=none int=(grid=ultrafine) guess=(read,tcheck) s
 table=(opt,rrhf)
 ----------------------------------------------------------------------
 -----
 title
 -----
 Symbolic Z-matrix:
 Charge =  0 Multiplicity = 1

 SCF Done:  E(RHF) =  -233.024497428     A.U. after   12 cycles
 Normal termination of Gaussian 16 at Sat Apr  5 22:56:37 2025.
 Gaussian 16:  ES64L-G16RevC.01  3-Jul-2019

 ----------------------------------------------------------------------
 #t hf aug-cc-pvdz iop(5/13=1,5/36=2,99/5=2) pseudo=read geom=check gue
 ss=(read,tcheck) scf=(maxcycle=1)
 ----------------------------------------------------------------------
 -----
 title
 -----
 Structure from the checkpoint file:  "bicyclo-3-1-0-hexane.chk"
 Charge =  0 Multiplicity = 1

                         Standard orientation:
 ---------------------------------------------------------------------
 Center     Atomic      Atomic             Coordinates (Angstroms)
 Number     Number       Type             X           Y           Z
 ---------------------------------------------------------------------
      1          1           0       -1.102142   -2.369592   -0.000000
      2          1           0       -1.825210   -0.706722   -0.000000
      3          6           0       -0.167576    1.451617    0.000000
      4          1           0       -1.252508    1.558566    0.000000
      5          1           0        0.244759    2.460062    0.000000
      6          6           0        0.285460    0.631379    1.227651
      7          1           0       -0.356020    0.801607    2.094810
      8          1           0        1.301459    0.910417    1.518369
      9          6           0        0.285460    0.631379   -1.227651
     10          1           0        1.301459    0.910417   -1.518369
     11          1           0       -0.356020    0.801607   -2.094810
     12          6           0       -0.922260   -1.303615   -0.000000
     13          6           0        0.285460   -0.812956    0.755445
     14          1           0        0.866098   -1.537728    1.309572
     15          6           0        0.285460   -0.812956   -0.755445
     16          1           0        0.866098   -1.537728   -1.309572
 ---------------------------------------------------------------------

 SCF Done:  E(RHF) =  -233.281920088     A.U. after    2 cycles

 The electronic state is 1-A'.
 Alpha  occ. eigenvalues --  -11.22657 -11.22598 -11.22368 -11.22362 -11.22345
 Alpha  occ. eigenvalues --  -11.22234  -1.17146  -1.02393  -0.95754  -0.84660
 Alpha  occ. eigenvalues --   -0.76371  -0.75125  -0.69542  -0.63376  -0.60226
 Alpha  occ. eigenvalues --   -0.56774  -0.55510  -0.50259  -0.48086  -0.48002
 Alpha  occ. eigenvalues --   -0.47156  -0.40864  -0.39408
 Alpha virt. eigenvalues --    0.03602   0.03803   0.04004   0.04147   0.06134
 Alpha virt. eigenvalues --    0.06222   0.06365   0.06860   0.06895   0.09638
 Alpha virt. eigenvalues --    0.12254   0.13459   0.14630   0.14844   0.14921

 Mulliken charges:
               1
     1  H   -0.155780
     2  H   -0.144244
     3  C   -0.279214
     4  H    0.094221
     5  H    0.064910
     6  C   -0.293971
     7  H    0.133122
     8  H    0.124683
     9  C   -0.293971
    10  H    0.124683
    11  H    0.133122
    12  C    0.239133
    13  C    0.312855
    14  H   -0.186202
    15  C    0.312855
    16  H   -0.186202
 Sum of Mulliken charges =  -0.00000

 Dipole moment (field-independent basis, Debye):
    X=              0.1770    Y=              0.0678    Z=             -0.0000  Tot=              0.1895

 Test job not archived.
 1\1\GINC-SE194\SP\RHF\Aug-CC-pVDZ\C6H10\OHZDE\05-Apr-2025\0\\#t hf aug
 -cc-pvdz iop(5/13=1,5/36=2,99/5=2) pseudo=read geom=check guess=(read,
 tcheck) scf=(maxcycle=1)\\title\\0,1\H,0,-1.102142,-2.369592,0.\H,0,-1
 .82521,-0.706722,0.\C,0,-0.167576,1.451617,0.\H,0,-1.252508,1.558566,0
 .\H,0,0.244759,2.460062,0.\C,0,0.28546,0.631379,1.227651\H,0,-0.35602,
 0.801607,2.09481\H,0,1.301459,0.910417,1.518369\C,0,0.28546,0.631379,-
 1.227651\H,0,1.301459,0.910417,-1.518369\H,0,-0.35602,0.801607,-2.0948
 1\C,0,-0.92226,-1.303615,0.\C,0,0.28546,-0.812956,0.755445\H,0,0.86609

 Normal termination of Gaussian 16 at Sat Apr  5 22:56:40 2025.
