 Gaussian 16, Revision C.01,

 ----------------------------------------------------------------------
 #t hf aug-cc-pvdz symm=none int=(grid=ultrafine) guess=(read,tcheck) s
 table=(opt,rrhf)
 ----------------------------------------------------------------------
 -----
 title
 -----
 Symbolic Z-matrix:
 Charge =  0 Multiplicity = 1

 SCF Done:  E(RHF) =  -193.946843676     A.U. after   12 cycles
 Normal termination of Gaussian 16 at Sat Apr  5 22:56:14 2025.
 Gaussian 16:  ES64L-G16RevC.01  3-Jul-2019

 ----------------------------------------------------------------------
 #t hf aug-cc-pvdz iop(5/13=1,5/36=2,99/5=2) pseudo=read geom=check gue
 ss=(read,tcheck) scf=(maxcycle=1)
 ----------------------------------------------------------------------
 -----
 title
 -----
 Structure from the checkpoint file:  "bicyclo-2-1-0-pentane.chk"
 Charge =  0 Multiplicity = 1

                         Standard orientation:
 ---------------------------------------------------------------------
 Center     Atomic      Atomic             Coordinates (Angstroms)
 Number     Number       Type             X           Y           Z
 ---------------------------------------------------------------------
      1          6           0       -0.244446   -0.536702    0.764733
      2          6           0       -0.244446   -0.536702   -0.764733
      3          6           0       -0.244446    0.993902    0.781471
      4          6           0       -0.244446    0.993902   -0.781471
      5          6           0        0.939024   -1.048468    0.000000
      6          1           0       -0.797183   -1.171910    1.441963
      7          1           0       -0.797183   -1.171910   -1.441963
      8          1           0        0.607058    1.464190    1.277074
      9          1           0        0.607058    1.464190   -1.277074
     10          1           0       -1.160667    1.417563    1.188390
     11          1           0       -1.160667    1.417563   -1.188390
     12          1           0        1.871038   -0.492128    0.000000
     13          1           0        1.063120   -2.123147    0.000000
 ---------------------------------------------------------------------

 SCF Done:  E(RHF) =  -194.160534971     A.U. after    2 cycles

 The electronic state is 1-A'.
 Alpha  occ. eigenvalues --  -11.23253 -11.23201 -11.22889 -11.22858 -11.22838
 Alpha  occ. eigenvalues --   -1.18817  -0.98270  -0.88907  -0.80099  -0.73163
 Alpha  occ. eigenvalues --   -0.69764  -0.61907  -0.60646  -0.54091  -0.52838
 Alpha  occ. eigenvalues --   -0.47405  -0.46906  -0.41299  -0.38049
 Alpha virt. eigenvalues --    0.03717   0.04049   0.04057   0.04341   0.06321
 Alpha virt. eigenvalues --    0.06414   0.07147   0.07169   0.11676   0.12153
 Alpha virt. eigenvalues --    0.13103   0.13977   0.14660   0.15729   0.16130

 Mulliken charges:
               1
     1  C    0.300360
     2  C    0.300360
     3  C   -0.142247
     4  C   -0.142247
     5  C    0.248571
     6  H   -0.238651
     7  H   -0.238651
     8  H    0.030197
     9  H    0.030197
    10  H    0.061478
    11  H    0.061478
    12  H   -0.152332
    13  H   -0.118511
 Sum of Mulliken charges =  -0.00000

 Dipole moment (field-independent basis, Debye):
    X=             -0.2376    Y=             -0.0695    Z=              0.0000  Tot=              0.2476

 Test job not archived.
 1\1\GINC-SE055\SP\RHF\Aug-CC-pVDZ\C5H8\OHZDE\05-Apr-2025\0\\#t hf aug-
 cc-pvdz iop(5/13=1,5/36=2,99/5=2) pseudo=read geom=check guess=(read,t
 check) scf=(maxcycle=1)\\title\\0,1\C,0,-0.244446,-0.536702,0.764733\C
 ,0,-0.244446,-0.536702,-0.764733\C,0,-0.244446,0.993902,0.781471\C,0,-
 0.244446,0.993902,-0.781471\C,0,0.939024,-1.048468,0.\H,0,-0.797183,-1
 .17191,1.441963\H,0,-0.797183,-1.17191,-1.441963\H,0,0.607058,1.46419,
 1.277074\H,0,0.607058,1.46419,-1.277074\H,0,-1.160667,1.417563,1.18839
 \H,0,-1.160667,1.417563,-1.18839\H,0,1.871038,-0.492128,0.\H,0,1.06312

 Normal termination of Gaussian 16 at Sat Apr  5 22:56:17 2025.
