 Gaussian 16, Revision C.01,

 ----------------------------------------------------------------------
 #t hf aug-cc-pvdz symm=none int=(grid=ultrafine) guess=(read,tcheck) s
 table=(opt,rrhf)
 ----------------------------------------------------------------------
 -----
 title
 -----
 Symbolic Z-matrix:
 Charge =  0 Multiplicity = 1

 SCF Done:  E(RHF) =  -350.082724707     A.U. after   12 cycles
 Normal termination of Gaussian 16 at Sat Apr  5 22:58:31 2025.
 Gaussian 16:  ES64L-G16RevC.01  3-Jul-2019

 ----------------------------------------------------------------------
 #t hf aug-cc-pvdz iop(5/13=1,5/36=2,99/5=2) pseudo=read geom=check gue
 ss=(read,tcheck) scf=(maxcycle=1)
 ----------------------------------------------------------------------
 -----
 title
 -----
 Structure from the checkpoint file:  "bicyclo-3-3-1-nonane.chk"
 Charge =  0 Multiplicity = 1

                         Standard orientation:
 ---------------------------------------------------------------------
 Center     Atomic      Atomic             Coordinates (Angstroms)
 Number     Number       Type             X           Y           Z
 ---------------------------------------------------------------------
      1          6           0       -1.220553    0.008291   -0.000000
      2          6           0        0.018065    0.941134    0.000000
      3          6           0        0.207716    1.430365    1.426632
      4          6           0        0.207716    1.430365   -1.426632
      5          6           0       -0.475923   -1.306583   -0.000000
      6          6           0        0.207716    0.053150    2.219513
      7          6           0        0.207716    0.053150   -2.219513
      8          6           0        0.362254   -1.260477   -1.348939
      9          6           0        0.362254   -1.260477    1.348939
     10          1           0       -1.853935    0.149273    0.874293
     11          1           0       -1.853935    0.149273   -0.874293
     12          1           0        0.882835    0.286335    0.000000
     13          1           0        1.158855    1.951425    1.555610
     14          1           0       -0.583800    2.082415    1.802671
     15          1           0       -0.583800    2.082415   -1.802671
     16          1           0        1.158855    1.951425   -1.555610
     17          1           0       -1.113964   -2.193709   -0.000000
     18          1           0        1.006641    0.053850    2.962556
     19          1           0       -0.719568   -0.025384    2.786768
     20          1           0       -0.719568   -0.025384   -2.786768
     21          1           0        1.006641    0.053850   -2.962556
     22          1           0        1.419007   -1.432023   -1.131265
     23          1           0        0.057484   -2.092626   -1.986451
     24          1           0        0.057484   -2.092626    1.986451
     25          1           0        1.419007   -1.432023    1.131265
 ---------------------------------------------------------------------

 SCF Done:  E(RHF) =  -350.466518606     A.U. after    2 cycles

 The electronic state is 1-A'.
 Alpha  occ. eigenvalues --  -11.23003 -11.22660 -11.22660 -11.22621 -11.22619
 Alpha  occ. eigenvalues --  -11.22596 -11.22581 -11.21236 -11.20741  -1.15150
 Alpha  occ. eigenvalues --   -1.04102  -1.01374  -0.96171  -0.91501  -0.85582
 Alpha  occ. eigenvalues --   -0.79202  -0.78878  -0.72513  -0.66121  -0.64272
 Alpha  occ. eigenvalues --   -0.62190  -0.61454  -0.56784  -0.54716  -0.53585
 Alpha  occ. eigenvalues --   -0.51767  -0.51197  -0.49549  -0.49135  -0.47841
 Alpha  occ. eigenvalues --   -0.46822  -0.45803  -0.42304  -0.41801  -0.39618
 Alpha virt. eigenvalues --    0.03014   0.03296   0.03461   0.04014   0.05394
 Alpha virt. eigenvalues --    0.05471   0.05562   0.05869   0.06078   0.08305
 Alpha virt. eigenvalues --    0.08746   0.09067   0.09202   0.09345   0.10608

 Mulliken charges:
               1
     1  C    0.126611
     2  C   -0.208087
     3  C   -0.371004
     4  C   -0.371004
     5  C    0.036670
     6  C   -0.169825
     7  C   -0.169825
     8  C   -0.256196
     9  C   -0.256196
    10  H   -0.015776
    11  H   -0.015776
    12  H    0.410004
    13  H    0.119678
    14  H    0.107372
    15  H    0.107372
    16  H    0.119678
    17  H   -0.023805
    18  H    0.066437
    19  H    0.170923
    20  H    0.170923
    21  H    0.066437
    22  H    0.143108
    23  H    0.034585
    24  H    0.034585
    25  H    0.143108
 Sum of Mulliken charges =  -0.00000

 Dipole moment (field-independent basis, Debye):
    X=              0.1020    Y=             -0.1826    Z=             -0.0000  Tot=              0.2092

 Test job not archived.
 1\1\GINC-SE084\SP\RHF\Aug-CC-pVDZ\C9H16\OHZDE\05-Apr-2025\0\\#t hf aug
 -cc-pvdz iop(5/13=1,5/36=2,99/5=2) pseudo=read geom=check guess=(read,
 tcheck) scf=(maxcycle=1)\\title\\0,1\C,0,-1.220553,0.008291,0.\C,0,0.0
 18065,0.941134,0.\C,0,0.207716,1.430365,1.426632\C,0,0.207716,1.430365
 ,-1.426632\C,0,-0.475923,-1.306583,0.\C,0,0.207716,0.05315,2.219513\C,
 0,0.207716,0.05315,-2.219513\C,0,0.362254,-1.260477,-1.348939\C,0,0.36
 2254,-1.260477,1.348939\H,0,-1.853935,0.149273,0.874293\H,0,-1.853935,
 0.149273,-0.874293\H,0,0.882835,0.286335,0.\H,0,1.158855,1.951425,1.55

 Normal termination of Gaussian 16 at Sat Apr  5 22:58:46 2025.
