 Gaussian 16, Revision C.01,

 ----------------------------------------------------------------------
 #t hf aug-cc-pvdz symm=none int=(grid=ultrafine) guess=(read,tcheck) s
 table=(opt,rrhf)
 ----------------------------------------------------------------------
 -----
 title
 -----
 Symbolic Z-matrix:
 Charge =  0 Multiplicity = 1

 SCF Done:  E(RHF) =  -232.988588171     A.U. after   12 cycles
 Normal termination of Gaussian 16 at Sat Apr  5 22:56:27 2025.
 Gaussian 16:  ES64L-G16RevC.01  3-Jul-2019

 ----------------------------------------------------------------------
 #t hf aug-cc-pvdz iop(5/13=1,5/36=2,99/5=2) pseudo=read geom=check gue
 ss=(read,tcheck) scf=(maxcycle=1)
 ----------------------------------------------------------------------
 -----
 title
 -----
 Structure from the checkpoint file:  "bicyclo-2-2-0-hexane.chk"
 Charge =  0 Multiplicity = 1

                         Standard orientation:
 ---------------------------------------------------------------------
 Center     Atomic      Atomic             Coordinates (Angstroms)
 Number     Number       Type             X           Y           Z
 ---------------------------------------------------------------------
      1          6           0        1.306673    0.778578   -0.253085
      2          6           0        1.306673   -0.778578   -0.253085
      3          6           0        0.000000   -0.786260    0.577788
      4          6           0        0.000000    0.786260    0.577788
      5          6           0       -1.306673    0.778578   -0.253085
      6          6           0       -1.306673   -0.778578   -0.253085
      7          1           0        1.235314    1.258625   -1.230081
      8          1           0        2.159674    1.206785    0.272012
      9          1           0        2.159674   -1.206785    0.272012
     10          1           0        1.235314   -1.258625   -1.230081
     11          1           0        0.000000   -1.384950    1.486430
     12          1           0        0.000000    1.384950    1.486430
     13          1           0       -2.159674    1.206785    0.272012
     14          1           0       -1.235314    1.258625   -1.230081
     15          1           0       -1.235314   -1.258625   -1.230081
     16          1           0       -2.159674   -1.206785    0.272012
 ---------------------------------------------------------------------

 SCF Done:  E(RHF) =  -233.245631627     A.U. after    2 cycles

 The electronic state is 1-A1.
 Alpha  occ. eigenvalues --  -11.22316 -11.22280 -11.22136 -11.22109 -11.22101
 Alpha  occ. eigenvalues --  -11.22100  -1.15832  -1.00854  -0.92065  -0.84623
 Alpha  occ. eigenvalues --   -0.81703  -0.69834  -0.68450  -0.62678  -0.61549
 Alpha  occ. eigenvalues --   -0.57354  -0.54146  -0.49684  -0.48550  -0.46394
 Alpha  occ. eigenvalues --   -0.43917  -0.41284  -0.39948
 Alpha virt. eigenvalues --    0.03634   0.03801   0.03994   0.04314   0.05723
 Alpha virt. eigenvalues --    0.06186   0.06242   0.06772   0.09159   0.09582
 Alpha virt. eigenvalues --    0.11799   0.12504   0.12673   0.14510   0.15260

 Mulliken charges:
               1
     1  C   -0.034234
     2  C   -0.034234
     3  C    0.162816
     4  C    0.162816
     5  C   -0.034234
     6  C   -0.034234
     7  H    0.009115
     8  H    0.020258
     9  H    0.020258
    10  H    0.009115
    11  H   -0.153095
    12  H   -0.153095
    13  H    0.020258
    14  H    0.009115
    15  H    0.009115
    16  H    0.020258
 Sum of Mulliken charges =   0.00000

 Dipole moment (field-independent basis, Debye):
    X=             -0.0000    Y=             -0.0000    Z=              0.1570  Tot=              0.1570

 Test job not archived.
 1\1\GINC-SE173\SP\RHF\Aug-CC-pVDZ\C6H10\OHZDE\05-Apr-2025\0\\#t hf aug
 -cc-pvdz iop(5/13=1,5/36=2,99/5=2) pseudo=read geom=check guess=(read,
 tcheck) scf=(maxcycle=1)\\title\\0,1\C,0,1.306673,0.778578,-0.253085\C
 ,0,1.306673,-0.778578,-0.253085\C,0,0.,-0.78626,0.577788\C,0,0.,0.7862
 6,0.577788\C,0,-1.306673,0.778578,-0.253085\C,0,-1.306673,-0.778578,-0
 .253085\H,0,1.235314,1.258625,-1.230081\H,0,2.159674,1.206785,0.272012
 \H,0,2.159674,-1.206785,0.272012\H,0,1.235314,-1.258625,-1.230081\H,0,
 0.,-1.38495,1.48643\H,0,0.,1.38495,1.48643\H,0,-2.159674,1.206785,0.27

 Normal termination of Gaussian 16 at Sat Apr  5 22:56:40 2025.
