 Gaussian 16, Revision C.01,

 ----------------------------------------------------------------------
 #t hf aug-cc-pvdz symm=none int=(grid=ultrafine) guess=(read,tcheck) s
 table=(opt,rrhf)
 ----------------------------------------------------------------------
 -----
 title
 -----
 Symbolic Z-matrix:
 Charge =  0 Multiplicity = 1

 SCF Done:  E(RHF) =  -311.134578343     A.U. after   11 cycles
 Normal termination of Gaussian 16 at Sat Apr  5 22:58:06 2025.
 Gaussian 16:  ES64L-G16RevC.01  3-Jul-2019

 ----------------------------------------------------------------------
 #t hf aug-cc-pvdz iop(5/13=1,5/36=2,99/5=2) pseudo=read geom=check gue
 ss=(read,tcheck) scf=(maxcycle=1)
 ----------------------------------------------------------------------
 -----
 title
 -----
 Structure from the checkpoint file:  "bicyclo-2-2-2-octane.chk"
 Charge =  0 Multiplicity = 1

                         Standard orientation:
 ---------------------------------------------------------------------
 Center     Atomic      Atomic             Coordinates (Angstroms)
 Number     Number       Type             X           Y           Z
 ---------------------------------------------------------------------
      1          6           0       -1.295208    0.000000   -0.000000
      2          6           0       -0.777177    0.017844    1.447195
      3          6           0       -0.777177    1.244385   -0.739051
      4          6           0        0.777177   -0.017844    1.447195
      5          6           0        1.295208   -0.000000   -0.000000
      6          6           0        0.777177    1.262230   -0.708144
      7          6           0       -0.777177   -1.262230   -0.708144
      8          6           0        0.777177   -1.244385   -0.739051
      9          1           0       -1.182692   -1.308838   -1.720784
     10          1           0        2.387174   -0.000000   -0.000000
     11          1           0        1.142178    2.149499   -0.186632
     12          1           0       -1.142178   -2.149499   -0.186632
     13          1           0        1.182692    1.308838   -1.720784
     14          1           0       -2.387174    0.000000   -0.000000
     15          1           0       -1.182692    2.144662   -0.273094
     16          1           0        1.142178   -1.236378   -1.768205
     17          1           0       -1.182692   -0.835824    1.993879
     18          1           0        1.182692    0.835824    1.993879
     19          1           0        1.182692   -2.144662   -0.273094
     20          1           0       -1.142178    0.913121    1.954837
     21          1           0       -1.142178    1.236378   -1.768205
     22          1           0        1.142178   -0.913121    1.954837
 ---------------------------------------------------------------------

 SCF Done:  E(RHF) =  -311.477864181     A.U. after    2 cycles

 The electronic state is 1-A.
 Alpha  occ. eigenvalues --  -11.22126 -11.22080 -11.21738 -11.21738 -11.21723
 Alpha  occ. eigenvalues --  -11.21723 -11.21707 -11.21687  -1.14437  -1.01502
 Alpha  occ. eigenvalues --   -0.99433  -0.99433  -0.83118  -0.83118  -0.80276
 Alpha  occ. eigenvalues --   -0.68385  -0.67631  -0.64617  -0.64617  -0.56396
 Alpha  occ. eigenvalues --   -0.53487  -0.53487  -0.52986  -0.52328  -0.52328
 Alpha  occ. eigenvalues --   -0.50013  -0.50013  -0.46032  -0.41843  -0.41430
 Alpha  occ. eigenvalues --   -0.41430
 Alpha virt. eigenvalues --    0.03276   0.03747   0.03747   0.03866   0.05630
 Alpha virt. eigenvalues --    0.05630   0.05861   0.06052   0.06052   0.09018
 Alpha virt. eigenvalues --    0.09186   0.09216   0.09216   0.11198   0.12335

 Mulliken charges:
               1
     1  C   -0.616701
     2  C   -0.034865
     3  C   -0.034870
     4  C   -0.034865
     5  C   -0.616701
     6  C   -0.034864
     7  C   -0.034864
     8  C   -0.034870
     9  H    0.095182
    10  H    0.129323
    11  H    0.102143
    12  H    0.102143
    13  H    0.095182
    14  H    0.129323
    15  H    0.095185
    16  H    0.102143
    17  H    0.095182
    18  H    0.095182
    19  H    0.095185
    20  H    0.102143
    21  H    0.102143
    22  H    0.102143
 Sum of Mulliken charges =   0.00000

 Dipole moment (field-independent basis, Debye):
    X=              0.0000    Y=             -0.0000    Z=              0.0000  Tot=              0.0000

 Test job not archived.
 1\1\GINC-SE176\SP\RHF\Aug-CC-pVDZ\C8H14\OHZDE\05-Apr-2025\0\\#t hf aug
 -cc-pvdz iop(5/13=1,5/36=2,99/5=2) pseudo=read geom=check guess=(read,
 tcheck) scf=(maxcycle=1)\\title\\0,1\C,0,0.,0.,1.295208\C,0,-0.017844,
 1.447195,0.777177\C,0,-1.244385,-0.739051,0.777177\C,0,0.017844,1.4471
 95,-0.777177\C,0,0.,0.,-1.295208\C,0,-1.26223,-0.708144,-0.777177\C,0,
 1.26223,-0.708144,0.777177\C,0,1.244385,-0.739051,-0.777177\H,0,1.3088
 38,-1.720784,1.182692\H,0,0.,0.,-2.387174\H,0,-2.149499,-0.186632,-1.1
 42178\H,0,2.149499,-0.186632,1.142178\H,0,-1.308838,-1.720784,-1.18269

 Normal termination of Gaussian 16 at Sat Apr  5 22:58:15 2025.
