 Gaussian 16, Revision C.01,

 ----------------------------------------------------------------------
 #t hf aug-cc-pvdz symm=none int=(grid=ultrafine) guess=(read,tcheck) s
 table=(opt,rrhf)
 ----------------------------------------------------------------------
 -----
 title
 -----
 Symbolic Z-matrix:
 Charge =  0 Multiplicity = 1

 SCF Done:  E(RHF) =  -192.732913035     A.U. after   12 cycles
 Normal termination of Gaussian 16 at Sat Apr  5 22:56:07 2025.
 Gaussian 16:  ES64L-G16RevC.01  3-Jul-2019

 ----------------------------------------------------------------------
 #t hf aug-cc-pvdz iop(5/13=1,5/36=2,99/5=2) pseudo=read geom=check gue
 ss=(read,tcheck) scf=(maxcycle=1)
 ----------------------------------------------------------------------
 -----
 title
 -----
 Structure from the checkpoint file:  "bicyclo-2-1-0-pent-2-ene.chk"
 Charge =  0 Multiplicity = 1

                         Standard orientation:
 ---------------------------------------------------------------------
 Center     Atomic      Atomic             Coordinates (Angstroms)
 Number     Number       Type             X           Y           Z
 ---------------------------------------------------------------------
      1          6           0       -0.266056    1.055248    0.669094
      2          6           0       -0.266056    1.055248   -0.669094
      3          6           0       -0.266056   -0.460196    0.760307
      4          6           0       -0.266056   -0.460196   -0.760307
      5          6           0        0.922329   -1.012414    0.000000
      6          1           0       -0.135836    1.824369    1.417771
      7          1           0       -0.135836    1.824369   -1.417771
      8          1           0       -0.878809   -1.079524    1.397279
      9          1           0       -0.878809   -1.079524   -1.397279
     10          1           0        1.855860   -0.463241   -0.000000
     11          1           0        1.024808   -2.092588    0.000000
 ---------------------------------------------------------------------

 SCF Done:  E(RHF) =  -192.938945010     A.U. after    2 cycles

 The electronic state is 1-A'.
 Alpha  occ. eigenvalues --  -11.24577 -11.24093 -11.24042 -11.24002 -11.23963
 Alpha  occ. eigenvalues --   -1.20901  -0.99647  -0.85543  -0.81266  -0.70817
 Alpha  occ. eigenvalues --   -0.70777  -0.62632  -0.61073  -0.51982  -0.48839
 Alpha  occ. eigenvalues --   -0.44020  -0.43933  -0.32949
 Alpha virt. eigenvalues --    0.03820   0.03964   0.04046   0.04671   0.05948
 Alpha virt. eigenvalues --    0.06521   0.09609   0.11100   0.12018   0.12447
 Alpha virt. eigenvalues --    0.13445   0.13696   0.15401   0.15995   0.16067

 Mulliken charges:
               1
     1  C    0.169263
     2  C    0.169263
     3  C    0.184717
     4  C    0.184717
     5  C    0.040772
     6  H   -0.095708
     7  H   -0.095708
     8  H   -0.180747
     9  H   -0.180747
    10  H   -0.102861
    11  H   -0.092961
 Sum of Mulliken charges =  -0.00000

 Dipole moment (field-independent basis, Debye):
    X=              0.1914    Y=             -0.3714    Z=             -0.0000  Tot=              0.4178

 Test job not archived.
 1\1\GINC-SE050\SP\RHF\Aug-CC-pVDZ\C5H6\OHZDE\05-Apr-2025\0\\#t hf aug-
 cc-pvdz iop(5/13=1,5/36=2,99/5=2) pseudo=read geom=check guess=(read,t
 check) scf=(maxcycle=1)\\title\\0,1\C,0,-0.266056,1.055248,0.669094\C,
 0,-0.266056,1.055248,-0.669094\C,0,-0.266056,-0.460196,0.760307\C,0,-0
 .266056,-0.460196,-0.760307\C,0,0.922329,-1.012414,0.\H,0,-0.135836,1.
 824369,1.417771\H,0,-0.135836,1.824369,-1.417771\H,0,-0.878809,-1.0795
 24,1.397279\H,0,-0.878809,-1.079524,-1.397279\H,0,1.85586,-0.463241,0.
 \H,0,1.024808,-2.092588,0.\\Version=ES64L-G16RevC.01\State=1-A'\HF=-19

 Normal termination of Gaussian 16 at Sat Apr  5 22:56:10 2025.
