 Gaussian 16, Revision C.01,

 ----------------------------------------------------------------------
 #t hf aug-cc-pvdz symm=none int=(grid=ultrafine) guess=(read,tcheck) s
 table=(opt,rrhf)
 ----------------------------------------------------------------------
 -----
 title
 -----
 Symbolic Z-matrix:
 Charge =  0 Multiplicity = 1

 SCF Done:  E(RHF) =  -231.743181908     A.U. after   11 cycles
 Normal termination of Gaussian 16 at Sat Apr  5 22:56:19 2025.
 Gaussian 16:  ES64L-G16RevC.01  3-Jul-2019

 ----------------------------------------------------------------------
 #t hf aug-cc-pvdz iop(5/13=1,5/36=2,99/5=2) pseudo=read geom=check gue
 ss=(read,tcheck) scf=(maxcycle=1)
 ----------------------------------------------------------------------
 -----
 title
 -----
 Structure from the checkpoint file:  "bicyclo-2-2-0-hex-1-4-ene.chk"
 Charge =  0 Multiplicity = 1

                         Standard orientation:
 ---------------------------------------------------------------------
 Center     Atomic      Atomic             Coordinates (Angstroms)
 Number     Number       Type             X           Y           Z
 ---------------------------------------------------------------------
      1          6           0       -1.522244    0.801625    0.000000
      2          1           0       -1.971604    1.251554    0.886835
      3          1           0       -1.971604    1.251554   -0.886835
      4          6           0       -1.522244   -0.801625   -0.000000
      5          1           0       -1.971604   -1.251554   -0.886835
      6          1           0       -1.971604   -1.251554    0.886835
      7          6           0        1.522244   -0.801625    0.000000
      8          1           0        1.971604   -1.251554    0.886835
      9          1           0        1.971604   -1.251554   -0.886835
     10          6           0        0.000000   -0.656608    0.000000
     11          6           0        0.000000    0.656608    0.000000
     12          6           0        1.522244    0.801625    0.000000
     13          1           0        1.971604    1.251554   -0.886835
     14          1           0        1.971604    1.251554    0.886835
 ---------------------------------------------------------------------

 SCF Done:  E(RHF) =  -231.993202655     A.U. after    2 cycles

 The electronic state is 1-AG.
 Alpha  occ. eigenvalues --  -11.24636 -11.24632 -11.24614 -11.24612 -11.20863
 Alpha  occ. eigenvalues --  -11.20697  -1.17798  -1.04159  -0.88406  -0.85557
 Alpha  occ. eigenvalues --   -0.83693  -0.66667  -0.64547  -0.61224  -0.60706
 Alpha  occ. eigenvalues --   -0.54743  -0.52306  -0.51145  -0.45610  -0.45454
 Alpha  occ. eigenvalues --   -0.42279  -0.33936
 Alpha virt. eigenvalues --    0.03941   0.04021   0.04042   0.04138   0.05396
 Alpha virt. eigenvalues --    0.06116   0.06287   0.08743   0.09166   0.11508
 Alpha virt. eigenvalues --    0.11802   0.12556   0.13883   0.14914   0.15561

 Mulliken charges:
               1
     1  C   -0.215157
     2  H    0.093635
     3  H    0.093635
     4  C   -0.215157
     5  H    0.093635
     6  H    0.093635
     7  C   -0.215157
     8  H    0.093635
     9  H    0.093635
    10  C    0.055775
    11  C    0.055775
    12  C   -0.215157
    13  H    0.093635
    14  H    0.093635
 Sum of Mulliken charges =  -0.00000

 Dipole moment (field-independent basis, Debye):
    X=             -0.0000    Y=             -0.0000    Z=              0.0000  Tot=              0.0000

 Test job not archived.
 1\1\GINC-SE165\SP\RHF\Aug-CC-pVDZ\C6H8\OHZDE\05-Apr-2025\0\\#t hf aug-
 cc-pvdz iop(5/13=1,5/36=2,99/5=2) pseudo=read geom=check guess=(read,t
 check) scf=(maxcycle=1)\\title\\0,1\C,0,-1.522244,0.801625,0.\H,0,-1.9
 71604,1.251554,0.886835\H,0,-1.971604,1.251554,-0.886835\C,0,-1.522244
 ,-0.801625,0.\H,0,-1.971604,-1.251554,-0.886835\H,0,-1.971604,-1.25155
 4,0.886835\C,0,1.522244,-0.801625,0.\H,0,1.971604,-1.251554,0.886835\H
 ,0,1.971604,-1.251554,-0.886835\C,0,0.,-0.656608,0.\C,0,0.,0.656608,0.
 \C,0,1.522244,0.801625,0.\H,0,1.971604,1.251554,-0.886835\H,0,1.971604

 Normal termination of Gaussian 16 at Sat Apr  5 22:56:22 2025.
