 Gaussian 16, Revision C.01,

 ----------------------------------------------------------------------
 #t hf aug-cc-pvdz symm=none int=(grid=ultrafine) guess=(read,tcheck) s
 table=(opt,rrhf)
 ----------------------------------------------------------------------
 -----
 title
 -----
 Symbolic Z-matrix:
 Charge =  0 Multiplicity = 1

 SCF Done:  E(RHF) =  -231.800440442     A.U. after   12 cycles
 Normal termination of Gaussian 16 at Sat Apr  5 22:56:20 2025.
 Gaussian 16:  ES64L-G16RevC.01  3-Jul-2019

 ----------------------------------------------------------------------
 #t hf aug-cc-pvdz iop(5/13=1,5/36=2,99/5=2) pseudo=read geom=check gue
 ss=(read,tcheck) scf=(maxcycle=1)
 ----------------------------------------------------------------------
 -----
 title
 -----
 Structure from the checkpoint file:  "bicyclo-2-1-1-hex-2-ene.chk"
 Charge =  0 Multiplicity = 1

                         Standard orientation:
 ---------------------------------------------------------------------
 Center     Atomic      Atomic             Coordinates (Angstroms)
 Number     Number       Type             X           Y           Z
 ---------------------------------------------------------------------
      1          6           0        0.000000    0.666639    1.212835
      2          6           0       -0.000000   -0.666639    1.212835
      3          6           0        0.000000   -1.020958   -0.278406
      4          6           0        0.000000    1.020958   -0.278406
      5          6           0        1.063233   -0.000000   -0.808697
      6          6           0       -1.063233    0.000000   -0.808697
      7          1           0        0.000000    1.359953    2.038801
      8          1           0       -0.000000   -1.359953    2.038801
      9          1           0        0.000000   -2.068141   -0.567858
     10          1           0        0.000000    2.068141   -0.567858
     11          1           0        2.041135   -0.000000   -0.329854
     12          1           0       -2.041135    0.000000   -0.329854
     13          1           0       -1.157060    0.000000   -1.895481
     14          1           0        1.157060   -0.000000   -1.895481
 ---------------------------------------------------------------------

 SCF Done:  E(RHF) =  -232.050107282     A.U. after    2 cycles

 The electronic state is 1-A1.
 Alpha  occ. eigenvalues --  -11.24149 -11.24126 -11.23189 -11.23169 -11.22805
 Alpha  occ. eigenvalues --  -11.22684  -1.19692  -0.98803  -0.91305  -0.89599
 Alpha  occ. eigenvalues --   -0.75430  -0.72034  -0.70521  -0.64393  -0.57125
 Alpha  occ. eigenvalues --   -0.56957  -0.49757  -0.48637  -0.47959  -0.46832
 Alpha  occ. eigenvalues --   -0.44204  -0.33526
 Alpha virt. eigenvalues --    0.03560   0.03783   0.03811   0.04281   0.05791
 Alpha virt. eigenvalues --    0.06078   0.06433   0.07186   0.11054   0.12798
 Alpha virt. eigenvalues --    0.13138   0.13443   0.13534   0.13585   0.14383

 Mulliken charges:
               1
     1  C    0.408945
     2  C    0.408945
     3  C    0.001433
     4  C    0.001433
     5  C    0.066014
     6  C    0.066014
     7  H   -0.171891
     8  H   -0.171891
     9  H   -0.192521
    10  H   -0.192521
    11  H   -0.032411
    12  H   -0.032411
    13  H   -0.079570
    14  H   -0.079570
 Sum of Mulliken charges =  -0.00000

 Dipole moment (field-independent basis, Debye):
    X=              0.0000    Y=             -0.0000    Z=             -0.3133  Tot=              0.3133

 Test job not archived.
 1\1\GINC-SE129\SP\RHF\Aug-CC-pVDZ\C6H8\OHZDE\05-Apr-2025\0\\#t hf aug-
 cc-pvdz iop(5/13=1,5/36=2,99/5=2) pseudo=read geom=check guess=(read,t
 check) scf=(maxcycle=1)\\title\\0,1\C,0,0.,0.666639,1.212835\C,0,0.,-0
 .666639,1.212835\C,0,0.,-1.020958,-0.278406\C,0,0.,1.020958,-0.278406\
 C,0,1.063233,0.,-0.808697\C,0,-1.063233,0.,-0.808697\H,0,0.,1.359953,2
 .038801\H,0,0.,-1.359953,2.038801\H,0,0.,-2.068141,-0.567858\H,0,0.,2.
 068141,-0.567858\H,0,2.041135,0.,-0.329854\H,0,-2.041135,0.,-0.329854\
 H,0,-1.15706,0.,-1.895481\H,0,1.15706,0.,-1.895481\\Version=ES64L-G16R

 Normal termination of Gaussian 16 at Sat Apr  5 22:56:23 2025.
