 Gaussian 16, Revision C.01,

 ----------------------------------------------------------------------
 #t hf aug-cc-pvdz symm=none int=(grid=ultrafine) guess=(read,tcheck) s
 table=(opt,rrhf)
 ----------------------------------------------------------------------
 -----
 title
 -----
 Symbolic Z-matrix:
 Charge =  0 Multiplicity = 1

 SCF Done:  E(RHF) =  -246.634960601     A.U. after   14 cycles
 Normal termination of Gaussian 16 at Sat Apr  5 22:55:56 2025.
 Gaussian 16:  ES64L-G16RevC.01  3-Jul-2019

 ----------------------------------------------------------------------
 #t hf aug-cc-pvdz iop(5/13=1,5/36=2,99/5=2) pseudo=read geom=check gue
 ss=(read,tcheck) scf=(maxcycle=1)
 ----------------------------------------------------------------------
 -----
 title
 -----
 Structure from the checkpoint file:  "bicyclo-1-1-0-butane-1-carbonitrile.chk"
 Charge =  0 Multiplicity = 1

                         Standard orientation:
 ---------------------------------------------------------------------
 Center     Atomic      Atomic             Coordinates (Angstroms)
 Number     Number       Type             X           Y           Z
 ---------------------------------------------------------------------
      1          1           0       -0.140619    0.678735    2.076979
      2          1           0        1.129568    1.686573    1.231058
      3          6           0        0.276344    1.019981    1.138037
      4          1           0       -0.140619    0.678735   -2.076979
      5          1           0        1.129568    1.686573   -1.231058
      6          6           0        0.276344    1.019981   -1.138037
      7          6           0        0.276344    0.034656    0.000000
      8          1           0       -1.743752    1.161245   -0.000000
      9          6           0       -0.668943    1.198926   -0.000000
     10          7           0       -0.181839   -2.488939   -0.000000
     11          6           0        0.013033   -1.351758    0.000000
 ---------------------------------------------------------------------

 SCF Done:  E(RHF) =  -246.887118688     A.U. after    2 cycles

 The electronic state is 1-A'.
 Alpha  occ. eigenvalues --  -15.51002 -11.29821 -11.28856 -11.28693 -11.28658
 Alpha  occ. eigenvalues --  -11.28454  -1.27024  -1.22527  -0.97452  -0.92138
 Alpha  occ. eigenvalues --   -0.82989  -0.76085  -0.64737  -0.64317  -0.60612
 Alpha  occ. eigenvalues --   -0.56405  -0.54249  -0.53696  -0.51733  -0.46194
 Alpha  occ. eigenvalues --   -0.39126
 Alpha virt. eigenvalues --    0.03111   0.03528   0.03703   0.04951   0.06664
 Alpha virt. eigenvalues --    0.06887   0.09743   0.09926   0.11688   0.12595
 Alpha virt. eigenvalues --    0.12957   0.13844   0.14441   0.14514   0.14807

 Mulliken charges:
               1
     1  H   -0.072966
     2  H   -0.107687
     3  C    0.177891
     4  H   -0.072966
     5  H   -0.107687
     6  C    0.177891
     7  C    1.472769
     8  H   -0.195403
     9  C    0.482251
    10  N    1.045773
    11  C   -2.799865
 Sum of Mulliken charges =   0.00000

 Dipole moment (field-independent basis, Debye):
    X=              0.0151    Y=              5.0681    Z=              0.0000  Tot=              5.0682

 Test job not archived.
 1\1\GINC-SE190\SP\RHF\Aug-CC-pVDZ\C5H5N1\OHZDE\05-Apr-2025\0\\#t hf au
 g-cc-pvdz iop(5/13=1,5/36=2,99/5=2) pseudo=read geom=check guess=(read
 ,tcheck) scf=(maxcycle=1)\\title\\0,1\H,0,-0.140619,0.678735,2.076979\
 H,0,1.129568,1.686573,1.231058\C,0,0.276344,1.019981,1.138037\H,0,-0.1
 40619,0.678735,-2.076979\H,0,1.129568,1.686573,-1.231058\C,0,0.276344,
 1.019981,-1.138037\C,0,0.276344,0.034656,0.\H,0,-1.743752,1.161245,0.\
 C,0,-0.668943,1.198926,0.\N,0,-0.181839,-2.488939,0.\C,0,0.013033,-1.3
 51758,0.\\Version=ES64L-G16RevC.01\State=1-A'\HF=-246.8871187\RMSD=3.0

 Normal termination of Gaussian 16 at Sat Apr  5 22:56:00 2025.
