 Gaussian 16, Revision C.01,

 ----------------------------------------------------------------------
 #t hf aug-cc-pvdz symm=none int=(grid=ultrafine) guess=(read,tcheck) s
 table=(opt,rrhf)
 ----------------------------------------------------------------------
 -----
 title
 -----
 Symbolic Z-matrix:
 Charge =  0 Multiplicity = 1

 SCF Done:  E(RHF) =  -460.301087009     A.U. after   14 cycles
 Normal termination of Gaussian 16 at Sat Apr  5 22:59:33 2025.
 Gaussian 16:  ES64L-G16RevC.01  3-Jul-2019

 ----------------------------------------------------------------------
 #t hf aug-cc-pvdz iop(5/13=1,5/36=2,99/5=2) pseudo=read geom=check gue
 ss=(read,tcheck) scf=(maxcycle=1)
 ----------------------------------------------------------------------
 -----
 title
 -----
 Structure from the checkpoint file:  "biphenyl.chk"
 Charge =  0 Multiplicity = 1

                         Standard orientation:
 ---------------------------------------------------------------------
 Center     Atomic      Atomic             Coordinates (Angstroms)
 Number     Number       Type             X           Y           Z
 ---------------------------------------------------------------------
      1          6           0        0.000000    0.000000   -0.741117
      2          6           0       -0.402579    1.130241   -1.461501
      3          6           0        0.402579   -1.130241   -1.461501
      4          6           0        0.403188   -1.130626   -2.850176
      5          6           0        0.000000    0.000000   -3.551569
      6          6           0       -0.403188    1.130626   -2.850176
      7          6           0       -0.000000    0.000000    0.741117
      8          6           0        0.402579    1.130241    1.461501
      9          6           0        0.403188    1.130626    2.850176
     10          6           0       -0.000000    0.000000    3.551569
     11          6           0       -0.403188   -1.130626    2.850176
     12          6           0       -0.402579   -1.130241    1.461501
     13          1           0       -0.727357   -2.013375    3.385168
     14          1           0       -0.727357    2.013375   -3.385168
     15          1           0        0.000000   -0.000000    4.633120
     16          1           0        0.000000   -0.000000   -4.633120
     17          1           0        0.727357   -2.013375   -3.385168
     18          1           0        0.727357    2.013375    3.385168
     19          1           0        0.740949    2.008623    0.928761
     20          1           0        0.740949   -2.008623   -0.928761
     21          1           0       -0.740949   -2.008623    0.928761
     22          1           0       -0.740949    2.008623   -0.928761
 ---------------------------------------------------------------------

 SCF Done:  E(RHF) =  -460.775938615     A.U. after    2 cycles

 The electronic state is 1-A.
 Alpha  occ. eigenvalues --  -11.25176 -11.25119 -11.24344 -11.24343 -11.24320
 Alpha  occ. eigenvalues --  -11.24320 -11.24156 -11.24144 -11.24143 -11.24141
 Alpha  occ. eigenvalues --  -11.24138 -11.24137  -1.17472  -1.14613  -1.05663
 Alpha  occ. eigenvalues --   -1.02386  -1.01413  -0.98740  -0.86235  -0.85237
 Alpha  occ. eigenvalues --   -0.82054  -0.80332  -0.73586  -0.69622  -0.66258
 Alpha  occ. eigenvalues --   -0.66023  -0.62686  -0.62634  -0.60524  -0.60134
 Alpha  occ. eigenvalues --   -0.59555  -0.53393  -0.52795  -0.51565  -0.50175
 Alpha  occ. eigenvalues --   -0.49924  -0.49491  -0.37933  -0.34824  -0.34806
 Alpha  occ. eigenvalues --   -0.31202
 Alpha virt. eigenvalues --    0.03314   0.03327   0.03581   0.04203   0.04335
 Alpha virt. eigenvalues --    0.05254   0.05776   0.06374   0.07110   0.07554
 Alpha virt. eigenvalues --    0.08169   0.10185   0.10206   0.11164   0.11453

 Mulliken charges:
               1
     1  C    1.583963
     2  C   -0.165751
     3  C   -0.165751
     4  C    0.002887
     5  C    0.041801
     6  C    0.002887
     7  C    1.583963
     8  C   -0.165751
     9  C    0.002887
    10  C    0.041801
    11  C    0.002887
    12  C   -0.165751
    13  H   -0.237291
    14  H   -0.237291
    15  H   -0.226044
    16  H   -0.226044
    17  H   -0.237291
    18  H   -0.237291
    19  H   -0.299706
    20  H   -0.299706
    21  H   -0.299706
    22  H   -0.299706
 Sum of Mulliken charges =  -0.00000

 Dipole moment (field-independent basis, Debye):
    X=             -0.0000    Y=             -0.0000    Z=             -0.0000  Tot=              0.0000

 Test job not archived.
 1\1\GINC-SE225\SP\RHF\Aug-CC-pVDZ\C12H10\OHZDE\05-Apr-2025\0\\#t hf au
 g-cc-pvdz iop(5/13=1,5/36=2,99/5=2) pseudo=read geom=check guess=(read
 ,tcheck) scf=(maxcycle=1)\\title\\0,1\C,0,0.,0.,-0.741117\C,0,-0.40257
 9,1.130241,-1.461501\C,0,0.402579,-1.130241,-1.461501\C,0,0.403188,-1.
 130626,-2.850176\C,0,0.,0.,-3.551569\C,0,-0.403188,1.130626,-2.850176\
 C,0,0.,0.,0.741117\C,0,0.402579,1.130241,1.461501\C,0,0.403188,1.13062
 6,2.850176\C,0,0.,0.,3.551569\C,0,-0.403188,-1.130626,2.850176\C,0,-0.
 402579,-1.130241,1.461501\H,0,-0.727357,-2.013375,3.385168\H,0,-0.7273

 Normal termination of Gaussian 16 at Sat Apr  5 23:00:09 2025.
