 Gaussian 16, Revision C.01,

 ----------------------------------------------------------------------
 #t hf aug-cc-pvdz symm=none int=(grid=ultrafine) guess=(read,tcheck) s
 table=(opt,rrhf)
 ----------------------------------------------------------------------
 -----
 title
 -----
 Symbolic Z-matrix:
 Charge =  0 Multiplicity = 1

 SCF Done:  E(RHF) =  -459.059689421     A.U. after   14 cycles
 Normal termination of Gaussian 16 at Sat Apr  5 22:58:23 2025.
 Gaussian 16:  ES64L-G16RevC.01  3-Jul-2019

 ----------------------------------------------------------------------
 #t hf aug-cc-pvdz iop(5/13=1,5/36=2,99/5=2) pseudo=read geom=check gue
 ss=(read,tcheck) scf=(maxcycle=1)
 ----------------------------------------------------------------------
 -----
 title
 -----
 Structure from the checkpoint file:  "biphenylene.chk"
 Charge =  0 Multiplicity = 1

                         Standard orientation:
 ---------------------------------------------------------------------
 Center     Atomic      Atomic             Coordinates (Angstroms)
 Number     Number       Type             X           Y           Z
 ---------------------------------------------------------------------
      1          6           0        3.111158    0.691977    0.000194
      2          6           0        1.909382    1.439432    0.000379
      3          6           0        0.753239    0.709064   -0.000071
      4          6           0       -0.753239    0.709064    0.000071
      5          6           0       -0.753239   -0.709064   -0.000071
      6          6           0        0.753239   -0.709064    0.000071
      7          6           0        1.909382   -1.439432   -0.000379
      8          6           0        3.111158   -0.691977   -0.000194
      9          6           0       -1.909382   -1.439432    0.000379
     10          6           0       -3.111158   -0.691977    0.000194
     11          6           0       -3.111158    0.691977   -0.000194
     12          6           0       -1.909382    1.439432   -0.000379
     13          1           0        4.056913    1.217403    0.000417
     14          1           0        1.930044    2.520654    0.000453
     15          1           0        1.930044   -2.520654   -0.000453
     16          1           0        4.056913   -1.217403   -0.000417
     17          1           0       -1.930044   -2.520654    0.000453
     18          1           0       -4.056913   -1.217403    0.000417
     19          1           0       -4.056913    1.217403   -0.000417
     20          1           0       -1.930044    2.520654   -0.000453
 ---------------------------------------------------------------------

 SCF Done:  E(RHF) =  -459.527729309     A.U. after    2 cycles

 The electronic state is 1-A.
 Alpha  occ. eigenvalues --  -11.25474 -11.25462 -11.25413 -11.25386 -11.24903
 Alpha  occ. eigenvalues --  -11.24884 -11.24878 -11.24851 -11.24668 -11.24665
 Alpha  occ. eigenvalues --  -11.24598 -11.24591  -1.21442  -1.14130  -1.08235
 Alpha  occ. eigenvalues --   -1.03399  -1.01550  -0.96474  -0.89433  -0.85022
 Alpha  occ. eigenvalues --   -0.79390  -0.79002  -0.73173  -0.66990  -0.66521
 Alpha  occ. eigenvalues --   -0.66302  -0.63408  -0.61492  -0.60168  -0.57544
 Alpha  occ. eigenvalues --   -0.56329  -0.54946  -0.49790  -0.49381  -0.49247
 Alpha  occ. eigenvalues --   -0.49180  -0.39572  -0.37744  -0.34111  -0.28113
 Alpha virt. eigenvalues --    0.03158   0.03374   0.03513   0.04208   0.04245
 Alpha virt. eigenvalues --    0.06299   0.06306   0.06811   0.06823   0.08611
 Alpha virt. eigenvalues --    0.09744   0.11371   0.11454   0.11619   0.11929

 Mulliken charges:
               1
     1  C   -0.102141
     2  C    0.035383
     3  C    0.528152
     4  C    0.528152
     5  C    0.528152
     6  C    0.528152
     7  C    0.035383
     8  C   -0.102141
     9  C    0.035383
    10  C   -0.102141
    11  C   -0.102141
    12  C    0.035383
    13  H   -0.245743
    14  H   -0.215651
    15  H   -0.215651
    16  H   -0.245743
    17  H   -0.215651
    18  H   -0.245743
    19  H   -0.245743
    20  H   -0.215651
 Sum of Mulliken charges =  -0.00000

 Dipole moment (field-independent basis, Debye):
    X=             -0.0000    Y=             -0.0000    Z=              0.0000  Tot=              0.0000

 Test job not archived.
 1\1\GINC-SE231\SP\RHF\Aug-CC-pVDZ\C12H8\OHZDE\05-Apr-2025\0\\#t hf aug
 -cc-pvdz iop(5/13=1,5/36=2,99/5=2) pseudo=read geom=check guess=(read,
 tcheck) scf=(maxcycle=1)\\title\\0,1\C,0,3.111158,0.691977,0.000194\C,
 0,1.909382,1.439432,0.000379\C,0,0.753239,0.709064,-0.000071\C,0,-0.75
 3239,0.709064,0.000071\C,0,-0.753239,-0.709064,-0.000071\C,0,0.753239,
 -0.709064,0.000071\C,0,1.909382,-1.439432,-0.000379\C,0,3.111158,-0.69
 1977,-0.000194\C,0,-1.909382,-1.439432,0.000379\C,0,-3.111158,-0.69197
 7,0.000194\C,0,-3.111158,0.691977,-0.000194\C,0,-1.909382,1.439432,-0.

 Normal termination of Gaussian 16 at Sat Apr  5 22:58:34 2025.
