 Gaussian 16, Revision C.01,

 ----------------------------------------------------------------------
 #t hf aug-cc-pvdz symm=none int=(grid=ultrafine) guess=(read,tcheck) s
 table=(opt,rrhf)
 ----------------------------------------------------------------------
 -----
 title
 -----
 Symbolic Z-matrix:
 Charge =  0 Multiplicity = 1

 SCF Done:  E(RHF) =  -283.691330725     A.U. after   15 cycles
 Normal termination of Gaussian 16 at Sat Apr  5 22:56:09 2025.
 Gaussian 16:  ES64L-G16RevC.01  3-Jul-2019

 ----------------------------------------------------------------------
 #t hf aug-cc-pvdz iop(5/13=1,5/36=2,99/5=2) pseudo=read geom=check gue
 ss=(read,tcheck) scf=(maxcycle=1)
 ----------------------------------------------------------------------
 -----
 title
 -----
 Structure from the checkpoint file:  "but-2-ynamide.chk"
 Charge =  0 Multiplicity = 1

                         Standard orientation:
 ---------------------------------------------------------------------
 Center     Atomic      Atomic             Coordinates (Angstroms)
 Number     Number       Type             X           Y           Z
 ---------------------------------------------------------------------
      1          6           0       -0.275084   -0.023840    0.000001
      2          6           0       -1.476686    0.011199   -0.000006
      3          6           0        1.173929   -0.141273    0.000002
      4          6           0       -2.928915    0.034761    0.000001
      5          7           0        1.835717    1.050955    0.000032
      6          8           0        1.744529   -1.217101   -0.000005
      7          1           0       -3.308404    0.552873    0.882157
      8          1           0       -3.334521   -0.977755   -0.000225
      9          1           0       -3.308412    0.553273   -0.881917
     10          1           0        2.841046    1.040814   -0.000076
     11          1           0        1.344570    1.925831   -0.000104
 ---------------------------------------------------------------------

 SCF Done:  E(RHF) =  -283.979523206     A.U. after    2 cycles

 The electronic state is 1-A.
 Alpha  occ. eigenvalues --  -20.51614 -15.53432 -11.38506 -11.27472 -11.26998
 Alpha  occ. eigenvalues --  -11.24574  -1.46407  -1.23102  -1.08440  -0.99709
 Alpha  occ. eigenvalues --   -0.89558  -0.79370  -0.72894  -0.66391  -0.62593
 Alpha  occ. eigenvalues --   -0.61769  -0.61363  -0.59961  -0.45278  -0.44498
 Alpha  occ. eigenvalues --   -0.40754  -0.40666
 Alpha virt. eigenvalues --    0.02684   0.03487   0.04963   0.05173   0.06335
 Alpha virt. eigenvalues --    0.08341   0.10352   0.10987   0.11649   0.11730
 Alpha virt. eigenvalues --    0.13398   0.14145   0.14492   0.15076   0.16013

 Mulliken charges:
               1
     1  C    0.122805
     2  C   -0.102097
     3  C    0.461705
     4  C   -0.556855
     5  N    0.363983
     6  O   -1.289857
     7  H    0.267336
     8  H    0.275711
     9  H    0.267321
    10  H    0.151574
    11  H    0.038373
 Sum of Mulliken charges =  -0.00000

 Dipole moment (field-independent basis, Debye):
    X=             -2.4836    Y=              3.6478    Z=             -0.0004  Tot=              4.4130

 Test job not archived.
 1\1\GINC-SE045\SP\RHF\Aug-CC-pVDZ\C4H5N1O1\OHZDE\05-Apr-2025\0\\#t hf
 aug-cc-pvdz iop(5/13=1,5/36=2,99/5=2) pseudo=read geom=check guess=(re
 ad,tcheck) scf=(maxcycle=1)\\title\\0,1\C,0,-0.275084,-0.02384,0.00000
 1\C,0,-1.476686,0.011199,-0.000006\C,0,1.173929,-0.141273,0.000002\C,0
 ,-2.928915,0.034761,0.000001\N,0,1.835717,1.050955,0.000032\O,0,1.7445
 29,-1.217101,-0.000005\H,0,-3.308404,0.552873,0.882157\H,0,-3.334521,-
 0.977755,-0.000225\H,0,-3.308412,0.553273,-0.881917\H,0,2.841046,1.040
 814,-0.000076\H,0,1.34457,1.925831,-0.000104\\Version=ES64L-G16RevC.01

 Normal termination of Gaussian 16 at Sat Apr  5 22:56:13 2025.
