 Gaussian 16, Revision C.01,

 ----------------------------------------------------------------------
 #t hf aug-cc-pvdz symm=none int=(grid=ultrafine) guess=(read,tcheck) s
 table=(opt,rrhf)
 ----------------------------------------------------------------------
 -----
 title
 -----
 Symbolic Z-matrix:
 Charge =  0 Multiplicity = 1

 SCF Done:  E(RHF) =  -157.313613381     A.U. after   11 cycles
 Normal termination of Gaussian 16 at Sat Apr  5 22:56:33 2025.
 Gaussian 16:  ES64L-G16RevC.01  3-Jul-2019

 ----------------------------------------------------------------------
 #t hf aug-cc-pvdz iop(5/13=1,5/36=2,99/5=2) pseudo=read geom=check gue
 ss=(read,tcheck) scf=(maxcycle=1)
 ----------------------------------------------------------------------
 -----
 title
 -----
 Structure from the checkpoint file:  "butane.chk"
 Charge =  0 Multiplicity = 1

                         Standard orientation:
 ---------------------------------------------------------------------
 Center     Atomic      Atomic             Coordinates (Angstroms)
 Number     Number       Type             X           Y           Z
 ---------------------------------------------------------------------
      1          6           0       -0.252798    0.723681    0.616235
      2          6           0        0.252798    1.571360   -0.551646
      3          6           0        0.252798   -0.723681    0.616235
      4          6           0       -0.252798   -1.571360   -0.551646
      5          1           0       -0.104388    2.599202   -0.473491
      6          1           0        0.083428   -1.182319   -1.513402
      7          1           0       -1.344623   -1.601548   -0.570383
      8          1           0       -0.083428    1.182319   -1.513402
      9          1           0        0.104388   -2.599202   -0.473491
     10          1           0        1.344623    1.601548   -0.570383
     11          1           0       -1.347442    0.719895    0.615666
     12          1           0        0.047102    1.198634    1.554079
     13          1           0        1.347442   -0.719895    0.615666
     14          1           0       -0.047102   -1.198634    1.554079
 ---------------------------------------------------------------------

 SCF Done:  E(RHF) =  -157.496009523     A.U. after    2 cycles

 The electronic state is 1-A.
 Alpha  occ. eigenvalues --  -11.22292 -11.22270 -11.21826 -11.21823  -1.07182
 Alpha  occ. eigenvalues --   -0.97700  -0.87503  -0.77996  -0.62913  -0.62605
 Alpha  occ. eigenvalues --   -0.58086  -0.54038  -0.53927  -0.51102  -0.46909
 Alpha  occ. eigenvalues --   -0.46605  -0.46473
 Alpha virt. eigenvalues --    0.03958   0.04008   0.04152   0.04175   0.06585
 Alpha virt. eigenvalues --    0.06817   0.07133   0.07393   0.08310   0.10158
 Alpha virt. eigenvalues --    0.13911   0.14799   0.14835   0.15538   0.15957

 Mulliken charges:
               1
     1  C   -0.348355
     2  C   -0.309338
     3  C   -0.348355
     4  C   -0.309338
     5  H    0.108704
     6  H    0.140422
     7  H    0.157833
     8  H    0.140422
     9  H    0.108704
    10  H    0.157833
    11  H    0.128422
    12  H    0.122312
    13  H    0.128422
    14  H    0.122312
 Sum of Mulliken charges =  -0.00000

 Dipole moment (field-independent basis, Debye):
    X=             -0.0000    Y=             -0.0000    Z=              0.1001  Tot=              0.1001

 Test job not archived.
 1\1\GINC-SE045\SP\RHF\Aug-CC-pVDZ\C4H10\OHZDE\05-Apr-2025\0\\#t hf aug
 -cc-pvdz iop(5/13=1,5/36=2,99/5=2) pseudo=read geom=check guess=(read,
 tcheck) scf=(maxcycle=1)\\title\\0,1\C,0,-0.252798,0.723681,0.616235\C
 ,0,0.252798,1.57136,-0.551646\C,0,0.252798,-0.723681,0.616235\C,0,-0.2
 52798,-1.57136,-0.551646\H,0,-0.104388,2.599202,-0.473491\H,0,0.083428
 ,-1.182319,-1.513402\H,0,-1.344623,-1.601548,-0.570383\H,0,-0.083428,1
 .182319,-1.513402\H,0,0.104388,-2.599202,-0.473491\H,0,1.344623,1.6015
 48,-0.570383\H,0,-1.347442,0.719895,0.615666\H,0,0.047102,1.198634,1.5

 Normal termination of Gaussian 16 at Sat Apr  5 22:56:38 2025.
