 Gaussian 16, Revision C.01,

 ----------------------------------------------------------------------
 #t hf aug-cc-pvdz symm=none int=(grid=ultrafine) guess=(read,tcheck) s
 table=(opt,rrhf)
 ----------------------------------------------------------------------
 -----
 title
 -----
 Symbolic Z-matrix:
 Charge =  0 Multiplicity = 1

 SCF Done:  E(RHF) =  -231.017177605     A.U. after   13 cycles
 Normal termination of Gaussian 16 at Sat Apr  5 22:56:13 2025.
 Gaussian 16:  ES64L-G16RevC.01  3-Jul-2019

 ----------------------------------------------------------------------
 #t hf aug-cc-pvdz iop(5/13=1,5/36=2,99/5=2) pseudo=read geom=check gue
 ss=(read,tcheck) scf=(maxcycle=1)
 ----------------------------------------------------------------------
 -----
 title
 -----
 Structure from the checkpoint file:  "butanal.chk"
 Charge =  0 Multiplicity = 1

                         Standard orientation:
 ---------------------------------------------------------------------
 Center     Atomic      Atomic             Coordinates (Angstroms)
 Number     Number       Type             X           Y           Z
 ---------------------------------------------------------------------
      1          6           0       -1.498796    0.606364    0.000000
      2          6           0        2.286416   -0.364870    0.000000
      3          6           0        0.000000    0.740162    0.000000
      4          6           0        0.773358   -0.572830    0.000000
      5          8           0       -2.103883   -0.435720    0.000000
      6          1           0       -2.049279    1.570818    0.000000
      7          1           0        2.612258    0.192076    0.881024
      8          1           0        2.813086   -1.319587    0.000000
      9          1           0        2.612258    0.192076   -0.881024
     10          1           0        0.262254    1.359651    0.867455
     11          1           0        0.262254    1.359651   -0.867455
     12          1           0        0.476183   -1.160935    0.870082
     13          1           0        0.476183   -1.160935   -0.870082
 ---------------------------------------------------------------------

 SCF Done:  E(RHF) =  -231.262206126     A.U. after    2 cycles

 The electronic state is 1-A'.
 Alpha  occ. eigenvalues --  -20.54565 -11.34123 -11.25067 -11.23547 -11.23015
 Alpha  occ. eigenvalues --   -1.47685  -1.08560  -0.98128  -0.85345  -0.77613
 Alpha  occ. eigenvalues --   -0.68219  -0.65576  -0.64041  -0.57682  -0.57524
 Alpha  occ. eigenvalues --   -0.52422  -0.50740  -0.49878  -0.48458  -0.41509
 Alpha virt. eigenvalues --    0.03273   0.03718   0.04076   0.04754   0.06231
 Alpha virt. eigenvalues --    0.06908   0.07825   0.07844   0.11484   0.11801
 Alpha virt. eigenvalues --    0.11950   0.13265   0.14958   0.15520   0.16023

 Mulliken charges:
               1
     1  C    1.007801
     2  C   -0.356326
     3  C   -0.495562
     4  C   -0.207348
     5  O   -1.128832
     6  H    0.102419
     7  H    0.156208
     8  H    0.119446
     9  H    0.156208
    10  H    0.197925
    11  H    0.197925
    12  H    0.125068
    13  H    0.125068
 Sum of Mulliken charges =  -0.00000

 Dipole moment (field-independent basis, Debye):
    X=              1.9804    Y=              2.1061    Z=              0.0000  Tot=              2.8909

 Test job not archived.
 1\1\GINC-SE198\SP\RHF\Aug-CC-pVDZ\C4H8O1\OHZDE\05-Apr-2025\0\\#t hf au
 g-cc-pvdz iop(5/13=1,5/36=2,99/5=2) pseudo=read geom=check guess=(read
 ,tcheck) scf=(maxcycle=1)\\title\\0,1\C,0,-1.498796,0.606364,0.\C,0,2.
 286416,-0.36487,0.\C,0,0.,0.740162,0.\C,0,0.773358,-0.57283,0.\O,0,-2.
 103883,-0.43572,0.\H,0,-2.049279,1.570818,0.\H,0,2.612258,0.192076,0.8
 81024\H,0,2.813086,-1.319587,0.\H,0,2.612258,0.192076,-0.881024\H,0,0.
 262254,1.359651,0.867455\H,0,0.262254,1.359651,-0.867455\H,0,0.476183,
 -1.160935,0.870082\H,0,0.476183,-1.160935,-0.870082\\Version=ES64L-G16

 Normal termination of Gaussian 16 at Sat Apr  5 22:56:16 2025.
