 Gaussian 16, Revision C.01,

 ----------------------------------------------------------------------
 #t hf aug-cc-pvdz symm=none int=(grid=ultrafine) guess=(read,tcheck) s
 table=(opt,rrhf)
 ----------------------------------------------------------------------
 -----
 title
 -----
 Symbolic Z-matrix:
 Charge =  0 Multiplicity = 1

 SCF Done:  E(RHF) =  -286.090396823     A.U. after   13 cycles
 Normal termination of Gaussian 16 at Sat Apr  5 22:56:47 2025.
 Gaussian 16:  ES64L-G16RevC.01  3-Jul-2019

 ----------------------------------------------------------------------
 #t hf aug-cc-pvdz iop(5/13=1,5/36=2,99/5=2) pseudo=read geom=check gue
 ss=(read,tcheck) scf=(maxcycle=1)
 ----------------------------------------------------------------------
 -----
 title
 -----
 Structure from the checkpoint file:  "butanamide.chk"
 Charge =  0 Multiplicity = 1

                         Standard orientation:
 ---------------------------------------------------------------------
 Center     Atomic      Atomic             Coordinates (Angstroms)
 Number     Number       Type             X           Y           Z
 ---------------------------------------------------------------------
      1          6           0       -2.731329   -0.188210    0.027569
      2          1           0       -2.896131   -0.208886    1.106914
      3          1           0       -3.510969    0.433548   -0.413737
      4          1           0       -2.869306   -1.205115   -0.346583
      5          6           0       -1.343418    0.351342   -0.308883
      6          1           0       -1.217269    0.398690   -1.393390
      7          1           0       -1.233985    1.372797    0.054840
      8          6           0       -0.221272   -0.497474    0.289364
      9          1           0       -0.261557   -1.517699   -0.100776
     10          1           0       -0.357479   -0.572869    1.373168
     11          7           0        2.159806   -0.790578   -0.170020
     12          1           0        3.099748   -0.446011   -0.265813
     13          1           0        1.999084   -1.780108   -0.196024
     14          6           0        1.158613    0.105753    0.066900
     15          8           0        1.369207    1.303904    0.115231
 ---------------------------------------------------------------------

 SCF Done:  E(RHF) =  -286.391785643     A.U. after    2 cycles

 The electronic state is 1-A.
 Alpha  occ. eigenvalues --  -20.50373 -15.52708 -11.35623 -11.24725 -11.23178
 Alpha  occ. eigenvalues --  -11.22681  -1.45336  -1.22110  -1.07710  -0.96852
 Alpha  occ. eigenvalues --   -0.85037  -0.80502  -0.75374  -0.68577  -0.64834
 Alpha  occ. eigenvalues --   -0.61006  -0.59885  -0.57143  -0.53963  -0.51465
 Alpha  occ. eigenvalues --   -0.49286  -0.48327  -0.43267  -0.41788
 Alpha virt. eigenvalues --    0.02635   0.03867   0.04327   0.04631   0.06170
 Alpha virt. eigenvalues --    0.06377   0.07528   0.08099   0.08970   0.11304
 Alpha virt. eigenvalues --    0.11695   0.13120   0.14500   0.14999   0.15639

 Mulliken charges:
               1
     1  C   -0.354934
     2  H    0.152341
     3  H    0.121542
     4  H    0.154696
     5  C   -0.200478
     6  H    0.110091
     7  H    0.145643
     8  C   -0.459165
     9  H    0.107169
    10  H    0.244145
    11  N    0.664529
    12  H    0.088847
    13  H    0.044645
    14  C    0.499129
    15  O   -1.318199
 Sum of Mulliken charges =   0.00000

 Dipole moment (field-independent basis, Debye):
    X=             -0.2918    Y=             -3.6601    Z=             -0.1637  Tot=              3.6753

 Test job not archived.
 1\1\GINC-SE028\SP\RHF\Aug-CC-pVDZ\C4H9N1O1\OHZDE\05-Apr-2025\0\\#t hf
 aug-cc-pvdz iop(5/13=1,5/36=2,99/5=2) pseudo=read geom=check guess=(re
 ad,tcheck) scf=(maxcycle=1)\\title\\0,1\C,0,-2.731329,-0.18821,0.02756
 9\H,0,-2.896131,-0.208886,1.106914\H,0,-3.510969,0.433548,-0.413737\H,
 0,-2.869306,-1.205115,-0.346583\C,0,-1.343418,0.351342,-0.308883\H,0,-
 1.217269,0.39869,-1.39339\H,0,-1.233985,1.372797,0.05484\C,0,-0.221272
 ,-0.497474,0.289364\H,0,-0.261557,-1.517699,-0.100776\H,0,-0.357479,-0
 .572869,1.373168\N,0,2.159806,-0.790578,-0.17002\H,0,3.099748,-0.44601

 Normal termination of Gaussian 16 at Sat Apr  5 22:56:52 2025.
