 Gaussian 16, Revision C.01,

 ----------------------------------------------------------------------
 #t hf aug-cc-pvdz symm=none int=(grid=ultrafine) guess=(read,tcheck) s
 table=(opt,rrhf)
 ----------------------------------------------------------------------
 -----
 title
 -----
 Symbolic Z-matrix:
 Charge =  0 Multiplicity = 1

 SCF Done:  E(RHF) =  -552.899697055     A.U. after   16 cycles
 Normal termination of Gaussian 16 at Sat Apr  5 22:56:44 2025.
 Gaussian 16:  ES64L-G16RevC.01  3-Jul-2019

 ----------------------------------------------------------------------
 #t hf aug-cc-pvdz iop(5/13=1,5/36=2,99/5=2) pseudo=read geom=check gue
 ss=(read,tcheck) scf=(maxcycle=1)
 ----------------------------------------------------------------------
 -----
 title
 -----
 Structure from the checkpoint file:  "buta-1-3-diynyl_fluoromethyl_carbonate.chk"
 Charge =  0 Multiplicity = 1

                         Standard orientation:
 ---------------------------------------------------------------------
 Center     Atomic      Atomic             Coordinates (Angstroms)
 Number     Number       Type             X           Y           Z
 ---------------------------------------------------------------------
      1          9           0        3.940309   -0.700508    0.000001
      2          8           0        0.078593   -0.377057    0.000001
      3          8           0        2.113751    0.544697   -0.000000
      4          8           0        0.337726    1.902359   -0.000003
      5          6           0        0.818126    0.821984   -0.000000
      6          6           0       -1.226279   -0.291508    0.000001
      7          6           0        2.589453   -0.807507    0.000001
      8          6           0       -2.427483   -0.308785   -0.000000
      9          6           0       -3.790073   -0.312892   -0.000000
     10          6           0       -4.994397   -0.317938   -0.000000
     11          1           0        2.268129   -1.318104    0.905799
     12          1           0        2.268129   -1.318107   -0.905795
     13          1           0       -6.055687   -0.319329   -0.000000
 ---------------------------------------------------------------------

 SCF Done:  E(RHF) =  -553.431623577     A.U. after    2 cycles

 The electronic state is 1-A.
 Alpha  occ. eigenvalues --  -26.49863 -20.68214 -20.64750 -20.58209 -11.49703
 Alpha  occ. eigenvalues --  -11.42911 -11.34436 -11.28193 -11.27754 -11.26822
 Alpha  occ. eigenvalues --   -1.66001  -1.63160  -1.55684  -1.51714  -1.10443
 Alpha  occ. eigenvalues --   -1.04210  -1.01732  -0.94693  -0.85355  -0.83112
 Alpha  occ. eigenvalues --   -0.78777  -0.77743  -0.73282  -0.72721  -0.72216
 Alpha  occ. eigenvalues --   -0.69071  -0.64678  -0.63240  -0.59815  -0.57867
 Alpha  occ. eigenvalues --   -0.51866  -0.50455  -0.50179  -0.49566  -0.38428
 Alpha  occ. eigenvalues --   -0.37428
 Alpha virt. eigenvalues --    0.02960   0.03375   0.04402   0.06964   0.07187
 Alpha virt. eigenvalues --    0.08624   0.08779   0.09213   0.10348   0.11048
 Alpha virt. eigenvalues --    0.11580   0.12106   0.12552   0.12848   0.12941

 Mulliken charges:
               1
     1  F   -0.682227
     2  O   -1.461916
     3  O   -1.363422
     4  O   -1.030669
     5  C    2.270489
     6  C   -0.709815
     7  C    1.134601
     8  C    1.943392
     9  C    0.545190
    10  C   -0.218806
    11  H    0.117857
    12  H    0.117856
    13  H   -0.662529
 Sum of Mulliken charges =  -0.00000

 Dipole moment (field-independent basis, Debye):
    X=             -0.4072    Y=             -3.0564    Z=              0.0000  Tot=              3.0834

 Test job not archived.
 1\1\GINC-SE146\SP\RHF\Aug-CC-pVDZ\C6H3F1O3\OHZDE\05-Apr-2025\0\\#t hf
 aug-cc-pvdz iop(5/13=1,5/36=2,99/5=2) pseudo=read geom=check guess=(re
 ad,tcheck) scf=(maxcycle=1)\\title\\0,1\F,0,3.940309,-0.700508,0.00000
 1\O,0,0.078593,-0.377057,0.000001\O,0,2.113751,0.544697,0.\O,0,0.33772
 6,1.902359,-0.000003\C,0,0.818126,0.821984,0.\C,0,-1.226279,-0.291508,
 0.000001\C,0,2.589453,-0.807507,0.000001\C,0,-2.427483,-0.308785,0.\C,
 0,-3.790073,-0.312892,0.\C,0,-4.994397,-0.317938,0.\H,0,2.268129,-1.31
 8104,0.905799\H,0,2.268129,-1.318107,-0.905795\H,0,-6.055687,-0.319329

 Normal termination of Gaussian 16 at Sat Apr  5 22:56:49 2025.
