 Gaussian 16, Revision C.01,

 ----------------------------------------------------------------------
 #t hf aug-cc-pvdz symm=none int=(grid=ultrafine) guess=(read,tcheck) s
 table=(opt,rrhf)
 ----------------------------------------------------------------------
 -----
 title
 -----
 Symbolic Z-matrix:
 Charge =  0 Multiplicity = 1

 SCF Done:  E(RHF) =  -302.333881116     A.U. after   14 cycles
 Normal termination of Gaussian 16 at Sat Apr  5 22:56:06 2025.
 Gaussian 16:  ES64L-G16RevC.01  3-Jul-2019

 ----------------------------------------------------------------------
 #t hf aug-cc-pvdz iop(5/13=1,5/36=2,99/5=2) pseudo=read geom=check gue
 ss=(read,tcheck) scf=(maxcycle=1)
 ----------------------------------------------------------------------
 -----
 title
 -----
 Structure from the checkpoint file:  "buta-1-3-diene-1-4-dione.chk"
 Charge =  0 Multiplicity = 1

                         Standard orientation:
 ---------------------------------------------------------------------
 Center     Atomic      Atomic             Coordinates (Angstroms)
 Number     Number       Type             X           Y           Z
 ---------------------------------------------------------------------
      1          8           0       -0.115324    2.385771   -0.820827
      2          8           0        0.115324   -2.385771   -0.820827
      3          6           0        0.379356    0.637546    0.860073
      4          6           0       -0.379356   -0.637546    0.860073
      5          6           0        0.115324    1.569774   -0.030466
      6          6           0       -0.115324   -1.569774   -0.030466
      7          1           0        1.150733    0.853280    1.588973
      8          1           0       -1.150733   -0.853280    1.588973
 ---------------------------------------------------------------------

 SCF Done:  E(RHF) =  -302.623960781     A.U. after    2 cycles

 The electronic state is 1-A.
 Alpha  occ. eigenvalues --  -20.62850 -20.62848 -11.40344 -11.40342 -11.27386
 Alpha  occ. eigenvalues --  -11.27338  -1.56878  -1.56865  -1.12952  -1.02166
 Alpha  occ. eigenvalues --   -0.79356  -0.76082  -0.71708  -0.69179  -0.68634
 Alpha  occ. eigenvalues --   -0.64860  -0.64771  -0.59960  -0.56511  -0.39414
 Alpha  occ. eigenvalues --   -0.36121
 Alpha virt. eigenvalues --    0.02934   0.04018   0.06495   0.06782   0.09566
 Alpha virt. eigenvalues --    0.09672   0.11154   0.11190   0.12058   0.12316
 Alpha virt. eigenvalues --    0.13187   0.14443   0.15038   0.15705   0.15984

 Mulliken charges:
               1
     1  O   -0.821959
     2  O   -0.821959
     3  C    0.573033
     4  C    0.573033
     5  C    0.295911
     6  C    0.295911
     7  H   -0.046985
     8  H   -0.046985
 Sum of Mulliken charges =   0.00000

 Dipole moment (field-independent basis, Debye):
    X=              0.0000    Y=             -0.0000    Z=              1.9693  Tot=              1.9693

 Test job not archived.
 1\1\GINC-SE047\SP\RHF\Aug-CC-pVDZ\C4H2O2\OHZDE\05-Apr-2025\0\\#t hf au
 g-cc-pvdz iop(5/13=1,5/36=2,99/5=2) pseudo=read geom=check guess=(read
 ,tcheck) scf=(maxcycle=1)\\title\\0,1\O,0,-0.115324,2.385771,-0.820827
 \O,0,0.115324,-2.385771,-0.820827\C,0,0.379356,0.637546,0.860073\C,0,-
 0.379356,-0.637546,0.860073\C,0,0.115324,1.569774,-0.030466\C,0,-0.115
 324,-1.569774,-0.030466\H,0,1.150733,0.85328,1.588973\H,0,-1.150733,-0
 .85328,1.588973\\Version=ES64L-G16RevC.01\State=1-A\HF=-302.6239608\RM
 SD=1.484e-02\Dipole=0.,0.,0.7747744\Quadrupole=2.0628935,-3.0023407,0.

 Normal termination of Gaussian 16 at Sat Apr  5 22:56:09 2025.
