 Gaussian 16, Revision C.01,

 ----------------------------------------------------------------------
 #t hf aug-cc-pvdz symm=none int=(grid=ultrafine) guess=(read,tcheck) s
 table=(opt,rrhf)
 ----------------------------------------------------------------------
 -----
 title
 -----
 Symbolic Z-matrix:
 Charge =  0 Multiplicity = 1

 SCF Done:  E(RHF) =  -153.708826952     A.U. after   11 cycles
 Normal termination of Gaussian 16 at Sat Apr  5 22:56:24 2025.
 Gaussian 16:  ES64L-G16RevC.01  3-Jul-2019

 ----------------------------------------------------------------------
 #t hf aug-cc-pvdz iop(5/13=1,5/36=2,99/5=2) pseudo=read geom=check gue
 ss=(read,tcheck) scf=(maxcycle=1)
 ----------------------------------------------------------------------
 -----
 title
 -----
 Structure from the checkpoint file:  "butatriene.chk"
 Charge =  0 Multiplicity = 1

                         Standard orientation:
 ---------------------------------------------------------------------
 Center     Atomic      Atomic             Coordinates (Angstroms)
 Number     Number       Type             X           Y           Z
 ---------------------------------------------------------------------
      1          6           0        0.000000    0.000000    0.631617
      2          6           0        0.000000    0.000000   -0.631617
      3          6           0        0.000000    0.000000    1.943149
      4          6           0        0.000000    0.000000   -1.943149
      5          1           0        0.000000    0.924533    2.508102
      6          1           0       -0.000000   -0.924533    2.508102
      7          1           0        0.000000    0.924533   -2.508102
      8          1           0       -0.000000   -0.924533   -2.508102
 ---------------------------------------------------------------------

 SCF Done:  E(RHF) =  -153.868628944     A.U. after    2 cycles

 The electronic state is 1-AG.
 Alpha  occ. eigenvalues --  -11.26716 -11.26575 -11.26448 -11.26370  -1.09526
 Alpha  occ. eigenvalues --   -1.01933  -0.90684  -0.70246  -0.66622  -0.63531
 Alpha  occ. eigenvalues --   -0.61275  -0.48686  -0.38471  -0.34420
 Alpha virt. eigenvalues --    0.03737   0.04005   0.04577   0.05579   0.05741
 Alpha virt. eigenvalues --    0.08417   0.11278   0.12285   0.12558   0.13075
 Alpha virt. eigenvalues --    0.15245   0.15981   0.16825   0.18650   0.18865

 Mulliken charges:
               1
     1  C    0.318789
     2  C    0.318789
     3  C   -0.275863
     4  C   -0.275863
     5  H   -0.021463
     6  H   -0.021463
     7  H   -0.021463
     8  H   -0.021463
 Sum of Mulliken charges =   0.00000

 Dipole moment (field-independent basis, Debye):
    X=             -0.0000    Y=              0.0000    Z=             -0.0000  Tot=              0.0000

 Test job not archived.
 1\1\GINC-SE055\SP\RHF\Aug-CC-pVDZ\C4H4\OHZDE\05-Apr-2025\0\\#t hf aug-
 cc-pvdz iop(5/13=1,5/36=2,99/5=2) pseudo=read geom=check guess=(read,t
 check) scf=(maxcycle=1)\\title\\0,1\C,0,0.,0.,0.631617\C,0,0.,0.,-0.63
 1617\C,0,0.,0.,1.943149\C,0,0.,0.,-1.943149\H,0,0.,0.924533,2.508102\H
 ,0,0.,-0.924533,2.508102\H,0,0.,0.924533,-2.508102\H,0,0.,-0.924533,-2
 .508102\\Version=ES64L-G16RevC.01\State=1-AG\HF=-153.8686289\RMSD=2.35
 9e-02\Dipole=0.,0.,0.\Quadrupole=-3.5948126,-0.5169727,4.1117853,0.,0.
 ,0.\PG=D02H [C2"(C1C1.C1C1),SG(H4)]\\@

 Normal termination of Gaussian 16 at Sat Apr  5 22:56:26 2025.
