 Gaussian 16, Revision C.01,

 ----------------------------------------------------------------------
 #t hf aug-cc-pvdz symm=none int=(grid=ultrafine) guess=(read,tcheck) s
 table=(opt,rrhf)
 ----------------------------------------------------------------------
 -----
 title
 -----
 Symbolic Z-matrix:
 Charge =  0 Multiplicity = 1

 SCF Done:  E(RHF) =  -554.846688020     A.U. after   12 cycles

 1\1\GINC-SE050\Stability\RHF\Aug-CC-pVDZ\C4H10S1\OHZDE\05-Apr-2025\0\\
 #t hf aug-cc-pvdz symm=none int=(grid=ultrafine) guess=(read,tcheck) s
 table=(opt,rrhf)\\title\\0,1\C,0,2.784969,-0.371669,-0.128185\C,0,1.35
 3327,-0.290285,0.397998\C,0,0.523956,0.782957,-0.309707\C,0,-0.898001,
 0.948281,0.21948\S,0,-1.902817,-0.567172,-0.109965\H,0,3.355821,-1.140
 15,0.394167\H,0,3.309752,0.577267,0.001618\H,0,2.800602,-0.614167,-1.1
 92643\H,0,1.367691,-0.079826,1.471581\H,0,0.869424,-1.263165,0.28702\H
 ,0,0.488279,0.573674,-1.382567\H,0,1.026483,1.74951,-0.202216\H,0,-0.8

 Normal termination of Gaussian 16 at Sat Apr  5 22:56:42 2025.
 Gaussian 16:  ES64L-G16RevC.01  3-Jul-2019

 ----------------------------------------------------------------------
 #t hf aug-cc-pvdz iop(5/13=1,5/36=2,99/5=2) pseudo=read geom=check gue
 ss=(read,tcheck) scf=(maxcycle=1)
 ----------------------------------------------------------------------
 -----
 title
 -----
 Structure from the checkpoint file:  "butanethiol.chk"
 Charge =  0 Multiplicity = 1

                         Standard orientation:
 ---------------------------------------------------------------------
 Center     Atomic      Atomic             Coordinates (Angstroms)
 Number     Number       Type             X           Y           Z
 ---------------------------------------------------------------------
      1          6           0        2.784969   -0.371669   -0.128185
      2          6           0        1.353327   -0.290285    0.397998
      3          6           0        0.523956    0.782957   -0.309707
      4          6           0       -0.898001    0.948281    0.219480
      5         16           0       -1.902817   -0.567172   -0.109965
      6          1           0        3.355821   -1.140150    0.394167
      7          1           0        3.309752    0.577267    0.001618
      8          1           0        2.800602   -0.614167   -1.192643
      9          1           0        1.367691   -0.079826    1.471581
     10          1           0        0.869424   -1.263165    0.287020
     11          1           0        0.488279    0.573674   -1.382567
     12          1           0        1.026483    1.749510   -0.202216
     13          1           0       -0.887504    1.133147    1.293120
     14          1           0       -1.385788    1.786314   -0.273539
     15          1           0       -3.085182   -0.063565    0.285377
 ---------------------------------------------------------------------

 SCF Done:  E(RHF) =  -555.085129847     A.U. after    2 cycles

 The electronic state is 1-A.
 Alpha  occ. eigenvalues --  -93.94301 -11.26953 -11.23781 -11.22920 -11.22397
 Alpha  occ. eigenvalues --   -8.22374  -6.20228  -6.20084  -6.19857  -1.10203
 Alpha  occ. eigenvalues --   -1.03211  -0.94866  -0.85315  -0.79158  -0.65596
 Alpha  occ. eigenvalues --   -0.62470  -0.60443  -0.58002  -0.53652  -0.52381
 Alpha  occ. eigenvalues --   -0.49248  -0.48709  -0.47843  -0.44659  -0.35957
 Alpha virt. eigenvalues --    0.03445   0.03853   0.04033   0.04508   0.05979
 Alpha virt. eigenvalues --    0.06311   0.06784   0.07240   0.09182   0.09899
 Alpha virt. eigenvalues --    0.11026   0.11795   0.13998   0.14583   0.15317

 Mulliken charges:
               1
     1  C   -0.375648
     2  C   -0.316936
     3  C   -0.261197
     4  C   -0.493024
     5  S   -0.060219
     6  H    0.112738
     7  H    0.156845
     8  H    0.163849
     9  H    0.123508
    10  H    0.145216
    11  H    0.104437
    12  H    0.141051
    13  H    0.138962
    14  H    0.104688
    15  H    0.315729
 Sum of Mulliken charges =  -0.00000

 Dipole moment (field-independent basis, Debye):
    X=              0.4281    Y=              1.6324    Z=              0.5513  Tot=              1.7753

 Test job not archived.
 1\1\GINC-SE050\SP\RHF\Aug-CC-pVDZ\C4H10S1\OHZDE\05-Apr-2025\0\\#t hf a
 ug-cc-pvdz iop(5/13=1,5/36=2,99/5=2) pseudo=read geom=check guess=(rea
 d,tcheck) scf=(maxcycle=1)\\title\\0,1\C,0,2.784969,-0.371669,-0.12818
 5\C,0,1.353327,-0.290285,0.397998\C,0,0.523956,0.782957,-0.309707\C,0,
 -0.898001,0.948281,0.21948\S,0,-1.902817,-0.567172,-0.109965\H,0,3.355
 821,-1.14015,0.394167\H,0,3.309752,0.577267,0.001618\H,0,2.800602,-0.6
 14167,-1.192643\H,0,1.367691,-0.079826,1.471581\H,0,0.869424,-1.263165
 ,0.28702\H,0,0.488279,0.573674,-1.382567\H,0,1.026483,1.74951,-0.20221

 Normal termination of Gaussian 16 at Sat Apr  5 22:56:47 2025.
