 Gaussian 16, Revision C.01,

 ----------------------------------------------------------------------
 #t hf aug-cc-pvdz symm=none int=(grid=ultrafine) guess=(read,tcheck) s
 table=(opt,rrhf)
 ----------------------------------------------------------------------
 -----
 title
 -----
 Symbolic Z-matrix:
 Charge =  0 Multiplicity = 1

 SCF Done:  E(RHF) =  -302.235209470     A.U. after   14 cycles
 Normal termination of Gaussian 16 at Sat Apr  5 22:56:04 2025.
 Gaussian 16:  ES64L-G16RevC.01  3-Jul-2019

 ----------------------------------------------------------------------
 #t hf aug-cc-pvdz iop(5/13=1,5/36=2,99/5=2) pseudo=read geom=check gue
 ss=(read,tcheck) scf=(maxcycle=1)
 ----------------------------------------------------------------------
 -----
 title
 -----
 Structure from the checkpoint file:  "buta-1-3-diyn-1-4-diol.chk"
 Charge =  0 Multiplicity = 1

                         Standard orientation:
 ---------------------------------------------------------------------
 Center     Atomic      Atomic             Coordinates (Angstroms)
 Number     Number       Type             X           Y           Z
 ---------------------------------------------------------------------
      1          8           0        3.189684   -0.076657   -0.064099
      2          8           0       -3.189684    0.076659   -0.064103
      3          6           0        0.681541   -0.006531   -0.008790
      4          6           0       -0.681541    0.006524   -0.008791
      5          6           0        1.886110   -0.000033    0.003758
      6          6           0       -1.886111    0.000032    0.003757
      7          1           0        3.604742    0.550174    0.542991
      8          1           0       -3.604744   -0.550143    0.543017
 ---------------------------------------------------------------------

 SCF Done:  E(RHF) =  -302.532653623     A.U. after    2 cycles

 The electronic state is 1-A.
 Alpha  occ. eigenvalues --  -20.63209 -20.63197 -11.31463 -11.31447 -11.25292
 Alpha  occ. eigenvalues --  -11.25192  -1.54478  -1.54463  -1.07802  -1.01434
 Alpha  occ. eigenvalues --   -0.86028  -0.82004  -0.78122  -0.67268  -0.67038
 Alpha  occ. eigenvalues --   -0.62292  -0.62267  -0.47170  -0.47112  -0.34465
 Alpha  occ. eigenvalues --   -0.34375
 Alpha virt. eigenvalues --    0.02745   0.03024   0.08769   0.09043   0.09630
 Alpha virt. eigenvalues --    0.09743   0.09873   0.10521   0.13328   0.15060
 Alpha virt. eigenvalues --    0.15520   0.15591   0.17517   0.18181   0.21111

 Mulliken charges:
               1
     1  O   -1.267014
     2  O   -1.267014
     3  C    2.048359
     4  C    2.048346
     5  C   -1.102226
     6  C   -1.102214
     7  H    0.320882
     8  H    0.320882
 Sum of Mulliken charges =  -0.00000

 Dipole moment (field-independent basis, Debye):
    X=             -0.0000    Y=              0.0001    Z=              2.1223  Tot=              2.1223

 Test job not archived.
 1\1\GINC-SE145\SP\RHF\Aug-CC-pVDZ\C4H2O2\OHZDE\05-Apr-2025\0\\#t hf au
 g-cc-pvdz iop(5/13=1,5/36=2,99/5=2) pseudo=read geom=check guess=(read
 ,tcheck) scf=(maxcycle=1)\\title\\0,1\O,0,3.189684,-0.076657,-0.064099
 \O,0,-3.189684,0.076659,-0.064103\C,0,0.681541,-0.006531,-0.00879\C,0,
 -0.681541,0.006524,-0.008791\C,0,1.88611,-0.000033,0.003758\C,0,-1.886
 111,0.000032,0.003757\H,0,3.604742,0.550174,0.542991\H,0,-3.604744,-0.
 550143,0.543017\\Version=ES64L-G16RevC.01\State=1-A\HF=-302.5326536\RM
 SD=5.928e-02\Dipole=-0.000004,0.0000223,0.8349886\Quadrupole=8.0276517

 Normal termination of Gaussian 16 at Sat Apr  5 22:56:07 2025.
