 Gaussian 16, Revision C.01,

 ----------------------------------------------------------------------
 #t hf aug-cc-pvdz symm=none int=(grid=ultrafine) guess=(read,tcheck) s
 table=(opt,rrhf)
 ----------------------------------------------------------------------
 -----
 title
 -----
 Symbolic Z-matrix:
 Charge =  0 Multiplicity = 1

 SCF Done:  E(RHF) =  -386.885399575     A.U. after   14 cycles
 Normal termination of Gaussian 16 at Sat Apr  5 22:59:08 2025.
 Gaussian 16:  ES64L-G16RevC.01  3-Jul-2019

 ----------------------------------------------------------------------
 #t hf aug-cc-pvdz iop(5/13=1,5/36=2,99/5=2) pseudo=read geom=check gue
 ss=(read,tcheck) scf=(maxcycle=1)
 ----------------------------------------------------------------------
 -----
 title
 -----
 Structure from the checkpoint file:  "butylbenzene.chk"
 Charge =  0 Multiplicity = 1

                         Standard orientation:
 ---------------------------------------------------------------------
 Center     Atomic      Atomic             Coordinates (Angstroms)
 Number     Number       Type             X           Y           Z
 ---------------------------------------------------------------------
      1          6           0        0.680345   -3.295333   -0.000000
      2          6           0        0.681769   -2.594527    1.200390
      3          6           0        0.681769   -2.594527   -1.200390
      4          6           0        0.681769   -1.204878    1.197095
      5          6           0        0.681769   -1.204878   -1.197095
      6          6           0        0.679166   -0.487390   -0.000000
      7          6           0       -2.241322    3.689088    0.000000
      8          6           0        0.640208    1.021053    0.000000
      9          6           0       -0.822953    3.121120    0.000000
     10          6           0       -0.786838    1.592902    0.000000
     11          1           0        0.683708   -4.377103   -0.000000
     12          1           0        0.687861   -3.130232    2.140693
     13          1           0        0.687861   -3.130232   -2.140693
     14          1           0        0.689431   -0.667833    2.138051
     15          1           0        0.689431   -0.667833   -2.138051
     16          1           0       -2.797599    3.361340    0.880573
     17          1           0       -2.797599    3.361340   -0.880573
     18          1           0       -2.234070    4.779958    0.000000
     19          1           0        1.173513    1.399551    0.875815
     20          1           0        1.173513    1.399551   -0.875815
     21          1           0       -0.280474    3.494116    0.873994
     22          1           0       -0.280474    3.494116   -0.873994
     23          1           0       -1.324598    1.213739    0.873915
     24          1           0       -1.324598    1.213739   -0.873915
 ---------------------------------------------------------------------

 SCF Done:  E(RHF) =  -387.301324652     A.U. after    2 cycles

 The electronic state is 1-A'.
 Alpha  occ. eigenvalues --  -11.24164 -11.23840 -11.23816 -11.23467 -11.23372
 Alpha  occ. eigenvalues --  -11.23371 -11.23226 -11.22648 -11.22620 -11.22155
 Alpha  occ. eigenvalues --   -1.15641  -1.08533  -1.03316  -1.01245  -0.96576
 Alpha  occ. eigenvalues --   -0.87780  -0.83253  -0.80782  -0.79197  -0.70491
 Alpha  occ. eigenvalues --   -0.66256  -0.63950  -0.63217  -0.59922  -0.59475
 Alpha  occ. eigenvalues --   -0.59002  -0.56943  -0.54162  -0.52362  -0.51078
 Alpha  occ. eigenvalues --   -0.49749  -0.49082  -0.47903  -0.47034  -0.46770
 Alpha  occ. eigenvalues --   -0.34243  -0.33221
 Alpha virt. eigenvalues --    0.03224   0.03378   0.03798   0.03920   0.04468
 Alpha virt. eigenvalues --    0.04685   0.06109   0.06576   0.06648   0.07575
 Alpha virt. eigenvalues --    0.07785   0.08498   0.09727   0.10592   0.11119

 Mulliken charges:
               1
     1  C    0.120718
     2  C   -0.036198
     3  C   -0.036198
     4  C    0.196900
     5  C    0.196900
     6  C    1.636594
     7  C   -0.323849
     8  C   -0.644421
     9  C   -0.256729
    10  C   -0.365740
    11  H   -0.224890
    12  H   -0.234920
    13  H   -0.234920
    14  H   -0.361177
    15  H   -0.361177
    16  H    0.160621
    17  H    0.160621
    18  H    0.115934
    19  H    0.036955
    20  H    0.036955
    21  H    0.114418
    22  H    0.114418
    23  H    0.094593
    24  H    0.094593
 Sum of Mulliken charges =  -0.00000

 Dipole moment (field-independent basis, Debye):
    X=             -0.0895    Y=              0.4578    Z=             -0.0000  Tot=              0.4665

 Test job not archived.
 1\1\GINC-SE115\SP\RHF\Aug-CC-pVDZ\C10H14\OHZDE\05-Apr-2025\0\\#t hf au
 g-cc-pvdz iop(5/13=1,5/36=2,99/5=2) pseudo=read geom=check guess=(read
 ,tcheck) scf=(maxcycle=1)\\title\\0,1\C,0,0.680345,-3.295333,0.\C,0,0.
 681769,-2.594527,1.20039\C,0,0.681769,-2.594527,-1.20039\C,0,0.681769,
 -1.204878,1.197095\C,0,0.681769,-1.204878,-1.197095\C,0,0.679166,-0.48
 739,0.\C,0,-2.241322,3.689088,0.\C,0,0.640208,1.021053,0.\C,0,-0.82295
 3,3.12112,0.\C,0,-0.786838,1.592902,0.\H,0,0.683708,-4.377103,0.\H,0,0
 .687861,-3.130232,2.140693\H,0,0.687861,-3.130232,-2.140693\H,0,0.6894

 Normal termination of Gaussian 16 at Sat Apr  5 23:00:07 2025.
