 Gaussian 16, Revision C.01,

 ----------------------------------------------------------------------
 #t hf aug-cc-pvdz symm=none int=(grid=ultrafine) guess=(read,tcheck) s
 table=(opt,rrhf)
 ----------------------------------------------------------------------
 -----
 title
 -----
 Symbolic Z-matrix:
 Charge =  0 Multiplicity = 1

 SCF Done:  E(RHF) =  -383.994367484     A.U. after   13 cycles

 1\1\GINC-SE104\Stability\RHF\Aug-CC-pVDZ\C6H12O2\OHZDE\05-Apr-2025\0\\
 #t hf aug-cc-pvdz symm=none int=(grid=ultrafine) guess=(read,tcheck) s
 table=(opt,rrhf)\\title\\0,1\C,0,2.202488,0.116111,-0.000012\C,0,3.288
 179,-0.927156,0.000005\C,0,-3.962455,-0.357641,-0.000017\C,0,-2.678902
 ,0.470725,0.000022\C,0,-1.415543,-0.392205,-0.000009\C,0,-0.151969,0.4
 44179,0.000021\O,0,2.38092,1.308789,-0.00002\O,0,0.980632,-0.454908,0.
 \H,0,3.191841,-1.565826,-0.877925\H,0,3.192067,-1.565518,0.878188\H,0,
 4.258416,-0.440768,-0.000192\H,0,-4.016737,-1.000104,-0.880951\H,0,-4.

 Normal termination of Gaussian 16 at Sat Apr  5 22:57:24 2025.
 Gaussian 16:  ES64L-G16RevC.01  3-Jul-2019

 ----------------------------------------------------------------------
 #t hf aug-cc-pvdz iop(5/13=1,5/36=2,99/5=2) pseudo=read geom=check gue
 ss=(read,tcheck) scf=(maxcycle=1)
 ----------------------------------------------------------------------
 -----
 title
 -----
 Structure from the checkpoint file:  "butyl_acetate.chk"
 Charge =  0 Multiplicity = 1

                         Standard orientation:
 ---------------------------------------------------------------------
 Center     Atomic      Atomic             Coordinates (Angstroms)
 Number     Number       Type             X           Y           Z
 ---------------------------------------------------------------------
      1          6           0        2.202488    0.116111   -0.000012
      2          6           0        3.288179   -0.927156    0.000005
      3          6           0       -3.962455   -0.357641   -0.000017
      4          6           0       -2.678902    0.470725    0.000022
      5          6           0       -1.415543   -0.392205   -0.000009
      6          6           0       -0.151969    0.444179    0.000021
      7          8           0        2.380920    1.308789   -0.000020
      8          8           0        0.980632   -0.454908   -0.000000
      9          1           0        3.191841   -1.565826   -0.877925
     10          1           0        3.192067   -1.565518    0.878188
     11          1           0        4.258416   -0.440768   -0.000192
     12          1           0       -4.016737   -1.000104   -0.880951
     13          1           0       -4.016742   -1.000179    0.880862
     14          1           0       -4.846288    0.281106    0.000008
     15          1           0       -2.669921    1.127959   -0.874214
     16          1           0       -2.669927    1.127886    0.874314
     17          1           0       -1.412843   -1.045046    0.876714
     18          1           0       -1.412842   -1.044982   -0.876781
     19          1           0       -0.090109    1.085203   -0.880362
     20          1           0       -0.090117    1.085149    0.880444
 ---------------------------------------------------------------------

 SCF Done:  E(RHF) =  -384.397855876     A.U. after    2 cycles

 The electronic state is 1-A.
 Alpha  occ. eigenvalues --  -20.58342 -20.52913 -11.38539 -11.29241 -11.24857
 Alpha  occ. eigenvalues --  -11.23543 -11.23408 -11.22762  -1.53678  -1.44474
 Alpha  occ. eigenvalues --   -1.09106  -1.03336  -0.98144  -0.87955  -0.81029
 Alpha  occ. eigenvalues --   -0.78179  -0.69312  -0.69172  -0.67168  -0.64065
 Alpha  occ. eigenvalues --   -0.60199  -0.59879  -0.57453  -0.56974  -0.54803
 Alpha  occ. eigenvalues --   -0.52282  -0.50969  -0.49414  -0.49104  -0.48095
 Alpha  occ. eigenvalues --   -0.44944  -0.43639
 Alpha virt. eigenvalues --    0.03422   0.03705   0.03860   0.04160   0.05272
 Alpha virt. eigenvalues --    0.05830   0.06097   0.06799   0.07843   0.08404
 Alpha virt. eigenvalues --    0.08528   0.10390   0.10925   0.11715   0.13544

 Mulliken charges:
               1
     1  C    1.718855
     2  C   -0.724730
     3  C   -0.414173
     4  C   -0.184394
     5  C   -0.341139
     6  C    0.656257
     7  O   -1.189847
     8  O   -1.289315
     9  H    0.232620
    10  H    0.232660
    11  H    0.179894
    12  H    0.162197
    13  H    0.162199
    14  H    0.112500
    15  H    0.117238
    16  H    0.117239
    17  H    0.108858
    18  H    0.108867
    19  H    0.117107
    20  H    0.117107
 Sum of Mulliken charges =   0.00000

 Dipole moment (field-independent basis, Debye):
    X=             -1.1767    Y=             -1.8912    Z=              0.0001  Tot=              2.2273

 Test job not archived.
 1\1\GINC-SE104\SP\RHF\Aug-CC-pVDZ\C6H12O2\OHZDE\05-Apr-2025\0\\#t hf a
 ug-cc-pvdz iop(5/13=1,5/36=2,99/5=2) pseudo=read geom=check guess=(rea
 d,tcheck) scf=(maxcycle=1)\\title\\0,1\C,0,2.202488,0.116111,-0.000012
 \C,0,3.288179,-0.927156,0.000005\C,0,-3.962455,-0.357641,-0.000017\C,0
 ,-2.678902,0.470725,0.000022\C,0,-1.415543,-0.392205,-0.000009\C,0,-0.
 151969,0.444179,0.000021\O,0,2.38092,1.308789,-0.00002\O,0,0.980632,-0
 .454908,0.\H,0,3.191841,-1.565826,-0.877925\H,0,3.192067,-1.565518,0.8
 78188\H,0,4.258416,-0.440768,-0.000192\H,0,-4.016737,-1.000104,-0.8809

 Normal termination of Gaussian 16 at Sat Apr  5 22:58:14 2025.
