 Gaussian 16, Revision C.01,

 ----------------------------------------------------------------------
 #t hf aug-cc-pvdz symm=none int=(grid=ultrafine) guess=(read,tcheck) s
 table=(opt,rrhf)
 ----------------------------------------------------------------------
 -----
 title
 -----
 Symbolic Z-matrix:
 Charge =  0 Multiplicity = 1

 SCF Done:  E(RHF) =  -305.927857967     A.U. after   13 cycles
 Normal termination of Gaussian 16 at Sat Apr  5 22:56:58 2025.
 Gaussian 16:  ES64L-G16RevC.01  3-Jul-2019

 ----------------------------------------------------------------------
 #t hf aug-cc-pvdz iop(5/13=1,5/36=2,99/5=2) pseudo=read geom=check gue
 ss=(read,tcheck) scf=(maxcycle=1)
 ----------------------------------------------------------------------
 -----
 title
 -----
 Structure from the checkpoint file:  "butyric_acid.chk"
 Charge =  0 Multiplicity = 1

                         Standard orientation:
 ---------------------------------------------------------------------
 Center     Atomic      Atomic             Coordinates (Angstroms)
 Number     Number       Type             X           Y           Z
 ---------------------------------------------------------------------
      1          6           0       -1.045329   -0.494601    0.000000
      2          6           0        2.460708    1.198934    0.000000
      3          6           0        0.000000    0.591852    0.000000
      4          6           0        1.432695    0.069636    0.000000
      5          8           0       -0.842076   -1.681341    0.000000
      6          8           0       -2.300401    0.024009    0.000000
      7          1           0        2.354021    1.835295    0.881002
      8          1           0        2.354021    1.835295   -0.881002
      9          1           0        3.476451    0.802896    0.000000
     10          1           0       -0.189161    1.228211    0.869185
     11          1           0       -0.189161    1.228211   -0.869185
     12          1           0        1.580358   -0.571042   -0.870771
     13          1           0        1.580358   -0.571042    0.870771
     14          1           0       -2.915516   -0.724098    0.000000
 ---------------------------------------------------------------------

 SCF Done:  E(RHF) =  -306.244539616     A.U. after    2 cycles

 The electronic state is 1-A'.
 Alpha  occ. eigenvalues --  -20.59926 -20.53880 -11.39393 -11.25496 -11.23687
 Alpha  occ. eigenvalues --  -11.23053  -1.54645  -1.45193  -1.08915  -0.98400
 Alpha  occ. eigenvalues --   -0.85785  -0.79071  -0.70748  -0.69364  -0.67123
 Alpha  occ. eigenvalues --   -0.61514  -0.60028  -0.57886  -0.54956  -0.51865
 Alpha  occ. eigenvalues --   -0.50094  -0.48842  -0.47638  -0.44431
 Alpha virt. eigenvalues --    0.03667   0.03790   0.04277   0.04487   0.05921
 Alpha virt. eigenvalues --    0.07181   0.07900   0.07934   0.11275   0.11612
 Alpha virt. eigenvalues --    0.13519   0.13680   0.15119   0.15345   0.15719

 Mulliken charges:
               1
     1  C    2.115679
     2  C   -0.379555
     3  C   -0.563670
     4  C   -0.160270
     5  O   -1.201647
     6  O   -1.321433
     7  H    0.157720
     8  H    0.157720
     9  H    0.117908
    10  H    0.208553
    11  H    0.208553
    12  H    0.119141
    13  H    0.119141
    14  H    0.422161
 Sum of Mulliken charges =  -0.00000

 Dipole moment (field-independent basis, Debye):
    X=             -0.0254    Y=              1.6888    Z=              0.0000  Tot=              1.6890

 Test job not archived.
 1\1\GINC-SE047\SP\RHF\Aug-CC-pVDZ\C4H8O2\OHZDE\05-Apr-2025\0\\#t hf au
 g-cc-pvdz iop(5/13=1,5/36=2,99/5=2) pseudo=read geom=check guess=(read
 ,tcheck) scf=(maxcycle=1)\\title\\0,1\C,0,-1.045329,-0.494601,0.\C,0,2
 .460708,1.198934,0.\C,0,0.,0.591852,0.\C,0,1.432695,0.069636,0.\O,0,-0
 .842076,-1.681341,0.\O,0,-2.300401,0.024009,0.\H,0,2.354021,1.835295,0
 .881002\H,0,2.354021,1.835295,-0.881002\H,0,3.476451,0.802896,0.\H,0,-
 0.189161,1.228211,0.869185\H,0,-0.189161,1.228211,-0.869185\H,0,1.5803
 58,-0.571042,-0.870771\H,0,1.580358,-0.571042,0.870771\H,0,-2.915516,-

 Normal termination of Gaussian 16 at Sat Apr  5 22:57:01 2025.
