 Gaussian 16, Revision C.01,

 ----------------------------------------------------------------------
 #t hf aug-cc-pvdz symm=none int=(grid=ultrafine) guess=(read,tcheck) s
 table=(opt,rrhf)
 ----------------------------------------------------------------------
 -----
 title
 -----
 Symbolic Z-matrix:
 Charge =  0 Multiplicity = 1

 SCF Done:  E(RHF) =  -306.326624159     A.U. after   14 cycles
 Normal termination of Gaussian 16 at Sat Apr  5 22:57:07 2025.
 Gaussian 16:  ES64L-G16RevC.01  3-Jul-2019

 ----------------------------------------------------------------------
 #t hf aug-cc-pvdz iop(5/13=1,5/36=2,99/5=2) pseudo=read geom=check gue
 ss=(read,tcheck) scf=(maxcycle=1)
 ----------------------------------------------------------------------
 -----
 title
 -----
 Structure from the checkpoint file:  "calicene.chk"
 Charge =  0 Multiplicity = 1

                         Standard orientation:
 ---------------------------------------------------------------------
 Center     Atomic      Atomic             Coordinates (Angstroms)
 Number     Number       Type             X           Y           Z
 ---------------------------------------------------------------------
      1          6           0        0.000000   -0.000000   -0.043798
      2          6           0        0.000000    0.000000    1.304624
      3          6           0        0.000000    0.659873    2.562756
      4          6           0       -0.000000   -0.659873    2.562756
      5          6           0        0.000000    1.167314   -0.908995
      6          6           0       -0.000000   -1.167314   -0.908995
      7          6           0        0.000000    0.725289   -2.197208
      8          6           0       -0.000000   -0.725289   -2.197208
      9          1           0        0.000000    1.574226    3.129175
     10          1           0       -0.000000   -1.574226    3.129175
     11          1           0        0.000000    2.191202   -0.569441
     12          1           0       -0.000000   -2.191202   -0.569441
     13          1           0        0.000000    1.344285   -3.081535
     14          1           0       -0.000000   -1.344285   -3.081535
 ---------------------------------------------------------------------

 SCF Done:  E(RHF) =  -306.643432173     A.U. after    2 cycles

 The electronic state is 1-A1.
 Alpha  occ. eigenvalues --  -11.31710 -11.31518 -11.31268 -11.21227 -11.20877
 Alpha  occ. eigenvalues --  -11.20857 -11.20310 -11.20262  -1.25233  -1.13545
 Alpha  occ. eigenvalues --   -0.97706  -0.93999  -0.83283  -0.82082  -0.77358
 Alpha  occ. eigenvalues --   -0.72089  -0.70106  -0.61267  -0.55817  -0.55797
 Alpha  occ. eigenvalues --   -0.54531  -0.54305  -0.50760  -0.47056  -0.46859
 Alpha  occ. eigenvalues --   -0.29157  -0.28429
 Alpha virt. eigenvalues --    0.02311   0.02826   0.04732   0.05115   0.05481
 Alpha virt. eigenvalues --    0.07190   0.07370   0.07439   0.09881   0.10441
 Alpha virt. eigenvalues --    0.11291   0.12185   0.12221   0.12714   0.14127

 Mulliken charges:
               1
     1  C    0.638760
     2  C    1.656412
     3  C   -0.034453
     4  C   -0.034453
     5  C   -0.167901
     6  C   -0.167901
     7  C   -0.093635
     8  C   -0.093635
     9  H   -0.312347
    10  H   -0.312347
    11  H   -0.365652
    12  H   -0.365652
    13  H   -0.173598
    14  H   -0.173598
 Sum of Mulliken charges =  -0.00000

 Dipole moment (field-independent basis, Debye):
    X=              0.0000    Y=              0.0000    Z=              5.2228  Tot=              5.2228

 Test job not archived.
 1\1\GINC-SE055\SP\RHF\Aug-CC-pVDZ\C8H6\OHZDE\05-Apr-2025\0\\#t hf aug-
 cc-pvdz iop(5/13=1,5/36=2,99/5=2) pseudo=read geom=check guess=(read,t
 check) scf=(maxcycle=1)\\title\\0,1\C,0,0.,0.,-0.043798\C,0,0.,0.,1.30
 4624\C,0,0.,0.659873,2.562756\C,0,0.,-0.659873,2.562756\C,0,0.,1.16731
 4,-0.908995\C,0,0.,-1.167314,-0.908995\C,0,0.,0.725289,-2.197208\C,0,0
 .,-0.725289,-2.197208\H,0,0.,1.574226,3.129175\H,0,0.,-1.574226,3.1291
 75\H,0,0.,2.191202,-0.569441\H,0,0.,-2.191202,-0.569441\H,0,0.,1.34428
 5,-3.081535\H,0,0.,-1.344285,-3.081535\\Version=ES64L-G16RevC.01\State

 Normal termination of Gaussian 16 at Sat Apr  5 22:58:09 2025.
