 Gaussian 16, Revision C.01,

 ----------------------------------------------------------------------
 #t hf aug-cc-pvdz symm=none int=(grid=ultrafine) guess=(read,tcheck) s
 table=(opt,rrhf)
 ----------------------------------------------------------------------
 -----
 title
 -----
 Symbolic Z-matrix:
 Charge =  0 Multiplicity = 1

 SCF Done:  E(RHF) =  -1332.03008525     A.U. after   15 cycles
 Normal termination of Gaussian 16 at Sat Apr  5 22:56:44 2025.
 Gaussian 16:  ES64L-G16RevC.01  3-Jul-2019

 ----------------------------------------------------------------------
 #t hf aug-cc-pvdz iop(5/13=1,5/36=2,99/5=2) pseudo=read geom=check gue
 ss=(read,tcheck) scf=(maxcycle=1)
 ----------------------------------------------------------------------
 -----
 title
 -----
 Structure from the checkpoint file:  "carbonochloridodithioic_acid.chk"
 Charge =  0 Multiplicity = 1

                         Standard orientation:
 ---------------------------------------------------------------------
 Center     Atomic      Atomic             Coordinates (Angstroms)
 Number     Number       Type             X           Y           Z
 ---------------------------------------------------------------------
      1         17           0       -0.142353    1.682318    0.000006
      2         16           0        0.908059   -1.112252   -0.000003
      3         16           0       -1.983399   -0.651574   -0.000005
      4          6           0       -0.475009   -0.060877   -0.000000
      5          6           0        2.395894   -0.059942    0.000003
      6          1           0        2.437172    0.555719    0.893120
      7          1           0        3.225785   -0.764724    0.000001
      8          1           0        2.437174    0.555726   -0.893110
 ---------------------------------------------------------------------

 SCF Done:  E(RHF) =  -1332.30272392     A.U. after    2 cycles

 The electronic state is 1-A.
 Alpha  occ. eigenvalues -- -105.60407 -94.00006 -93.94644 -11.41862 -11.29495
 Alpha  occ. eigenvalues --  -10.65212  -8.28150  -8.22952  -7.82154  -7.81746
 Alpha  occ. eigenvalues --   -7.81737  -6.25970  -6.25746  -6.25568  -6.20782
 Alpha  occ. eigenvalues --   -6.20521  -6.20340  -1.19607  -1.08523  -1.04632
 Alpha  occ. eigenvalues --   -0.93459  -0.74472  -0.65144  -0.63271  -0.61885
 Alpha  occ. eigenvalues --   -0.56768  -0.55292  -0.50378  -0.47151  -0.45295
 Alpha  occ. eigenvalues --   -0.36783  -0.36249
 Alpha virt. eigenvalues --    0.02792   0.02908   0.04790   0.05214   0.06727
 Alpha virt. eigenvalues --    0.08525   0.09033   0.10442   0.12555   0.13355
 Alpha virt. eigenvalues --    0.13567   0.13636   0.14777   0.16563   0.16706

 Mulliken charges:
               1
     1  Cl  -0.065478
     2  S    0.722860
     3  S    0.455770
     4  C   -0.979272
     5  C   -0.745452
     6  H    0.236666
     7  H    0.138237
     8  H    0.236668
 Sum of Mulliken charges =  -0.00000

 Dipole moment (field-independent basis, Debye):
    X=              3.6822    Y=              0.6756    Z=              0.0000  Tot=              3.7437

 Test job not archived.
 1\1\GINC-SE179\SP\RHF\Aug-CC-pVDZ\C2H3Cl1S2\OHZDE\05-Apr-2025\0\\#t hf
  aug-cc-pvdz iop(5/13=1,5/36=2,99/5=2) pseudo=read geom=check guess=(r
 ead,tcheck) scf=(maxcycle=1)\\title\\0,1\Cl,0,-0.142353,1.682318,0.000
 006\S,0,0.908059,-1.112252,-0.000003\S,0,-1.983399,-0.651574,-0.000005
 \C,0,-0.475009,-0.060877,0.\C,0,2.395894,-0.059942,0.000003\H,0,2.4371
 72,0.555719,0.89312\H,0,3.225785,-0.764724,0.000001\H,0,2.437174,0.555
 726,-0.89311\\Version=ES64L-G16RevC.01\State=1-A\HF=-1332.3027239\RMSD
 =5.231e-03\Dipole=1.4486903,0.2658183,0.0000027\Quadrupole=2.7482383,-

 Normal termination of Gaussian 16 at Sat Apr  5 22:56:48 2025.
