 Gaussian 16, Revision C.01,

 ----------------------------------------------------------------------
 #t hf aug-cc-pvdz symm=none int=(grid=ultrafine) guess=(read,tcheck) s
 table=(opt,rrhf)
 ----------------------------------------------------------------------
 -----
 title
 -----
 Symbolic Z-matrix:
 Charge =  0 Multiplicity = 1

 SCF Done:  E(RHF) =  -147.926044017     A.U. after   12 cycles
 Normal termination of Gaussian 16 at Sat Apr  5 22:56:31 2025.
 Gaussian 16:  ES64L-G16RevC.01  3-Jul-2019

 ----------------------------------------------------------------------
 #t hf aug-cc-pvdz iop(5/13=1,5/36=2,99/5=2) pseudo=read geom=check gue
 ss=(read,tcheck) scf=(maxcycle=1)
 ----------------------------------------------------------------------
 -----
 title
 -----
 Structure from the checkpoint file:  "carbodiimide.chk"
 Charge =  0 Multiplicity = 1

                         Standard orientation:
 ---------------------------------------------------------------------
 Center     Atomic      Atomic             Coordinates (Angstroms)
 Number     Number       Type             X           Y           Z
 ---------------------------------------------------------------------
      1          6           0        0.000000   -0.000000    0.018127
      2          7           0        0.000000    1.215003   -0.079246
      3          7           0       -0.000000   -1.215003   -0.079246
      4          1           0        0.613213    1.770339    0.500341
      5          1           0       -0.613213   -1.770339    0.500341
 ---------------------------------------------------------------------

 SCF Done:  E(RHF) =  -148.078161677     A.U. after    2 cycles

 The electronic state is 1-A.
 Alpha  occ. eigenvalues --  -15.52224 -15.52158 -11.37554  -1.29060  -1.21885
 Alpha  occ. eigenvalues --   -0.83912  -0.78747  -0.62443  -0.61764  -0.47208
 Alpha  occ. eigenvalues --   -0.47141
 Alpha virt. eigenvalues --    0.02696   0.04826   0.10014   0.10247   0.10917
 Alpha virt. eigenvalues --    0.13808   0.15159   0.15222   0.16601   0.17382
 Alpha virt. eigenvalues --    0.18099   0.20842   0.24980   0.25612   0.29692

 Mulliken charges:
               1
     1  C   -1.211537
     2  N    0.465909
     3  N    0.465909
     4  H    0.139860
     5  H    0.139860
 Sum of Mulliken charges =   0.00000

 Dipole moment (field-independent basis, Debye):
    X=             -0.0000    Y=             -0.0000    Z=              2.2533  Tot=              2.2533

 Test job not archived.
 1\1\GINC-SE129\SP\RHF\Aug-CC-pVDZ\C1H2N2\OHZDE\05-Apr-2025\0\\#t hf au
 g-cc-pvdz iop(5/13=1,5/36=2,99/5=2) pseudo=read geom=check guess=(read
 ,tcheck) scf=(maxcycle=1)\\title\\0,1\C,0,0.,0.,0.018127\N,0,0.,1.2150
 03,-0.079246\N,0,0.,-1.215003,-0.079246\H,0,0.613213,1.770339,0.500341
 \H,0,-0.613213,-1.770339,0.500341\\Version=ES64L-G16RevC.01\State=1-A\
 HF=-148.0781617\RMSD=2.209e-02\Dipole=0.,0.,0.8865289\Quadrupole=0.010
 8739,0.3920258,-0.4028997,3.3601939,0.,0.\PG=C02 [C2(C1),X(H2N2)]\\@

 Normal termination of Gaussian 16 at Sat Apr  5 22:56:37 2025.
