 Gaussian 16, Revision C.01,

 ----------------------------------------------------------------------
 #t hf aug-cc-pvdz symm=none int=(grid=ultrafine) guess=(read,tcheck) s
 table=(opt,rrhf)
 ----------------------------------------------------------------------
 -----
 title
 -----
 Symbolic Z-matrix:
 Charge =  0 Multiplicity = 1

 SCF Done:  E(RHF) =  -656.666260403     A.U. after   14 cycles
 Normal termination of Gaussian 16 at Sat Apr  5 22:56:42 2025.
 Gaussian 16:  ES64L-G16RevC.01  3-Jul-2019

 ----------------------------------------------------------------------
 #t hf aug-cc-pvdz iop(5/13=1,5/36=2,99/5=2) pseudo=read geom=check gue
 ss=(read,tcheck) scf=(maxcycle=1)
 ----------------------------------------------------------------------
 -----
 title
 -----
 Structure from the checkpoint file:  "carbonothioic_dihydrazide.chk"
 Charge =  0 Multiplicity = 1

                         Standard orientation:
 ---------------------------------------------------------------------
 Center     Atomic      Atomic             Coordinates (Angstroms)
 Number     Number       Type             X           Y           Z
 ---------------------------------------------------------------------
      1          6           0       -0.008290   -0.208356   -0.024723
      2         16           0       -1.217170   -1.356869    0.021420
      3          7           0       -0.162614    1.134737   -0.015493
      4          7           0       -1.417749    1.738272    0.008702
      5          7           0        1.302148   -0.610414   -0.099972
      6          7           0        2.364793    0.297605    0.049141
      7          1           0        2.841583    0.157650    0.933495
      8          1           0        3.025732    0.182703   -0.708975
      9          1           0       -1.510815    2.327204    0.825721
     10          1           0       -1.567518    2.280758   -0.832165
     11          1           0        0.681476    1.689836   -0.040769
     12          1           0        1.447958   -1.599522    0.031666
 ---------------------------------------------------------------------

 SCF Done:  E(RHF) =  -656.997796753     A.U. after    2 cycles

 The electronic state is 1-A.
 Alpha  occ. eigenvalues --  -93.87008 -15.56436 -15.56066 -15.55958 -15.53791
 Alpha  occ. eigenvalues --  -11.37037  -8.15312  -6.13202  -6.12841  -6.12763
 Alpha  occ. eigenvalues --   -1.35257  -1.29761  -1.16068  -1.08216  -0.98146
 Alpha  occ. eigenvalues --   -0.84402  -0.80036  -0.77035  -0.75917  -0.74095
 Alpha  occ. eigenvalues --   -0.71617  -0.58124  -0.53209  -0.51644  -0.47896
 Alpha  occ. eigenvalues --   -0.46212  -0.32751  -0.31956
 Alpha virt. eigenvalues --    0.01968   0.03756   0.04903   0.05703   0.05934
 Alpha virt. eigenvalues --    0.06184   0.09859   0.11119   0.11890   0.13676
 Alpha virt. eigenvalues --    0.14030   0.15141   0.15308   0.15569   0.16191

 Mulliken charges:
               1
     1  C   -1.418660
     2  S    0.222281
     3  N    0.185853
     4  N    0.071469
     5  N    0.325392
     6  N   -0.288164
     7  H    0.182051
     8  H    0.168562
     9  H    0.138423
    10  H    0.145824
    11  H    0.099838
    12  H    0.167130
 Sum of Mulliken charges =  -0.00000

 Dipole moment (field-independent basis, Debye):
    X=              5.3421    Y=              4.0072    Z=              0.2820  Tot=              6.6840

 Test job not archived.
 1\1\GINC-SE190\SP\RHF\Aug-CC-pVDZ\C1H6N4S1\OHZDE\05-Apr-2025\0\\#t hf
 aug-cc-pvdz iop(5/13=1,5/36=2,99/5=2) pseudo=read geom=check guess=(re
 ad,tcheck) scf=(maxcycle=1)\\title\\0,1\C,0,-0.00829,-0.208356,-0.0247
 23\S,0,-1.21717,-1.356869,0.02142\N,0,-0.162614,1.134737,-0.015493\N,0
 ,-1.417749,1.738272,0.008702\N,0,1.302148,-0.610414,-0.099972\N,0,2.36
 4793,0.297605,0.049141\H,0,2.841583,0.15765,0.933495\H,0,3.025732,0.18
 2703,-0.708975\H,0,-1.510815,2.327204,0.825721\H,0,-1.567518,2.280758,
 -0.832165\H,0,0.681476,1.689836,-0.040769\H,0,1.447958,-1.599522,0.031

 Normal termination of Gaussian 16 at Sat Apr  5 22:56:46 2025.
