 Gaussian 16, Revision C.01,

 ----------------------------------------------------------------------
 #t hf aug-cc-pvdz symm=none int=(grid=ultrafine) guess=(read,tcheck) s
 table=(opt,rrhf)
 ----------------------------------------------------------------------
 -----
 title
 -----
 Symbolic Z-matrix:
 Charge =  0 Multiplicity = 1

 SCF Done:  E(RHF) =  -263.699428896     A.U. after   12 cycles
 Normal termination of Gaussian 16 at Sat Apr  5 22:56:32 2025.
 Gaussian 16:  ES64L-G16RevC.01  3-Jul-2019

 ----------------------------------------------------------------------
 #t hf aug-cc-pvdz iop(5/13=1,5/36=2,99/5=2) pseudo=read geom=check gue
 ss=(read,tcheck) scf=(maxcycle=1)
 ----------------------------------------------------------------------
 -----
 title
 -----
 Structure from the checkpoint file:  "carbonic_acid.chk"
 Charge =  0 Multiplicity = 1

                         Standard orientation:
 ---------------------------------------------------------------------
 Center     Atomic      Atomic             Coordinates (Angstroms)
 Number     Number       Type             X           Y           Z
 ---------------------------------------------------------------------
      1          6           0        0.000000   -0.000000    0.101922
      2          8           0        0.000000   -0.000000    1.305118
      3          8           0        0.000000    1.088420   -0.679394
      4          8           0       -0.000000   -1.088420   -0.679394
      5          1           0        0.000000    1.854503   -0.091082
      6          1           0       -0.000000   -1.854503   -0.091082
 ---------------------------------------------------------------------

 SCF Done:  E(RHF) =  -263.956038199     A.U. after    2 cycles

 The electronic state is 1-A1.
 Alpha  occ. eigenvalues --  -20.62225 -20.62219 -20.55084 -11.46234  -1.60815
 Alpha  occ. eigenvalues --   -1.50940  -1.47405  -0.91090  -0.75236  -0.74136
 Alpha  occ. eigenvalues --   -0.69089  -0.66887  -0.60875  -0.54687  -0.48828
 Alpha  occ. eigenvalues --   -0.47716
 Alpha virt. eigenvalues --    0.03542   0.04233   0.09032   0.09948   0.12258
 Alpha virt. eigenvalues --    0.14708   0.17509   0.18706   0.19533   0.21428
 Alpha virt. eigenvalues --    0.21895   0.22509   0.22983   0.28440   0.28454

 Mulliken charges:
               1
     1  C    2.393966
     2  O   -0.930648
     3  O   -0.991831
     4  O   -0.991831
     5  H    0.260172
     6  H    0.260172
 Sum of Mulliken charges =  -0.00000

 Dipole moment (field-independent basis, Debye):
    X=              0.0000    Y=              0.0000    Z=             -0.3107  Tot=              0.3107

 Test job not archived.
 1\1\GINC-SE185\SP\RHF\Aug-CC-pVDZ\C1H2O3\OHZDE\05-Apr-2025\0\\#t hf au
 g-cc-pvdz iop(5/13=1,5/36=2,99/5=2) pseudo=read geom=check guess=(read
 ,tcheck) scf=(maxcycle=1)\\title\\0,1\C,0,0.,0.,0.101922\O,0,0.,0.,1.3
 05118\O,0,0.,1.08842,-0.679394\O,0,0.,-1.08842,-0.679394\H,0,0.,1.8545
 03,-0.091082\H,0,0.,-1.854503,-0.091082\\Version=ES64L-G16RevC.01\Stat
 e=1-A1\HF=-263.9560382\RMSD=8.944e-03\Dipole=0.,0.,-0.1222409\Quadrupo
 le=-0.3646301,5.8000661,-5.4354361,0.,0.,0.\PG=C02V [C2(C1O1),SGV(H2O2
 )]\\@

 Normal termination of Gaussian 16 at Sat Apr  5 22:56:38 2025.
