 Gaussian 16, Revision C.01,

 ----------------------------------------------------------------------
 #t hf aug-cc-pvdz symm=none int=(grid=ultrafine) guess=(read,tcheck) s
 table=(opt,rrhf)
 ----------------------------------------------------------------------
 -----
 title
 -----
 Symbolic Z-matrix:
 Charge =  0 Multiplicity = 1

 SCF Done:  E(RHF) =  -311.654004098     A.U. after   12 cycles
 Normal termination of Gaussian 16 at Sat Apr  5 22:56:40 2025.
 Gaussian 16:  ES64L-G16RevC.01  3-Jul-2019

 ----------------------------------------------------------------------
 #t hf aug-cc-pvdz iop(5/13=1,5/36=2,99/5=2) pseudo=read geom=check gue
 ss=(read,tcheck) scf=(maxcycle=1)
 ----------------------------------------------------------------------
 -----
 title
 -----
 Structure from the checkpoint file:  "carbonyl_fluoride.chk"
 Charge =  0 Multiplicity = 1

                         Standard orientation:
 ---------------------------------------------------------------------
 Center     Atomic      Atomic             Coordinates (Angstroms)
 Number     Number       Type             X           Y           Z
 ---------------------------------------------------------------------
      1          8           0        0.000000   -0.000000    1.316315
      2          6           0        0.000000   -0.000000    0.145081
      3          9           0        0.000000    1.065268   -0.633389
      4          9           0       -0.000000   -1.065268   -0.633389
 ---------------------------------------------------------------------

 SCF Done:  E(RHF) =  -311.939450659     A.U. after    2 cycles

 The electronic state is 1-A1.
 Alpha  occ. eigenvalues --  -26.55687 -26.55684 -20.61270 -11.55012  -1.74577
 Alpha  occ. eigenvalues --   -1.66109  -1.56268  -0.94234  -0.85229  -0.80080
 Alpha  occ. eigenvalues --   -0.79708  -0.69896  -0.69430  -0.67527  -0.57056
 Alpha  occ. eigenvalues --   -0.54644
 Alpha virt. eigenvalues --    0.07057   0.08298   0.09249   0.09308   0.15264
 Alpha virt. eigenvalues --    0.21227   0.21647   0.23870   0.25011   0.26426
 Alpha virt. eigenvalues --    0.28452   0.30702   0.32073   0.32410   0.34323

 Mulliken charges:
               1
     1  O   -0.768573
     2  C    1.844941
     3  F   -0.538184
     4  F   -0.538184
 Sum of Mulliken charges =  -0.00000

 Dipole moment (field-independent basis, Debye):
    X=              0.0000    Y=             -0.0000    Z=             -1.1870  Tot=              1.1870

 Test job not archived.
 1\1\GINC-SE232\SP\RHF\Aug-CC-pVDZ\C1F2O1\OHZDE\05-Apr-2025\0\\#t hf au
 g-cc-pvdz iop(5/13=1,5/36=2,99/5=2) pseudo=read geom=check guess=(read
 ,tcheck) scf=(maxcycle=1)\\title\\0,1\O,0,0.,0.,1.316315\C,0,0.,0.,0.1
 45081\F,0,0.,1.065268,-0.633389\F,0,0.,-1.065268,-0.633389\\Version=ES
 64L-G16RevC.01\State=1-A1\HF=-311.9394507\RMSD=5.996e-03\Dipole=0.,0.,
 -0.4669971\Quadrupole=1.7033361,-0.0459493,-1.6573868,0.,0.,0.\PG=C02V
  [C2(C1O1),SGV(F2)]\\@

 Normal termination of Gaussian 16 at Sat Apr  5 22:56:42 2025.
