 Gaussian 16, Revision C.01,

 ----------------------------------------------------------------------
 #t hf aug-cc-pvdz symm=none int=(grid=ultrafine) guess=(read,tcheck) s
 table=(opt,rrhf)
 ----------------------------------------------------------------------
 -----
 title
 -----
 Symbolic Z-matrix:
 Charge =  0 Multiplicity = 1

 SCF Done:  E(RHF) =  -671.698963696     A.U. after   13 cycles
 Normal termination of Gaussian 16 at Sat Apr  5 22:56:32 2025.
 Gaussian 16:  ES64L-G16RevC.01  3-Jul-2019

 ----------------------------------------------------------------------
 #t hf aug-cc-pvdz iop(5/13=1,5/36=2,99/5=2) pseudo=read geom=check gue
 ss=(read,tcheck) scf=(maxcycle=1)
 ----------------------------------------------------------------------
 -----
 title
 -----
 Structure from the checkpoint file:  "carbonic_chloride_fluoride.chk"
 Charge =  0 Multiplicity = 1

                         Standard orientation:
 ---------------------------------------------------------------------
 Center     Atomic      Atomic             Coordinates (Angstroms)
 Number     Number       Type             X           Y           Z
 ---------------------------------------------------------------------
      1          6           0        0.000000    0.510905    0.000000
      2          8           0       -0.797403    1.370426    0.000000
      3         17           0       -0.321199   -1.202070    0.000000
      4          9           0        1.315513    0.711817    0.000000
 ---------------------------------------------------------------------

 SCF Done:  E(RHF) =  -671.968978569     A.U. after    2 cycles

 The electronic state is 1-A'.
 Alpha  occ. eigenvalues -- -105.62992 -26.54509 -20.61372 -11.51740 -10.67844
 Alpha  occ. eigenvalues --   -7.84797  -7.84358  -7.84330  -1.69400  -1.56056
 Alpha  occ. eigenvalues --   -1.14867  -0.88997  -0.77634  -0.76145  -0.75420
 Alpha  occ. eigenvalues --   -0.64649  -0.59701  -0.54214  -0.51506  -0.50584
 Alpha virt. eigenvalues --    0.06221   0.08806   0.09502   0.10116   0.11209
 Alpha virt. eigenvalues --    0.11394   0.14827   0.15390   0.19361   0.22579
 Alpha virt. eigenvalues --    0.24074   0.26046   0.27928   0.31975   0.32114

 Mulliken charges:
               1
     1  C    1.211996
     2  O   -0.733988
     3  Cl   0.036349
     4  F   -0.514357
 Sum of Mulliken charges =  -0.00000

 Dipole moment (field-independent basis, Debye):
    X=              0.5428    Y=             -1.2265    Z=              0.0000  Tot=              1.3412

 Test job not archived.
 1\1\GINC-SE196\SP\RHF\Aug-CC-pVDZ\C1Cl1F1O1\OHZDE\05-Apr-2025\0\\#t hf
  aug-cc-pvdz iop(5/13=1,5/36=2,99/5=2) pseudo=read geom=check guess=(r
 ead,tcheck) scf=(maxcycle=1)\\title\\0,1\C,0,0.,0.510905,0.\O,0,-0.797
 403,1.370426,0.\Cl,0,-0.3212,-1.20207,0.\F,0,1.315513,0.711817,0.\\Ver
 sion=ES64L-G16RevC.01\State=1-A'\HF=-671.9689786\RMSD=5.970e-03\Dipole
 =0.2135674,-0.4825328,0.\Quadrupole=-0.9615492,-0.2979159,1.2594651,1.
 179443,0.,0.\PG=CS [SG(C1Cl1F1O1)]\\@

 Normal termination of Gaussian 16 at Sat Apr  5 22:56:38 2025.
