 Gaussian 16, Revision C.01,

 ----------------------------------------------------------------------
 #t hf aug-cc-pvdz symm=none int=(grid=ultrafine) guess=(read,tcheck) s
 table=(opt,rrhf)
 ----------------------------------------------------------------------
 -----
 title
 -----
 Symbolic Z-matrix:
 Charge =  0 Multiplicity = 1

 SCF Done:  E(RHF) =  -510.299914328     A.U. after   12 cycles
 Normal termination of Gaussian 16 at Sat Apr  5 22:56:38 2025.
 Gaussian 16:  ES64L-G16RevC.01  3-Jul-2019

 ----------------------------------------------------------------------
 #t hf aug-cc-pvdz iop(5/13=1,5/36=2,99/5=2) pseudo=read geom=check gue
 ss=(read,tcheck) scf=(maxcycle=1)
 ----------------------------------------------------------------------
 -----
 title
 -----
 Structure from the checkpoint file:  "carbonyl_sulfide.chk"
 Charge =  0 Multiplicity = 1

                         Standard orientation:
 ---------------------------------------------------------------------
 Center     Atomic      Atomic             Coordinates (Angstroms)
 Number     Number       Type             X           Y           Z
 ---------------------------------------------------------------------
      1          6           0        0.000000    0.000000   -0.527573
      2          8           0        0.000000    0.000000   -1.683489
      3         16           0        0.000000    0.000000    1.039584
 ---------------------------------------------------------------------

 SCF Done:  E(RHF) =  -510.459932121     A.U. after    2 cycles

 The electronic state is 1-SG.
 Alpha  occ. eigenvalues --  -93.98941 -20.65060 -11.45163  -8.27274  -6.25168
 Alpha  occ. eigenvalues --   -6.24698  -6.24698  -1.59392  -1.12777  -0.78994
 Alpha  occ. eigenvalues --   -0.66202  -0.66202  -0.64880  -0.42735  -0.42735
 Alpha virt. eigenvalues --    0.06171   0.07582   0.09181   0.09181   0.10653
 Alpha virt. eigenvalues --    0.10653   0.12208   0.15147   0.15147   0.22581
 Alpha virt. eigenvalues --    0.24587   0.28175   0.28175   0.29908   0.32541

 Mulliken charges:
               1
     1  C   -0.011307
     2  O   -0.536426
     3  S    0.547733
 Sum of Mulliken charges =  -0.00000

 Dipole moment (field-independent basis, Debye):
    X=              0.0000    Y=              0.0000    Z=              0.4262  Tot=              0.4262

 Test job not archived.
 1\1\GINC-SE198\SP\RHF\Aug-CC-pVDZ\C1O1S1\OHZDE\05-Apr-2025\0\\#t hf au
 g-cc-pvdz iop(5/13=1,5/36=2,99/5=2) pseudo=read geom=check guess=(read
 ,tcheck) scf=(maxcycle=1)\\title\\0,1\C,0,0.,0.,-0.527573\O,0,0.,0.,-1
 .683489\S,0,0.,0.,1.039584\\Version=ES64L-G16RevC.01\State=1-SG\HF=-51
 0.4599321\RMSD=7.568e-03\Dipole=0.,0.,0.167666\Quadrupole=0.2290987,0.
 2290987,-0.4581973,0.,0.,0.\PG=C*V [C*(O1C1S1)]\\@

 Normal termination of Gaussian 16 at Sat Apr  5 22:56:39 2025.
