 Gaussian 16, Revision C.01,

 ----------------------------------------------------------------------
 #t hf aug-cc-pvdz symm=none int=(grid=ultrafine) guess=(read,tcheck) s
 table=(opt,rrhf)
 ----------------------------------------------------------------------
 -----
 title
 -----
 Symbolic Z-matrix:
 Charge =  0 Multiplicity = 1

 SCF Done:  E(RHF) =  -832.930765530     A.U. after   10 cycles
 Normal termination of Gaussian 16 at Sat Apr  5 22:56:39 2025.
 Gaussian 16:  ES64L-G16RevC.01  3-Jul-2019

 ----------------------------------------------------------------------
 #t hf aug-cc-pvdz iop(5/13=1,5/36=2,99/5=2) pseudo=read geom=check gue
 ss=(read,tcheck) scf=(maxcycle=1)
 ----------------------------------------------------------------------
 -----
 title
 -----
 Structure from the checkpoint file:  "carbon_disulfide.chk"
 Charge =  0 Multiplicity = 1

                         Standard orientation:
 ---------------------------------------------------------------------
 Center     Atomic      Atomic             Coordinates (Angstroms)
 Number     Number       Type             X           Y           Z
 ---------------------------------------------------------------------
      1          6           0        0.000000    0.000000    0.000000
      2         16           0        0.000000    0.000000    1.557501
      3         16           0        0.000000    0.000000   -1.557501
 ---------------------------------------------------------------------

 SCF Done:  E(RHF) =  -833.076917068     A.U. after    2 cycles

 The electronic state is 1-SGG.
 Alpha  occ. eigenvalues --  -93.99030 -93.99017 -11.41304  -8.27439  -8.27290
 Alpha  occ. eigenvalues --   -6.25219  -6.25208  -6.24823  -6.24823  -6.24817
 Alpha  occ. eigenvalues --   -6.24817  -1.17569  -1.06685  -0.69819  -0.59599
 Alpha  occ. eigenvalues --   -0.53820  -0.53820  -0.38379  -0.38379
 Alpha virt. eigenvalues --    0.03566   0.03566   0.06620   0.06724   0.10576
 Alpha virt. eigenvalues --    0.11627   0.11627   0.13358   0.13358   0.15685
 Alpha virt. eigenvalues --    0.18589   0.18589   0.21983   0.27520   0.30491

 Mulliken charges:
               1
     1  C   -0.755279
     2  S    0.377639
     3  S    0.377639
 Sum of Mulliken charges =   0.00000

 Dipole moment (field-independent basis, Debye):
    X=              0.0000    Y=              0.0000    Z=             -0.0000  Tot=              0.0000

 Test job not archived.
 1\1\GINC-SE175\SP\RHF\Aug-CC-pVDZ\C1S2\OHZDE\05-Apr-2025\0\\#t hf aug-
 cc-pvdz iop(5/13=1,5/36=2,99/5=2) pseudo=read geom=check guess=(read,t
 check) scf=(maxcycle=1)\\title\\0,1\C,0,0.,0.,0.\S,0,0.,0.,1.557501\S,
 0,0.,0.,-1.557501\\Version=ES64L-G16RevC.01\State=1-SGG\HF=-833.076917
 1\RMSD=7.184e-03\Dipole=0.,0.,0.\Quadrupole=-0.860829,-0.860829,1.7216
 581,0.,0.,0.\PG=D*H [O(C1),C*(S1.S1)]\\@

 Normal termination of Gaussian 16 at Sat Apr  5 22:56:40 2025.
