 Gaussian 16, Revision C.01,

 ----------------------------------------------------------------------
 #t hf aug-cc-pvdz symm=none int=(grid=ultrafine) guess=(read,tcheck) s
 table=(opt,rrhf)
 ----------------------------------------------------------------------
 -----
 title
 -----
 Symbolic Z-matrix:
 Charge =  0 Multiplicity = 1

 SCF Done:  E(RHF) =  -187.662759194     A.U. after   10 cycles
 Normal termination of Gaussian 16 at Sat Apr  5 22:56:39 2025.
 Gaussian 16:  ES64L-G16RevC.01  3-Jul-2019

 ----------------------------------------------------------------------
 #t hf aug-cc-pvdz iop(5/13=1,5/36=2,99/5=2) pseudo=read geom=check gue
 ss=(read,tcheck) scf=(maxcycle=1)
 ----------------------------------------------------------------------
 -----
 title
 -----
 Structure from the checkpoint file:  "carbon_dioxide.chk"
 Charge =  0 Multiplicity = 1

                         Standard orientation:
 ---------------------------------------------------------------------
 Center     Atomic      Atomic             Coordinates (Angstroms)
 Number     Number       Type             X           Y           Z
 ---------------------------------------------------------------------
      1          6           0        0.000000    0.000000    0.000000
      2          8           0        0.000000    0.000000    1.160386
      3          8           0        0.000000    0.000000   -1.160386
 ---------------------------------------------------------------------

 SCF Done:  E(RHF) =  -187.835877077     A.U. after    2 cycles

 The electronic state is 1-SGG.
 Alpha  occ. eigenvalues --  -20.64139 -20.64125 -11.47659  -1.60908  -1.57175
 Alpha  occ. eigenvalues --   -0.81055  -0.74537  -0.71602  -0.71602  -0.53548
 Alpha  occ. eigenvalues --   -0.53548
 Alpha virt. eigenvalues --    0.06015   0.08595   0.08595   0.09478   0.19536
 Alpha virt. eigenvalues --    0.20544   0.20544   0.21144   0.21144   0.25368
 Alpha virt. eigenvalues --    0.26908   0.29780   0.29780   0.37054   0.40028

 Mulliken charges:
               1
     1  C    1.113610
     2  O   -0.556805
     3  O   -0.556805
 Sum of Mulliken charges =   0.00000

 Dipole moment (field-independent basis, Debye):
    X=              0.0000    Y=             -0.0000    Z=              0.0000  Tot=              0.0000

 Test job not archived.
 1\1\GINC-SE165\SP\RHF\Aug-CC-pVDZ\C1O2\OHZDE\05-Apr-2025\0\\#t hf aug-
 cc-pvdz iop(5/13=1,5/36=2,99/5=2) pseudo=read geom=check guess=(read,t
 check) scf=(maxcycle=1)\\title\\0,1\C,0,0.,0.,0.\O,0,0.,0.,1.160386\O,
 0,0.,0.,-1.160386\\Version=ES64L-G16RevC.01\State=1-SGG\HF=-187.835877
 1\RMSD=9.624e-03\Dipole=0.,0.,0.\Quadrupole=1.1991561,1.1991561,-2.398
 3121,0.,0.,0.\PG=D*H [O(C1),C*(O1.O1)]\\@

 Normal termination of Gaussian 16 at Sat Apr  5 22:56:40 2025.
