 Gaussian 16, Revision C.01,

 ----------------------------------------------------------------------
 #t hf aug-cc-pvdz symm=none int=(grid=ultrafine) guess=(read,tcheck) s
 table=(opt,rrhf)
 ----------------------------------------------------------------------
 -----
 title
 -----
 Symbolic Z-matrix:
 Charge =  0 Multiplicity = 1

 SCF Done:  E(RHF) =  -696.853890625     A.U. after   12 cycles
 Normal termination of Gaussian 16 at Sat Apr  5 22:56:34 2025.
 Gaussian 16:  ES64L-G16RevC.01  3-Jul-2019

 ----------------------------------------------------------------------
 #t hf aug-cc-pvdz iop(5/13=1,5/36=2,99/5=2) pseudo=read geom=check gue
 ss=(read,tcheck) scf=(maxcycle=1)
 ----------------------------------------------------------------------
 -----
 title
 -----
 Structure from the checkpoint file:  "chlorodifluoromethane.chk"
 Charge =  0 Multiplicity = 1

                         Standard orientation:
 ---------------------------------------------------------------------
 Center     Atomic      Atomic             Coordinates (Angstroms)
 Number     Number       Type             X           Y           Z
 ---------------------------------------------------------------------
      1          6           0        0.570687   -0.092261   -0.000000
      2          9           0        0.570687   -0.879813    1.088316
      3          9           0        0.570687   -0.879813   -1.088316
      4         17           0       -0.890989    0.932054    0.000000
      5          1           0        1.450337    0.545289   -0.000000
 ---------------------------------------------------------------------

 SCF Done:  E(RHF) =  -697.148309971     A.U. after    2 cycles

 The electronic state is 1-A'.
 Alpha  occ. eigenvalues -- -105.59588 -26.51459 -26.51458 -11.50206 -10.64503
 Alpha  occ. eigenvalues --   -7.81439  -7.81022  -7.81019  -1.69039  -1.61767
 Alpha  occ. eigenvalues --   -1.12483  -0.94308  -0.81477  -0.78654  -0.75787
 Alpha  occ. eigenvalues --   -0.67478  -0.63893  -0.63833  -0.55182  -0.49676
 Alpha  occ. eigenvalues --   -0.49402
 Alpha virt. eigenvalues --    0.03596   0.07549   0.09468   0.09479   0.11991
 Alpha virt. eigenvalues --    0.14923   0.15326   0.15813   0.21095   0.23795
 Alpha virt. eigenvalues --    0.24831   0.27266   0.27910   0.30945   0.31803

 Mulliken charges:
               1
     1  C    1.133057
     2  F   -0.585264
     3  F   -0.585264
     4  Cl  -0.117055
     5  H    0.154526
 Sum of Mulliken charges =  -0.00000

 Dipole moment (field-independent basis, Debye):
    X=              1.2736    Y=              0.9159    Z=              0.0000  Tot=              1.5687

 Test job not archived.
 1\1\GINC-SE187\SP\RHF\Aug-CC-pVDZ\C1H1Cl1F2\OHZDE\05-Apr-2025\0\\#t hf
  aug-cc-pvdz iop(5/13=1,5/36=2,99/5=2) pseudo=read geom=check guess=(r
 ead,tcheck) scf=(maxcycle=1)\\title\\0,1\C,0,0.570687,-0.092261,0.\F,0
 ,0.570687,-0.879813,1.088316\F,0,0.570687,-0.879813,-1.088316\Cl,0,-0.
 890989,0.932054,0.\H,0,1.450337,0.545289,0.\\Version=ES64L-G16RevC.01\
 State=1-A'\HF=-697.14831\RMSD=3.831e-03\Dipole=0.5010708,0.3603427,0.\
 Quadrupole=1.8864619,-0.5812264,-1.3052356,0.7999046,0.,0.\PG=CS [SG(C
 1H1Cl1),X(F2)]\\@

 Normal termination of Gaussian 16 at Sat Apr  5 22:56:38 2025.
