 Gaussian 16, Revision C.01,

 ----------------------------------------------------------------------
 #t hf aug-cc-pvdz symm=none int=(grid=ultrafine) guess=(read,tcheck) s
 table=(opt,rrhf)
 ----------------------------------------------------------------------
 -----
 title
 -----
 Symbolic Z-matrix:
 Charge =  0 Multiplicity = 1

 SCF Done:  E(RHF) =  -741.759495885     A.U. after   15 cycles
 Normal termination of Gaussian 16 at Sat Apr  5 22:56:42 2025.
 Gaussian 16:  ES64L-G16RevC.01  3-Jul-2019

 ----------------------------------------------------------------------
 #t hf aug-cc-pvdz iop(5/13=1,5/36=2,99/5=2) pseudo=read geom=check gue
 ss=(read,tcheck) scf=(maxcycle=1)
 ----------------------------------------------------------------------
 -----
 title
 -----
 Structure from the checkpoint file:  "chloroaminoacetic_acid.chk"
 Charge =  0 Multiplicity = 1

                         Standard orientation:
 ---------------------------------------------------------------------
 Center     Atomic      Atomic             Coordinates (Angstroms)
 Number     Number       Type             X           Y           Z
 ---------------------------------------------------------------------
      1         17           0        2.428631   -0.064395    0.032886
      2          8           0       -1.730300    1.196583    0.115542
      3          8           0       -2.527186   -0.891563   -0.130112
      4          7           0        0.770338    0.388259   -0.379853
      5          6           0       -0.158958   -0.592845    0.181441
      6          6           0       -1.598551   -0.146064    0.017450
      7          1           0       -0.003971   -0.777676    1.252540
      8          1           0       -0.042747   -1.538938   -0.340394
      9          1           0        0.644604    1.280659    0.086477
     10          1           0       -2.672033    1.406156    0.024511
 ---------------------------------------------------------------------

 SCF Done:  E(RHF) =  -742.116217583     A.U. after    2 cycles

 The electronic state is 1-A.
 Alpha  occ. eigenvalues -- -105.59564 -20.62380 -20.55951 -15.58230 -11.41828
 Alpha  occ. eigenvalues --  -11.30914 -10.64103  -7.81052  -7.80605  -7.80575
 Alpha  occ. eigenvalues --   -1.57117  -1.47674  -1.26005  -1.05710  -0.96371
 Alpha  occ. eigenvalues --   -0.85803  -0.74698  -0.72939  -0.70730  -0.65130
 Alpha  occ. eigenvalues --   -0.63794  -0.61533  -0.58660  -0.54081  -0.49648
 Alpha  occ. eigenvalues --   -0.48236  -0.45923  -0.43714
 Alpha virt. eigenvalues --    0.03118   0.04509   0.05518   0.05866   0.07148
 Alpha virt. eigenvalues --    0.09671   0.10391   0.11007   0.12019   0.13925
 Alpha virt. eigenvalues --    0.14989   0.15349   0.15924   0.16885   0.17322

 Mulliken charges:
               1
     1  Cl   0.052804
     2  O   -1.250764
     3  O   -1.186007
     4  N   -0.012524
     5  C   -0.690840
     6  C    2.056111
     7  H    0.232016
     8  H    0.125569
     9  H    0.278865
    10  H    0.394769
 Sum of Mulliken charges =   0.00000

 Dipole moment (field-independent basis, Debye):
    X=             -0.4435    Y=              1.4957    Z=              1.4165  Tot=              2.1072

 Test job not archived.
 1\1\GINC-SE042\SP\RHF\Aug-CC-pVDZ\C2H4Cl1N1O2\OHZDE\05-Apr-2025\0\\#t
 hf aug-cc-pvdz iop(5/13=1,5/36=2,99/5=2) pseudo=read geom=check guess=
 (read,tcheck) scf=(maxcycle=1)\\title\\0,1\Cl,0,2.428631,-0.064395,0.0
 32886\O,0,-1.7303,1.196583,0.115542\O,0,-2.527186,-0.891563,-0.130112\
 N,0,0.770338,0.388259,-0.379853\C,0,-0.158958,-0.592845,0.181441\C,0,-
 1.598551,-0.146064,0.01745\H,0,-0.003971,-0.777676,1.25254\H,0,-0.0427
 47,-1.538938,-0.340394\H,0,0.644604,1.280659,0.086477\H,0,-2.672033,1.
 406156,0.024511\\Version=ES64L-G16RevC.01\State=1-A\HF=-742.1162176\RM

 Normal termination of Gaussian 16 at Sat Apr  5 22:56:46 2025.
