 Gaussian 16, Revision C.01,

 ----------------------------------------------------------------------
 #t hf aug-cc-pvdz symm=none int=(grid=ultrafine) guess=(read,tcheck) s
 table=(opt,rrhf)
 ----------------------------------------------------------------------
 -----
 title
 -----
 Symbolic Z-matrix:
 Charge =  0 Multiplicity = 1

 SCF Done:  E(RHF) =  -535.739582690     A.U. after   12 cycles

 1\1\GINC-SE226\Stability\RHF\Aug-CC-pVDZ\C2H1Cl1\OHZDE\05-Apr-2025\0\\
 #t hf aug-cc-pvdz symm=none int=(grid=ultrafine) guess=(read,tcheck) s
 table=(opt,rrhf)\\title\\0,1\C,0,0.,0.,-0.615871\C,0,0.,0.,-1.813601\C
 l,0,0.,0.,1.02653\H,0,0.,0.,-2.874172\\Version=ES64L-G16RevC.01\HF=-53
 5.7395827\RMSD=4.195e-09\Dipole=0.,0.,-0.24535\Quadrupole=-1.925084,-1
 .925084,3.8501679,0.,0.,0.\PG=Unknown\\@
 The archive entry for this job was punched.

 Normal termination of Gaussian 16 at Sat Apr  5 22:56:39 2025.
 Gaussian 16:  ES64L-G16RevC.01  3-Jul-2019

 ----------------------------------------------------------------------
 #t hf aug-cc-pvdz iop(5/13=1,5/36=2,99/5=2) pseudo=read geom=check gue
 ss=(read,tcheck) scf=(maxcycle=1)
 ----------------------------------------------------------------------
 -----
 title
 -----
 Structure from the checkpoint file:  "chloroacetylene.chk"
 Charge =  0 Multiplicity = 1

                         Standard orientation:
 ---------------------------------------------------------------------
 Center     Atomic      Atomic             Coordinates (Angstroms)
 Number     Number       Type             X           Y           Z
 ---------------------------------------------------------------------
      1          6           0        0.000000    0.000000   -0.615871
      2          6           0        0.000000    0.000000   -1.813601
      3         17           0        0.000000    0.000000    1.026530
      4          1           0        0.000000    0.000000   -2.874172
 ---------------------------------------------------------------------

 SCF Done:  E(RHF) =  -535.893178709     A.U. after    2 cycles

 The electronic state is 1-SG.
 Alpha  occ. eigenvalues -- -105.62481 -11.30793 -11.26207 -10.67166  -7.84181
 Alpha  occ. eigenvalues --   -7.83686  -7.83686  -1.16169  -1.02570  -0.75446
 Alpha  occ. eigenvalues --   -0.68459  -0.56245  -0.56245  -0.40698  -0.40698
 Alpha virt. eigenvalues --    0.03612   0.06731   0.09943   0.10356   0.10356
 Alpha virt. eigenvalues --    0.14114   0.14114   0.16341   0.16512   0.16737
 Alpha virt. eigenvalues --    0.16737   0.22632   0.22632   0.23156   0.25761

 Mulliken charges:
               1
     1  C   -0.465478
     2  C    0.620660
     3  Cl  -0.038602
     4  H   -0.116580
 Sum of Mulliken charges =  -0.00000

 Dipole moment (field-independent basis, Debye):
    X=             -0.0000    Y=              0.0000    Z=             -0.6445  Tot=              0.6445

 Test job not archived.
 1\1\GINC-SE226\SP\RHF\Aug-CC-pVDZ\C2H1Cl1\OHZDE\05-Apr-2025\0\\#t hf a
 ug-cc-pvdz iop(5/13=1,5/36=2,99/5=2) pseudo=read geom=check guess=(rea
 d,tcheck) scf=(maxcycle=1)\\title\\0,1\C,0,0.,0.,-0.615871\C,0,0.,0.,-
 1.813601\Cl,0,0.,0.,1.02653\H,0,0.,0.,-2.874172\\Version=ES64L-G16RevC
 .01\State=1-SG\HF=-535.8931787\RMSD=1.794e-02\Dipole=0.,0.,-0.2535466\
 Quadrupole=-1.9911792,-1.9911792,3.9823585,0.,0.,0.\PG=C*V [C*(H1C1C1C
 l1)]\\@

 Normal termination of Gaussian 16 at Sat Apr  5 22:56:41 2025.
