 Gaussian 16, Revision C.01,

 ----------------------------------------------------------------------
 #t hf aug-cc-pvdz symm=none int=(grid=ultrafine) guess=(read,tcheck) s
 table=(opt,rrhf)
 ----------------------------------------------------------------------
 -----
 title
 -----
 Symbolic Z-matrix:
 Charge =  0 Multiplicity = 1

 SCF Done:  E(RHF) =  -536.967907115     A.U. after   13 cycles

 1\1\GINC-SE220\Stability\RHF\Aug-CC-pVDZ\C2H3Cl1\OHZDE\05-Apr-2025\0\\
 #t hf aug-cc-pvdz symm=none int=(grid=ultrafine) guess=(read,tcheck) s
 table=(opt,rrhf)\\title\\0,1\C,0,1.289018,1.047846,0.\C,0,0.,0.763426,
 0.\Cl,0,-0.623753,-0.866823,0.\H,0,1.603767,2.08231,0.\H,0,2.051033,0.
 282196,0.\H,0,-0.785113,1.503855,0.\\Version=ES64L-G16RevC.01\HF=-536.
 9679071\RMSD=2.016e-09\Dipole=0.3023211,0.6222077,0.\Quadrupole=0.9887
 49,1.1488569,-2.1376059,-0.103935,0.,0.\PG=Unknown\\@
 The archive entry for this job was punched.

 Normal termination of Gaussian 16 at Sat Apr  5 22:56:40 2025.
 Gaussian 16:  ES64L-G16RevC.01  3-Jul-2019

 ----------------------------------------------------------------------
 #t hf aug-cc-pvdz iop(5/13=1,5/36=2,99/5=2) pseudo=read geom=check gue
 ss=(read,tcheck) scf=(maxcycle=1)
 ----------------------------------------------------------------------
 -----
 title
 -----
 Structure from the checkpoint file:  "chloroethene.chk"
 Charge =  0 Multiplicity = 1

                         Standard orientation:
 ---------------------------------------------------------------------
 Center     Atomic      Atomic             Coordinates (Angstroms)
 Number     Number       Type             X           Y           Z
 ---------------------------------------------------------------------
      1          6           0        1.289018    1.047846    0.000000
      2          6           0        0.000000    0.763426    0.000000
      3         17           0       -0.623753   -0.866823    0.000000
      4          1           0        1.603767    2.082310    0.000000
      5          1           0        2.051033    0.282196    0.000000
      6          1           0       -0.785113    1.503855    0.000000
 ---------------------------------------------------------------------

 SCF Done:  E(RHF) =  -537.127172594     A.U. after    2 cycles

 The electronic state is 1-A'.
 Alpha  occ. eigenvalues -- -105.57313 -11.31338 -11.25896 -10.62142  -7.79097
 Alpha  occ. eigenvalues --   -7.78696  -7.78692  -1.13307  -1.00583  -0.79826
 Alpha  occ. eigenvalues --   -0.67545  -0.63034  -0.53951  -0.52060  -0.46488
 Alpha  occ. eigenvalues --   -0.38386
 Alpha virt. eigenvalues --    0.03652   0.04573   0.05330   0.09096   0.09133
 Alpha virt. eigenvalues --    0.12279   0.12347   0.14762   0.15756   0.16392
 Alpha virt. eigenvalues --    0.16814   0.18540   0.18724   0.18984   0.21448

 Mulliken charges:
               1
     1  C    0.250007
     2  C   -0.002035
     3  Cl  -0.193235
     4  H   -0.027076
     5  H    0.016127
     6  H   -0.043788
 Sum of Mulliken charges =  -0.00000

 Dipole moment (field-independent basis, Debye):
    X=              0.7745    Y=              1.5829    Z=              0.0000  Tot=              1.7622

 Test job not archived.
 1\1\GINC-SE220\SP\RHF\Aug-CC-pVDZ\C2H3Cl1\OHZDE\05-Apr-2025\0\\#t hf a
 ug-cc-pvdz iop(5/13=1,5/36=2,99/5=2) pseudo=read geom=check guess=(rea
 d,tcheck) scf=(maxcycle=1)\\title\\0,1\C,0,1.289018,1.047846,0.\C,0,0.
 ,0.763426,0.\Cl,0,-0.623753,-0.866823,0.\H,0,1.603767,2.08231,0.\H,0,2
 .051033,0.282196,0.\H,0,-0.785113,1.503855,0.\\Version=ES64L-G16RevC.0
 1\State=1-A'\HF=-537.1271726\RMSD=1.041e-02\Dipole=0.3046984,0.6227752
 ,0.\Quadrupole=1.032677,1.1913235,-2.2240004,-0.0684213,0.,0.\PG=CS [S
 G(C2H3Cl1)]\\@

 Normal termination of Gaussian 16 at Sat Apr  5 22:56:42 2025.
