 Gaussian 16, Revision C.01,

 ----------------------------------------------------------------------
 #t hf aug-cc-pvdz symm=none int=(grid=ultrafine) guess=(read,tcheck) s
 table=(opt,rrhf)
 ----------------------------------------------------------------------
 -----
 title
 -----
 Symbolic Z-matrix:
 Charge =  0 Multiplicity = 1

 SCF Done:  E(RHF) =  -590.854739982     A.U. after   14 cycles
 Normal termination of Gaussian 16 at Sat Apr  5 22:56:41 2025.
 Gaussian 16:  ES64L-G16RevC.01  3-Jul-2019

 ----------------------------------------------------------------------
 #t hf aug-cc-pvdz iop(5/13=1,5/36=2,99/5=2) pseudo=read geom=check gue
 ss=(read,tcheck) scf=(maxcycle=1)
 ----------------------------------------------------------------------
 -----
 title
 -----
 Structure from the checkpoint file:  "chloroacetonitrile.chk"
 Charge =  0 Multiplicity = 1

                         Standard orientation:
 ---------------------------------------------------------------------
 Center     Atomic      Atomic             Coordinates (Angstroms)
 Number     Number       Type             X           Y           Z
 ---------------------------------------------------------------------
      1         17           0       -1.385401   -0.338103    0.000000
      2          7           0        2.297547   -0.400037    0.000000
      3          6           0        0.000000    0.819137    0.000000
      4          6           0        1.275830    0.126036    0.000000
      5          1           0       -0.092993    1.438487    0.887765
      6          1           0       -0.092993    1.438487   -0.887765
 ---------------------------------------------------------------------

 SCF Done:  E(RHF) =  -591.060784927     A.U. after    2 cycles

 The electronic state is 1-A'.
 Alpha  occ. eigenvalues -- -105.59597 -15.53790 -11.37249 -11.30460 -10.64360
 Alpha  occ. eigenvalues --   -7.81310  -7.80894  -7.80885  -1.25962  -1.15011
 Alpha  occ. eigenvalues --   -0.98746  -0.75187  -0.69764  -0.63139  -0.61882
 Alpha  occ. eigenvalues --   -0.52641  -0.51890  -0.48655  -0.47932
 Alpha virt. eigenvalues --    0.02717   0.04431   0.06081   0.07087   0.11048
 Alpha virt. eigenvalues --    0.11705   0.11929   0.12939   0.13968   0.14841
 Alpha virt. eigenvalues --    0.15206   0.15465   0.16787   0.17570   0.20088

 Mulliken charges:
               1
     1  Cl   0.000193
     2  N    0.709521
     3  C   -0.263289
     4  C   -1.086225
     5  H    0.319900
     6  H    0.319900
 Sum of Mulliken charges =   0.00000

 Dipole moment (field-independent basis, Debye):
    X=             -2.5191    Y=              3.0974    Z=              0.0000  Tot=              3.9925

 Test job not archived.
 1\1\GINC-SE213\SP\RHF\Aug-CC-pVDZ\C2H2Cl1N1\OHZDE\05-Apr-2025\0\\#t hf
  aug-cc-pvdz iop(5/13=1,5/36=2,99/5=2) pseudo=read geom=check guess=(r
 ead,tcheck) scf=(maxcycle=1)\\title\\0,1\Cl,0,-1.385401,-0.338103,0.\N
 ,0,2.297547,-0.400037,0.\C,0,0.,0.819137,0.\C,0,1.27583,0.126036,0.\H,
 0,-0.092993,1.438487,0.887765\H,0,-0.092993,1.438487,-0.887765\\Versio
 n=ES64L-G16RevC.01\State=1-A'\HF=-591.0607849\RMSD=1.801e-02\Dipole=-0
 .9910959,1.2186169,0.\Quadrupole=-6.1987078,3.6696689,2.5290388,1.9704
 706,0.,0.\PG=CS [SG(C2Cl1N1),X(H2)]\\@

 Normal termination of Gaussian 16 at Sat Apr  5 22:56:42 2025.
