 Gaussian 16, Revision C.01,

 ----------------------------------------------------------------------
 #t hf aug-cc-pvdz symm=none int=(grid=ultrafine) guess=(read,tcheck) s
 table=(opt,rrhf)
 ----------------------------------------------------------------------
 -----
 title
 -----
 Symbolic Z-matrix:
 Charge =  0 Multiplicity = 1

 SCF Done:  E(RHF) =  -728.693189594     A.U. after   15 cycles

 1\1\GINC-SE107\Stability\RHF\Aug-CC-pVDZ\C7H7Cl1\OHZDE\05-Apr-2025\0\\
 #t hf aug-cc-pvdz symm=none int=(grid=ultrafine) guess=(read,tcheck) s
 table=(opt,rrhf)\\title\\0,1\C,0,0.420637,2.644566,0.\C,0,0.421753,1.9
 47096,1.20309\C,0,0.421753,1.947096,-1.20309\C,0,0.421753,0.558318,1.2
 01822\C,0,0.421753,0.558318,-1.201822\C,0,0.421492,-0.150366,0.\C,0,0.
 42614,-1.643412,0.\Cl,0,-1.272788,-2.340959,0.\H,0,0.421639,3.726146,0
 .\H,0,0.424437,2.484779,2.141585\H,0,0.424437,2.484779,-2.141585\H,0,0
 .419754,0.018155,2.140045\H,0,0.419754,0.018155,-2.140045\H,0,0.897849

 Normal termination of Gaussian 16 at Sat Apr  5 22:57:24 2025.
 Gaussian 16:  ES64L-G16RevC.01  3-Jul-2019

 ----------------------------------------------------------------------
 #t hf aug-cc-pvdz iop(5/13=1,5/36=2,99/5=2) pseudo=read geom=check gue
 ss=(read,tcheck) scf=(maxcycle=1)
 ----------------------------------------------------------------------
 -----
 title
 -----
 Structure from the checkpoint file:  "chloromethylbenzene.chk"
 Charge =  0 Multiplicity = 1

                         Standard orientation:
 ---------------------------------------------------------------------
 Center     Atomic      Atomic             Coordinates (Angstroms)
 Number     Number       Type             X           Y           Z
 ---------------------------------------------------------------------
      1          6           0        0.420637    2.644566    0.000000
      2          6           0        0.421753    1.947096    1.203090
      3          6           0        0.421753    1.947096   -1.203090
      4          6           0        0.421753    0.558318    1.201822
      5          6           0        0.421753    0.558318   -1.201822
      6          6           0        0.421492   -0.150366    0.000000
      7          6           0        0.426140   -1.643412   -0.000000
      8         17           0       -1.272788   -2.340959   -0.000000
      9          1           0        0.421639    3.726146    0.000000
     10          1           0        0.424437    2.484779    2.141585
     11          1           0        0.424437    2.484779   -2.141585
     12          1           0        0.419754    0.018155    2.140045
     13          1           0        0.419754    0.018155   -2.140045
     14          1           0        0.897849   -2.052701    0.887296
     15          1           0        0.897849   -2.052701   -0.887296
 ---------------------------------------------------------------------

 SCF Done:  E(RHF) =  -729.050186355     A.U. after    2 cycles

 The electronic state is 1-A'.
 Alpha  occ. eigenvalues -- -105.55137 -11.31218 -11.25968 -11.25208 -11.25195
 Alpha  occ. eigenvalues --  -11.25135 -11.25026 -11.25025 -10.59908  -7.76841
 Alpha  occ. eigenvalues --   -7.76474  -7.76468  -1.17508  -1.10247  -1.02839
 Alpha  occ. eigenvalues --   -1.02227  -0.91398  -0.84913  -0.81818  -0.72213
 Alpha  occ. eigenvalues --   -0.67616  -0.65922  -0.61239  -0.61131  -0.59855
 Alpha  occ. eigenvalues --   -0.57086  -0.52432  -0.51342  -0.50891  -0.44395
 Alpha  occ. eigenvalues --   -0.44170  -0.35580  -0.35039
 Alpha virt. eigenvalues --    0.03288   0.03507   0.03641   0.04912   0.05133
 Alpha virt. eigenvalues --    0.07287   0.08018   0.08331   0.08850   0.09856
 Alpha virt. eigenvalues --    0.10973   0.11907   0.12792   0.13778   0.14210

 Mulliken charges:
               1
     1  C   -0.072279
     2  C    0.266708
     3  C    0.266708
     4  C   -0.039827
     5  C   -0.039827
     6  C    1.644289
     7  C   -0.861691
     8  Cl  -0.088702
     9  H   -0.214422
    10  H   -0.228650
    11  H   -0.228650
    12  H   -0.274518
    13  H   -0.274518
    14  H    0.072689
    15  H    0.072689
 Sum of Mulliken charges =  -0.00000

 Dipole moment (field-independent basis, Debye):
    X=              2.0243    Y=              1.3947    Z=             -0.0000  Tot=              2.4582

 Test job not archived.
 1\1\GINC-SE107\SP\RHF\Aug-CC-pVDZ\C7H7Cl1\OHZDE\05-Apr-2025\0\\#t hf a
 ug-cc-pvdz iop(5/13=1,5/36=2,99/5=2) pseudo=read geom=check guess=(rea
 d,tcheck) scf=(maxcycle=1)\\title\\0,1\C,0,0.420637,2.644566,0.\C,0,0.
 421753,1.947096,1.20309\C,0,0.421753,1.947096,-1.20309\C,0,0.421753,0.
 558318,1.201822\C,0,0.421753,0.558318,-1.201822\C,0,0.421492,-0.150366
 ,0.\C,0,0.42614,-1.643412,0.\Cl,0,-1.272788,-2.340959,0.\H,0,0.421639,
 3.726146,0.\H,0,0.424437,2.484779,2.141585\H,0,0.424437,2.484779,-2.14
 1585\H,0,0.419754,0.018155,2.140045\H,0,0.419754,0.018155,-2.140045\H,

 Normal termination of Gaussian 16 at Sat Apr  5 22:58:10 2025.
