 Gaussian 16, Revision C.01,

 ----------------------------------------------------------------------
 #t hf aug-cc-pvdz symm=none int=(grid=ultrafine) guess=(read,tcheck) s
 table=(opt,rrhf)
 ----------------------------------------------------------------------
 -----
 title
 -----
 Symbolic Z-matrix:
 Charge =  0 Multiplicity = 1

 SCF Done:  E(RHF) =  -611.858883127     A.U. after   14 cycles
 Normal termination of Gaussian 16 at Sat Apr  5 22:56:34 2025.
 Gaussian 16:  ES64L-G16RevC.01  3-Jul-2019

 ----------------------------------------------------------------------
 #t hf aug-cc-pvdz iop(5/13=1,5/36=2,99/5=2) pseudo=read geom=check gue
 ss=(read,tcheck) scf=(maxcycle=1)
 ----------------------------------------------------------------------
 -----
 title
 -----
 Structure from the checkpoint file:  "chloroacetaldehyde.chk"
 Charge =  0 Multiplicity = 1

                         Standard orientation:
 ---------------------------------------------------------------------
 Center     Atomic      Atomic             Coordinates (Angstroms)
 Number     Number       Type             X           Y           Z
 ---------------------------------------------------------------------
      1          6           0        0.028542    0.674903    0.133473
      2          6           0        1.166085   -0.321837    0.199900
      3         17           0       -1.550178   -0.167557   -0.077281
      4          8           0        2.264073   -0.071400   -0.217240
      5          1           0       -0.023974    1.228514    1.070602
      6          1           0        0.172885    1.363727   -0.692610
      7          1           0        0.923765   -1.290966    0.673464
 ---------------------------------------------------------------------

 SCF Done:  E(RHF) =  -612.087904850     A.U. after    2 cycles

 The electronic state is 1-A.
 Alpha  occ. eigenvalues -- -105.58175 -20.57343 -11.36881 -11.33142 -10.62968
 Alpha  occ. eigenvalues --   -7.79911  -7.79527  -7.79514  -1.50531  -1.13447
 Alpha  occ. eigenvalues --   -0.97112  -0.83495  -0.70143  -0.67094  -0.65683
 Alpha  occ. eigenvalues --   -0.58186  -0.53651  -0.48611  -0.46811  -0.43854
 Alpha virt. eigenvalues --    0.03600   0.04452   0.05235   0.07095   0.08957
 Alpha virt. eigenvalues --    0.10366   0.12846   0.12970   0.13827   0.14632
 Alpha virt. eigenvalues --    0.15282   0.16462   0.17536   0.18187   0.19363

 Mulliken charges:
               1
     1  C   -0.708481
     2  C    1.030157
     3  Cl  -0.034780
     4  O   -1.059575
     5  H    0.320296
     6  H    0.262898
     7  H    0.189486
 Sum of Mulliken charges =  -0.00000

 Dipole moment (field-independent basis, Debye):
    X=             -0.8820    Y=              0.6517    Z=              1.1455  Tot=              1.5858

 Test job not archived.
 1\1\GINC-SE213\SP\RHF\Aug-CC-pVDZ\C2H3Cl1O1\OHZDE\05-Apr-2025\0\\#t hf
  aug-cc-pvdz iop(5/13=1,5/36=2,99/5=2) pseudo=read geom=check guess=(r
 ead,tcheck) scf=(maxcycle=1)\\title\\0,1\C,0,0.028542,0.674903,0.13347
 3\C,0,1.166085,-0.321837,0.1999\Cl,0,-1.550178,-0.167557,-0.077281\O,0
 ,2.264073,-0.0714,-0.21724\H,0,-0.023974,1.228514,1.070602\H,0,0.17288
 5,1.363727,-0.69261\H,0,0.923765,-1.290966,0.673464\\Version=ES64L-G16
 RevC.01\State=1-A\HF=-612.0879048\RMSD=7.888e-03\Dipole=-0.3470042,0.2
 564123,0.4506702\Quadrupole=-5.5692082,3.2428579,2.3263503,-0.2745552,

 Normal termination of Gaussian 16 at Sat Apr  5 22:56:38 2025.
