 Gaussian 16, Revision C.01,

 ----------------------------------------------------------------------
 #t hf aug-cc-pvdz symm=none int=(grid=ultrafine) guess=(read,tcheck) s
 table=(opt,rrhf)
 ----------------------------------------------------------------------
 -----
 title
 -----
 Symbolic Z-matrix:
 Charge =  0 Multiplicity = 1

 SCF Done:  E(RHF) =  -689.650757456     A.U. after   14 cycles

 1\1\GINC-SE040\Stability\RHF\Aug-CC-pVDZ\C6H5Cl1\OHZDE\05-Apr-2025\0\\
 #t hf aug-cc-pvdz symm=none int=(grid=ultrafine) guess=(read,tcheck) s
 table=(opt,rrhf)\\title\\0,1\C,0,0.,0.,-2.265776\C,0,0.,1.202168,-1.56
 8121\C,0,0.,-1.202168,-1.568121\C,0,0.,1.209985,-0.178204\C,0,0.,-1.20
 9985,-0.178204\C,0,0.,0.,0.5018\Cl,0,0.,0.,2.255827\H,0,0.,0.,-3.34703
 6\H,0,0.,2.141915,-2.103741\H,0,0.,-2.141915,-2.103741\H,0,0.,2.139131
 ,0.372605\H,0,0.,-2.139131,0.372605\\Version=ES64L-G16RevC.01\HF=-689.
 6507575\RMSD=6.695e-09\Dipole=0.,0.,-0.8020912\Quadrupole=-4.0281069,3

 Normal termination of Gaussian 16 at Sat Apr  5 22:56:49 2025.
 Gaussian 16:  ES64L-G16RevC.01  3-Jul-2019

 ----------------------------------------------------------------------
 #t hf aug-cc-pvdz iop(5/13=1,5/36=2,99/5=2) pseudo=read geom=check gue
 ss=(read,tcheck) scf=(maxcycle=1)
 ----------------------------------------------------------------------
 -----
 title
 -----
 Structure from the checkpoint file:  "chlorobenzene.chk"
 Charge =  0 Multiplicity = 1

                         Standard orientation:
 ---------------------------------------------------------------------
 Center     Atomic      Atomic             Coordinates (Angstroms)
 Number     Number       Type             X           Y           Z
 ---------------------------------------------------------------------
      1          6           0        0.000000   -0.000000   -2.265776
      2          6           0        0.000000    1.202168   -1.568121
      3          6           0       -0.000000   -1.202168   -1.568121
      4          6           0        0.000000    1.209985   -0.178204
      5          6           0       -0.000000   -1.209985   -0.178204
      6          6           0        0.000000    0.000000    0.501800
      7         17           0        0.000000    0.000000    2.255827
      8          1           0        0.000000   -0.000000   -3.347036
      9          1           0        0.000000    2.141915   -2.103741
     10          1           0       -0.000000   -2.141915   -2.103741
     11          1           0        0.000000    2.139131    0.372605
     12          1           0       -0.000000   -2.139131    0.372605
 ---------------------------------------------------------------------

 SCF Done:  E(RHF) =  -689.964678376     A.U. after    2 cycles

 The electronic state is 1-A1.
 Alpha  occ. eigenvalues -- -105.57212 -11.31192 -11.25874 -11.25858 -11.25794
 Alpha  occ. eigenvalues --  -11.25753 -11.25379 -10.62019  -7.78984  -7.78587
 Alpha  occ. eigenvalues --   -7.78570  -1.18748  -1.09855  -1.03705  -0.99074
 Alpha  occ. eigenvalues --   -0.85787  -0.83031  -0.72658  -0.66827  -0.65664
 Alpha  occ. eigenvalues --   -0.61872  -0.60352  -0.55536  -0.52988  -0.52465
 Alpha  occ. eigenvalues --   -0.47989  -0.46558  -0.36293  -0.34861
 Alpha virt. eigenvalues --    0.03273   0.03610   0.04233   0.05539   0.06152
 Alpha virt. eigenvalues --    0.08930   0.09167   0.09865   0.11583   0.11638
 Alpha virt. eigenvalues --    0.13154   0.13527   0.14180   0.14331   0.14446

 Mulliken charges:
               1
     1  C   -0.140606
     2  C    0.590146
     3  C    0.590146
     4  C    0.036361
     5  C    0.036361
     6  C    0.157359
     7  Cl  -0.338626
     8  H   -0.205274
     9  H   -0.211383
    10  H   -0.211383
    11  H   -0.151549
    12  H   -0.151549
 Sum of Mulliken charges =  -0.00000

 Dipole moment (field-independent basis, Debye):
    X=             -0.0000    Y=             -0.0000    Z=             -2.0393  Tot=              2.0393

 Test job not archived.
 1\1\GINC-SE040\SP\RHF\Aug-CC-pVDZ\C6H5Cl1\OHZDE\05-Apr-2025\0\\#t hf a
 ug-cc-pvdz iop(5/13=1,5/36=2,99/5=2) pseudo=read geom=check guess=(rea
 d,tcheck) scf=(maxcycle=1)\\title\\0,1\C,0,0.,0.,-2.265776\C,0,0.,1.20
 2168,-1.568121\C,0,0.,-1.202168,-1.568121\C,0,0.,1.209985,-0.178204\C,
 0,0.,-1.209985,-0.178204\C,0,0.,0.,0.5018\Cl,0,0.,0.,2.255827\H,0,0.,0
 .,-3.347036\H,0,0.,2.141915,-2.103741\H,0,0.,-2.141915,-2.103741\H,0,0
 .,2.139131,0.372605\H,0,0.,-2.139131,0.372605\\Version=ES64L-G16RevC.0
 1\State=1-A1\HF=-689.9646784\RMSD=4.037e-02\Dipole=0.,0.,-0.8023355\Qu

 Normal termination of Gaussian 16 at Sat Apr  5 22:56:54 2025.
