 Gaussian 16, Revision C.01,

 ----------------------------------------------------------------------
 #t hf aug-cc-pvdz symm=none int=(grid=ultrafine) guess=(read,tcheck) s
 table=(opt,rrhf)
 ----------------------------------------------------------------------
 -----
 title
 -----
 Symbolic Z-matrix:
 Charge =  0 Multiplicity = 1

 SCF Done:  E(RHF) =  -538.165158826     A.U. after   12 cycles

 1\1\GINC-SE188\Stability\RHF\Aug-CC-pVDZ\C2H5Cl1\OHZDE\05-Apr-2025\0\\
 #t hf aug-cc-pvdz symm=none int=(grid=ultrafine) guess=(read,tcheck) s
 table=(opt,rrhf)\\title\\0,1\C,0,1.506018,0.680611,0.\C,0,0.,0.820714,
 0.\H,0,1.961216,1.673866,0.\H,0,1.851632,0.145961,0.883624\H,0,1.85163
 2,0.145961,-0.883624\Cl,0,-0.821829,-0.80243,0.\H,0,-0.364745,1.333788
 ,0.885068\H,0,-0.364745,1.333788,-0.885068\\Version=ES64L-G16RevC.01\H
 F=-538.1651588\RMSD=2.728e-09\Dipole=0.5127275,0.8280804,0.\Quadrupole
 =-0.5021465,0.4440586,0.0580879,-0.3181496,0.,0.\PG=Unknown\\@

 Normal termination of Gaussian 16 at Sat Apr  5 22:56:34 2025.
 Gaussian 16:  ES64L-G16RevC.01  3-Jul-2019

 ----------------------------------------------------------------------
 #t hf aug-cc-pvdz iop(5/13=1,5/36=2,99/5=2) pseudo=read geom=check gue
 ss=(read,tcheck) scf=(maxcycle=1)
 ----------------------------------------------------------------------
 -----
 title
 -----
 Structure from the checkpoint file:  "chloroethane.chk"
 Charge =  0 Multiplicity = 1

                         Standard orientation:
 ---------------------------------------------------------------------
 Center     Atomic      Atomic             Coordinates (Angstroms)
 Number     Number       Type             X           Y           Z
 ---------------------------------------------------------------------
      1          6           0        1.506018    0.680611    0.000000
      2          6           0        0.000000    0.820714    0.000000
      3          1           0        1.961216    1.673866    0.000000
      4          1           0        1.851632    0.145961    0.883624
      5          1           0        1.851632    0.145961   -0.883624
      6         17           0       -0.821829   -0.802430    0.000000
      7          1           0       -0.364745    1.333788    0.885068
      8          1           0       -0.364745    1.333788   -0.885068
 ---------------------------------------------------------------------

 SCF Done:  E(RHF) =  -538.332036805     A.U. after    2 cycles

 The electronic state is 1-A'.
 Alpha  occ. eigenvalues -- -105.54992 -11.30665 -11.24551 -10.59804  -7.76736
 Alpha  occ. eigenvalues --   -7.76374  -7.76368  -1.11030  -0.98660  -0.84503
 Alpha  occ. eigenvalues --   -0.65934  -0.61874  -0.57350  -0.53780  -0.51317
 Alpha  occ. eigenvalues --   -0.44109  -0.43965
 Alpha virt. eigenvalues --    0.03450   0.04471   0.04652   0.05695   0.07559
 Alpha virt. eigenvalues --    0.09463   0.12232   0.13123   0.14581   0.15113
 Alpha virt. eigenvalues --    0.15899   0.17662   0.18090   0.19053   0.19125

 Mulliken charges:
               1
     1  C   -0.263321
     2  C   -0.610822
     3  H    0.181233
     4  H    0.172760
     5  H    0.172760
     6  Cl  -0.105686
     7  H    0.226538
     8  H    0.226538
 Sum of Mulliken charges =  -0.00000

 Dipole moment (field-independent basis, Debye):
    X=              1.2974    Y=              2.1048    Z=             -0.0000  Tot=              2.4725

 Test job not archived.
 1\1\GINC-SE188\SP\RHF\Aug-CC-pVDZ\C2H5Cl1\OHZDE\05-Apr-2025\0\\#t hf a
 ug-cc-pvdz iop(5/13=1,5/36=2,99/5=2) pseudo=read geom=check guess=(rea
 d,tcheck) scf=(maxcycle=1)\\title\\0,1\C,0,1.506018,0.680611,0.\C,0,0.
 ,0.820714,0.\H,0,1.961216,1.673866,0.\H,0,1.851632,0.145961,0.883624\H
 ,0,1.851632,0.145961,-0.883624\Cl,0,-0.821829,-0.80243,0.\H,0,-0.36474
 5,1.333788,0.885068\H,0,-0.364745,1.333788,-0.885068\\Version=ES64L-G1
 6RevC.01\State=1-A'\HF=-538.3320368\RMSD=6.817e-03\Dipole=0.510424,0.8
 280763,0.\Quadrupole=-0.4829574,0.4509069,0.0320505,-0.3023571,0.,0.\P

 Normal termination of Gaussian 16 at Sat Apr  5 22:56:38 2025.
