 Gaussian 16, Revision C.01,

 ----------------------------------------------------------------------
 #t hf aug-cc-pvdz symm=none int=(grid=ultrafine) guess=(read,tcheck) s
 table=(opt,rrhf)
 ----------------------------------------------------------------------
 -----
 title
 -----
 Symbolic Z-matrix:
 Charge =  0 Multiplicity = 1

 SCF Done:  E(RHF) =  -1180.52956281     A.U. after   15 cycles
 Normal termination of Gaussian 16 at Sat Apr  5 22:56:52 2025.
 Gaussian 16:  ES64L-G16RevC.01  3-Jul-2019

 ----------------------------------------------------------------------
 #t hf aug-cc-pvdz iop(5/13=1,5/36=2,99/5=2) pseudo=read geom=check gue
 ss=(read,tcheck) scf=(maxcycle=1)
 ----------------------------------------------------------------------
 -----
 title
 -----
 Structure from the checkpoint file:  "chlorochloromethylmalononitrile.chk"
 Charge =  0 Multiplicity = 1

                         Standard orientation:
 ---------------------------------------------------------------------
 Center     Atomic      Atomic             Coordinates (Angstroms)
 Number     Number       Type             X           Y           Z
 ---------------------------------------------------------------------
      1         17           0        0.454804   -1.139246    1.304813
      2         17           0       -2.281823   -0.133492   -0.404658
      3          7           0        0.212305    2.469029    0.884988
      4          7           0        2.741580   -0.189879   -1.346088
      5          6           0        0.469741    0.052344   -0.074733
      6          6           0       -0.644368   -0.282574   -1.092678
      7          6           0        0.324538    1.401661    0.476873
      8          6           0        1.759694   -0.075093   -0.761062
      9          1           0       -0.569014    0.407136   -1.929326
     10          1           0       -0.506489   -1.302670   -1.436011
 ---------------------------------------------------------------------

 SCF Done:  E(RHF) =  -1180.93205842     A.U. after    2 cycles

 The electronic state is 1-A.
 Alpha  occ. eigenvalues -- -105.62578-105.60290 -15.57151 -15.56547 -11.44782
 Alpha  occ. eigenvalues --  -11.37479 -11.33499 -11.32904 -10.67291 -10.65080
 Alpha  occ. eigenvalues --   -7.84243  -7.83807  -7.83801  -7.82038  -7.81632
 Alpha  occ. eigenvalues --   -7.81612  -1.30060  -1.28117  -1.22433  -1.13125
 Alpha  occ. eigenvalues --   -1.04875  -0.94456  -0.85302  -0.74340  -0.70383
 Alpha  occ. eigenvalues --   -0.66165  -0.65688  -0.64137  -0.61031  -0.56630
 Alpha  occ. eigenvalues --   -0.56059  -0.54690  -0.54095  -0.51332  -0.51201
 Alpha  occ. eigenvalues --   -0.49157  -0.48641
 Alpha virt. eigenvalues --    0.02858   0.03699   0.04373   0.06124   0.06378
 Alpha virt. eigenvalues --    0.08072   0.09227   0.09596   0.10020   0.11464
 Alpha virt. eigenvalues --    0.12444   0.12667   0.13182   0.13951   0.14413

 Mulliken charges:
               1
     1  Cl   0.138600
     2  Cl   0.021403
     3  N    0.968293
     4  N    0.958224
     5  C   -0.627236
     6  C   -0.051649
     7  C   -1.024834
     8  C   -0.989370
     9  H    0.316290
    10  H    0.290280
 Sum of Mulliken charges =  -0.00000

 Dipole moment (field-independent basis, Debye):
    X=             -1.9532    Y=             -2.6973    Z=             -1.2733  Tot=              3.5654

 Test job not archived.
 1\1\GINC-SE040\SP\RHF\Aug-CC-pVDZ\C4H2Cl2N2\OHZDE\05-Apr-2025\0\\#t hf
  aug-cc-pvdz iop(5/13=1,5/36=2,99/5=2) pseudo=read geom=check guess=(r
 ead,tcheck) scf=(maxcycle=1)\\title\\0,1\Cl,0,0.454804,-1.139246,1.304
 813\Cl,0,-2.281823,-0.133493,-0.404658\N,0,0.212304,2.469029,0.884988\
 N,0,2.74158,-0.189878,-1.346088\C,0,0.469741,0.052344,-0.074733\C,0,-0
 .644368,-0.282574,-1.092678\C,0,0.324537,1.401661,0.476873\C,0,1.75969
 4,-0.075092,-0.761062\H,0,-0.569014,0.407136,-1.929326\H,0,-0.506489,-
 1.30267,-1.436011\\Version=ES64L-G16RevC.01\State=1-A\HF=-1180.9320584

 Normal termination of Gaussian 16 at Sat Apr  5 22:56:57 2025.
