 Gaussian 16, Revision C.01,

 ----------------------------------------------------------------------
 #t hf aug-cc-pvdz symm=none int=(grid=ultrafine) guess=(read,tcheck) s
 table=(opt,rrhf)
 ----------------------------------------------------------------------
 -----
 title
 -----
 Symbolic Z-matrix:
 Charge =  0 Multiplicity = 1

 SCF Done:  E(RHF) =  -610.654497224     A.U. after   13 cycles
 Normal termination of Gaussian 16 at Sat Apr  5 22:56:33 2025.
 Gaussian 16:  ES64L-G16RevC.01  3-Jul-2019

 ----------------------------------------------------------------------
 #t hf aug-cc-pvdz iop(5/13=1,5/36=2,99/5=2) pseudo=read geom=check gue
 ss=(read,tcheck) scf=(maxcycle=1)
 ----------------------------------------------------------------------
 -----
 title
 -----
 Structure from the checkpoint file:  "chloroketene.chk"
 Charge =  0 Multiplicity = 1

                         Standard orientation:
 ---------------------------------------------------------------------
 Center     Atomic      Atomic             Coordinates (Angstroms)
 Number     Number       Type             X           Y           Z
 ---------------------------------------------------------------------
      1         17           0       -1.452562   -0.235201    0.000013
      2          8           0        2.214395   -0.375124    0.000033
      3          6           0        0.002567    0.726842   -0.000115
      4          6           0        1.175372    0.139924   -0.000030
      5          1           0       -0.089246    1.798809    0.000383
 ---------------------------------------------------------------------

 SCF Done:  E(RHF) =  -610.874717686     A.U. after    2 cycles

 The electronic state is 1-A.
 Alpha  occ. eigenvalues -- -105.59684 -20.64114 -11.41501 -11.31712 -10.64378
 Alpha  occ. eigenvalues --   -7.81353  -7.80924  -7.80889  -1.57830  -1.15398
 Alpha  occ. eigenvalues --   -1.01064  -0.78164  -0.72641  -0.66717  -0.65514
 Alpha  occ. eigenvalues --   -0.58048  -0.52909  -0.48679  -0.36911
 Alpha virt. eigenvalues --    0.03272   0.05854   0.07365   0.09788   0.10633
 Alpha virt. eigenvalues --    0.10974   0.12324   0.13510   0.14449   0.15449
 Alpha virt. eigenvalues --    0.15613   0.17717   0.20176   0.20943   0.24386

 Mulliken charges:
               1
     1  Cl  -0.117673
     2  O   -0.697939
     3  C    0.176577
     4  C    0.650465
     5  H   -0.011431
 Sum of Mulliken charges =   0.00000

 Dipole moment (field-independent basis, Debye):
    X=              0.0110    Y=              1.4021    Z=              0.0006  Tot=              1.4021

 Test job not archived.
 1\1\GINC-SE108\SP\RHF\Aug-CC-pVDZ\C2H1Cl1O1\OHZDE\05-Apr-2025\0\\#t hf
  aug-cc-pvdz iop(5/13=1,5/36=2,99/5=2) pseudo=read geom=check guess=(r
 ead,tcheck) scf=(maxcycle=1)\\title\\0,1\Cl,0,-1.452562,-0.235201,0.00
 0013\O,0,2.214395,-0.375124,0.000033\C,0,0.002567,0.726842,-0.000115\C
 ,0,1.175372,0.139924,-0.00003\H,0,-0.089246,1.798809,0.000383\\Version
 =ES64L-G16RevC.01\State=1-A\HF=-610.8747177\RMSD=1.146e-02\Dipole=0.00
 43304,0.5516177,0.0002285\Quadrupole=-2.0311886,2.5725371,-0.5413486,1
 .1563894,-0.0001138,0.0010371\PG=C01 [X(C2H1Cl1O1)]\\@

 Normal termination of Gaussian 16 at Sat Apr  5 22:56:38 2025.
