 Gaussian 16, Revision C.01,

 ----------------------------------------------------------------------
 #t hf aug-cc-pvdz symm=none int=(grid=ultrafine) guess=(read,tcheck) s
 table=(opt,rrhf)
 ----------------------------------------------------------------------
 -----
 title
 -----
 Symbolic Z-matrix:
 Charge =  0 Multiplicity = 1

 SCF Done:  E(RHF) =  -597.982639300     A.U. after   12 cycles
 Normal termination of Gaussian 16 at Sat Apr  5 22:56:32 2025.
 Gaussian 16:  ES64L-G16RevC.01  3-Jul-2019

 ----------------------------------------------------------------------
 #t hf aug-cc-pvdz iop(5/13=1,5/36=2,99/5=2) pseudo=read geom=check gue
 ss=(read,tcheck) scf=(maxcycle=1)
 ----------------------------------------------------------------------
 -----
 title
 -----
 Structure from the checkpoint file:  "chlorofluoromethane.chk"
 Charge =  0 Multiplicity = 1

                         Standard orientation:
 ---------------------------------------------------------------------
 Center     Atomic      Atomic             Coordinates (Angstroms)
 Number     Number       Type             X           Y           Z
 ---------------------------------------------------------------------
      1         17           0        0.682538   -0.843775    0.000000
      2          9           0       -1.364381    0.762010    0.000000
      3          6           0        0.000000    0.812042    0.000000
      4          1           0        0.338141    1.306914    0.905061
      5          1           0        0.338141    1.306914   -0.905061
 ---------------------------------------------------------------------

 SCF Done:  E(RHF) =  -598.191526909     A.U. after    2 cycles

 The electronic state is 1-A'.
 Alpha  occ. eigenvalues -- -105.57717 -26.48475 -11.40341 -10.62589  -7.79525
 Alpha  occ. eigenvalues --   -7.79136  -7.79120  -1.61406  -1.10955  -0.92243
 Alpha  occ. eigenvalues --   -0.74402  -0.72309  -0.68535  -0.58048  -0.54387
 Alpha  occ. eigenvalues --   -0.47880  -0.46476
 Alpha virt. eigenvalues --    0.03429   0.05028   0.07562   0.09355   0.12882
 Alpha virt. eigenvalues --    0.15205   0.15427   0.15968   0.16443   0.22023
 Alpha virt. eigenvalues --    0.23640   0.26546   0.27313   0.29795   0.32059

 Mulliken charges:
               1
     1  Cl  -0.117444
     2  F   -0.602872
     3  C    0.332668
     4  H    0.193824
     5  H    0.193824
 Sum of Mulliken charges =   0.00000

 Dipole moment (field-independent basis, Debye):
    X=              0.9573    Y=              1.7989    Z=              0.0000  Tot=              2.0377

 Test job not archived.
 1\1\GINC-SE221\SP\RHF\Aug-CC-pVDZ\C1H2Cl1F1\OHZDE\05-Apr-2025\0\\#t hf
  aug-cc-pvdz iop(5/13=1,5/36=2,99/5=2) pseudo=read geom=check guess=(r
 ead,tcheck) scf=(maxcycle=1)\\title\\0,1\Cl,0,0.682538,-0.843775,0.\F,
 0,-1.364381,0.76201,0.\C,0,0.,0.812042,0.\H,0,0.338141,1.306914,0.9050
 61\H,0,0.338141,1.306914,-0.905061\\Version=ES64L-G16RevC.01\State=1-A
 '\HF=-598.1915269\RMSD=4.568e-03\Dipole=0.3766411,0.7077259,0.\Quadrup
 ole=-1.9943144,1.3876577,0.6066567,1.1132862,0.,0.\PG=CS [SG(C1Cl1F1),
 X(H2)]\\@

 Normal termination of Gaussian 16 at Sat Apr  5 22:56:39 2025.
