 Gaussian 16, Revision C.01,

 ----------------------------------------------------------------------
 #t hf aug-cc-pvdz symm=none int=(grid=ultrafine) guess=(read,tcheck) s
 table=(opt,rrhf)
 ----------------------------------------------------------------------
 -----
 title
 -----
 Symbolic Z-matrix:
 Charge =  0 Multiplicity = 1

 SCF Done:  E(RHF) =  -795.727379525     A.U. after   11 cycles

 1\1\GINC-SE012\Stability\RHF\Aug-CC-pVDZ\C1Cl1F3\OHZDE\05-Apr-2025\0\\
 #t hf aug-cc-pvdz symm=none int=(grid=ultrafine) guess=(read,tcheck) s
 table=(opt,rrhf)\\title\\0,1\C,0,0.,0.,-0.355296\Cl,0,0.,0.,1.420171\F
 ,0,0.,1.248182,-0.815227\F,0,1.080957,-0.624091,-0.815227\F,0,-1.08095
 7,-0.624091,-0.815227\\Version=ES64L-G16RevC.01\HF=-795.7273795\RMSD=8
 .188e-09\Dipole=0.,-0.0000003,0.2017229\Quadrupole=-0.4829326,-0.48293
 4,0.9658666,0.,0.,0.0000004\PG=Unknown\\@
 The archive entry for this job was punched.

 Normal termination of Gaussian 16 at Sat Apr  5 22:56:34 2025.
 Gaussian 16:  ES64L-G16RevC.01  3-Jul-2019

 ----------------------------------------------------------------------
 #t hf aug-cc-pvdz iop(5/13=1,5/36=2,99/5=2) pseudo=read geom=check gue
 ss=(read,tcheck) scf=(maxcycle=1)
 ----------------------------------------------------------------------
 -----
 title
 -----
 Structure from the checkpoint file:  "chlorotrifluoromethane.chk"
 Charge =  0 Multiplicity = 1

                         Standard orientation:
 ---------------------------------------------------------------------
 Center     Atomic      Atomic             Coordinates (Angstroms)
 Number     Number       Type             X           Y           Z
 ---------------------------------------------------------------------
      1          6           0        0.355296    0.000000    0.000000
      2         17           0       -1.420171    0.000000    0.000000
      3          9           0        0.815227    1.248182    0.000000
      4          9           0        0.815227   -0.624091    1.080957
      5          9           0        0.815227   -0.624091   -1.080957
 ---------------------------------------------------------------------

 SCF Done:  E(RHF) =  -796.107501169     A.U. after    2 cycles

 The electronic state is 1-A'.
 Alpha  occ. eigenvalues -- -105.61698 -26.54019 -26.54019 -26.54015 -11.59822
 Alpha  occ. eigenvalues --  -10.66607  -7.83555  -7.83102  -7.83102  -1.75762
 Alpha  occ. eigenvalues --   -1.65239  -1.65239  -1.14566  -0.95973  -0.85068
 Alpha  occ. eigenvalues --   -0.85068  -0.81343  -0.71926  -0.71926  -0.67119
 Alpha  occ. eigenvalues --   -0.67119  -0.65138  -0.59382  -0.51563  -0.51563
 Alpha virt. eigenvalues --    0.07081   0.08833   0.09841   0.09841   0.10976
 Alpha virt. eigenvalues --    0.14929   0.14929   0.19726   0.23354   0.23354
 Alpha virt. eigenvalues --    0.28055   0.30029   0.30029   0.31103   0.31103

 Mulliken charges:
               1
     1  C    1.840959
     2  Cl  -0.117747
     3  F   -0.574404
     4  F   -0.574404
     5  F   -0.574404
 Sum of Mulliken charges =  -0.00000

 Dipole moment (field-independent basis, Debye):
    X=             -0.3158    Y=             -0.0000    Z=              0.0000  Tot=              0.3158

 Test job not archived.
 1\1\GINC-SE012\SP\RHF\Aug-CC-pVDZ\C1Cl1F3\OHZDE\05-Apr-2025\0\\#t hf a
 ug-cc-pvdz iop(5/13=1,5/36=2,99/5=2) pseudo=read geom=check guess=(rea
 d,tcheck) scf=(maxcycle=1)\\title\\0,1\C,0,0.,0.,-0.355296\Cl,0,0.,0.,
 1.420171\F,0,0.,1.248182,-0.815227\F,0,1.080957,-0.624091,-0.815227\F,
 0,-1.080957,-0.624091,-0.815227\\Version=ES64L-G16RevC.01\State=1-A'\H
 F=-796.1075012\RMSD=3.125e-03\Dipole=0.,-0.0000003,0.1242444\Quadrupol
 e=-0.433442,-0.4334432,0.8668852,0.,0.,0.0000004\PG=CS [SG(C1Cl1F1),X(
 F2)]\\@

 Normal termination of Gaussian 16 at Sat Apr  5 22:56:39 2025.
