 Gaussian 16, Revision C.01,

 ----------------------------------------------------------------------
 #t hf aug-cc-pvdz symm=none int=(grid=ultrafine) guess=(read,tcheck) s
 table=(opt,rrhf)
 ----------------------------------------------------------------------
 -----
 title
 -----
 Symbolic Z-matrix:
 Charge =  0 Multiplicity = 1

 SCF Done:  E(RHF) =  -650.859450752     A.U. after   13 cycles
 Normal termination of Gaussian 16 at Sat Apr  5 22:56:45 2025.
 Gaussian 16:  ES64L-G16RevC.01  3-Jul-2019

 ----------------------------------------------------------------------
 #t hf aug-cc-pvdz iop(5/13=1,5/36=2,99/5=2) pseudo=read geom=check gue
 ss=(read,tcheck) scf=(maxcycle=1)
 ----------------------------------------------------------------------
 -----
 title
 -----
 Structure from the checkpoint file:  "chloromethyloxirane.chk"
 Charge =  0 Multiplicity = 1

                         Standard orientation:
 ---------------------------------------------------------------------
 Center     Atomic      Atomic             Coordinates (Angstroms)
 Number     Number       Type             X           Y           Z
 ---------------------------------------------------------------------
      1          6           0        0.385941   -0.723508    0.267146
      2         17           0        1.900475    0.227545   -0.033923
      3          6           0       -0.769906   -0.104546   -0.461481
      4          6           0       -1.663184    0.846606    0.196657
      5          8           0       -2.059013   -0.518958    0.002364
      6          1           0        0.215602   -0.732869    1.339395
      7          1           0        0.583531   -1.733301   -0.081694
      8          1           0       -0.670754   -0.061183   -1.541492
      9          1           0       -1.474553    1.128875    1.226754
     10          1           0       -2.206901    1.570555   -0.399129
 ---------------------------------------------------------------------

 SCF Done:  E(RHF) =  -651.133305474     A.U. after    2 cycles

 The electronic state is 1-A.
 Alpha  occ. eigenvalues -- -105.56525 -20.57471 -11.31728 -11.31498 -11.30619
 Alpha  occ. eigenvalues --  -10.61313  -7.78253  -7.77880  -7.77870  -1.50663
 Alpha  occ. eigenvalues --   -1.11872  -0.97935  -0.92821  -0.83523  -0.72528
 Alpha  occ. eigenvalues --   -0.68168  -0.62954  -0.59785  -0.56590  -0.53693
 Alpha  occ. eigenvalues --   -0.47013  -0.46678  -0.45082  -0.44615
 Alpha virt. eigenvalues --    0.03785   0.04154   0.04184   0.06237   0.06917
 Alpha virt. eigenvalues --    0.07677   0.10162   0.12039   0.13669   0.13878
 Alpha virt. eigenvalues --    0.14567   0.15117   0.16127   0.16410   0.17340

 Mulliken charges:
               1
     1  C   -0.705717
     2  Cl  -0.083416
     3  C    1.199478
     4  C    0.330203
     5  O   -1.223753
     6  H    0.230506
     7  H    0.278805
     8  H   -0.057255
     9  H    0.017017
    10  H    0.014133
 Sum of Mulliken charges =  -0.00000

 Dipole moment (field-independent basis, Debye):
    X=             -0.5299    Y=              0.3934    Z=              0.1527  Tot=              0.6774

 Test job not archived.
 1\1\GINC-SE011\SP\RHF\Aug-CC-pVDZ\C3H5Cl1O1\OHZDE\05-Apr-2025\0\\#t hf
  aug-cc-pvdz iop(5/13=1,5/36=2,99/5=2) pseudo=read geom=check guess=(r
 ead,tcheck) scf=(maxcycle=1)\\title\\0,1\C,0,0.385941,-0.723508,0.2671
 46\Cl,0,1.900475,0.227545,-0.033923\C,0,-0.769906,-0.104546,-0.461481\
 C,0,-1.663184,0.846606,0.196657\O,0,-2.059013,-0.518958,0.002364\H,0,0
 .215602,-0.732869,1.339395\H,0,0.583531,-1.733301,-0.081694\H,0,-0.670
 754,-0.061183,-1.541492\H,0,-1.474553,1.128875,1.226754\H,0,-2.206901,
 1.570555,-0.399129\\Version=ES64L-G16RevC.01\State=1-A\HF=-651.1333055

 Normal termination of Gaussian 16 at Sat Apr  5 22:56:49 2025.
