 Gaussian 16, Revision C.01,

 ----------------------------------------------------------------------
 #t hf aug-cc-pvdz symm=none int=(grid=ultrafine) guess=(read,tcheck) s
 table=(opt,rrhf)
 ----------------------------------------------------------------------
 -----
 title
 -----
 Symbolic Z-matrix:
 Charge =  0 Multiplicity = 1

 SCF Done:  E(RHF) =  -420.367962602     A.U. after   16 cycles
 Normal termination of Gaussian 16 at Sat Apr  5 22:58:07 2025.
 Gaussian 16:  ES64L-G16RevC.01  3-Jul-2019

 ----------------------------------------------------------------------
 #t hf aug-cc-pvdz iop(5/13=1,5/36=2,99/5=2) pseudo=read geom=check gue
 ss=(read,tcheck) scf=(maxcycle=1)
 ----------------------------------------------------------------------
 -----
 title
 -----
 Structure from the checkpoint file:  "cinnamaldehyde.chk"
 Charge =  0 Multiplicity = 1

                         Standard orientation:
 ---------------------------------------------------------------------
 Center     Atomic      Atomic             Coordinates (Angstroms)
 Number     Number       Type             X           Y           Z
 ---------------------------------------------------------------------
      1          6           0       -1.730590   -2.882390    0.000000
      2          8           0       -1.562058   -4.083390    0.000000
      3          6           0       -0.655985   -1.894403    0.000000
      4          6           0       -0.933573   -0.580286    0.000000
      5          6           0        0.000000    0.539524    0.000000
      6          6           0       -0.511516    1.844139    0.000000
      7          6           0        0.333448    2.945067    0.000000
      8          6           0        1.710603    2.761404    0.000000
      9          6           0        2.236083    1.470696    0.000000
     10          6           0        1.393141    0.372360    0.000000
     11          1           0       -2.755406   -2.457004    0.000000
     12          1           0        0.353546   -2.285206    0.000000
     13          1           0       -1.983825   -0.299778    0.000000
     14          1           0       -1.584212    1.989985    0.000000
     15          1           0       -0.081742    3.943603    0.000000
     16          1           0        2.373203    3.616136    0.000000
     17          1           0        3.307662    1.324322    0.000000
     18          1           0        1.817575   -0.621621    0.000000
 ---------------------------------------------------------------------

 SCF Done:  E(RHF) =  -420.795321608     A.U. after    2 cycles

 The electronic state is 1-A'.
 Alpha  occ. eigenvalues --  -20.53746 -11.33855 -11.28519 -11.26916 -11.26396
 Alpha  occ. eigenvalues --  -11.26248 -11.26221 -11.25901 -11.25882 -11.25418
 Alpha  occ. eigenvalues --   -1.46523  -1.18347  -1.10901  -1.03919  -1.03122
 Alpha  occ. eigenvalues --   -0.91031  -0.86030  -0.82822  -0.78789  -0.73714
 Alpha  occ. eigenvalues --   -0.69269  -0.67851  -0.64515  -0.64038  -0.61822
 Alpha  occ. eigenvalues --   -0.60957  -0.56669  -0.55011  -0.53385  -0.53139
 Alpha  occ. eigenvalues --   -0.51886  -0.43341  -0.41975  -0.36592  -0.33402
 Alpha virt. eigenvalues --    0.02725   0.02787   0.03661   0.03725   0.04449
 Alpha virt. eigenvalues --    0.05406   0.06837   0.08097   0.08382   0.09361
 Alpha virt. eigenvalues --    0.09623   0.09930   0.10789   0.11815   0.12103

 Mulliken charges:
               1
     1  C    0.452200
     2  O   -1.255146
     3  C    0.710733
     4  C    0.392304
     5  C    1.535556
     6  C   -0.061930
     7  C    0.110500
     8  C   -0.135930
     9  C   -0.104848
    10  C    0.167011
    11  H    0.012523
    12  H   -0.260758
    13  H   -0.255029
    14  H   -0.311063
    15  H   -0.235538
    16  H   -0.227349
    17  H   -0.258443
    18  H   -0.274795
 Sum of Mulliken charges =  -0.00000

 Dipole moment (field-independent basis, Debye):
    X=              0.7868    Y=              4.7706    Z=              0.0000  Tot=              4.8351

 Test job not archived.
 1\1\GINC-SE014\SP\RHF\Aug-CC-pVDZ\C9H8O1\OHZDE\05-Apr-2025\0\\#t hf au
 g-cc-pvdz iop(5/13=1,5/36=2,99/5=2) pseudo=read geom=check guess=(read
 ,tcheck) scf=(maxcycle=1)\\title\\0,1\C,0,-1.73059,-2.88239,0.\O,0,-1.
 562058,-4.08339,0.\C,0,-0.655985,-1.894403,0.\C,0,-0.933573,-0.580286,
 0.\C,0,0.,0.539524,0.\C,0,-0.511516,1.844139,0.\C,0,0.333448,2.945067,
 0.\C,0,1.710603,2.761404,0.\C,0,2.236083,1.470696,0.\C,0,1.393141,0.37
 236,0.\H,0,-2.755406,-2.457004,0.\H,0,0.353546,-2.285206,0.\H,0,-1.983
 825,-0.299778,0.\H,0,-1.584212,1.989985,0.\H,0,-0.081742,3.943603,0.\H

 Normal termination of Gaussian 16 at Sat Apr  5 22:58:17 2025.
