 Gaussian 16, Revision C.01,

 ----------------------------------------------------------------------
 #t hf aug-cc-pvdz symm=none int=(grid=ultrafine) guess=(read,tcheck) s
 table=(opt,rrhf)
 ----------------------------------------------------------------------
 -----
 title
 -----
 Symbolic Z-matrix:
 Charge =  0 Multiplicity = 1

 SCF Done:  E(RHF) =  -234.196332471     A.U. after   11 cycles
 Normal termination of Gaussian 16 at Sat Apr  5 22:57:41 2025.
 Gaussian 16:  ES64L-G16RevC.01  3-Jul-2019

 ----------------------------------------------------------------------
 #t hf aug-cc-pvdz iop(5/13=1,5/36=2,99/5=2) pseudo=read geom=check gue
 ss=(read,tcheck) scf=(maxcycle=1)
 ----------------------------------------------------------------------
 -----
 title
 -----
 Structure from the checkpoint file:  "cis-1-3-dimethylcyclobutane.chk"
 Charge =  0 Multiplicity = 1

                         Standard orientation:
 ---------------------------------------------------------------------
 Center     Atomic      Atomic             Coordinates (Angstroms)
 Number     Number       Type             X           Y           Z
 ---------------------------------------------------------------------
      1          6           0       -1.077960    0.000000   -0.148679
      2          6           0        1.077960   -0.000000   -0.148679
      3          6           0        0.000000    1.086408   -0.403813
      4          6           0       -0.000000   -1.086408   -0.403813
      5          6           0        0.000000    2.344796    0.443912
      6          6           0       -0.000000   -2.344796    0.443912
      7          1           0       -1.394186    0.000000    0.897568
      8          1           0       -1.966460    0.000000   -0.780419
      9          1           0        1.394186   -0.000000    0.897568
     10          1           0        1.966460   -0.000000   -0.780419
     11          1           0        0.000000    1.356060   -1.462683
     12          1           0       -0.000000   -1.356060   -1.462683
     13          1           0        0.000000    2.098731    1.508187
     14          1           0       -0.000000   -2.098731    1.508187
     15          1           0        0.881667    2.958111    0.244413
     16          1           0       -0.881667    2.958111    0.244413
     17          1           0       -0.881667   -2.958111    0.244413
     18          1           0        0.881667   -2.958111    0.244413
 ---------------------------------------------------------------------

 SCF Done:  E(RHF) =  -234.459305780     A.U. after    2 cycles

 The electronic state is 1-A1.
 Alpha  occ. eigenvalues --  -11.22641 -11.22626 -11.21802 -11.21801 -11.21764
 Alpha  occ. eigenvalues --  -11.21760  -1.13747  -1.00489  -0.93859  -0.89404
 Alpha  occ. eigenvalues --   -0.79883  -0.74641  -0.66162  -0.60063  -0.59101
 Alpha  occ. eigenvalues --   -0.58651  -0.55827  -0.53927  -0.53463  -0.49697
 Alpha  occ. eigenvalues --   -0.45415  -0.45241  -0.43147  -0.42532
 Alpha virt. eigenvalues --    0.03614   0.03767   0.03849   0.04129   0.06079
 Alpha virt. eigenvalues --    0.06171   0.06278   0.06355   0.06836   0.09103
 Alpha virt. eigenvalues --    0.09382   0.10065   0.12023   0.13329   0.15098

 Mulliken charges:
               1
     1  C    0.060201
     2  C    0.060201
     3  C   -0.357286
     4  C   -0.357286
     5  C   -0.364491
     6  C   -0.364491
     7  H    0.078229
     8  H    0.038730
     9  H    0.078229
    10  H    0.038730
    11  H   -0.019120
    12  H   -0.019120
    13  H    0.156023
    14  H    0.156023
    15  H    0.203858
    16  H    0.203858
    17  H    0.203858
    18  H    0.203858
 Sum of Mulliken charges =  -0.00000

 Dipole moment (field-independent basis, Debye):
    X=             -0.0000    Y=              0.0000    Z=             -0.1764  Tot=              0.1764

 Test job not archived.
 1\1\GINC-SE050\SP\RHF\Aug-CC-pVDZ\C6H12\OHZDE\05-Apr-2025\0\\#t hf aug
 -cc-pvdz iop(5/13=1,5/36=2,99/5=2) pseudo=read geom=check guess=(read,
 tcheck) scf=(maxcycle=1)\\title\\0,1\C,0,-1.07796,0.,-0.148679\C,0,1.0
 7796,0.,-0.148679\C,0,0.,1.086408,-0.403813\C,0,0.,-1.086408,-0.403813
 \C,0,0.,2.344796,0.443912\C,0,0.,-2.344796,0.443912\H,0,-1.394186,0.,0
 .897568\H,0,-1.96646,0.,-0.780419\H,0,1.394186,0.,0.897568\H,0,1.96646
 ,0.,-0.780419\H,0,0.,1.35606,-1.462683\H,0,0.,-1.35606,-1.462683\H,0,0
 .,2.098731,1.508187\H,0,0.,-2.098731,1.508187\H,0,0.881667,2.958111,0.

 Normal termination of Gaussian 16 at Sat Apr  5 22:58:11 2025.
