 Gaussian 16, Revision C.01,

 ----------------------------------------------------------------------
 #t hf aug-cc-pvdz symm=none int=(grid=ultrafine) guess=(read,tcheck) s
 table=(opt,rrhf)
 ----------------------------------------------------------------------
 -----
 title
 -----
 Symbolic Z-matrix:
 Charge =  0 Multiplicity = 1

 SCF Done:  E(RHF) =  -234.192901591     A.U. after   11 cycles
 Normal termination of Gaussian 16 at Sat Apr  5 22:57:08 2025.
 Gaussian 16:  ES64L-G16RevC.01  3-Jul-2019

 ----------------------------------------------------------------------
 #t hf aug-cc-pvdz iop(5/13=1,5/36=2,99/5=2) pseudo=read geom=check gue
 ss=(read,tcheck) scf=(maxcycle=1)
 ----------------------------------------------------------------------
 -----
 title
 -----
 Structure from the checkpoint file:  "cis-1-2-dimethylcyclobutane.chk"
 Charge =  0 Multiplicity = 1

                         Standard orientation:
 ---------------------------------------------------------------------
 Center     Atomic      Atomic             Coordinates (Angstroms)
 Number     Number       Type             X           Y           Z
 ---------------------------------------------------------------------
      1          6           0        0.636065    0.415283    0.571630
      2          6           0       -0.713037   -0.368475    0.430685
      3          6           0        1.364965   -0.856683    0.052791
      4          6           0        0.013200   -1.382989   -0.489869
      5          6           0        0.802735    1.630562   -0.331113
      6          6           0       -1.968744    0.323549   -0.068200
      7          1           0        0.880376    0.697694    1.597241
      8          1           0       -0.928293   -0.850203    1.387512
      9          1           0        2.167047   -0.700311   -0.668994
     10          1           0       -0.125626   -1.141655   -1.544800
     11          1           0        1.747856   -1.473016    0.866030
     12          1           0       -0.212001   -2.439705   -0.348512
     13          1           0        0.603423    1.391862   -1.377604
     14          1           0       -1.805638    0.816530   -1.027783
     15          1           0        0.132470    2.442392   -0.042514
     16          1           0        1.825302    2.008700   -0.271645
     17          1           0       -2.318826    1.078652    0.639323
     18          1           0       -2.777199   -0.398427   -0.203797
 ---------------------------------------------------------------------

 SCF Done:  E(RHF) =  -234.455452204     A.U. after    2 cycles

 The electronic state is 1-A.
 Alpha  occ. eigenvalues --  -11.22512 -11.22472 -11.21916 -11.21876 -11.21845
 Alpha  occ. eigenvalues --  -11.21712  -1.13587  -0.98654  -0.97042  -0.85046
 Alpha  occ. eigenvalues --   -0.84128  -0.71796  -0.67118  -0.61818  -0.59636
 Alpha  occ. eigenvalues --   -0.57357  -0.54972  -0.53897  -0.52508  -0.51048
 Alpha  occ. eigenvalues --   -0.46255  -0.44843  -0.42442  -0.42251
 Alpha virt. eigenvalues --    0.03545   0.03661   0.03859   0.04175   0.06132
 Alpha virt. eigenvalues --    0.06227   0.06410   0.06450   0.06569   0.09436
 Alpha virt. eigenvalues --    0.09849   0.09948   0.12846   0.13746   0.14025

 Mulliken charges:
               1
     1  C   -0.515989
     2  C   -0.273231
     3  C    0.239376
     4  C   -0.041090
     5  C   -0.228369
     6  C   -0.328943
     7  H   -0.030257
     8  H    0.011034
     9  H    0.016257
    10  H    0.036962
    11  H    0.029727
    12  H    0.011469
    13  H    0.202880
    14  H    0.208934
    15  H    0.198062
    16  H    0.097965
    17  H    0.213192
    18  H    0.152022
 Sum of Mulliken charges =  -0.00000

 Dipole moment (field-independent basis, Debye):
    X=             -0.0281    Y=              0.0140    Z=              0.1512  Tot=              0.1544

 Test job not archived.
 1\1\GINC-SE209\SP\RHF\Aug-CC-pVDZ\C6H12\OHZDE\05-Apr-2025\0\\#t hf aug
 -cc-pvdz iop(5/13=1,5/36=2,99/5=2) pseudo=read geom=check guess=(read,
 tcheck) scf=(maxcycle=1)\\title\\0,1\C,0,0.636065,0.415283,0.57163\C,0
 ,-0.713037,-0.368475,0.430685\C,0,1.364965,-0.856683,0.052791\C,0,0.01
 32,-1.382989,-0.489869\C,0,0.802735,1.630562,-0.331113\C,0,-1.968744,0
 .323549,-0.0682\H,0,0.880376,0.697694,1.597241\H,0,-0.928293,-0.850203
 ,1.387512\H,0,2.167047,-0.700311,-0.668994\H,0,-0.125626,-1.141655,-1.
 5448\H,0,1.747856,-1.473016,0.86603\H,0,-0.212001,-2.439705,-0.348512\

 Normal termination of Gaussian 16 at Sat Apr  5 22:58:12 2025.
