 Gaussian 16, Revision C.01,

 ----------------------------------------------------------------------
 #t hf aug-cc-pvdz symm=none int=(grid=ultrafine) guess=(read,tcheck) s
 table=(opt,rrhf)
 ----------------------------------------------------------------------
 -----
 title
 -----
 Symbolic Z-matrix:
 Charge =  0 Multiplicity = 1

 SCF Done:  E(RHF) =  -350.135596504     A.U. after   12 cycles
 Normal termination of Gaussian 16 at Sat Apr  5 22:59:18 2025.
 Gaussian 16:  ES64L-G16RevC.01  3-Jul-2019

 ----------------------------------------------------------------------
 #t hf aug-cc-pvdz iop(5/13=1,5/36=2,99/5=2) pseudo=read geom=check gue
 ss=(read,tcheck) scf=(maxcycle=1)
 ----------------------------------------------------------------------
 -----
 title
 -----
 Structure from the checkpoint file:  "cis-bicyclo-6-1-0-nonane.chk"
 Charge =  0 Multiplicity = 1

                         Standard orientation:
 ---------------------------------------------------------------------
 Center     Atomic      Atomic             Coordinates (Angstroms)
 Number     Number       Type             X           Y           Z
 ---------------------------------------------------------------------
      1          6           0        1.927322    0.636513   -0.258294
      2          6           0        1.743892   -0.637759    0.593827
      3          6           0        0.967529    1.802826    0.029936
      4          6           0        1.010427   -1.805008   -0.082822
      5          6           0       -0.389151   -1.492307   -0.630603
      6          6           0       -2.508959   -0.040026   -0.047710
      7          6           0       -1.316135    0.696622    0.507138
      8          6           0       -1.283474   -0.807165    0.375253
      9          6           0       -0.501762    1.619138   -0.377467
     10          1           0        1.877073    0.382557   -1.322304
     11          1           0        2.940001    1.013596   -0.097779
     12          1           0        1.232847   -0.376497    1.523302
     13          1           0        2.727826   -1.006927    0.892208
     14          1           0        1.350022    2.683406   -0.493672
     15          1           0        1.017205    2.045069    1.097068
     16          1           0        0.931656   -2.621757    0.641307
     17          1           0        1.627908   -2.187488   -0.901162
     18          1           0       -0.854124   -2.427139   -0.957440
     19          1           0       -2.696494    0.053458   -1.110254
     20          1           0       -1.427595    1.064908    1.521416
     21          1           0       -0.986303    2.600318   -0.368695
     22          1           0       -0.546416    1.282133   -1.416116
     23          1           0       -3.404364   -0.117946    0.553456
     24          1           0       -0.305848   -0.875995   -1.527448
     25          1           0       -1.381530   -1.348693    1.310563
 ---------------------------------------------------------------------

 SCF Done:  E(RHF) =  -350.521511679     A.U. after    2 cycles

 The electronic state is 1-A.
 Alpha  occ. eigenvalues --  -11.22667 -11.22596 -11.22292 -11.22135 -11.22124
 Alpha  occ. eigenvalues --  -11.22107 -11.22023 -11.21993 -11.21773  -1.15387
 Alpha  occ. eigenvalues --   -1.07499  -1.04266  -0.95775  -0.91303  -0.82751
 Alpha  occ. eigenvalues --   -0.79809  -0.78296  -0.72934  -0.67853  -0.63796
 Alpha  occ. eigenvalues --   -0.63078  -0.59941  -0.58913  -0.57551  -0.55315
 Alpha  occ. eigenvalues --   -0.52878  -0.51383  -0.50437  -0.48671  -0.48305
 Alpha  occ. eigenvalues --   -0.45753  -0.45502  -0.44405  -0.39959  -0.39226
 Alpha virt. eigenvalues --    0.03106   0.03229   0.03288   0.04092   0.05274
 Alpha virt. eigenvalues --    0.05418   0.05721   0.05802   0.05972   0.08522
 Alpha virt. eigenvalues --    0.08696   0.08918   0.09346   0.09404   0.09740

 Mulliken charges:
               1
     1  C   -0.166469
     2  C   -0.125547
     3  C   -0.308467
     4  C   -0.303808
     5  C   -0.680479
     6  C    0.302078
     7  C    0.516315
     8  C    0.606375
     9  C   -0.592543
    10  H    0.142106
    11  H    0.076628
    12  H    0.225514
    13  H    0.070818
    14  H    0.103938
    15  H    0.141081
    16  H    0.150380
    17  H    0.131656
    18  H    0.088822
    19  H   -0.113613
    20  H   -0.246324
    21  H    0.078437
    22  H    0.189051
    23  H   -0.187595
    24  H    0.182938
    25  H   -0.281293
 Sum of Mulliken charges =   0.00000

 Dipole moment (field-independent basis, Debye):
    X=              0.1455    Y=              0.0402    Z=              0.0515  Tot=              0.1595

 Test job not archived.
 1\1\GINC-SE158\SP\RHF\Aug-CC-pVDZ\C9H16\OHZDE\05-Apr-2025\0\\#t hf aug
 -cc-pvdz iop(5/13=1,5/36=2,99/5=2) pseudo=read geom=check guess=(read,
 tcheck) scf=(maxcycle=1)\\title\\0,1\C,0,1.927322,0.636513,-0.258294\C
 ,0,1.743892,-0.637759,0.593827\C,0,0.967529,1.802826,0.029936\C,0,1.01
 0427,-1.805008,-0.082822\C,0,-0.389151,-1.492307,-0.630603\C,0,-2.5089
 59,-0.040026,-0.04771\C,0,-1.316135,0.696622,0.507138\C,0,-1.283474,-0
 .807165,0.375253\C,0,-0.501762,1.619138,-0.377467\H,0,1.877073,0.38255
 7,-1.322304\H,0,2.940001,1.013596,-0.097779\H,0,1.232847,-0.376497,1.5

 Normal termination of Gaussian 16 at Sat Apr  5 23:00:13 2025.
