 Gaussian 16, Revision C.01,

 ----------------------------------------------------------------------
 #t hf aug-cc-pvdz symm=none int=(grid=ultrafine) guess=(read,tcheck) s
 table=(opt,rrhf)
 ----------------------------------------------------------------------
 -----
 title
 -----
 Symbolic Z-matrix:
 Charge =  0 Multiplicity = 1

 SCF Done:  E(RHF) =  -231.794280115     A.U. after   12 cycles
 Normal termination of Gaussian 16 at Sat Apr  5 22:58:26 2025.
 Gaussian 16:  ES64L-G16RevC.01  3-Jul-2019

 ----------------------------------------------------------------------
 #t hf aug-cc-pvdz iop(5/13=1,5/36=2,99/5=2) pseudo=read geom=check gue
 ss=(read,tcheck) scf=(maxcycle=1)
 ----------------------------------------------------------------------
 -----
 title
 -----
 Structure from the checkpoint file:  "cis-2-3-4-hexatriene.chk"
 Charge =  0 Multiplicity = 1

                         Standard orientation:
 ---------------------------------------------------------------------
 Center     Atomic      Atomic             Coordinates (Angstroms)
 Number     Number       Type             X           Y           Z
 ---------------------------------------------------------------------
      1          1           0        0.000000    2.213829    1.634446
      2          1           0        0.877402    3.463699    0.738497
      3          1           0       -0.877402    3.463699    0.738497
      4          1           0       -0.000000   -2.213829    1.634446
      5          1           0        0.877402   -3.463699    0.738497
      6          1           0       -0.877402   -3.463699    0.738497
      7          6           0        0.000000    2.811524    0.725249
      8          6           0       -0.000000   -2.811524    0.725249
      9          1           0        0.000000    2.459711   -1.459498
     10          1           0       -0.000000   -2.459711   -1.459498
     11          6           0        0.000000   -0.631593   -0.499294
     12          6           0        0.000000    0.631593   -0.499294
     13          6           0        0.000000    1.946711   -0.501278
     14          6           0       -0.000000   -1.946711   -0.501278
 ---------------------------------------------------------------------

 SCF Done:  E(RHF) =  -232.042180569     A.U. after    2 cycles

 The electronic state is 1-A1.
 Alpha  occ. eigenvalues --  -11.25883 -11.25865 -11.24952 -11.24724 -11.23857
 Alpha  occ. eigenvalues --  -11.23849  -1.10016  -1.05897  -0.98239  -0.90923
 Alpha  occ. eigenvalues --   -0.84656  -0.68949  -0.67208  -0.59402  -0.58443
 Alpha  occ. eigenvalues --   -0.58230  -0.57751  -0.53676  -0.53601  -0.46210
 Alpha  occ. eigenvalues --   -0.37332  -0.31711
 Alpha virt. eigenvalues --    0.03603   0.03743   0.04231   0.05374   0.05441
 Alpha virt. eigenvalues --    0.05878   0.05920   0.07996   0.09028   0.10459
 Alpha virt. eigenvalues --    0.12152   0.12470   0.13269   0.13424   0.14089

 Mulliken charges:
               1
     1  H    0.053180
     2  H    0.210722
     3  H    0.210722
     4  H    0.053180
     5  H    0.210722
     6  H    0.210722
     7  C   -0.666342
     8  C   -0.666342
     9  H   -0.142204
    10  H   -0.142204
    11  C    0.396687
    12  C    0.396687
    13  C   -0.062766
    14  C   -0.062766
 Sum of Mulliken charges =  -0.00000

 Dipole moment (field-independent basis, Debye):
    X=              0.0000    Y=             -0.0000    Z=              0.4048  Tot=              0.4048

 Test job not archived.
 1\1\GINC-SE115\SP\RHF\Aug-CC-pVDZ\C6H8\OHZDE\05-Apr-2025\0\\#t hf aug-
 cc-pvdz iop(5/13=1,5/36=2,99/5=2) pseudo=read geom=check guess=(read,t
 check) scf=(maxcycle=1)\\title\\0,1\H,0,0.,2.213829,1.634446\H,0,0.877
 402,3.463699,0.738497\H,0,-0.877402,3.463699,0.738497\H,0,0.,-2.213829
 ,1.634446\H,0,0.877402,-3.463699,0.738497\H,0,-0.877402,-3.463699,0.73
 8497\C,0,0.,2.811524,0.725249\C,0,0.,-2.811524,0.725249\H,0,0.,2.45971
 1,-1.459498\H,0,0.,-2.459711,-1.459498\C,0,0.,-0.631593,-0.499294\C,0,
 0.,0.631593,-0.499294\C,0,0.,1.946711,-0.501278\C,0,0.,-1.946711,-0.50

 Normal termination of Gaussian 16 at Sat Apr  5 22:58:30 2025.
