 Gaussian 16, Revision C.01,

 ----------------------------------------------------------------------
 #t hf aug-cc-pvdz symm=none int=(grid=ultrafine) guess=(read,tcheck) s
 table=(opt,rrhf)
 ----------------------------------------------------------------------
 -----
 title
 -----
 Symbolic Z-matrix:
 Charge =  0 Multiplicity = 1

 SCF Done:  E(RHF) =  -304.742669837     A.U. after   14 cycles
 Normal termination of Gaussian 16 at Sat Apr  5 22:58:21 2025.
 Gaussian 16:  ES64L-G16RevC.01  3-Jul-2019

 ----------------------------------------------------------------------
 #t hf aug-cc-pvdz iop(5/13=1,5/36=2,99/5=2) pseudo=read geom=check gue
 ss=(read,tcheck) scf=(maxcycle=1)
 ----------------------------------------------------------------------
 -----
 title
 -----
 Structure from the checkpoint file:  "crotonoic_acid.chk"
 Charge =  0 Multiplicity = 1

                         Standard orientation:
 ---------------------------------------------------------------------
 Center     Atomic      Atomic             Coordinates (Angstroms)
 Number     Number       Type             X           Y           Z
 ---------------------------------------------------------------------
      1          6           0       -2.749597   -0.147991    0.000003
      2          6           0       -1.333822    0.314316    0.000006
      3          6           0       -0.264018   -0.479484   -0.000015
      4          6           0        1.099386    0.081029   -0.000004
      5          8           0        1.398388    1.251758   -0.000006
      6          8           0        2.037208   -0.903645    0.000010
      7          1           0       -2.827857   -1.234217   -0.000022
      8          1           0       -3.278292    0.239886    0.874582
      9          1           0       -3.278303    0.239927   -0.874551
     10          1           0       -1.161440    1.385990    0.000028
     11          1           0       -0.351243   -1.557948   -0.000032
     12          1           0        2.900674   -0.465762    0.000017
 ---------------------------------------------------------------------

 SCF Done:  E(RHF) =  -305.052040624     A.U. after    2 cycles

 The electronic state is 1-A.
 Alpha  occ. eigenvalues --  -20.59657 -20.52991 -11.39264 -11.27641 -11.25218
 Alpha  occ. eigenvalues --  -11.24865  -1.54116  -1.44467  -1.10643  -0.99176
 Alpha  occ. eigenvalues --   -0.87193  -0.76279  -0.71436  -0.70232  -0.62627
 Alpha  occ. eigenvalues --   -0.61968  -0.60440  -0.59246  -0.56026  -0.53350
 Alpha  occ. eigenvalues --   -0.47779  -0.44358  -0.38986
 Alpha virt. eigenvalues --    0.03361   0.04050   0.04483   0.05136   0.05983
 Alpha virt. eigenvalues --    0.07602   0.08318   0.11119   0.11270   0.12019
 Alpha virt. eigenvalues --    0.13197   0.13257   0.14914   0.15225   0.16239

 Mulliken charges:
               1
     1  C   -0.711302
     2  C    0.326476
     3  C    0.418185
     4  C    1.982440
     5  O   -1.351689
     6  O   -1.404317
     7  H    0.113786
     8  H    0.241914
     9  H    0.241914
    10  H   -0.143546
    11  H   -0.187559
    12  H    0.473698
 Sum of Mulliken charges =  -0.00000

 Dipole moment (field-independent basis, Debye):
    X=             -1.8233    Y=             -1.3017    Z=              0.0000  Tot=              2.2403

 Test job not archived.
 1\1\GINC-SE175\SP\RHF\Aug-CC-pVDZ\C4H6O2\OHZDE\05-Apr-2025\0\\#t hf au
 g-cc-pvdz iop(5/13=1,5/36=2,99/5=2) pseudo=read geom=check guess=(read
 ,tcheck) scf=(maxcycle=1)\\title\\0,1\C,0,-2.749597,-0.147991,0.000003
 \C,0,-1.333822,0.314316,0.000006\C,0,-0.264018,-0.479484,-0.000015\C,0
 ,1.099386,0.081029,-0.000004\O,0,1.398388,1.251758,-0.000006\O,0,2.037
 208,-0.903645,0.00001\H,0,-2.827857,-1.234217,-0.000022\H,0,-3.278292,
 0.239886,0.874582\H,0,-3.278303,0.239927,-0.874551\H,0,-1.16144,1.3859
 9,0.000028\H,0,-0.351243,-1.557948,-0.000032\H,0,2.900674,-0.465762,0.

 Normal termination of Gaussian 16 at Sat Apr  5 22:58:26 2025.
