 Gaussian 16, Revision C.01,

 ----------------------------------------------------------------------
 #t hf aug-cc-pvdz symm=none int=(grid=ultrafine) guess=(read,tcheck) s
 table=(opt,rrhf)
 ----------------------------------------------------------------------
 -----
 title
 -----
 Symbolic Z-matrix:
 Charge =  0 Multiplicity = 1

 SCF Done:  E(RHF) =  -307.424632065     A.U. after   10 cycles
 Normal termination of Gaussian 16 at Sat Apr  5 22:59:01 2025.
 Gaussian 16:  ES64L-G16RevC.01  3-Jul-2019

 ----------------------------------------------------------------------
 #t hf aug-cc-pvdz iop(5/13=1,5/36=2,99/5=2) pseudo=read geom=check gue
 ss=(read,tcheck) scf=(maxcycle=1)
 ----------------------------------------------------------------------
 -----
 title
 -----
 Structure from the checkpoint file:  "cubane.chk"
 Charge =  0 Multiplicity = 1

                         Standard orientation:
 ---------------------------------------------------------------------
 Center     Atomic      Atomic             Coordinates (Angstroms)
 Number     Number       Type             X           Y           Z
 ---------------------------------------------------------------------
      1          6           0        0.783809    0.783809    0.783809
      2          6           0       -0.783809    0.783809    0.783809
      3          6           0        0.783809    0.783809   -0.783809
      4          6           0       -0.783809    0.783809   -0.783809
      5          6           0        0.783809   -0.783809    0.783809
      6          6           0       -0.783809   -0.783809    0.783809
      7          6           0        0.783809   -0.783809   -0.783809
      8          6           0       -0.783809   -0.783809   -0.783809
      9          1           0        1.410999    1.410999    1.410999
     10          1           0       -1.410999    1.410999    1.410999
     11          1           0        1.410999    1.410999   -1.410999
     12          1           0       -1.410999    1.410999   -1.410999
     13          1           0        1.410999   -1.410999    1.410999
     14          1           0       -1.410999   -1.410999    1.410999
     15          1           0        1.410999   -1.410999   -1.410999
     16          1           0       -1.410999   -1.410999   -1.410999
 ---------------------------------------------------------------------

 SCF Done:  E(RHF) =  -307.748043426     A.U. after    2 cycles

 The electronic state is 1-A1G.
 Alpha  occ. eigenvalues --  -11.22711 -11.22711 -11.22711 -11.22700 -11.22637
 Alpha  occ. eigenvalues --  -11.22637 -11.22637 -11.22621  -1.24885  -0.97940
 Alpha  occ. eigenvalues --   -0.97940  -0.97940  -0.77207  -0.77207  -0.77207
 Alpha  occ. eigenvalues --   -0.72202  -0.64726  -0.59233  -0.59233  -0.59056
 Alpha  occ. eigenvalues --   -0.59056  -0.59056  -0.40016  -0.40016  -0.40016
 Alpha  occ. eigenvalues --   -0.39221  -0.39221  -0.39221
 Alpha virt. eigenvalues --    0.03575   0.03602   0.03602   0.03602   0.05267
 Alpha virt. eigenvalues --    0.05267   0.05267   0.08926   0.11706   0.11706
 Alpha virt. eigenvalues --    0.11706   0.11934   0.11934   0.14497   0.14785

 Mulliken charges:
               1
     1  C    0.175835
     2  C    0.175835
     3  C    0.175835
     4  C    0.175835
     5  C    0.175835
     6  C    0.175835
     7  C    0.175835
     8  C    0.175835
     9  H   -0.175835
    10  H   -0.175835
    11  H   -0.175835
    12  H   -0.175835
    13  H   -0.175835
    14  H   -0.175835
    15  H   -0.175835
    16  H   -0.175835
 Sum of Mulliken charges =  -0.00000

 Dipole moment (field-independent basis, Debye):
    X=             -0.0000    Y=              0.0000    Z=             -0.0000  Tot=              0.0000

 Test job not archived.
 1\1\GINC-SE012\SP\RHF\Aug-CC-pVDZ\C8H8\OHZDE\05-Apr-2025\0\\#t hf aug-
 cc-pvdz iop(5/13=1,5/36=2,99/5=2) pseudo=read geom=check guess=(read,t
 check) scf=(maxcycle=1)\\title\\0,1\C,0,0.783809,0.783809,0.783809\C,0
 ,-0.783809,0.783809,0.783809\C,0,0.783809,0.783809,-0.783809\C,0,-0.78
 3809,0.783809,-0.783809\C,0,0.783809,-0.783809,0.783809\C,0,-0.783809,
 -0.783809,0.783809\C,0,0.783809,-0.783809,-0.783809\C,0,-0.783809,-0.7
 83809,-0.783809\H,0,1.410999,1.410999,1.410999\H,0,-1.410999,1.410999,
 1.410999\H,0,1.410999,1.410999,-1.410999\H,0,-1.410999,1.410999,-1.410

 Normal termination of Gaussian 16 at Sat Apr  5 23:00:03 2025.
