 Gaussian 16, Revision C.01,

 ----------------------------------------------------------------------
 #t hf aug-cc-pvdz symm=none int=(grid=ultrafine) guess=(read,tcheck) s
 table=(opt,rrhf)
 ----------------------------------------------------------------------
 -----
 title
 -----
 Symbolic Z-matrix:
 Charge =  0 Multiplicity = 1

 SCF Done:  E(RHF) =  -551.795905064     A.U. after   12 cycles

 1\1\GINC-SE190\Stability\RHF\Aug-CC-pVDZ\C1Cl1N1\OHZDE\05-Apr-2025\0\\
 #t hf aug-cc-pvdz symm=none int=(grid=ultrafine) guess=(read,tcheck) s
 table=(opt,rrhf)\\title\\0,1\Cl,0,0.,0.,0.978264\C,0,0.,0.,-0.658524\N
 ,0,0.,0.,-1.811335\\Version=ES64L-G16RevC.01\HF=-551.7959051\RMSD=1.29
 8e-09\Dipole=0.,0.,1.1995822\Quadrupole=0.9945298,0.9945298,-1.9890595
 ,0.,0.,0.\PG=Unknown\\@
 The archive entry for this job was punched.

 Normal termination of Gaussian 16 at Sat Apr  5 22:57:05 2025.
 Gaussian 16:  ES64L-G16RevC.01  3-Jul-2019

 ----------------------------------------------------------------------
 #t hf aug-cc-pvdz iop(5/13=1,5/36=2,99/5=2) pseudo=read geom=check gue
 ss=(read,tcheck) scf=(maxcycle=1)
 ----------------------------------------------------------------------
 -----
 title
 -----
 Structure from the checkpoint file:  "cyanogen_chloride.chk"
 Charge =  0 Multiplicity = 1

                         Standard orientation:
 ---------------------------------------------------------------------
 Center     Atomic      Atomic             Coordinates (Angstroms)
 Number     Number       Type             X           Y           Z
 ---------------------------------------------------------------------
      1         17           0        0.000000    0.000000    0.978264
      2          6           0        0.000000    0.000000   -0.658524
      3          7           0        0.000000    0.000000   -1.811335
 ---------------------------------------------------------------------

 SCF Done:  E(RHF) =  -551.959522550     A.U. after    2 cycles

 The electronic state is 1-SG.
 Alpha  occ. eigenvalues -- -105.66701 -15.54817 -11.35517 -10.71403  -7.88418
 Alpha  occ. eigenvalues --   -7.87885  -7.87885  -1.27641  -1.17495  -0.76354
 Alpha  occ. eigenvalues --   -0.63366  -0.61855  -0.61855  -0.49686  -0.49686
 Alpha virt. eigenvalues --    0.04781   0.08244   0.11041   0.11041   0.12432
 Alpha virt. eigenvalues --    0.13184   0.13184   0.15757   0.15757   0.17607
 Alpha virt. eigenvalues --    0.22447   0.25948   0.25948   0.28421   0.31885

 Mulliken charges:
               1
     1  Cl   0.224179
     2  C   -0.602604
     3  N    0.378426
 Sum of Mulliken charges =   0.00000

 Dipole moment (field-independent basis, Debye):
    X=             -0.0000    Y=             -0.0000    Z=              3.6494  Tot=              3.6494

 Test job not archived.
 1\1\GINC-SE190\SP\RHF\Aug-CC-pVDZ\C1Cl1N1\OHZDE\05-Apr-2025\0\\#t hf a
 ug-cc-pvdz iop(5/13=1,5/36=2,99/5=2) pseudo=read geom=check guess=(rea
 d,tcheck) scf=(maxcycle=1)\\title\\0,1\Cl,0,0.,0.,0.978264\C,0,0.,0.,-
 0.658524\N,0,0.,0.,-1.811335\\Version=ES64L-G16RevC.01\State=1-SG\HF=-
 551.9595225\RMSD=1.302e-02\Dipole=0.,0.,1.4357788\Quadrupole=1.1716115
 ,1.1716115,-2.343223,0.,0.,0.\PG=C*V [C*(N1C1Cl1)]\\@

 Normal termination of Gaussian 16 at Sat Apr  5 22:58:08 2025.
