 Gaussian 16, Revision C.01,

 ----------------------------------------------------------------------
 #t hf aug-cc-pvdz symm=none int=(grid=ultrafine) guess=(read,tcheck) s
 table=(opt,rrhf)
 ----------------------------------------------------------------------
 -----
 title
 -----
 Symbolic Z-matrix:
 Charge =  0 Multiplicity = 1

 SCF Done:  E(RHF) =  -191.721432591     A.U. after   11 cycles
 Normal termination of Gaussian 16 at Sat Apr  5 22:58:08 2025.
 Gaussian 16:  ES64L-G16RevC.01  3-Jul-2019

 ----------------------------------------------------------------------
 #t hf aug-cc-pvdz iop(5/13=1,5/36=2,99/5=2) pseudo=read geom=check gue
 ss=(read,tcheck) scf=(maxcycle=1)
 ----------------------------------------------------------------------
 -----
 title
 -----
 Structure from the checkpoint file:  "cyanic_fluoride.chk"
 Charge =  0 Multiplicity = 1

                         Standard orientation:
 ---------------------------------------------------------------------
 Center     Atomic      Atomic             Coordinates (Angstroms)
 Number     Number       Type             X           Y           Z
 ---------------------------------------------------------------------
      1          6           0        0.000000    0.000000   -0.151984
      2          9           0        0.000000    0.000000    1.114358
      3          7           0        0.000000    0.000000   -1.302474
 ---------------------------------------------------------------------

 SCF Done:  E(RHF) =  -191.898693992     A.U. after    2 cycles

 The electronic state is 1-SG.
 Alpha  occ. eigenvalues --  -26.60473 -15.55246 -11.40683  -1.74445  -1.27630
 Alpha  occ. eigenvalues --   -0.91237  -0.79300  -0.79300  -0.64576  -0.53711
 Alpha  occ. eigenvalues --   -0.53711
 Alpha virt. eigenvalues --    0.05036   0.09006   0.09074   0.09074   0.17267
 Alpha virt. eigenvalues --    0.17267   0.18110   0.22372   0.22834   0.22834
 Alpha virt. eigenvalues --    0.28281   0.31019   0.31019   0.34635   0.40357

 Mulliken charges:
               1
     1  C   -0.123561
     2  F   -0.437794
     3  N    0.561355
 Sum of Mulliken charges =  -0.00000

 Dipole moment (field-independent basis, Debye):
    X=              0.0000    Y=              0.0000    Z=              2.9380  Tot=              2.9380

 Test job not archived.
 1\1\GINC-SE179\SP\RHF\Aug-CC-pVDZ\C1F1N1\OHZDE\05-Apr-2025\0\\#t hf au
 g-cc-pvdz iop(5/13=1,5/36=2,99/5=2) pseudo=read geom=check guess=(read
 ,tcheck) scf=(maxcycle=1)\\title\\0,1\C,0,0.,0.,-0.151984\F,0,0.,0.,1.
 114358\N,0,0.,0.,-1.302474\\Version=ES64L-G16RevC.01\State=1-SG\HF=-19
 1.898694\RMSD=1.607e-02\Dipole=0.,0.,1.155898\Quadrupole=1.1050837,1.1
 050837,-2.2101675,0.,0.,0.\PG=C*V [C*(N1C1F1)]\\@

 Normal termination of Gaussian 16 at Sat Apr  5 22:58:10 2025.
