 Gaussian 16, Revision C.01,

 ----------------------------------------------------------------------
 #t hf aug-cc-pvdz symm=none int=(grid=ultrafine) guess=(read,tcheck) s
 table=(opt,rrhf)
 ----------------------------------------------------------------------
 -----
 title
 -----
 Symbolic Z-matrix:
 Charge =  0 Multiplicity = 1

 SCF Done:  E(RHF) =  -147.935561219     A.U. after   12 cycles
 Normal termination of Gaussian 16 at Sat Apr  5 22:57:06 2025.
 Gaussian 16:  ES64L-G16RevC.01  3-Jul-2019

 ----------------------------------------------------------------------
 #t hf aug-cc-pvdz iop(5/13=1,5/36=2,99/5=2) pseudo=read geom=check gue
 ss=(read,tcheck) scf=(maxcycle=1)
 ----------------------------------------------------------------------
 -----
 title
 -----
 Structure from the checkpoint file:  "cyanamide.chk"
 Charge =  0 Multiplicity = 1

                         Standard orientation:
 ---------------------------------------------------------------------
 Center     Atomic      Atomic             Coordinates (Angstroms)
 Number     Number       Type             X           Y           Z
 ---------------------------------------------------------------------
      1          7           0       -1.375785    0.000002    0.012410
      2          7           0        1.116606    0.000001   -0.079764
      3          6           0       -0.221237   -0.000004   -0.000219
      4          1           0        1.570840    0.843614    0.236395
      5          1           0        1.570840   -0.843611    0.236395
 ---------------------------------------------------------------------

 SCF Done:  E(RHF) =  -148.084795407     A.U. after    2 cycles

 The electronic state is 1-A.
 Alpha  occ. eigenvalues --  -15.57457 -15.50504 -11.31396  -1.28509  -1.20993
 Alpha  occ. eigenvalues --   -0.84121  -0.78444  -0.61647  -0.60268  -0.50334
 Alpha  occ. eigenvalues --   -0.46226
 Alpha virt. eigenvalues --    0.01589   0.04892   0.08863   0.10600   0.11634
 Alpha virt. eigenvalues --    0.12222   0.15208   0.16278   0.16361   0.19242
 Alpha virt. eigenvalues --    0.20040   0.22310   0.25009   0.26542   0.28275

 Mulliken charges:
               1
     1  N    0.491749
     2  N    0.357251
     3  C   -1.192252
     4  H    0.171626
     5  H    0.171626
 Sum of Mulliken charges =   0.00000

 Dipole moment (field-independent basis, Debye):
    X=              5.0714    Y=             -0.0000    Z=              0.9959  Tot=              5.1683

 Test job not archived.
 1\1\GINC-SE106\SP\RHF\Aug-CC-pVDZ\C1H2N2\OHZDE\05-Apr-2025\0\\#t hf au
 g-cc-pvdz iop(5/13=1,5/36=2,99/5=2) pseudo=read geom=check guess=(read
 ,tcheck) scf=(maxcycle=1)\\title\\0,1\N,0,-1.375785,0.000002,0.01241\N
 ,0,1.116606,0.000001,-0.079764\C,0,-0.221237,-0.000004,-0.000219\H,0,1
 .57084,0.843614,0.236395\H,0,1.57084,-0.843611,0.236395\\Version=ES64L
 -G16RevC.01\State=1-A\HF=-148.0847954\RMSD=1.969e-02\Dipole=1.9952548,
 -0.0000022,0.3918241\Quadrupole=-1.0199015,1.84,-0.8200985,0.0000087,1
 .4395594,0.0000013\PG=C01 [X(C1H2N2)]\\@

 Normal termination of Gaussian 16 at Sat Apr  5 22:58:07 2025.
