 Gaussian 16, Revision C.01,

 ----------------------------------------------------------------------
 #t hf aug-cc-pvdz symm=none int=(grid=ultrafine) guess=(read,tcheck) s
 table=(opt,rrhf)
 ----------------------------------------------------------------------
 -----
 title
 -----
 Symbolic Z-matrix:
 Charge =  0 Multiplicity = 1

 SCF Done:  E(RHF) =  -831.004208198     A.U. after   15 cycles
 Normal termination of Gaussian 16 at Sat Apr  5 22:57:58 2025.
 Gaussian 16:  ES64L-G16RevC.01  3-Jul-2019

 ----------------------------------------------------------------------
 #t hf aug-cc-pvdz iop(5/13=1,5/36=2,99/5=2) pseudo=read geom=check gue
 ss=(read,tcheck) scf=(maxcycle=1)
 ----------------------------------------------------------------------
 -----
 title
 -----
 Structure from the checkpoint file:  "cyanomethylsulfanylhydroxyacetic_acid.chk"
 Charge =  0 Multiplicity = 1

                         Standard orientation:
 ---------------------------------------------------------------------
 Center     Atomic      Atomic             Coordinates (Angstroms)
 Number     Number       Type             X           Y           Z
 ---------------------------------------------------------------------
      1         16           0       -0.536792   -0.543833   -0.276416
      2          8           0        0.866478    1.705968    0.049598
      3          8           0        2.489216   -1.419387    0.583107
      4          8           0        2.845768    0.218453   -0.891343
      5          7           0       -4.192497   -0.407208   -0.402880
      6          6           0        0.859914    0.349946    0.489306
      7          6           0        2.146941   -0.391213    0.076767
      8          6           0       -1.899041    0.431745    0.492309
      9          6           0       -3.177957   -0.037706   -0.008686
     10          1           0        1.217959    2.266909    0.750986
     11          1           0        2.393223    1.045651   -1.126008
     12          1           0        0.773010    0.288303    1.574137
     13          1           0       -1.868393    0.311523    1.575605
     14          1           0       -1.770497    1.482491    0.239021
 ---------------------------------------------------------------------

 SCF Done:  E(RHF) =  -831.488336750     A.U. after    2 cycles

 The electronic state is 1-A.
 Alpha  occ. eigenvalues --  -93.99904 -20.62607 -20.62018 -20.55915 -15.53296
 Alpha  occ. eigenvalues --  -11.42105 -11.38525 -11.34348 -11.30215  -8.27940
 Alpha  occ. eigenvalues --   -6.25740  -6.25580  -6.25323  -1.57189  -1.52339
 Alpha  occ. eigenvalues --   -1.48062  -1.25552  -1.14473  -1.05239  -0.92932
 Alpha  occ. eigenvalues --   -0.84888  -0.78610  -0.78366  -0.73276  -0.69105
 Alpha  occ. eigenvalues --   -0.68029  -0.67073  -0.62834  -0.61809  -0.60211
 Alpha  occ. eigenvalues --   -0.58692  -0.56132  -0.52396  -0.51678  -0.49253
 Alpha  occ. eigenvalues --   -0.49042  -0.45630  -0.40355
 Alpha virt. eigenvalues --    0.01115   0.03031   0.03660   0.04906   0.06532
 Alpha virt. eigenvalues --    0.07416   0.08411   0.09254   0.10094   0.10639
 Alpha virt. eigenvalues --    0.10750   0.11842   0.12326   0.13211   0.13976

 Mulliken charges:
               1
     1  S    0.504113
     2  O   -1.151039
     3  O   -1.279854
     4  O   -1.301614
     5  N    0.982572
     6  C    0.157655
     7  C    2.370527
     8  C    0.075818
     9  C   -1.841357
    10  H    0.289479
    11  H    0.478403
    12  H    0.148638
    13  H    0.248587
    14  H    0.318072
 Sum of Mulliken charges =  -0.00000

 Dipole moment (field-independent basis, Debye):
    X=              2.0486    Y=              5.8593    Z=              3.0632  Tot=              6.9218

 Test job not archived.
 1\1\GINC-SE194\SP\RHF\Aug-CC-pVDZ\C4H5N1O3S1\OHZDE\05-Apr-2025\0\\#t h
 f aug-cc-pvdz iop(5/13=1,5/36=2,99/5=2) pseudo=read geom=check guess=(
 read,tcheck) scf=(maxcycle=1)\\title\\0,1\S,0,-0.536792,-0.543833,-0.2
 76416\O,0,0.866478,1.705968,0.049598\O,0,2.489216,-1.419387,0.583107\O
 ,0,2.845768,0.218453,-0.891343\N,0,-4.192497,-0.407208,-0.40288\C,0,0.
 859914,0.349946,0.489306\C,0,2.146941,-0.391213,0.076767\C,0,-1.899041
 ,0.431745,0.492309\C,0,-3.177957,-0.037706,-0.008686\H,0,1.217959,2.26
 6909,0.750986\H,0,2.393223,1.045651,-1.126008\H,0,0.77301,0.288303,1.5

 Normal termination of Gaussian 16 at Sat Apr  5 22:58:14 2025.
