 Gaussian 16, Revision C.01,

 ----------------------------------------------------------------------
 #t hf aug-cc-pvdz symm=none int=(grid=ultrafine) guess=(read,tcheck) s
 table=(opt,rrhf)
 ----------------------------------------------------------------------
 -----
 title
 -----
 Symbolic Z-matrix:
 Charge =  0 Multiplicity = 1

 SCF Done:  E(RHF) =  -167.753026488     A.U. after   13 cycles
 Normal termination of Gaussian 16 at Sat Apr  5 22:58:10 2025.
 Gaussian 16:  ES64L-G16RevC.01  3-Jul-2019

 ----------------------------------------------------------------------
 #t hf aug-cc-pvdz iop(5/13=1,5/36=2,99/5=2) pseudo=read geom=check gue
 ss=(read,tcheck) scf=(maxcycle=1)
 ----------------------------------------------------------------------
 -----
 title
 -----
 Structure from the checkpoint file:  "cyanic_acid.chk"
 Charge =  0 Multiplicity = 1

                         Standard orientation:
 ---------------------------------------------------------------------
 Center     Atomic      Atomic             Coordinates (Angstroms)
 Number     Number       Type             X           Y           Z
 ---------------------------------------------------------------------
      1          7           0        0.042434    1.333654   -0.000000
      2          6           0        0.000000    0.181234   -0.000000
      3          8           0       -0.128988   -1.109677    0.000000
      4          1           0        0.734865   -1.545562    0.000000
 ---------------------------------------------------------------------

 SCF Done:  E(RHF) =  -167.914294273     A.U. after    2 cycles

 The electronic state is 1-A'.
 Alpha  occ. eigenvalues --  -20.67225 -15.52072 -11.35555  -1.59060  -1.24400
 Alpha  occ. eigenvalues --   -0.88178  -0.71981  -0.67216  -0.61705  -0.50847
 Alpha  occ. eigenvalues --   -0.48868
 Alpha virt. eigenvalues --    0.01770   0.07933   0.09337   0.09547   0.12180
 Alpha virt. eigenvalues --    0.17240   0.17530   0.18768   0.19522   0.22422
 Alpha virt. eigenvalues --    0.22975   0.27148   0.27301   0.28946   0.29489

 Mulliken charges:
               1
     1  N    0.492575
     2  C   -0.059777
     3  O   -0.823176
     4  H    0.390378
 Sum of Mulliken charges =  -0.00000

 Dipole moment (field-independent basis, Debye):
    X=              1.4560    Y=             -4.3671    Z=              0.0000  Tot=              4.6034

 Test job not archived.
 1\1\GINC-SE145\SP\RHF\Aug-CC-pVDZ\C1H1N1O1\OHZDE\05-Apr-2025\0\\#t hf
 aug-cc-pvdz iop(5/13=1,5/36=2,99/5=2) pseudo=read geom=check guess=(re
 ad,tcheck) scf=(maxcycle=1)\\title\\0,1\N,0,0.042436,1.333654,0.\C,0,0
 .,0.181234,0.\O,0,-0.12899,-1.109677,0.\H,0,0.734862,-1.545563,0.\\Ver
 sion=ES64L-G16RevC.01\State=1-A'\HF=-167.9142943\RMSD=1.607e-02\Dipole
 =0.5728438,-1.7181552,0.\Quadrupole=1.3403279,-1.4372812,0.0969533,-2.
 3243337,0.,0.\PG=CS [SG(C1H1N1O1)]\\@

 Normal termination of Gaussian 16 at Sat Apr  5 22:58:11 2025.
