 Gaussian 16, Revision C.01,

 ----------------------------------------------------------------------
 #t hf aug-cc-pvdz symm=none int=(grid=ultrafine) guess=(read,tcheck) s
 table=(opt,rrhf)
 ----------------------------------------------------------------------
 -----
 title
 -----
 Symbolic Z-matrix:
 Charge =  0 Multiplicity = 1

 SCF Done:  E(RHF) =  -411.318218191     A.U. after   15 cycles
 Normal termination of Gaussian 16 at Sat Apr  5 22:57:22 2025.
 Gaussian 16:  ES64L-G16RevC.01  3-Jul-2019

 ----------------------------------------------------------------------
 #t hf aug-cc-pvdz iop(5/13=1,5/36=2,99/5=2) pseudo=read geom=check gue
 ss=(read,tcheck) scf=(maxcycle=1)
 ----------------------------------------------------------------------
 -----
 title
 -----
 Structure from the checkpoint file:  "cyanoacetyl_isocyanate.chk"
 Charge =  0 Multiplicity = 1

                         Standard orientation:
 ---------------------------------------------------------------------
 Center     Atomic      Atomic             Coordinates (Angstroms)
 Number     Number       Type             X           Y           Z
 ---------------------------------------------------------------------
      1          8           0       -0.110702    1.322911   -0.000131
      2          8           0        3.466618    0.112051   -0.000002
      3          7           0        1.198390   -0.579867    0.000060
      4          7           0       -3.543633    0.280825   -0.000038
      5          6           0       -1.194850   -0.840419    0.000081
      6          6           0       -0.022543    0.130129   -0.000013
      7          6           0       -2.498057   -0.193546    0.000012
      8          6           0        2.344250   -0.163499    0.000022
      9          1           0       -1.101710   -1.491289   -0.872483
     10          1           0       -1.101714   -1.491113    0.872777
 ---------------------------------------------------------------------

 SCF Done:  E(RHF) =  -411.714174602     A.U. after    2 cycles

 The electronic state is 1-A.
 Alpha  occ. eigenvalues --  -20.65915 -20.58762 -15.57228 -15.53095 -11.47260
 Alpha  occ. eigenvalues --  -11.43923 -11.33296 -11.29884  -1.60673  -1.53883
 Alpha  occ. eigenvalues --   -1.32796  -1.25306  -1.11916  -0.97663  -0.79324
 Alpha  occ. eigenvalues --   -0.76845  -0.75353  -0.72736  -0.71044  -0.68530
 Alpha  occ. eigenvalues --   -0.67590  -0.61803  -0.59272  -0.56202  -0.51948
 Alpha  occ. eigenvalues --   -0.51310  -0.49835  -0.48603
 Alpha virt. eigenvalues --    0.02314   0.04178   0.05413   0.07294   0.07742
 Alpha virt. eigenvalues --    0.08162   0.08509   0.08954   0.10403   0.10562
 Alpha virt. eigenvalues --    0.11129   0.12331   0.13166   0.14225   0.14695

 Mulliken charges:
               1
     1  O   -1.120146
     2  O   -0.873371
     3  N    0.804157
     4  N    0.892922
     5  C   -0.007937
     6  C    0.618399
     7  C   -1.373702
     8  C    0.321390
     9  H    0.369143
    10  H    0.369144
 Sum of Mulliken charges =  -0.00000

 Dipole moment (field-independent basis, Debye):
    X=              3.4136    Y=             -3.6280    Z=              0.0004  Tot=              4.9815

 Test job not archived.
 1\1\GINC-SE183\SP\RHF\Aug-CC-pVDZ\C4H2N2O2\OHZDE\05-Apr-2025\0\\#t hf
 aug-cc-pvdz iop(5/13=1,5/36=2,99/5=2) pseudo=read geom=check guess=(re
 ad,tcheck) scf=(maxcycle=1)\\title\\0,1\O,0,-0.110702,1.322911,-0.0001
 31\O,0,3.466618,0.112051,-0.000002\N,0,1.19839,-0.579867,0.00006\N,0,-
 3.543633,0.280825,-0.000038\C,0,-1.19485,-0.840419,0.000081\C,0,-0.022
 543,0.130129,-0.000013\C,0,-2.498057,-0.193546,0.000012\C,0,2.34425,-0
 .163499,0.000022\H,0,-1.10171,-1.491289,-0.872483\H,0,-1.101714,-1.491
 113,0.872777\\Version=ES64L-G16RevC.01\State=1-A\HF=-411.7141746\RMSD=

 Normal termination of Gaussian 16 at Sat Apr  5 22:58:09 2025.
