 Gaussian 16, Revision C.01,

 ----------------------------------------------------------------------
 #t hf aug-cc-pvdz symm=none int=(grid=ultrafine) guess=(read,tcheck) s
 table=(opt,rrhf)
 ----------------------------------------------------------------------
 -----
 title
 -----
 Symbolic Z-matrix:
 Charge =  0 Multiplicity = 1

 SCF Done:  E(RHF) =  -184.611153465     A.U. after   10 cycles
 Normal termination of Gaussian 16 at Sat Apr  5 22:57:06 2025.
 Gaussian 16:  ES64L-G16RevC.01  3-Jul-2019

 ----------------------------------------------------------------------
 #t hf aug-cc-pvdz iop(5/13=1,5/36=2,99/5=2) pseudo=read geom=check gue
 ss=(read,tcheck) scf=(maxcycle=1)
 ----------------------------------------------------------------------
 -----
 title
 -----
 Structure from the checkpoint file:  "cyanogen.chk"
 Charge =  0 Multiplicity = 1

                         Standard orientation:
 ---------------------------------------------------------------------
 Center     Atomic      Atomic             Coordinates (Angstroms)
 Number     Number       Type             X           Y           Z
 ---------------------------------------------------------------------
      1          6           0        0.000000    0.000000    0.687813
      2          6           0        0.000000    0.000000   -0.687813
      3          7           0        0.000000    0.000000    1.839967
      4          7           0        0.000000    0.000000   -1.839967
 ---------------------------------------------------------------------

 SCF Done:  E(RHF) =  -184.783710761     A.U. after    2 cycles

 The electronic state is 1-SGG.
 Alpha  occ. eigenvalues --  -15.59812 -15.59742 -11.36130 -11.36027  -1.31529
 Alpha  occ. eigenvalues --   -1.29528  -0.99975  -0.68764  -0.67203  -0.63294
 Alpha  occ. eigenvalues --   -0.63294  -0.53791  -0.53791
 Alpha virt. eigenvalues --    0.02299   0.02299   0.04881   0.07138   0.10455
 Alpha virt. eigenvalues --    0.10455   0.12861   0.12861   0.13946   0.18846
 Alpha virt. eigenvalues --    0.20998   0.23060   0.23060   0.25076   0.25076

 Mulliken charges:
               1
     1  C   -0.910883
     2  C   -0.910883
     3  N    0.910883
     4  N    0.910883
 Sum of Mulliken charges =   0.00000

 Dipole moment (field-independent basis, Debye):
    X=              0.0000    Y=             -0.0000    Z=             -0.0000  Tot=              0.0000

 Test job not archived.
 1\1\GINC-SE190\SP\RHF\Aug-CC-pVDZ\C2N2\OHZDE\05-Apr-2025\0\\#t hf aug-
 cc-pvdz iop(5/13=1,5/36=2,99/5=2) pseudo=read geom=check guess=(read,t
 check) scf=(maxcycle=1)\\title\\0,1\C,0,0.,0.,0.687813\C,0,0.,0.,-0.68
 7813\N,0,0.,0.,1.839967\N,0,0.,0.,-1.839967\\Version=ES64L-G16RevC.01\
 State=1-SGG\HF=-184.7837108\RMSD=1.369e-01\Dipole=0.,0.,0.\Quadrupole=
 2.7462493,2.7462493,-5.4924986,0.,0.,0.\PG=D*H [C*(N1C1.C1N1)]\\@

 Normal termination of Gaussian 16 at Sat Apr  5 22:58:08 2025.
