 Gaussian 16, Revision C.01,

 ----------------------------------------------------------------------
 #t hf aug-cc-pvdz symm=none int=(grid=ultrafine) guess=(read,tcheck) s
 table=(opt,rrhf)
 ----------------------------------------------------------------------
 -----
 title
 -----
 Symbolic Z-matrix:
 Charge =  0 Multiplicity = 1

 SCF Done:  E(RHF) =  -229.827238494     A.U. after   13 cycles
 Normal termination of Gaussian 16 at Sat Apr  5 22:58:16 2025.
 Gaussian 16:  ES64L-G16RevC.01  3-Jul-2019

 ----------------------------------------------------------------------
 #t hf aug-cc-pvdz iop(5/13=1,5/36=2,99/5=2) pseudo=read geom=check gue
 ss=(read,tcheck) scf=(maxcycle=1)
 ----------------------------------------------------------------------
 -----
 title
 -----
 Structure from the checkpoint file:  "cyclobutanone.chk"
 Charge =  0 Multiplicity = 1

                         Standard orientation:
 ---------------------------------------------------------------------
 Center     Atomic      Atomic             Coordinates (Angstroms)
 Number     Number       Type             X           Y           Z
 ---------------------------------------------------------------------
      1          1           0       -0.839567   -2.094249    0.000000
      2          1           0        0.927182   -2.122428    0.000000
      3          6           0        0.054138   -1.475036    0.000000
      4          8           0       -0.153392    1.866794   -0.000000
      5          6           0       -0.034224    0.676084   -0.000000
      6          1           0        0.974306   -0.304588    1.688889
      7          1           0        0.974306   -0.304588   -1.688889
      8          1           0       -0.789114   -0.376716    1.798667
      9          1           0       -0.789114   -0.376716   -1.798667
     10          6           0        0.054138   -0.380113    1.107874
     11          6           0        0.054138   -0.380113   -1.107874
 ---------------------------------------------------------------------

 SCF Done:  E(RHF) =  -230.066510066     A.U. after    2 cycles

 The electronic state is 1-A'.
 Alpha  occ. eigenvalues --  -20.54166 -11.33978 -11.25042 -11.24921 -11.24916
 Alpha  occ. eigenvalues --   -1.47625  -1.14200  -0.93809  -0.87376  -0.73528
 Alpha  occ. eigenvalues --   -0.67569  -0.67379  -0.62317  -0.57411  -0.54709
 Alpha  occ. eigenvalues --   -0.51575  -0.49528  -0.48218  -0.39771
 Alpha virt. eigenvalues --    0.03374   0.03898   0.04255   0.04727   0.06362
 Alpha virt. eigenvalues --    0.07092   0.08842   0.11552   0.11779   0.12553
 Alpha virt. eigenvalues --    0.13778   0.14209   0.15682   0.15702   0.15771

 Mulliken charges:
               1
     1  H    0.067301
     2  H    0.040783
     3  C    0.039536
     4  O   -1.236400
     5  C    1.080007
     6  H    0.153414
     7  H    0.153414
     8  H    0.106092
     9  H    0.106092
    10  C   -0.255119
    11  C   -0.255119
 Sum of Mulliken charges =  -0.00000

 Dipole moment (field-independent basis, Debye):
    X=              0.3241    Y=             -3.2855    Z=              0.0000  Tot=              3.3014

 Test job not archived.
 1\1\GINC-SE187\SP\RHF\Aug-CC-pVDZ\C4H6O1\OHZDE\05-Apr-2025\0\\#t hf au
 g-cc-pvdz iop(5/13=1,5/36=2,99/5=2) pseudo=read geom=check guess=(read
 ,tcheck) scf=(maxcycle=1)\\title\\0,1\H,0,-0.839567,-2.094249,0.\H,0,0
 .927182,-2.122428,0.\C,0,0.054138,-1.475036,0.\O,0,-0.153392,1.866794,
 0.\C,0,-0.034224,0.676084,0.\H,0,0.974306,-0.304588,1.688889\H,0,0.974
 306,-0.304588,-1.688889\H,0,-0.789114,-0.376716,1.798667\H,0,-0.789114
 ,-0.376716,-1.798667\C,0,0.054138,-0.380113,1.107874\C,0,0.054138,-0.3
 80113,-1.107874\\Version=ES64L-G16RevC.01\State=1-A'\HF=-230.0665101\R

 Normal termination of Gaussian 16 at Sat Apr  5 22:58:19 2025.
