 Gaussian 16, Revision C.01,

 ----------------------------------------------------------------------
 #t hf aug-cc-pvdz symm=none int=(grid=ultrafine) guess=(read,tcheck) s
 table=(opt,rrhf)
 ----------------------------------------------------------------------
 -----
 title
 -----
 Symbolic Z-matrix:
 Charge =  0 Multiplicity = 1

 SCF Done:  E(RHF) =  -247.859840760     A.U. after   14 cycles
 Normal termination of Gaussian 16 at Sat Apr  5 22:58:29 2025.
 Gaussian 16:  ES64L-G16RevC.01  3-Jul-2019

 ----------------------------------------------------------------------
 #t hf aug-cc-pvdz iop(5/13=1,5/36=2,99/5=2) pseudo=read geom=check gue
 ss=(read,tcheck) scf=(maxcycle=1)
 ----------------------------------------------------------------------
 -----
 title
 -----
 Structure from the checkpoint file:  "cyclobutanecarbonitrile.chk"
 Charge =  0 Multiplicity = 1

                         Standard orientation:
 ---------------------------------------------------------------------
 Center     Atomic      Atomic             Coordinates (Angstroms)
 Number     Number       Type             X           Y           Z
 ---------------------------------------------------------------------
      1          1           0        1.757205   -0.189555    1.463765
      2          1           0        0.080822   -0.525541    1.928692
      3          6           0        0.759101   -0.406803    1.087809
      4          1           0       -0.167443   -2.080157   -0.000000
      5          1           0        1.596662   -2.202628   -0.000000
      6          6           0        0.759101   -1.508440   -0.000000
      7          1           0        0.080822   -0.525541   -1.928692
      8          1           0        1.757205   -0.189555   -1.463765
      9          6           0        0.759101   -0.406803   -1.087809
     10          1           0        0.914383    1.569711    0.000000
     11          6           0        0.347469    0.639812    0.000000
     12          7           0       -2.193925    1.206944    0.000000
     13          6           0       -1.068470    0.964678    0.000000
 ---------------------------------------------------------------------

 SCF Done:  E(RHF) =  -248.118682394     A.U. after    2 cycles

 The electronic state is 1-A'.
 Alpha  occ. eigenvalues --  -15.50600 -11.28792 -11.27472 -11.25868 -11.25864
 Alpha  occ. eigenvalues --  -11.24896  -1.23134  -1.16249  -0.96752  -0.92979
 Alpha  occ. eigenvalues --   -0.81309  -0.71354  -0.69458  -0.62918  -0.59116
 Alpha  occ. eigenvalues --   -0.58572  -0.55957  -0.52578  -0.50024  -0.49523
 Alpha  occ. eigenvalues --   -0.46271  -0.46214
 Alpha virt. eigenvalues --    0.02780   0.03509   0.03785   0.04329   0.05856
 Alpha virt. eigenvalues --    0.06587   0.07169   0.09493   0.11452   0.11686
 Alpha virt. eigenvalues --    0.12221   0.12753   0.14198   0.14787   0.15609

 Mulliken charges:
               1
     1  H    0.052824
     2  H    0.032131
     3  C    0.262912
     4  H    0.091598
     5  H   -0.002928
     6  C   -0.135415
     7  H    0.032131
     8  H    0.052824
     9  C    0.262912
    10  H   -0.002092
    11  C    0.229643
    12  N    1.031193
    13  C   -1.907733
 Sum of Mulliken charges =  -0.00000

 Dipole moment (field-independent basis, Debye):
    X=              4.8230    Y=             -1.5881    Z=             -0.0000  Tot=              5.0778

 Test job not archived.
 1\1\GINC-SE232\SP\RHF\Aug-CC-pVDZ\C5H7N1\OHZDE\05-Apr-2025\0\\#t hf au
 g-cc-pvdz iop(5/13=1,5/36=2,99/5=2) pseudo=read geom=check guess=(read
 ,tcheck) scf=(maxcycle=1)\\title\\0,1\H,0,1.757205,-0.189555,1.463765\
 H,0,0.080822,-0.525541,1.928692\C,0,0.759101,-0.406803,1.087809\H,0,-0
 .167443,-2.080157,0.\H,0,1.596662,-2.202628,0.\C,0,0.759101,-1.50844,0
 .\H,0,0.080822,-0.525541,-1.928692\H,0,1.757205,-0.189555,-1.463765\C,
 0,0.759101,-0.406803,-1.087809\H,0,0.914383,1.569711,0.\C,0,0.347469,0
 .639812,0.\N,0,-2.193925,1.206944,0.\C,0,-1.06847,0.964678,0.\\Version

 Normal termination of Gaussian 16 at Sat Apr  5 22:58:33 2025.
