 Gaussian 16, Revision C.01,

 ----------------------------------------------------------------------
 #t hf aug-cc-pvdz symm=none int=(grid=ultrafine) guess=(read,tcheck) s
 table=(opt,rrhf)
 ----------------------------------------------------------------------
 -----
 title
 -----
 Symbolic Z-matrix:
 Charge =  0 Multiplicity = 1

 SCF Done:  E(RHF) =  -304.727555914     A.U. after   14 cycles
 Normal termination of Gaussian 16 at Sat Apr  5 22:58:20 2025.
 Gaussian 16:  ES64L-G16RevC.01  3-Jul-2019

 ----------------------------------------------------------------------
 #t hf aug-cc-pvdz iop(5/13=1,5/36=2,99/5=2) pseudo=read geom=check gue
 ss=(read,tcheck) scf=(maxcycle=1)
 ----------------------------------------------------------------------
 -----
 title
 -----
 Structure from the checkpoint file:  "cyclopropanecarboxylic_acid.chk"
 Charge =  0 Multiplicity = 1

                         Standard orientation:
 ---------------------------------------------------------------------
 Center     Atomic      Atomic             Coordinates (Angstroms)
 Number     Number       Type             X           Y           Z
 ---------------------------------------------------------------------
      1          6           0       -0.270459   -0.778426    0.000000
      2          6           0        0.336510    1.596630    0.743093
      3          6           0        0.336510    1.596630   -0.743093
      4          6           0        0.710072    0.327080    0.000000
      5          8           0       -1.472192   -0.658476    0.000000
      6          8           0        0.336510   -1.992090    0.000000
      7          1           0        1.135578    2.100682    1.266594
      8          1           0       -0.620002    1.590351    1.244203
      9          1           0       -0.620002    1.590351   -1.244203
     10          1           0        1.135578    2.100682   -1.266594
     11          1           0        1.746444    0.027754    0.000000
     12          1           0       -0.367938   -2.656783    0.000000
 ---------------------------------------------------------------------

 SCF Done:  E(RHF) =  -305.037968632     A.U. after    2 cycles

 The electronic state is 1-A'.
 Alpha  occ. eigenvalues --  -20.60002 -20.53285 -11.39443 -11.25948 -11.25466
 Alpha  occ. eigenvalues --  -11.25407  -1.54504  -1.44868  -1.16917  -0.94209
 Alpha  occ. eigenvalues --   -0.84262  -0.78435  -0.73327  -0.70512  -0.65940
 Alpha  occ. eigenvalues --   -0.62871  -0.61754  -0.56403  -0.53997  -0.48240
 Alpha  occ. eigenvalues --   -0.46282  -0.44406  -0.43668
 Alpha virt. eigenvalues --    0.03495   0.04028   0.04414   0.04840   0.06378
 Alpha virt. eigenvalues --    0.07185   0.09969   0.11333   0.11416   0.13382
 Alpha virt. eigenvalues --    0.13447   0.15039   0.15076   0.15155   0.16306

 Mulliken charges:
               1
     1  C    1.811924
     2  C    0.203203
     3  C    0.203203
     4  C    0.494068
     5  O   -1.255966
     6  O   -1.274968
     7  H   -0.115389
     8  H   -0.098592
     9  H   -0.098592
    10  H   -0.115389
    11  H   -0.170997
    12  H    0.417494
 Sum of Mulliken charges =   0.00000

 Dipole moment (field-independent basis, Debye):
    X=              1.7667    Y=              0.4351    Z=             -0.0000  Tot=              1.8195

 Test job not archived.
 1\1\GINC-SE202\SP\RHF\Aug-CC-pVDZ\C4H6O2\OHZDE\05-Apr-2025\0\\#t hf au
 g-cc-pvdz iop(5/13=1,5/36=2,99/5=2) pseudo=read geom=check guess=(read
 ,tcheck) scf=(maxcycle=1)\\title\\0,1\C,0,-0.270459,-0.778426,0.\C,0,0
 .33651,1.59663,0.743093\C,0,0.33651,1.59663,-0.743093\C,0,0.710072,0.3
 2708,0.\O,0,-1.472192,-0.658476,0.\O,0,0.33651,-1.99209,0.\H,0,1.13557
 8,2.100682,1.266594\H,0,-0.620002,1.590351,1.244203\H,0,-0.620002,1.59
 0351,-1.244203\H,0,1.135578,2.100682,-1.266594\H,0,1.746444,0.027754,0
 .\H,0,-0.367938,-2.656783,0.\\Version=ES64L-G16RevC.01\State=1-A'\HF=-

 Normal termination of Gaussian 16 at Sat Apr  5 22:58:24 2025.
