 Gaussian 16, Revision C.01,

 ----------------------------------------------------------------------
 #t hf aug-cc-pvdz symm=none int=(grid=ultrafine) guess=(read,tcheck) s
 table=(opt,rrhf)
 ----------------------------------------------------------------------
 -----
 title
 -----
 Symbolic Z-matrix:
 Charge =  0 Multiplicity = 1

 SCF Done:  E(RHF) =  -309.105592653     A.U. after   12 cycles

 1\1\GINC-SE222\Stability\RHF\Aug-CC-pVDZ\C6H12O1\OHZDE\05-Apr-2025\0\\
 #t hf aug-cc-pvdz symm=none int=(grid=ultrafine) guess=(read,tcheck) s
 table=(opt,rrhf)\\title\\0,1\C,0,1.868671,0.015665,-0.274924\C,0,1.165
 857,-1.254608,0.213738\C,0,1.14321,1.27565,0.20707\C,0,-0.316921,-1.26
 6074,-0.173397\C,0,-0.338799,1.251562,-0.185476\C,0,-1.031529,-0.01431
 5,0.318188\O,0,-2.389229,-0.097381,-0.127585\H,0,2.90705,0.026674,0.06
 3303\H,0,1.897315,0.013456,-1.369367\H,0,1.659644,-2.140622,-0.189833\
 H,0,1.257836,-1.320104,1.302922\H,0,1.229487,1.346791,1.29633\H,0,1.62

 Normal termination of Gaussian 16 at Sat Apr  5 22:57:54 2025.
 Gaussian 16:  ES64L-G16RevC.01  3-Jul-2019

 ----------------------------------------------------------------------
 #t hf aug-cc-pvdz iop(5/13=1,5/36=2,99/5=2) pseudo=read geom=check gue
 ss=(read,tcheck) scf=(maxcycle=1)
 ----------------------------------------------------------------------
 -----
 title
 -----
 Structure from the checkpoint file:  "cyclohexanol.chk"
 Charge =  0 Multiplicity = 1

                         Standard orientation:
 ---------------------------------------------------------------------
 Center     Atomic      Atomic             Coordinates (Angstroms)
 Number     Number       Type             X           Y           Z
 ---------------------------------------------------------------------
      1          6           0        1.868671    0.015665   -0.274924
      2          6           0        1.165857   -1.254608    0.213738
      3          6           0        1.143210    1.275650    0.207070
      4          6           0       -0.316921   -1.266074   -0.173397
      5          6           0       -0.338799    1.251562   -0.185476
      6          6           0       -1.031529   -0.014315    0.318188
      7          8           0       -2.389229   -0.097382   -0.127585
      8          1           0        2.907050    0.026675    0.063303
      9          1           0        1.897315    0.013456   -1.369367
     10          1           0        1.659644   -2.140622   -0.189833
     11          1           0        1.257836   -1.320104    1.302922
     12          1           0        1.229487    1.346791    1.296330
     13          1           0        1.621045    2.169628   -0.198474
     14          1           0       -0.419613   -1.310640   -1.261741
     15          1           0       -0.817792   -2.148289    0.228615
     16          1           0       -0.850241    2.135483    0.207891
     17          1           0       -0.437987    1.283978   -1.274557
     18          1           0       -1.013629   -0.011453    1.417302
     19          1           0       -2.862212    0.686871    0.167083
 ---------------------------------------------------------------------

 SCF Done:  E(RHF) =  -309.440428668     A.U. after    2 cycles

 The electronic state is 1-A.
 Alpha  occ. eigenvalues --  -20.54023 -11.27900 -11.22835 -11.22564 -11.22535
 Alpha  occ. eigenvalues --  -11.22497 -11.21949  -1.43880  -1.11566  -1.00818
 Alpha  occ. eigenvalues --   -0.99442  -0.84494  -0.82759  -0.76375  -0.68678
 Alpha  occ. eigenvalues --   -0.65843  -0.62035  -0.61413  -0.59206  -0.55265
 Alpha  occ. eigenvalues --   -0.53898  -0.53055  -0.49709  -0.49236  -0.46651
 Alpha  occ. eigenvalues --   -0.46419  -0.44236  -0.42234
 Alpha virt. eigenvalues --    0.03294   0.03584   0.03616   0.04266   0.05772
 Alpha virt. eigenvalues --    0.06053   0.06337   0.06602   0.06792   0.09190
 Alpha virt. eigenvalues --    0.09484   0.09608   0.13526   0.14098   0.14568

 Mulliken charges:
               1
     1  C   -0.254651
     2  C   -0.201355
     3  C   -0.222230
     4  C   -0.366454
     5  C   -0.322020
     6  C    1.062003
     7  O   -1.461270
     8  H    0.108511
     9  H    0.146635
    10  H    0.093749
    11  H    0.158345
    12  H    0.159387
    13  H    0.091252
    14  H    0.192579
    15  H    0.135112
    16  H    0.074502
    17  H    0.204053
    18  H    0.122360
    19  H    0.279495
 Sum of Mulliken charges =  -0.00000

 Dipole moment (field-independent basis, Debye):
    X=              0.9517    Y=              1.1916    Z=              0.8006  Tot=              1.7224

 Test job not archived.
 1\1\GINC-SE222\SP\RHF\Aug-CC-pVDZ\C6H12O1\OHZDE\05-Apr-2025\0\\#t hf a
 ug-cc-pvdz iop(5/13=1,5/36=2,99/5=2) pseudo=read geom=check guess=(rea
 d,tcheck) scf=(maxcycle=1)\\title\\0,1\C,0,1.868671,0.015665,-0.274924
 \C,0,1.165857,-1.254608,0.213738\C,0,1.14321,1.27565,0.20707\C,0,-0.31
 6921,-1.266074,-0.173397\C,0,-0.338799,1.251562,-0.185476\C,0,-1.03152
 9,-0.014315,0.318188\O,0,-2.389229,-0.097381,-0.127585\H,0,2.90705,0.0
 26674,0.063303\H,0,1.897315,0.013456,-1.369367\H,0,1.659644,-2.140622,
 -0.189833\H,0,1.257836,-1.320104,1.302922\H,0,1.229487,1.346791,1.2963

 Normal termination of Gaussian 16 at Sat Apr  5 22:58:16 2025.
