 Gaussian 16, Revision C.01,

 ----------------------------------------------------------------------
 #t hf aug-cc-pvdz symm=none int=(grid=ultrafine) guess=(read,tcheck) s
 table=(opt,rrhf)
 ----------------------------------------------------------------------
 -----
 title
 -----
 Symbolic Z-matrix:
 Charge =  0 Multiplicity = 1

 SCF Done:  E(RHF) =  -153.661898498     A.U. after   10 cycles
 Normal termination of Gaussian 16 at Sat Apr  5 22:57:07 2025.
 Gaussian 16:  ES64L-G16RevC.01  3-Jul-2019

 ----------------------------------------------------------------------
 #t hf aug-cc-pvdz iop(5/13=1,5/36=2,99/5=2) pseudo=read geom=check gue
 ss=(read,tcheck) scf=(maxcycle=1)
 ----------------------------------------------------------------------
 -----
 title
 -----
 Structure from the checkpoint file:  "cyclobutadiene.chk"
 Charge =  0 Multiplicity = 1

                         Standard orientation:
 ---------------------------------------------------------------------
 Center     Atomic      Atomic             Coordinates (Angstroms)
 Number     Number       Type             X           Y           Z
 ---------------------------------------------------------------------
      1          6           0        0.000000    0.664652    0.787189
      2          6           0        0.000000    0.664652   -0.787189
      3          6           0       -0.000000   -0.664652    0.787189
      4          6           0       -0.000000   -0.664652   -0.787189
      5          1           0        0.000000    1.428618    1.548923
      6          1           0        0.000000    1.428618   -1.548923
      7          1           0       -0.000000   -1.428618    1.548923
      8          1           0       -0.000000   -1.428618   -1.548923
 ---------------------------------------------------------------------

 SCF Done:  E(RHF) =  -153.822401248     A.U. after    2 cycles

 The electronic state is 1-AG.
 Alpha  occ. eigenvalues --  -11.25147 -11.25141 -11.25022 -11.25012  -1.16551
 Alpha  occ. eigenvalues --   -0.92158  -0.82675  -0.71026  -0.70736  -0.57173
 Alpha  occ. eigenvalues --   -0.55424  -0.48640  -0.46368  -0.28875
 Alpha virt. eigenvalues --    0.03915   0.03915   0.04079   0.05440   0.06234
 Alpha virt. eigenvalues --    0.11880   0.12322   0.13008   0.13505   0.14212
 Alpha virt. eigenvalues --    0.14397   0.15471   0.15724   0.16749   0.17016

 Mulliken charges:
               1
     1  C    0.095815
     2  C    0.095815
     3  C    0.095815
     4  C    0.095815
     5  H   -0.095815
     6  H   -0.095815
     7  H   -0.095815
     8  H   -0.095815
 Sum of Mulliken charges =   0.00000

 Dipole moment (field-independent basis, Debye):
    X=              0.0000    Y=              0.0000    Z=              0.0000  Tot=              0.0000

 Test job not archived.
 1\1\GINC-SE194\SP\RHF\Aug-CC-pVDZ\C4H4\OHZDE\05-Apr-2025\0\\#t hf aug-
 cc-pvdz iop(5/13=1,5/36=2,99/5=2) pseudo=read geom=check guess=(read,t
 check) scf=(maxcycle=1)\\title\\0,1\C,0,0.,0.664652,0.787189\C,0,0.,0.
 664652,-0.787189\C,0,0.,-0.664652,0.787189\C,0,0.,-0.664652,-0.787189\
 H,0,0.,1.428618,1.548923\H,0,0.,1.428618,-1.548923\H,0,0.,-1.428618,1.
 548923\H,0,0.,-1.428618,-1.548923\\Version=ES64L-G16RevC.01\State=1-AG
 \HF=-153.8224012\RMSD=2.702e-02\Dipole=0.,0.,0.\Quadrupole=-3.1681335,
 2.3403416,0.8277919,0.,0.,0.\PG=D02H [SG(C4H4)]\\@

 Normal termination of Gaussian 16 at Sat Apr  5 22:58:07 2025.
