 Gaussian 16, Revision C.01,

 ----------------------------------------------------------------------
 #t hf aug-cc-pvdz symm=none int=(grid=ultrafine) guess=(read,tcheck) s
 table=(opt,rrhf)
 ----------------------------------------------------------------------
 -----
 title
 -----
 Symbolic Z-matrix:
 Charge =  0 Multiplicity = 1

 SCF Done:  E(RHF) =  -268.899919965     A.U. after   14 cycles
 Normal termination of Gaussian 16 at Sat Apr  5 22:58:32 2025.
 Gaussian 16:  ES64L-G16RevC.01  3-Jul-2019

 ----------------------------------------------------------------------
 #t hf aug-cc-pvdz iop(5/13=1,5/36=2,99/5=2) pseudo=read geom=check gue
 ss=(read,tcheck) scf=(maxcycle=1)
 ----------------------------------------------------------------------
 -----
 title
 -----
 Structure from the checkpoint file:  "cyclopentanone.chk"
 Charge =  0 Multiplicity = 1

                         Standard orientation:
 ---------------------------------------------------------------------
 Center     Atomic      Atomic             Coordinates (Angstroms)
 Number     Number       Type             X           Y           Z
 ---------------------------------------------------------------------
      1          6           0        0.000000    0.771638   -1.378323
      2          1           0       -0.624422    1.190682   -2.165746
      3          1           0        1.015837    1.139927   -1.539367
      4          6           0       -0.000000   -0.771638   -1.378323
      5          1           0        0.624422   -1.190682   -2.165746
      6          1           0       -1.015837   -1.139927   -1.539367
      7          6           0        0.473205   -1.145341    0.031186
      8          1           0        1.566143   -1.166083    0.089614
      9          1           0        0.115834   -2.102523    0.407428
     10          6           0       -0.473205    1.145341    0.031186
     11          1           0       -0.115834    2.102523    0.407428
     12          1           0       -1.566143    1.166083    0.089614
     13          6           0        0.000000   -0.000000    0.924314
     14          8           0        0.000000   -0.000000    2.129486
 ---------------------------------------------------------------------

 SCF Done:  E(RHF) =  -269.183300489     A.U. after    2 cycles

 The electronic state is 1-A.
 Alpha  occ. eigenvalues --  -20.53126 -11.33431 -11.24463 -11.24449 -11.24344
 Alpha  occ. eigenvalues --  -11.24343  -1.46658  -1.13613  -0.99397  -0.94448
 Alpha  occ. eigenvalues --   -0.81601  -0.74201  -0.67889  -0.67298  -0.60166
 Alpha  occ. eigenvalues --   -0.60062  -0.57299  -0.56461  -0.51702  -0.50303
 Alpha  occ. eigenvalues --   -0.48840  -0.47738  -0.39340
 Alpha virt. eigenvalues --    0.03273   0.03532   0.03822   0.04492   0.06313
 Alpha virt. eigenvalues --    0.06483   0.06662   0.07180   0.09350   0.12212
 Alpha virt. eigenvalues --    0.14145   0.14194   0.14570   0.14912   0.15425

 Mulliken charges:
               1
     1  C   -0.126422
     2  H    0.141034
     3  H    0.100214
     4  C   -0.126422
     5  H    0.141034
     6  H    0.100214
     7  C   -0.391372
     8  H    0.236857
     9  H    0.163123
    10  C   -0.391372
    11  H    0.163123
    12  H    0.236857
    13  C    1.137374
    14  O   -1.384242
 Sum of Mulliken charges =  -0.00000

 Dipole moment (field-independent basis, Debye):
    X=             -0.0000    Y=             -0.0000    Z=             -3.4621  Tot=              3.4621

 Test job not archived.
 1\1\GINC-SE172\SP\RHF\Aug-CC-pVDZ\C5H8O1\OHZDE\05-Apr-2025\0\\#t hf au
 g-cc-pvdz iop(5/13=1,5/36=2,99/5=2) pseudo=read geom=check guess=(read
 ,tcheck) scf=(maxcycle=1)\\title\\0,1\C,0,0.,0.771638,-1.378323\H,0,-0
 .624422,1.190682,-2.165746\H,0,1.015837,1.139927,-1.539367\C,0,0.,-0.7
 71638,-1.378323\H,0,0.624422,-1.190682,-2.165746\H,0,-1.015837,-1.1399
 27,-1.539367\C,0,0.473205,-1.145341,0.031186\H,0,1.566143,-1.166083,0.
 089614\H,0,0.115834,-2.102523,0.407428\C,0,-0.473205,1.145341,0.031186
 \H,0,-0.115834,2.102523,0.407428\H,0,-1.566143,1.166083,0.089614\C,0,0

 Normal termination of Gaussian 16 at Sat Apr  5 22:58:36 2025.
