 Gaussian 16, Revision C.01,

 ----------------------------------------------------------------------
 #t hf aug-cc-pvdz symm=none int=(grid=ultrafine) guess=(read,tcheck) s
 table=(opt,rrhf)
 ----------------------------------------------------------------------
 -----
 title
 -----
 Symbolic Z-matrix:
 Charge =  0 Multiplicity = 1

 SCF Done:  E(RHF) =  -458.848569584     A.U. after   12 cycles

 1\1\GINC-SE040\Stability\RHF\Aug-CC-pVDZ\C6H12O3\OHZDE\05-Apr-2025\0\\
 #t hf aug-cc-pvdz symm=none int=(grid=ultrafine) guess=(read,tcheck) s
 table=(opt,rrhf)\\title\\0,1\C,0,-1.366891,0.474228,-0.146969\C,0,0.27
 5353,-1.434457,-0.131432\C,0,1.099759,0.948113,-0.139858\C,0,-1.098479
 ,-0.958309,0.321858\C,0,-0.269625,1.432558,0.31925\C,0,1.373754,-0.482
 882,0.325882\O,0,-2.056536,-1.879394,-0.2041\O,0,-0.446869,2.750757,-0
 .204758\O,0,2.605127,-0.984857,-0.196602\H,0,-1.412028,0.488864,-1.238
 475\H,0,-2.339459,0.812617,0.226852\H,0,0.466279,-2.43616,0.253202\H,0

 Normal termination of Gaussian 16 at Sat Apr  5 23:00:03 2025.
 Gaussian 16:  ES64L-G16RevC.01  3-Jul-2019

 ----------------------------------------------------------------------
 #t hf aug-cc-pvdz iop(5/13=1,5/36=2,99/5=2) pseudo=read geom=check gue
 ss=(read,tcheck) scf=(maxcycle=1)
 ----------------------------------------------------------------------
 -----
 title
 -----
 Structure from the checkpoint file:  "cyclohexane-1-3-5-triol.chk"
 Charge =  0 Multiplicity = 1

                         Standard orientation:
 ---------------------------------------------------------------------
 Center     Atomic      Atomic             Coordinates (Angstroms)
 Number     Number       Type             X           Y           Z
 ---------------------------------------------------------------------
      1          6           0       -1.366892    0.474226   -0.146969
      2          6           0        0.275355   -1.434457   -0.131432
      3          6           0        1.099758    0.948114   -0.139858
      4          6           0       -1.098478   -0.958311    0.321858
      5          6           0       -0.269627    1.432557    0.319250
      6          6           0        1.373755   -0.482880    0.325882
      7          8           0       -2.056533   -1.879397   -0.204100
      8          8           0       -0.446873    2.750756   -0.204758
      9          8           0        2.605129   -0.984853   -0.196602
     10          1           0       -1.412029    0.488862   -1.238475
     11          1           0       -2.339460    0.812613    0.226852
     12          1           0        0.466283   -2.436159    0.253202
     13          1           0        0.288583   -1.495060   -1.222313
     14          1           0        1.141056    0.982012   -1.231171
     15          1           0        1.867906    1.627154    0.238193
     16          1           0       -1.139104   -0.987593    1.419260
     17          1           0       -0.278933    1.479267    1.416737
     18          1           0        1.418950   -0.497587    1.423644
     19          1           0       -2.934025   -1.628562    0.100071
     20          1           0       -1.297935    3.093157    0.085131
     21          1           0        3.321705   -0.405646    0.080163
 ---------------------------------------------------------------------

 SCF Done:  E(RHF) =  -459.326577335     A.U. after    2 cycles

 The electronic state is 1-A.
 Alpha  occ. eigenvalues --  -20.55356 -20.55089 -20.54787 -11.29664 -11.29404
 Alpha  occ. eigenvalues --  -11.29102 -11.23642 -11.23081 -11.22506  -1.45377
 Alpha  occ. eigenvalues --   -1.44949  -1.44654  -1.11796  -1.00706  -1.00452
 Alpha  occ. eigenvalues --   -0.85321  -0.84031  -0.78435  -0.71025  -0.69752
 Alpha  occ. eigenvalues --   -0.68626  -0.66700  -0.64883  -0.61712  -0.57751
 Alpha  occ. eigenvalues --   -0.56763  -0.55851  -0.54897  -0.53221  -0.51491
 Alpha  occ. eigenvalues --   -0.48284  -0.47842  -0.47671  -0.45805  -0.43590
 Alpha  occ. eigenvalues --   -0.42693
 Alpha virt. eigenvalues --    0.02629   0.03190   0.03688   0.04278   0.05649
 Alpha virt. eigenvalues --    0.06059   0.06347   0.06558   0.06854   0.08696
 Alpha virt. eigenvalues --    0.09289   0.09518   0.12918   0.13641   0.13922

 Mulliken charges:
               1
     1  C   -0.436333
     2  C   -0.634184
     3  C   -0.521682
     4  C    1.222074
     5  C    1.138845
     6  C    1.296617
     7  O   -1.482504
     8  O   -1.471710
     9  O   -1.501123
    10  H    0.252473
    11  H    0.076053
    12  H    0.176718
    13  H    0.234368
    14  H    0.244024
    15  H    0.121961
    16  H    0.144788
    17  H    0.150087
    18  H    0.146674
    19  H    0.278845
    20  H    0.276409
    21  H    0.287601
 Sum of Mulliken charges =  -0.00000

 Dipole moment (field-independent basis, Debye):
    X=             -1.5333    Y=              1.7652    Z=              2.6352  Tot=              3.5229

 Test job not archived.
 1\1\GINC-SE040\SP\RHF\Aug-CC-pVDZ\C6H12O3\OHZDE\05-Apr-2025\0\\#t hf a
 ug-cc-pvdz iop(5/13=1,5/36=2,99/5=2) pseudo=read geom=check guess=(rea
 d,tcheck) scf=(maxcycle=1)\\title\\0,1\C,0,-1.366891,0.474228,-0.14696
 9\C,0,0.275353,-1.434457,-0.131432\C,0,1.099759,0.948113,-0.139858\C,0
 ,-1.098479,-0.958309,0.321858\C,0,-0.269625,1.432558,0.31925\C,0,1.373
 754,-0.482882,0.325882\O,0,-2.056536,-1.879394,-0.2041\O,0,-0.446869,2
 .750757,-0.204758\O,0,2.605127,-0.984857,-0.196602\H,0,-1.412028,0.488
 864,-1.238475\H,0,-2.339459,0.812617,0.226852\H,0,0.466279,-2.43616,0.

 Normal termination of Gaussian 16 at Sat Apr  5 23:00:17 2025.
