 Gaussian 16, Revision C.01,

 ----------------------------------------------------------------------
 #t hf aug-cc-pvdz symm=none int=(grid=ultrafine) guess=(read,tcheck) s
 table=(opt,rrhf)
 ----------------------------------------------------------------------
 -----
 title
 -----
 Symbolic Z-matrix:
 Charge =  0 Multiplicity = 1

 SCF Done:  E(RHF) =  -383.873946311     A.U. after   13 cycles

 1\1\GINC-SE221\Stability\RHF\Aug-CC-pVDZ\C6H12O2\OHZDE\05-Apr-2025\0\\
 #t hf aug-cc-pvdz symm=none int=(grid=ultrafine) guess=(read,tcheck) s
 table=(opt,rrhf)\\title\\0,1\C,0,2.273854,0.274215,-0.203952\C,0,1.762
 908,-1.084479,0.283467\C,0,0.328202,-1.357217,-0.186256\C,0,-0.603815,
 -0.222061,0.229009\C,0,-0.109581,1.12903,-0.279562\C,0,1.321941,1.4042
 84,0.197425\O,0,-1.885928,-0.581152,-0.300631\O,0,-2.882481,0.292841,0
 .300204\H,0,3.273677,0.463179,0.192478\H,0,2.36937,0.253715,-1.294443\
 H,0,1.79563,-1.111497,1.377231\H,0,2.418338,-1.885041,-0.064459\H,0,-0

 Normal termination of Gaussian 16 at Sat Apr  5 22:59:26 2025.
 Gaussian 16:  ES64L-G16RevC.01  3-Jul-2019

 ----------------------------------------------------------------------
 #t hf aug-cc-pvdz iop(5/13=1,5/36=2,99/5=2) pseudo=read geom=check gue
 ss=(read,tcheck) scf=(maxcycle=1)
 ----------------------------------------------------------------------
 -----
 title
 -----
 Structure from the checkpoint file:  "cyclohexyl_hydroperoxide.chk"
 Charge =  0 Multiplicity = 1

                         Standard orientation:
 ---------------------------------------------------------------------
 Center     Atomic      Atomic             Coordinates (Angstroms)
 Number     Number       Type             X           Y           Z
 ---------------------------------------------------------------------
      1          6           0        2.273854    0.274215   -0.203952
      2          6           0        1.762908   -1.084479    0.283467
      3          6           0        0.328202   -1.357217   -0.186256
      4          6           0       -0.603815   -0.222061    0.229009
      5          6           0       -0.109581    1.129030   -0.279562
      6          6           0        1.321941    1.404284    0.197425
      7          8           0       -1.885928   -0.581152   -0.300631
      8          8           0       -2.882481    0.292841    0.300204
      9          1           0        3.273677    0.463179    0.192478
     10          1           0        2.369370    0.253715   -1.294443
     11          1           0        1.795630   -1.111497    1.377231
     12          1           0        2.418338   -1.885041   -0.064459
     13          1           0       -0.041640   -2.299048    0.220652
     14          1           0        0.306159   -1.447044   -1.276226
     15          1           0       -0.688027   -0.199332    1.321058
     16          1           0       -0.139153    1.116756   -1.373872
     17          1           0       -0.781503    1.918852    0.057557
     18          1           0        1.326109    1.510541    1.287156
     19          1           0        1.670130    2.357427   -0.205005
     20          1           0       -3.202874    0.765346   -0.479497
 ---------------------------------------------------------------------

 SCF Done:  E(RHF) =  -384.277760595     A.U. after    2 cycles

 The electronic state is 1-A.
 Alpha  occ. eigenvalues --  -20.60613 -20.60346 -11.28502 -11.23105 -11.23086
 Alpha  occ. eigenvalues --  -11.22912 -11.22843 -11.22721  -1.57049  -1.28906
 Alpha  occ. eigenvalues --   -1.11641  -1.01278  -0.99267  -0.84756  -0.82999
 Alpha  occ. eigenvalues --   -0.77322  -0.70515  -0.67531  -0.63971  -0.63004
 Alpha  occ. eigenvalues --   -0.61764  -0.60076  -0.57565  -0.54401  -0.52559
 Alpha  occ. eigenvalues --   -0.51278  -0.49871  -0.47920  -0.46814  -0.46706
 Alpha  occ. eigenvalues --   -0.44971  -0.42341
 Alpha virt. eigenvalues --    0.03315   0.03541   0.03601   0.04212   0.05582
 Alpha virt. eigenvalues --    0.06044   0.06312   0.06618   0.06817   0.09037
 Alpha virt. eigenvalues --    0.09366   0.09539   0.13587   0.13867   0.14200

 Mulliken charges:
               1
     1  C   -0.242926
     2  C   -0.223855
     3  C   -0.311906
     4  C    1.027254
     5  C   -0.340945
     6  C   -0.218072
     7  O   -1.090915
     8  O   -0.548882
     9  H    0.108916
    10  H    0.145796
    11  H    0.160241
    12  H    0.097570
    13  H    0.128262
    14  H    0.184970
    15  H    0.131437
    16  H    0.209831
    17  H    0.108129
    18  H    0.163860
    19  H    0.094956
    20  H    0.416280
 Sum of Mulliken charges =  -0.00000

 Dipole moment (field-independent basis, Debye):
    X=              1.4860    Y=              1.1604    Z=             -0.6827  Tot=              2.0052

 Test job not archived.
 1\1\GINC-SE221\SP\RHF\Aug-CC-pVDZ\C6H12O2\OHZDE\05-Apr-2025\0\\#t hf a
 ug-cc-pvdz iop(5/13=1,5/36=2,99/5=2) pseudo=read geom=check guess=(rea
 d,tcheck) scf=(maxcycle=1)\\title\\0,1\C,0,2.273854,0.274215,-0.203952
 \C,0,1.762908,-1.084479,0.283467\C,0,0.328202,-1.357217,-0.186256\C,0,
 -0.603815,-0.222061,0.229009\C,0,-0.109581,1.12903,-0.279562\C,0,1.321
 941,1.404284,0.197425\O,0,-1.885928,-0.581152,-0.300631\O,0,-2.882481,
 0.292841,0.300204\H,0,3.273677,0.463179,0.192478\H,0,2.36937,0.253715,
 -1.294443\H,0,1.79563,-1.111497,1.377231\H,0,2.418338,-1.885041,-0.064

 Normal termination of Gaussian 16 at Sat Apr  5 23:00:06 2025.
