 Gaussian 16, Revision C.01,

 ----------------------------------------------------------------------
 #t hf aug-cc-pvdz symm=none int=(grid=ultrafine) guess=(read,tcheck) s
 table=(opt,rrhf)
 ----------------------------------------------------------------------
 -----
 title
 -----
 Symbolic Z-matrix:
 Charge =  0 Multiplicity = 1

 SCF Done:  E(RHF) =  -208.817796322     A.U. after   14 cycles
 Normal termination of Gaussian 16 at Sat Apr  5 22:57:11 2025.
 Gaussian 16:  ES64L-G16RevC.01  3-Jul-2019

 ----------------------------------------------------------------------
 #t hf aug-cc-pvdz iop(5/13=1,5/36=2,99/5=2) pseudo=read geom=check gue
 ss=(read,tcheck) scf=(maxcycle=1)
 ----------------------------------------------------------------------
 -----
 title
 -----
 Structure from the checkpoint file:  "cyclopropanecarbonitrile.chk"
 Charge =  0 Multiplicity = 1

                         Standard orientation:
 ---------------------------------------------------------------------
 Center     Atomic      Atomic             Coordinates (Angstroms)
 Number     Number       Type             X           Y           Z
 ---------------------------------------------------------------------
      1          1           0        0.336332    2.019953    1.266776
      2          1           0        0.336332    2.019953   -1.266776
      3          1           0       -1.118471    0.924048   -1.256429
      4          1           0       -1.118471    0.924048    1.256429
      5          1           0        1.651115    0.325415   -0.000000
      6          6           0        0.575980    0.213094   -0.000000
      7          7           0       -0.228299   -2.244511    0.000000
      8          6           0        0.132495   -1.150808    0.000000
      9          6           0       -0.228299    1.260370    0.746697
     10          6           0       -0.228299    1.260370   -0.746697
 ---------------------------------------------------------------------

 SCF Done:  E(RHF) =  -209.033286066     A.U. after    2 cycles

 The electronic state is 1-A'.
 Alpha  occ. eigenvalues --  -15.50786 -11.29451 -11.27946 -11.27293 -11.27233
 Alpha  occ. eigenvalues --   -1.23470  -1.18309  -0.92603  -0.86100  -0.74953
 Alpha  occ. eigenvalues --   -0.69841  -0.61939  -0.58547  -0.56130  -0.54367
 Alpha  occ. eigenvalues --   -0.52091  -0.46535  -0.44195
 Alpha virt. eigenvalues --    0.02840   0.03813   0.03949   0.04660   0.06653
 Alpha virt. eigenvalues --    0.08828   0.10370   0.11053   0.11250   0.13312
 Alpha virt. eigenvalues --    0.13942   0.14926   0.15152   0.15974   0.16192

 Mulliken charges:
               1
     1  H   -0.108632
     2  H   -0.108632
     3  H   -0.071495
     4  H   -0.071495
     5  H   -0.117869
     6  C    1.024932
     7  N    0.945826
     8  C   -2.154839
     9  C    0.331102
    10  C    0.331102
 Sum of Mulliken charges =  -0.00000

 Dipole moment (field-independent basis, Debye):
    X=              1.0828    Y=              5.0552    Z=              0.0000  Tot=              5.1699

 Test job not archived.
 1\1\GINC-SE202\SP\RHF\Aug-CC-pVDZ\C4H5N1\OHZDE\05-Apr-2025\0\\#t hf au
 g-cc-pvdz iop(5/13=1,5/36=2,99/5=2) pseudo=read geom=check guess=(read
 ,tcheck) scf=(maxcycle=1)\\title\\0,1\H,0,0.336332,2.019953,1.266776\H
 ,0,0.336332,2.019953,-1.266776\H,0,-1.118471,0.924048,-1.256429\H,0,-1
 .118471,0.924048,1.256429\H,0,1.651115,0.325415,0.\C,0,0.57598,0.21309
 4,0.\N,0,-0.228299,-2.244511,0.\C,0,0.132495,-1.150808,0.\C,0,-0.22829
 9,1.26037,0.746697\C,0,-0.228299,1.26037,-0.746697\\Version=ES64L-G16R
 evC.01\State=1-A'\HF=-209.0332861\RMSD=2.182e-02\Dipole=0.4259906,1.98

 Normal termination of Gaussian 16 at Sat Apr  5 22:58:10 2025.
