 Gaussian 16, Revision C.01,

 ----------------------------------------------------------------------
 #t hf aug-cc-pvdz symm=none int=(grid=ultrafine) guess=(read,tcheck) s
 table=(opt,rrhf)
 ----------------------------------------------------------------------
 -----
 title
 -----
 Symbolic Z-matrix:
 Charge =  0 Multiplicity = 1

 SCF Done:  E(RHF) =  -193.999133794     A.U. after   11 cycles
 Normal termination of Gaussian 16 at Sat Apr  5 22:57:18 2025.
 Gaussian 16:  ES64L-G16RevC.01  3-Jul-2019

 ----------------------------------------------------------------------
 #t hf aug-cc-pvdz iop(5/13=1,5/36=2,99/5=2) pseudo=read geom=check gue
 ss=(read,tcheck) scf=(maxcycle=1)
 ----------------------------------------------------------------------
 -----
 title
 -----
 Structure from the checkpoint file:  "cyclopentene.chk"
 Charge =  0 Multiplicity = 1

                         Standard orientation:
 ---------------------------------------------------------------------
 Center     Atomic      Atomic             Coordinates (Angstroms)
 Number     Number       Type             X           Y           Z
 ---------------------------------------------------------------------
      1          6           0       -0.063692    1.072090    0.664505
      2          6           0       -0.063692    1.072090   -0.664505
      3          6           0       -0.063692   -0.324395    1.233989
      4          6           0       -0.063692   -0.324395   -1.233989
      5          6           0        0.247090   -1.207905   -0.000000
      6          1           0       -0.098837    1.958513    1.283789
      7          1           0       -0.098837    1.958513   -1.283789
      8          1           0        0.667358   -0.455946    2.034338
      9          1           0       -1.041041   -0.560191    1.669221
     10          1           0       -1.041041   -0.560191   -1.669221
     11          1           0        0.667358   -0.455946   -2.034338
     12          1           0        1.305988   -1.468869   -0.000000
     13          1           0       -0.314874   -2.140795   -0.000000
 ---------------------------------------------------------------------

 SCF Done:  E(RHF) =  -194.212664055     A.U. after    2 cycles

 The electronic state is 1-A'.
 Alpha  occ. eigenvalues --  -11.22788 -11.22780 -11.22666 -11.22548 -11.22544
 Alpha  occ. eigenvalues --   -1.13029  -0.96399  -0.95597  -0.79126  -0.72739
 Alpha  occ. eigenvalues --   -0.68409  -0.64035  -0.55633  -0.54419  -0.49885
 Alpha  occ. eigenvalues --   -0.49763  -0.49037  -0.48317  -0.34811
 Alpha virt. eigenvalues --    0.03904   0.04155   0.04224   0.04392   0.06187
 Alpha virt. eigenvalues --    0.06557   0.06681   0.07395   0.12257   0.13078
 Alpha virt. eigenvalues --    0.13404   0.14063   0.15215   0.15357   0.16124

 Mulliken charges:
               1
     1  C    0.238364
     2  C    0.238364
     3  C   -0.516397
     4  C   -0.516397
     5  C   -0.166559
     6  H   -0.103042
     7  H   -0.103042
     8  H    0.156183
     9  H    0.179781
    10  H    0.179781
    11  H    0.156183
    12  H    0.114713
    13  H    0.142067
 Sum of Mulliken charges =  -0.00000

 Dipole moment (field-independent basis, Debye):
    X=             -0.0665    Y=             -0.2202    Z=              0.0000  Tot=              0.2300

 Test job not archived.
 1\1\GINC-SE171\SP\RHF\Aug-CC-pVDZ\C5H8\OHZDE\05-Apr-2025\0\\#t hf aug-
 cc-pvdz iop(5/13=1,5/36=2,99/5=2) pseudo=read geom=check guess=(read,t
 check) scf=(maxcycle=1)\\title\\0,1\C,0,-0.063692,1.07209,0.664505\C,0
 ,-0.063692,1.07209,-0.664505\C,0,-0.063692,-0.324395,1.233989\C,0,-0.0
 63692,-0.324395,-1.233989\C,0,0.24709,-1.207905,0.\H,0,-0.098837,1.958
 513,1.283789\H,0,-0.098837,1.958513,-1.283789\H,0,0.667358,-0.455946,2
 .034338\H,0,-1.041041,-0.560191,1.669221\H,0,-1.041041,-0.560191,-1.66
 9221\H,0,0.667358,-0.455946,-2.034338\H,0,1.305988,-1.468869,0.\H,0,-0

 Normal termination of Gaussian 16 at Sat Apr  5 22:58:08 2025.
