 Gaussian 16, Revision C.01,

 ----------------------------------------------------------------------
 #t hf aug-cc-pvdz symm=none int=(grid=ultrafine) guess=(read,tcheck) s
 table=(opt,rrhf)
 ----------------------------------------------------------------------
 -----
 title
 -----
 Symbolic Z-matrix:
 Charge =  0 Multiplicity = 1

 SCF Done:  E(RHF) =  -592.718638495     A.U. after   12 cycles

 1\1\GINC-SE168\Stability\RHF\Aug-CC-pVDZ\C5H10S1\OHZDE\05-Apr-2025\0\\
 #t hf aug-cc-pvdz symm=none int=(grid=ultrafine) guess=(read,tcheck) s
 table=(opt,rrhf)\\title\\0,1\H,0,-2.590075,1.232318,-0.681766\H,0,-2.2
 38693,1.10127,1.02853\C,0,-1.912106,0.776892,0.039228\H,0,-2.427878,-1
 .128437,-0.935303\H,0,-2.435411,-1.206457,0.811001\C,0,-1.913085,-0.77
 5183,-0.042566\H,0,-0.116781,-1.457884,-1.078076\H,0,-0.224491,-2.0762
 59,0.562195\C,0,-0.425486,-1.206167,-0.060963\H,0,-0.202025,2.158408,0
 .251061\H,0,-0.233592,1.261134,-1.263701\C,0,-0.451026,1.195668,-0.195

 Normal termination of Gaussian 16 at Sat Apr  5 22:58:39 2025.
 Gaussian 16:  ES64L-G16RevC.01  3-Jul-2019

 ----------------------------------------------------------------------
 #t hf aug-cc-pvdz iop(5/13=1,5/36=2,99/5=2) pseudo=read geom=check gue
 ss=(read,tcheck) scf=(maxcycle=1)
 ----------------------------------------------------------------------
 -----
 title
 -----
 Structure from the checkpoint file:  "cyclopentanethiol.chk"
 Charge =  0 Multiplicity = 1

                         Standard orientation:
 ---------------------------------------------------------------------
 Center     Atomic      Atomic             Coordinates (Angstroms)
 Number     Number       Type             X           Y           Z
 ---------------------------------------------------------------------
      1          1           0       -2.590075    1.232318   -0.681766
      2          1           0       -2.238693    1.101270    1.028530
      3          6           0       -1.912106    0.776892    0.039228
      4          1           0       -2.427878   -1.128437   -0.935303
      5          1           0       -2.435411   -1.206457    0.811001
      6          6           0       -1.913085   -0.775183   -0.042566
      7          1           0       -0.116781   -1.457884   -1.078076
      8          1           0       -0.224491   -2.076259    0.562195
      9          6           0       -0.425486   -1.206167   -0.060963
     10          1           0       -0.202025    2.158408    0.251061
     11          1           0       -0.233592    1.261134   -1.263701
     12          6           0       -0.451026    1.195668   -0.195623
     13          1           0        0.319079    0.094769    1.494721
     14          6           0        0.345505    0.036292    0.405726
     15          1           0        2.525374    1.067170    0.480115
     16         16           0        2.110105   -0.075690   -0.096475
 ---------------------------------------------------------------------

 SCF Done:  E(RHF) =  -592.994260448     A.U. after    2 cycles

 The electronic state is 1-A.
 Alpha  occ. eigenvalues --  -93.94201 -11.26800 -11.23430 -11.23189 -11.23144
 Alpha  occ. eigenvalues --  -11.23108  -8.22266  -6.20118  -6.19972  -6.19752
 Alpha  occ. eigenvalues --   -1.14291  -1.02865  -0.97283  -0.92164  -0.79012
 Alpha  occ. eigenvalues --   -0.77840  -0.67385  -0.64551  -0.60059  -0.59035
 Alpha  occ. eigenvalues --   -0.53691  -0.49884  -0.49193  -0.48780  -0.47929
 Alpha  occ. eigenvalues --   -0.46905  -0.44430  -0.35845
 Alpha virt. eigenvalues --    0.03450   0.03729   0.03840   0.04451   0.06154
 Alpha virt. eigenvalues --    0.06464   0.06563   0.06944   0.07099   0.09550
 Alpha virt. eigenvalues --    0.10781   0.12478   0.14149   0.14274   0.14464

 Mulliken charges:
               1
     1  H    0.093883
     2  H    0.095119
     3  C   -0.262289
     4  H    0.136402
     5  H    0.136181
     6  C   -0.160915
     7  H    0.117237
     8  H    0.100815
     9  C   -0.184534
    10  H    0.092362
    11  H    0.149999
    12  C   -0.121789
    13  H    0.061174
    14  C   -0.653501
    15  H    0.302419
    16  S    0.097435
 Sum of Mulliken charges =  -0.00000

 Dipole moment (field-independent basis, Debye):
    X=             -1.6829    Y=              0.7749    Z=              0.7317  Tot=              1.9920

 Test job not archived.
 1\1\GINC-SE168\SP\RHF\Aug-CC-pVDZ\C5H10S1\OHZDE\05-Apr-2025\0\\#t hf a
 ug-cc-pvdz iop(5/13=1,5/36=2,99/5=2) pseudo=read geom=check guess=(rea
 d,tcheck) scf=(maxcycle=1)\\title\\0,1\H,0,-2.590075,1.232318,-0.68176
 6\H,0,-2.238693,1.10127,1.02853\C,0,-1.912106,0.776892,0.039228\H,0,-2
 .427878,-1.128437,-0.935303\H,0,-2.435411,-1.206457,0.811001\C,0,-1.91
 3085,-0.775183,-0.042566\H,0,-0.116781,-1.457884,-1.078076\H,0,-0.2244
 91,-2.076259,0.562195\C,0,-0.425486,-1.206167,-0.060963\H,0,-0.202025,
 2.158408,0.251061\H,0,-0.233592,1.261134,-1.263701\C,0,-0.451026,1.195

 Normal termination of Gaussian 16 at Sat Apr  5 22:58:52 2025.
