 Gaussian 16, Revision C.01,

 ----------------------------------------------------------------------
 #t hf aug-cc-pvdz symm=none int=(grid=ultrafine) guess=(read,tcheck) s
 table=(opt,rrhf)
 ----------------------------------------------------------------------
 -----
 title
 -----
 Symbolic Z-matrix:
 Charge =  0 Multiplicity = 1

 SCF Done:  E(RHF) =  -269.712399223     A.U. after   13 cycles
 Normal termination of Gaussian 16 at Sat Apr  5 22:58:39 2025.
 Gaussian 16:  ES64L-G16RevC.01  3-Jul-2019

 ----------------------------------------------------------------------
 #t hf aug-cc-pvdz iop(5/13=1,5/36=2,99/5=2) pseudo=read geom=check gue
 ss=(read,tcheck) scf=(maxcycle=1)
 ----------------------------------------------------------------------
 -----
 title
 -----
 Structure from the checkpoint file:  "cycloheptatriene.chk"
 Charge =  0 Multiplicity = 1

                         Standard orientation:
 ---------------------------------------------------------------------
 Center     Atomic      Atomic             Coordinates (Angstroms)
 Number     Number       Type             X           Y           Z
 ---------------------------------------------------------------------
      1          6           0       -0.252782   -1.416887    0.679421
      2          6           0       -0.252782   -1.416887   -0.679421
      3          6           0        0.246301   -0.359998    1.524391
      4          6           0        0.246301   -0.359998   -1.524391
      5          6           0        0.246301    0.949673    1.219657
      6          6           0        0.246301    0.949673   -1.219657
      7          6           0       -0.452117    1.486050    0.000000
      8          1           0       -0.530553   -2.340484    1.174711
      9          1           0       -0.530553   -2.340484   -1.174711
     10          1           0        0.673266   -0.666831    2.473189
     11          1           0        0.673266   -0.666831   -2.473189
     12          1           0        0.749061    1.649053    1.876836
     13          1           0        0.749061    1.649053   -1.876836
     14          1           0       -1.495770    1.152463    0.000000
     15          1           0       -0.452905    2.574307    0.000000
 ---------------------------------------------------------------------

 SCF Done:  E(RHF) =  -269.997024571     A.U. after    2 cycles

 The electronic state is 1-A'.
 Alpha  occ. eigenvalues --  -11.24486 -11.24476 -11.24279 -11.24173 -11.23875
 Alpha  occ. eigenvalues --  -11.23374 -11.23353  -1.13618  -1.04221  -1.03920
 Alpha  occ. eigenvalues --   -0.90896  -0.86333  -0.74393  -0.70749  -0.69832
 Alpha  occ. eigenvalues --   -0.63002  -0.62726  -0.60109  -0.54249  -0.53706
 Alpha  occ. eigenvalues --   -0.51288  -0.49569  -0.44592  -0.36040  -0.31089
 Alpha virt. eigenvalues --    0.03507   0.03703   0.03822   0.04681   0.05233
 Alpha virt. eigenvalues --    0.05890   0.07208   0.07528   0.08348   0.11362
 Alpha virt. eigenvalues --    0.11783   0.12540   0.14345   0.14820   0.14926

 Mulliken charges:
               1
     1  C    0.074577
     2  C    0.074577
     3  C    0.305899
     4  C    0.305899
     5  C    0.444119
     6  C    0.444119
     7  C   -0.652333
     8  H   -0.228163
     9  H   -0.228163
    10  H   -0.230019
    11  H   -0.230019
    12  H   -0.194053
    13  H   -0.194053
    14  H    0.227604
    15  H    0.080009
 Sum of Mulliken charges =  -0.00000

 Dipole moment (field-independent basis, Debye):
    X=              0.1214    Y=              0.3742    Z=             -0.0000  Tot=              0.3934

 Test job not archived.
 1\1\GINC-SE041\SP\RHF\Aug-CC-pVDZ\C7H8\OHZDE\05-Apr-2025\0\\#t hf aug-
 cc-pvdz iop(5/13=1,5/36=2,99/5=2) pseudo=read geom=check guess=(read,t
 check) scf=(maxcycle=1)\\title\\0,1\C,0,-0.252782,-1.416887,0.679421\C
 ,0,-0.252782,-1.416887,-0.679421\C,0,0.246301,-0.359998,1.524391\C,0,0
 .246301,-0.359998,-1.524391\C,0,0.246301,0.949673,1.219657\C,0,0.24630
 1,0.949673,-1.219657\C,0,-0.452117,1.48605,0.\H,0,-0.530553,-2.340484,
 1.174711\H,0,-0.530553,-2.340484,-1.174711\H,0,0.673266,-0.666831,2.47
 3189\H,0,0.673266,-0.666831,-2.473189\H,0,0.749061,1.649053,1.876836\H

 Normal termination of Gaussian 16 at Sat Apr  5 22:58:48 2025.
