 Gaussian 16, Revision C.01,

 ----------------------------------------------------------------------
 #t hf aug-cc-pvdz symm=none int=(grid=ultrafine) guess=(read,tcheck) s
 table=(opt,rrhf)
 ----------------------------------------------------------------------
 -----
 title
 -----
 Symbolic Z-matrix:
 Charge =  0 Multiplicity = 1

 SCF Done:  E(RHF) =  -172.109951274     A.U. after   12 cycles
 Normal termination of Gaussian 16 at Sat Apr  5 22:57:10 2025.
 Gaussian 16:  ES64L-G16RevC.01  3-Jul-2019

 ----------------------------------------------------------------------
 #t hf aug-cc-pvdz iop(5/13=1,5/36=2,99/5=2) pseudo=read geom=check gue
 ss=(read,tcheck) scf=(maxcycle=1)
 ----------------------------------------------------------------------
 -----
 title
 -----
 Structure from the checkpoint file:  "cyclopropylamine.chk"
 Charge =  0 Multiplicity = 1

                         Standard orientation:
 ---------------------------------------------------------------------
 Center     Atomic      Atomic             Coordinates (Angstroms)
 Number     Number       Type             X           Y           Z
 ---------------------------------------------------------------------
      1          6           0       -0.320050    0.416085   -0.000000
      2          1           0       -1.260116    0.962973   -0.000000
      3          7           0        0.903346    1.179214   -0.000000
      4          6           0       -0.320050   -0.882833    0.753840
      5          6           0       -0.320050   -0.882833   -0.753840
      6          1           0        0.970739    1.771825    0.818204
      7          1           0        0.970739    1.771825   -0.818204
      8          1           0       -1.223024   -1.176047    1.270152
      9          1           0       -1.223024   -1.176047   -1.270152
     10          1           0        0.601086   -1.155773    1.247962
     11          1           0        0.601086   -1.155773   -1.247962
 ---------------------------------------------------------------------

 SCF Done:  E(RHF) =  -172.299869970     A.U. after    2 cycles

 The electronic state is 1-A'.
 Alpha  occ. eigenvalues --  -15.48497 -11.25840 -11.22568 -11.22511  -1.19897
 Alpha  occ. eigenvalues --   -1.09286  -0.82395  -0.80271  -0.69898  -0.68077
 Alpha  occ. eigenvalues --   -0.64252  -0.56570  -0.51679  -0.47033  -0.42208
 Alpha  occ. eigenvalues --   -0.40584
 Alpha virt. eigenvalues --    0.03703   0.04433   0.04786   0.05032   0.06702
 Alpha virt. eigenvalues --    0.06731   0.07220   0.11077   0.12620   0.13209
 Alpha virt. eigenvalues --    0.14114   0.15825   0.16332   0.16521   0.17209

 Mulliken charges:
               1
     1  C   -0.560976
     2  H   -0.128423
     3  N    0.329278
     4  C    0.209014
     5  C    0.209014
     6  H    0.143489
     7  H    0.143489
     8  H   -0.113749
     9  H   -0.113749
    10  H   -0.058693
    11  H   -0.058693
 Sum of Mulliken charges =  -0.00000

 Dipole moment (field-independent basis, Debye):
    X=             -0.9100    Y=              0.9336    Z=              0.0000  Tot=              1.3037

 Test job not archived.
 1\1\GINC-SE249\SP\RHF\Aug-CC-pVDZ\C3H7N1\OHZDE\05-Apr-2025\0\\#t hf au
 g-cc-pvdz iop(5/13=1,5/36=2,99/5=2) pseudo=read geom=check guess=(read
 ,tcheck) scf=(maxcycle=1)\\title\\0,1\C,0,-0.32005,0.416085,0.\H,0,-1.
 260116,0.962973,0.\N,0,0.903346,1.179214,0.\C,0,-0.32005,-0.882833,0.7
 5384\C,0,-0.32005,-0.882833,-0.75384\H,0,0.970739,1.771825,0.818204\H,
 0,0.970739,1.771825,-0.818204\H,0,-1.223024,-1.176047,1.270152\H,0,-1.
 223024,-1.176047,-1.270152\H,0,0.601086,-1.155773,1.247962\H,0,0.60108
 6,-1.155773,-1.247962\\Version=ES64L-G16RevC.01\State=1-A'\HF=-172.299

 Normal termination of Gaussian 16 at Sat Apr  5 22:58:08 2025.
