 Gaussian 16, Revision C.01,

 ----------------------------------------------------------------------
 #t hf aug-cc-pvdz symm=none int=(grid=ultrafine) guess=(read,tcheck) s
 table=(opt,rrhf)
 ----------------------------------------------------------------------
 -----
 title
 -----
 Symbolic Z-matrix:
 Charge =  0 Multiplicity = 1

 SCF Done:  E(RHF) =  -233.045372858     A.U. after   11 cycles
 Normal termination of Gaussian 16 at Sat Apr  5 22:58:34 2025.
 Gaussian 16:  ES64L-G16RevC.01  3-Jul-2019

 ----------------------------------------------------------------------
 #t hf aug-cc-pvdz iop(5/13=1,5/36=2,99/5=2) pseudo=read geom=check gue
 ss=(read,tcheck) scf=(maxcycle=1)
 ----------------------------------------------------------------------
 -----
 title
 -----
 Structure from the checkpoint file:  "cyclohexene.chk"
 Charge =  0 Multiplicity = 1

                         Standard orientation:
 ---------------------------------------------------------------------
 Center     Atomic      Atomic             Coordinates (Angstroms)
 Number     Number       Type             X           Y           Z
 ---------------------------------------------------------------------
      1          6           0        0.005646    0.665273    1.302124
      2          6           0       -0.005646   -0.665273    1.302124
      3          6           0       -0.005646    1.497566    0.048624
      4          6           0        0.005646   -1.497566    0.048624
      5          6           0       -0.367769    0.670959   -1.190000
      6          6           0        0.367769   -0.670959   -1.190000
      7          1           0        0.020501    1.196537    2.247558
      8          1           0       -0.020501   -1.196537    2.247558
      9          1           0       -0.708445    2.326979    0.166811
     10          1           0        0.977019    1.965639   -0.085347
     11          1           0        0.708445   -2.326979    0.166811
     12          1           0       -0.977019   -1.965639   -0.085347
     13          1           0       -1.446378    0.487192   -1.195721
     14          1           0       -0.141259    1.233380   -2.097788
     15          1           0        1.446378   -0.487192   -1.195721
     16          1           0        0.141259   -1.233380   -2.097788
 ---------------------------------------------------------------------

 SCF Done:  E(RHF) =  -233.301751183     A.U. after    2 cycles

 The electronic state is 1-A.
 Alpha  occ. eigenvalues --  -11.22753 -11.22739 -11.22611 -11.22491 -11.22364
 Alpha  occ. eigenvalues --  -11.22341  -1.12021  -1.00519  -1.00214  -0.85048
 Alpha  occ. eigenvalues --   -0.81939  -0.70238  -0.67808  -0.62004  -0.59036
 Alpha  occ. eigenvalues --   -0.57867  -0.54900  -0.53687  -0.53267  -0.46966
 Alpha  occ. eigenvalues --   -0.45991  -0.44516  -0.34869
 Alpha virt. eigenvalues --    0.03761   0.03839   0.03942   0.04049   0.05631
 Alpha virt. eigenvalues --    0.06063   0.06440   0.06832   0.08183   0.09116
 Alpha virt. eigenvalues --    0.13305   0.14193   0.14269   0.14434   0.14767

 Mulliken charges:
               1
     1  C    0.291093
     2  C    0.291093
     3  C   -0.555300
     4  C   -0.555300
     5  C   -0.188311
     6  C   -0.188311
     7  H   -0.198730
     8  H   -0.198730
     9  H    0.179525
    10  H    0.221211
    11  H    0.179525
    12  H    0.221211
    13  H    0.105078
    14  H    0.145433
    15  H    0.105078
    16  H    0.145433
 Sum of Mulliken charges =  -0.00000

 Dipole moment (field-independent basis, Debye):
    X=             -0.0000    Y=              0.0000    Z=             -0.3378  Tot=              0.3378

 Test job not archived.
 1\1\GINC-SE221\SP\RHF\Aug-CC-pVDZ\C6H10\OHZDE\05-Apr-2025\0\\#t hf aug
 -cc-pvdz iop(5/13=1,5/36=2,99/5=2) pseudo=read geom=check guess=(read,
 tcheck) scf=(maxcycle=1)\\title\\0,1\C,0,0.005646,0.665273,1.302124\C,
 0,-0.005646,-0.665273,1.302124\C,0,-0.005646,1.497566,0.048624\C,0,0.0
 05646,-1.497566,0.048624\C,0,-0.367769,0.670959,-1.19\C,0,0.367769,-0.
 670959,-1.19\H,0,0.020501,1.196537,2.247558\H,0,-0.020501,-1.196537,2.
 247558\H,0,-0.708445,2.326979,0.166811\H,0,0.977019,1.965639,-0.085347
 \H,0,0.708445,-2.326979,0.166811\H,0,-0.977019,-1.965639,-0.085347\H,0

 Normal termination of Gaussian 16 at Sat Apr  5 22:58:38 2025.
