 Gaussian 16, Revision C.01,

 ----------------------------------------------------------------------
 #t hf aug-cc-pvdz symm=none int=(grid=ultrafine) guess=(read,tcheck) s
 table=(opt,rrhf)
 ----------------------------------------------------------------------
 -----
 title
 -----
 Symbolic Z-matrix:
 Charge =  0 Multiplicity = 1

 SCF Done:  E(RHF) =  -230.984854925     A.U. after   12 cycles
 Normal termination of Gaussian 16 at Sat Apr  5 22:57:19 2025.
 Gaussian 16:  ES64L-G16RevC.01  3-Jul-2019

 ----------------------------------------------------------------------
 #t hf aug-cc-pvdz iop(5/13=1,5/36=2,99/5=2) pseudo=read geom=check gue
 ss=(read,tcheck) scf=(maxcycle=1)
 ----------------------------------------------------------------------
 -----
 title
 -----
 Structure from the checkpoint file:  "cyclobutanol.chk"
 Charge =  0 Multiplicity = 1

                         Standard orientation:
 ---------------------------------------------------------------------
 Center     Atomic      Atomic             Coordinates (Angstroms)
 Number     Number       Type             X           Y           Z
 ---------------------------------------------------------------------
      1          1           0       -1.297824    0.008644   -1.543899
      2          1           0       -2.422921    0.029181   -0.180212
      3          6           0       -1.370643    0.014803   -0.458265
      4          1           0       -0.900800    1.519610    1.097315
      5          1           0       -0.113750    1.903984   -0.444735
      6          6           0       -0.464979    1.093290    0.193316
      7          1           0        0.987868   -0.008659    1.529152
      8          6           0        0.579115   -0.009257    0.514978
      9          1           0       -0.932014   -1.492737    1.105684
     10          1           0       -0.141293   -1.892778   -0.431151
     11          6           0       -0.487824   -1.078003    0.201469
     12          1           0        2.214363    0.655067   -0.337686
     13          8           0        1.634045   -0.105913   -0.437932
 ---------------------------------------------------------------------

 SCF Done:  E(RHF) =  -231.232635424     A.U. after    2 cycles

 The electronic state is 1-A.
 Alpha  occ. eigenvalues --  -20.54484 -11.28229 -11.22647 -11.22550 -11.22309
 Alpha  occ. eigenvalues --   -1.44362  -1.11881  -0.90613  -0.88824  -0.75370
 Alpha  occ. eigenvalues --   -0.70037  -0.66366  -0.62664  -0.57147  -0.54198
 Alpha  occ. eigenvalues --   -0.51558  -0.48358  -0.47308  -0.44186  -0.41485
 Alpha virt. eigenvalues --    0.03643   0.04031   0.04246   0.04770   0.06533
 Alpha virt. eigenvalues --    0.06555   0.06962   0.08060   0.11932   0.12962
 Alpha virt. eigenvalues --    0.13425   0.14131   0.15293   0.15453   0.16185

 Mulliken charges:
               1
     1  H    0.051358
     2  H   -0.002244
     3  C   -0.044968
     4  H    0.074613
     5  H    0.029699
     6  C   -0.173075
     7  H    0.053924
     8  C    1.119587
     9  H    0.069580
    10  H    0.056260
    11  C   -0.176737
    12  H    0.289496
    13  O   -1.347492
 Sum of Mulliken charges =   0.00000

 Dipole moment (field-independent basis, Debye):
    X=             -0.2892    Y=              1.1853    Z=              1.0205  Tot=              1.5906

 Test job not archived.
 1\1\GINC-SE187\SP\RHF\Aug-CC-pVDZ\C4H8O1\OHZDE\05-Apr-2025\0\\#t hf au
 g-cc-pvdz iop(5/13=1,5/36=2,99/5=2) pseudo=read geom=check guess=(read
 ,tcheck) scf=(maxcycle=1)\\title\\0,1\H,0,-1.297824,0.008644,-1.543899
 \H,0,-2.422921,0.029181,-0.180212\C,0,-1.370643,0.014803,-0.458265\H,0
 ,-0.9008,1.51961,1.097315\H,0,-0.11375,1.903984,-0.444735\C,0,-0.46497
 9,1.09329,0.193316\H,0,0.987868,-0.008659,1.529152\C,0,0.579115,-0.009
 257,0.514978\H,0,-0.932014,-1.492737,1.105684\H,0,-0.141293,-1.892778,
 -0.431151\C,0,-0.487824,-1.078003,0.201469\H,0,2.214363,0.655067,-0.33

 Normal termination of Gaussian 16 at Sat Apr  5 22:58:11 2025.
