 Gaussian 16, Revision C.01,

 ----------------------------------------------------------------------
 #t hf aug-cc-pvdz symm=none int=(grid=ultrafine) guess=(read,tcheck) s
 table=(opt,rrhf)
 ----------------------------------------------------------------------
 -----
 title
 -----
 Symbolic Z-matrix:
 Charge =  0 Multiplicity = 1

 SCF Done:  E(RHF) =  -348.131177501     A.U. after   12 cycles

 1\1\GINC-SE226\Stability\RHF\Aug-CC-pVDZ\C7H14O1\OHZDE\05-Apr-2025\0\\
 #t hf aug-cc-pvdz symm=none int=(grid=ultrafine) guess=(read,tcheck) s
 table=(opt,rrhf)\\title\\0,1\C,0,1.73728,0.792495,-0.479503\C,0,2.0198
 7,-0.672323,-0.100223\C,0,0.725512,1.538451,0.401741\C,0,0.827926,-1.4
 95424,0.414755\C,0,-0.7392,1.302862,0.010037\C,0,-0.519506,-1.262644,-
 0.28354\C,0,-1.31536,-0.085645,0.291439\O,0,-2.684418,-0.139555,-0.132
 94\H,0,2.688253,1.329635,-0.472454\H,0,1.383423,0.840676,-1.513335\H,0
 ,2.448382,-1.17047,-0.97396\H,0,2.799085,-0.698261,0.666057\H,0,0.8800

 Normal termination of Gaussian 16 at Sat Apr  5 22:58:27 2025.
 Gaussian 16:  ES64L-G16RevC.01  3-Jul-2019

 ----------------------------------------------------------------------
 #t hf aug-cc-pvdz iop(5/13=1,5/36=2,99/5=2) pseudo=read geom=check gue
 ss=(read,tcheck) scf=(maxcycle=1)
 ----------------------------------------------------------------------
 -----
 title
 -----
 Structure from the checkpoint file:  "cycloheptanol.chk"
 Charge =  0 Multiplicity = 1

                         Standard orientation:
 ---------------------------------------------------------------------
 Center     Atomic      Atomic             Coordinates (Angstroms)
 Number     Number       Type             X           Y           Z
 ---------------------------------------------------------------------
      1          6           0        1.737280    0.792495   -0.479503
      2          6           0        2.019870   -0.672323   -0.100223
      3          6           0        0.725512    1.538451    0.401741
      4          6           0        0.827926   -1.495424    0.414755
      5          6           0       -0.739200    1.302862    0.010037
      6          6           0       -0.519506   -1.262644   -0.283540
      7          6           0       -1.315360   -0.085645    0.291439
      8          8           0       -2.684418   -0.139555   -0.132940
      9          1           0        2.688253    1.329635   -0.472454
     10          1           0        1.383423    0.840676   -1.513335
     11          1           0        2.448382   -1.170470   -0.973960
     12          1           0        2.799085   -0.698261    0.666057
     13          1           0        0.880078    1.290425    1.456387
     14          1           0        0.917245    2.610333    0.318106
     15          1           0        1.092130   -2.551954    0.338093
     16          1           0        0.690935   -1.308620    1.483722
     17          1           0       -1.377340    2.026147    0.521809
     18          1           0       -0.844172    1.505605   -1.063458
     19          1           0       -0.381135   -1.129922   -1.362564
     20          1           0       -1.146124   -2.147322   -0.159163
     21          1           0       -1.374227   -0.226165    1.374425
     22          1           0       -2.720326    0.039705   -1.078385
 ---------------------------------------------------------------------

 SCF Done:  E(RHF) =  -348.508741999     A.U. after    2 cycles

 The electronic state is 1-A.
 Alpha  occ. eigenvalues --  -20.53864 -11.27931 -11.22894 -11.22713 -11.22605
 Alpha  occ. eigenvalues --  -11.22602 -11.22592 -11.22413  -1.43703  -1.10884
 Alpha  occ. eigenvalues --   -1.03285  -1.01981  -0.89254  -0.87946  -0.79187
 Alpha  occ. eigenvalues --   -0.76143  -0.67909  -0.64160  -0.63554  -0.61971
 Alpha  occ. eigenvalues --   -0.61021  -0.57034  -0.55675  -0.53683  -0.53036
 Alpha  occ. eigenvalues --   -0.51636  -0.48920  -0.46923  -0.45614  -0.45178
 Alpha  occ. eigenvalues --   -0.44934  -0.42273
 Alpha virt. eigenvalues --    0.03109   0.03295   0.03514   0.04225   0.05673
 Alpha virt. eigenvalues --    0.05821   0.05984   0.06184   0.06464   0.08980
 Alpha virt. eigenvalues --    0.09142   0.09301   0.09538   0.09799   0.13527

 Mulliken charges:
               1
     1  C   -0.303466
     2  C   -0.320130
     3  C   -0.075833
     4  C   -0.325265
     5  C   -0.422922
     6  C   -0.160101
     7  C    1.091128
     8  O   -1.457527
     9  H    0.080487
    10  H    0.159739
    11  H    0.151597
    12  H    0.152967
    13  H    0.183088
    14  H    0.081254
    15  H    0.075905
    16  H    0.177076
    17  H    0.138680
    18  H    0.149898
    19  H    0.158412
    20  H    0.134967
    21  H    0.062370
    22  H    0.267676
 Sum of Mulliken charges =  -0.00000

 Dipole moment (field-independent basis, Debye):
    X=              1.6600    Y=              0.3289    Z=             -0.8183  Tot=              1.8798

 Test job not archived.
 1\1\GINC-SE226\SP\RHF\Aug-CC-pVDZ\C7H14O1\OHZDE\05-Apr-2025\0\\#t hf a
 ug-cc-pvdz iop(5/13=1,5/36=2,99/5=2) pseudo=read geom=check guess=(rea
 d,tcheck) scf=(maxcycle=1)\\title\\0,1\C,0,1.73728,0.792495,-0.479503\
 C,0,2.01987,-0.672323,-0.100223\C,0,0.725512,1.538451,0.401741\C,0,0.8
 27926,-1.495424,0.414755\C,0,-0.7392,1.302862,0.010037\C,0,-0.519506,-
 1.262644,-0.28354\C,0,-1.31536,-0.085645,0.291439\O,0,-2.684418,-0.139
 555,-0.13294\H,0,2.688253,1.329635,-0.472454\H,0,1.383423,0.840676,-1.
 513335\H,0,2.448382,-1.17047,-0.97396\H,0,2.799085,-0.698261,0.666057\

 Normal termination of Gaussian 16 at Sat Apr  5 22:58:39 2025.
