 Gaussian 16, Revision C.01,

 ----------------------------------------------------------------------
 #t hf aug-cc-pvdz symm=none int=(grid=ultrafine) guess=(read,tcheck) s
 table=(opt,rrhf)
 ----------------------------------------------------------------------
 -----
 title
 -----
 Symbolic Z-matrix:
 Charge =  0 Multiplicity = 1

 SCF Done:  E(RHF) =  -190.751062823     A.U. after   13 cycles
 Normal termination of Gaussian 16 at Sat Apr  5 22:58:12 2025.
 Gaussian 16:  ES64L-G16RevC.01  3-Jul-2019

 ----------------------------------------------------------------------
 #t hf aug-cc-pvdz iop(5/13=1,5/36=2,99/5=2) pseudo=read geom=check gue
 ss=(read,tcheck) scf=(maxcycle=1)
 ----------------------------------------------------------------------
 -----
 title
 -----
 Structure from the checkpoint file:  "cyclopropanone.chk"
 Charge =  0 Multiplicity = 1

                         Standard orientation:
 ---------------------------------------------------------------------
 Center     Atomic      Atomic             Coordinates (Angstroms)
 Number     Number       Type             X           Y           Z
 ---------------------------------------------------------------------
      1          6           0        0.000000   -0.000000    0.381094
      2          8           0        0.000000   -0.000000    1.576449
      3          6           0        0.000000    0.785897   -0.855963
      4          6           0       -0.000000   -0.785897   -0.855963
      5          1           0        0.911746    1.287106   -1.156649
      6          1           0       -0.911746    1.287106   -1.156649
      7          1           0       -0.911746   -1.287106   -1.156649
      8          1           0        0.911746   -1.287106   -1.156649
 ---------------------------------------------------------------------

 SCF Done:  E(RHF) =  -190.945519406     A.U. after    2 cycles

 The electronic state is 1-A1.
 Alpha  occ. eigenvalues --  -20.55723 -11.35806 -11.26482 -11.26466  -1.48563
 Alpha  occ. eigenvalues --   -1.16456  -0.87126  -0.76981  -0.68575  -0.68056
 Alpha  occ. eigenvalues --   -0.61579  -0.55871  -0.51760  -0.47574  -0.39019
 Alpha virt. eigenvalues --    0.03345   0.03996   0.04214   0.06665   0.07413
 Alpha virt. eigenvalues --    0.11068   0.11151   0.11439   0.12143   0.13845
 Alpha virt. eigenvalues --    0.14519   0.15851   0.16259   0.16981   0.19232

 Mulliken charges:
               1
     1  C    0.851224
     2  O   -1.060921
     3  C    0.098596
     4  C    0.098596
     5  H    0.003126
     6  H    0.003126
     7  H    0.003126
     8  H    0.003126
 Sum of Mulliken charges =   0.00000

 Dipole moment (field-independent basis, Debye):
    X=             -0.0000    Y=             -0.0000    Z=             -3.2644  Tot=              3.2644

 Test job not archived.
 1\1\GINC-SE204\SP\RHF\Aug-CC-pVDZ\C3H4O1\OHZDE\05-Apr-2025\0\\#t hf au
 g-cc-pvdz iop(5/13=1,5/36=2,99/5=2) pseudo=read geom=check guess=(read
 ,tcheck) scf=(maxcycle=1)\\title\\0,1\C,0,0.,0.,0.381094\O,0,0.,0.,1.5
 76449\C,0,0.,0.785897,-0.855963\C,0,0.,-0.785897,-0.855963\H,0,0.91174
 6,1.287106,-1.156649\H,0,-0.911746,1.287106,-1.156649\H,0,-0.911746,-1
 .287106,-1.156649\H,0,0.911746,-1.287106,-1.156649\\Version=ES64L-G16R
 evC.01\State=1-A1\HF=-190.9455194\RMSD=1.384e-02\Dipole=0.,0.,-1.28431
 33\Quadrupole=2.0730346,1.1489931,-3.2220277,0.,0.,0.\PG=C02V [C2(C1O1

 Normal termination of Gaussian 16 at Sat Apr  5 22:58:14 2025.
