 Gaussian 16, Revision C.01,

 ----------------------------------------------------------------------
 #t hf aug-cc-pvdz symm=none int=(grid=ultrafine) guess=(read,tcheck) s
 table=(opt,rrhf)
 ----------------------------------------------------------------------
 -----
 title
 -----
 Symbolic Z-matrix:
 Charge =  0 Multiplicity = 1

 SCF Done:  E(RHF) =  -307.943883290     A.U. after   13 cycles

 1\1\GINC-SE220\Stability\RHF\Aug-CC-pVDZ\C6H10O1\OHZDE\05-Apr-2025\0\\
 #t hf aug-cc-pvdz symm=none int=(grid=ultrafine) guess=(read,tcheck) s
 table=(opt,rrhf)\\title\\0,1\C,0,-0.407739,1.083702,0.\C,0,0.155829,0.
 499472,1.282325\C,0,0.155829,0.499472,-1.282325\C,0,0.155829,-1.039311
 ,1.263183\C,0,0.155829,-1.039311,-1.263183\C,0,0.820538,-1.590283,0.\O
 ,0,-1.249483,1.95449,0.\H,0,1.188471,0.854961,1.375218\H,0,-0.408079,0
 .898882,2.123656\H,0,-0.408079,0.898882,-2.123656\H,0,1.188471,0.85496
 1,-1.375218\H,0,0.657166,-1.415176,2.156695\H,0,-0.876952,-1.39618,1.3

 Normal termination of Gaussian 16 at Sat Apr  5 22:58:50 2025.
 Gaussian 16:  ES64L-G16RevC.01  3-Jul-2019

 ----------------------------------------------------------------------
 #t hf aug-cc-pvdz iop(5/13=1,5/36=2,99/5=2) pseudo=read geom=check gue
 ss=(read,tcheck) scf=(maxcycle=1)
 ----------------------------------------------------------------------
 -----
 title
 -----
 Structure from the checkpoint file:  "cyclohexanone.chk"
 Charge =  0 Multiplicity = 1

                         Standard orientation:
 ---------------------------------------------------------------------
 Center     Atomic      Atomic             Coordinates (Angstroms)
 Number     Number       Type             X           Y           Z
 ---------------------------------------------------------------------
      1          6           0       -0.407739    1.083702   -0.000000
      2          6           0        0.155829    0.499472    1.282325
      3          6           0        0.155829    0.499472   -1.282325
      4          6           0        0.155829   -1.039311    1.263183
      5          6           0        0.155829   -1.039311   -1.263183
      6          6           0        0.820538   -1.590283    0.000000
      7          8           0       -1.249483    1.954490   -0.000000
      8          1           0        1.188471    0.854961    1.375218
      9          1           0       -0.408079    0.898882    2.123656
     10          1           0       -0.408079    0.898882   -2.123656
     11          1           0        1.188471    0.854961   -1.375218
     12          1           0        0.657166   -1.415176    2.156695
     13          1           0       -0.876952   -1.396180    1.313350
     14          1           0       -0.876952   -1.396180   -1.313350
     15          1           0        0.657166   -1.415176   -2.156695
     16          1           0        1.882221   -1.322209    0.000000
     17          1           0        0.775740   -2.681122    0.000000
 ---------------------------------------------------------------------

 SCF Done:  E(RHF) =  -308.270107091     A.U. after    2 cycles

 The electronic state is 1-A'.
 Alpha  occ. eigenvalues --  -20.52951 -11.33044 -11.24398 -11.24384 -11.24179
 Alpha  occ. eigenvalues --  -11.24160 -11.23996  -1.46265  -1.12728  -1.02841
 Alpha  occ. eigenvalues --   -0.99419  -0.86671  -0.81944  -0.73826  -0.67144
 Alpha  occ. eigenvalues --   -0.64727  -0.63551  -0.60971  -0.59587  -0.57797
 Alpha  occ. eigenvalues --   -0.55663  -0.51338  -0.50817  -0.48361  -0.48068
 Alpha  occ. eigenvalues --   -0.46631  -0.39428
 Alpha virt. eigenvalues --    0.03097   0.03344   0.03378   0.04410   0.05931
 Alpha virt. eigenvalues --    0.06146   0.06248   0.06811   0.07652   0.09326
 Alpha virt. eigenvalues --    0.11037   0.12713   0.13773   0.13917   0.14304

 Mulliken charges:
               1
     1  C    1.413891
     2  C   -0.338194
     3  C   -0.338194
     4  C   -0.279899
     5  C   -0.279899
     6  C   -0.207141
     7  O   -1.401972
     8  H    0.249159
     9  H    0.078240
    10  H    0.078240
    11  H    0.249159
    12  H    0.111617
    13  H    0.146413
    14  H    0.146413
    15  H    0.111617
    16  H    0.135091
    17  H    0.125460
 Sum of Mulliken charges =  -0.00000

 Dipole moment (field-independent basis, Debye):
    X=              2.3143    Y=             -2.7234    Z=              0.0000  Tot=              3.5739

 Test job not archived.
 1\1\GINC-SE220\SP\RHF\Aug-CC-pVDZ\C6H10O1\OHZDE\05-Apr-2025\0\\#t hf a
 ug-cc-pvdz iop(5/13=1,5/36=2,99/5=2) pseudo=read geom=check guess=(rea
 d,tcheck) scf=(maxcycle=1)\\title\\0,1\C,0,-0.407739,1.083702,0.\C,0,0
 .155829,0.499472,1.282325\C,0,0.155829,0.499472,-1.282325\C,0,0.155829
 ,-1.039311,1.263183\C,0,0.155829,-1.039311,-1.263183\C,0,0.820538,-1.5
 90283,0.\O,0,-1.249483,1.95449,0.\H,0,1.188471,0.854961,1.375218\H,0,-
 0.408079,0.898882,2.123656\H,0,-0.408079,0.898882,-2.123656\H,0,1.1884
 71,0.854961,-1.375218\H,0,0.657166,-1.415176,2.156695\H,0,-0.876952,-1

 Normal termination of Gaussian 16 at Sat Apr  5 22:58:54 2025.
