 Gaussian 16, Revision C.01,

 ----------------------------------------------------------------------
 #t hf aug-cc-pvdz symm=none int=(grid=ultrafine) guess=(read,tcheck) s
 table=(opt,rrhf)
 ----------------------------------------------------------------------
 -----
 title
 -----
 Symbolic Z-matrix:
 Charge =  0 Multiplicity = 1

 SCF Done:  E(RHF) =  -312.288848937     A.U. after   11 cycles
 Normal termination of Gaussian 16 at Sat Apr  5 22:59:54 2025.
 Gaussian 16:  ES64L-G16RevC.01  3-Jul-2019

 ----------------------------------------------------------------------
 #t hf aug-cc-pvdz iop(5/13=1,5/36=2,99/5=2) pseudo=read geom=check gue
 ss=(read,tcheck) scf=(maxcycle=1)
 ----------------------------------------------------------------------
 -----
 title
 -----
 Structure from the checkpoint file:  "cyclooctane.chk"
 Charge =  0 Multiplicity = 1

                         Standard orientation:
 ---------------------------------------------------------------------
 Center     Atomic      Atomic             Coordinates (Angstroms)
 Number     Number       Type             X           Y           Z
 ---------------------------------------------------------------------
      1          6           0       -0.924984    1.455665    0.000000
      2          6           0       -0.134405    1.385461    1.310207
      3          6           0       -0.134405    1.385461   -1.310207
      4          6           0        0.629237    0.082662    1.610338
      5          6           0        0.629237    0.082662   -1.610338
      6          6           0       -0.134405   -1.227318    1.323869
      7          6           0       -0.134405   -1.227318   -1.323869
      8          6           0        0.207639   -1.929091   -0.000000
      9          1           0       -1.479369    2.398329    0.000000
     10          1           0        0.570283    2.221967    1.352098
     11          1           0        0.570283    2.221967   -1.352098
     12          1           0       -0.845053    1.554786    2.124992
     13          1           0       -0.845053    1.554786   -2.124992
     14          1           0       -1.689785    0.675570    0.000000
     15          1           0        0.902756    0.108766    2.667617
     16          1           0        0.902756    0.108766   -2.667617
     17          1           0        1.576536    0.069346    1.069122
     18          1           0        1.576536    0.069346   -1.069122
     19          1           0       -1.212799   -1.052435    1.383389
     20          1           0       -1.212799   -1.052435   -1.383389
     21          1           0        0.088126   -1.939415    2.121981
     22          1           0        0.088126   -1.939415   -2.121981
     23          1           0        1.281288   -2.147303   -0.000000
     24          1           0       -0.292875   -2.901727   -0.000000
 ---------------------------------------------------------------------

 SCF Done:  E(RHF) =  -312.637759327     A.U. after    2 cycles

 The electronic state is 1-A'.
 Alpha  occ. eigenvalues --  -11.22064 -11.21974 -11.21964 -11.21958 -11.21953
 Alpha  occ. eigenvalues --  -11.21832 -11.21823 -11.21774  -1.10461  -1.03926
 Alpha  occ. eigenvalues --   -1.03737  -0.91951  -0.91546  -0.79725  -0.79485
 Alpha  occ. eigenvalues --   -0.74089  -0.65195  -0.63760  -0.60554  -0.59848
 Alpha  occ. eigenvalues --   -0.58284  -0.57693  -0.55986  -0.51520  -0.49645
 Alpha  occ. eigenvalues --   -0.48864  -0.47745  -0.47310  -0.46843  -0.44171
 Alpha  occ. eigenvalues --   -0.43447  -0.42542
 Alpha virt. eigenvalues --    0.03282   0.03285   0.03362   0.04101   0.05514
 Alpha virt. eigenvalues --    0.05569   0.05927   0.05928   0.06343   0.08728
 Alpha virt. eigenvalues --    0.08849   0.09232   0.09379   0.09517   0.10034

 Mulliken charges:
               1
     1  C   -0.386781
     2  C   -0.257085
     3  C   -0.257085
     4  C   -0.264529
     5  C   -0.264529
     6  C   -0.108424
     7  C   -0.108424
     8  C   -0.458413
     9  H    0.043920
    10  H    0.145692
    11  H    0.145692
    12  H    0.123591
    13  H    0.123591
    14  H    0.246686
    15  H    0.081457
    16  H    0.081457
    17  H    0.179976
    18  H    0.179976
    19  H    0.181883
    20  H    0.181883
    21  H    0.053734
    22  H    0.053734
    23  H    0.179446
    24  H    0.102553
 Sum of Mulliken charges =  -0.00000

 Dipole moment (field-independent basis, Debye):
    X=             -0.0179    Y=             -0.0330    Z=             -0.0000  Tot=              0.0376

 Test job not archived.
 1\1\GINC-SE152\SP\RHF\Aug-CC-pVDZ\C8H16\OHZDE\05-Apr-2025\0\\#t hf aug
 -cc-pvdz iop(5/13=1,5/36=2,99/5=2) pseudo=read geom=check guess=(read,
 tcheck) scf=(maxcycle=1)\\title\\0,1\C,0,-0.924984,1.455665,0.\C,0,-0.
 134405,1.385461,1.310207\C,0,-0.134405,1.385461,-1.310207\C,0,0.629237
 ,0.082662,1.610338\C,0,0.629237,0.082662,-1.610338\C,0,-0.134405,-1.22
 7318,1.323869\C,0,-0.134405,-1.227318,-1.323869\C,0,0.207639,-1.929091
 ,0.\H,0,-1.479369,2.398329,0.\H,0,0.570283,2.221967,1.352098\H,0,0.570
 283,2.221967,-1.352098\H,0,-0.845053,1.554786,2.124992\H,0,-0.845053,1

 Normal termination of Gaussian 16 at Sat Apr  5 23:00:07 2025.
