 Gaussian 16, Revision C.01,

 ----------------------------------------------------------------------
 #t hf aug-cc-pvdz symm=none int=(grid=ultrafine) guess=(read,tcheck) s
 table=(opt,rrhf)
 ----------------------------------------------------------------------
 -----
 title
 -----
 Symbolic Z-matrix:
 Charge =  0 Multiplicity = 1

 SCF Done:  E(RHF) =  -211.151547250     A.U. after   12 cycles
 Normal termination of Gaussian 16 at Sat Apr  5 22:58:25 2025.
 Gaussian 16:  ES64L-G16RevC.01  3-Jul-2019

 ----------------------------------------------------------------------
 #t hf aug-cc-pvdz iop(5/13=1,5/36=2,99/5=2) pseudo=read geom=check gue
 ss=(read,tcheck) scf=(maxcycle=1)
 ----------------------------------------------------------------------
 -----
 title
 -----
 Structure from the checkpoint file:  "cyclobutylamine.chk"
 Charge =  0 Multiplicity = 1

                         Standard orientation:
 ---------------------------------------------------------------------
 Center     Atomic      Atomic             Coordinates (Angstroms)
 Number     Number       Type             X           Y           Z
 ---------------------------------------------------------------------
      1          7           0       -1.392026    0.964971   -0.000000
      2          1           0       -1.686104    1.489839    0.815536
      3          1           0       -1.686104    1.489839   -0.815536
      4          6           0        0.483446   -0.254439   -1.082525
      5          1           0       -0.198668   -0.373542   -1.923807
      6          1           0        1.483527   -0.047564   -1.463346
      7          6           0        0.483446   -0.254439    1.082525
      8          1           0       -0.198668   -0.373542    1.923807
      9          1           0        1.483527   -0.047564    1.463346
     10          6           0        0.057064    0.770920   -0.000000
     11          1           0        0.619951    1.711232   -0.000000
     12          6           0        0.483446   -1.364057    0.000000
     13          1           0        1.324266   -2.055871    0.000000
     14          1           0       -0.441946   -1.935530    0.000000
 ---------------------------------------------------------------------

 SCF Done:  E(RHF) =  -211.384198585     A.U. after    2 cycles

 The electronic state is 1-A'.
 Alpha  occ. eigenvalues --  -15.48087 -11.25362 -11.21977 -11.21973 -11.21891
 Alpha  occ. eigenvalues --   -1.18939  -1.08678  -0.89825  -0.87503  -0.74491
 Alpha  occ. eigenvalues --   -0.67974  -0.67843  -0.64824  -0.58339  -0.54010
 Alpha  occ. eigenvalues --   -0.48897  -0.48276  -0.47191  -0.43875  -0.40573
 Alpha virt. eigenvalues --    0.03608   0.04164   0.04559   0.04692   0.06238
 Alpha virt. eigenvalues --    0.06458   0.06562   0.07327   0.07925   0.12705
 Alpha virt. eigenvalues --    0.13533   0.14322   0.14388   0.14744   0.15397

 Mulliken charges:
               1
     1  N    0.569258
     2  H    0.159059
     3  H    0.159059
     4  C    0.213368
     5  H    0.034687
     6  H    0.057787
     7  C    0.213368
     8  H    0.034687
     9  H    0.057787
    10  C   -1.414246
    11  H   -0.031339
    12  C   -0.146351
    13  H   -0.019976
    14  H    0.112852
 Sum of Mulliken charges =  -0.00000

 Dipole moment (field-independent basis, Debye):
    X=              0.5471    Y=              1.1733    Z=              0.0000  Tot=              1.2946

 Test job not archived.
 1\1\GINC-SE213\SP\RHF\Aug-CC-pVDZ\C4H9N1\OHZDE\05-Apr-2025\0\\#t hf au
 g-cc-pvdz iop(5/13=1,5/36=2,99/5=2) pseudo=read geom=check guess=(read
 ,tcheck) scf=(maxcycle=1)\\title\\0,1\N,0,-1.392026,0.964971,0.\H,0,-1
 .686104,1.489839,0.815536\H,0,-1.686104,1.489839,-0.815536\C,0,0.48344
 6,-0.254439,-1.082525\H,0,-0.198668,-0.373542,-1.923807\H,0,1.483527,-
 0.047564,-1.463346\C,0,0.483446,-0.254439,1.082525\H,0,-0.198668,-0.37
 3542,1.923807\H,0,1.483527,-0.047564,1.463346\C,0,0.057064,0.77092,0.\
 H,0,0.619951,1.711232,0.\C,0,0.483446,-1.364057,0.\H,0,1.324266,-2.055

 Normal termination of Gaussian 16 at Sat Apr  5 22:58:28 2025.
