 Gaussian 16, Revision C.01,

 ----------------------------------------------------------------------
 #t hf aug-cc-pvdz symm=none int=(grid=ultrafine) guess=(read,tcheck) s
 table=(opt,rrhf)
 ----------------------------------------------------------------------
 -----
 title
 -----
 Symbolic Z-matrix:
 Charge =  0 Multiplicity = 1

 SCF Done:  E(RHF) =  -115.836539130     A.U. after   11 cycles
 Normal termination of Gaussian 16 at Sat Apr  5 22:58:10 2025.
 Gaussian 16:  ES64L-G16RevC.01  3-Jul-2019

 ----------------------------------------------------------------------
 #t hf aug-cc-pvdz iop(5/13=1,5/36=2,99/5=2) pseudo=read geom=check gue
 ss=(read,tcheck) scf=(maxcycle=1)
 ----------------------------------------------------------------------
 -----
 title
 -----
 Structure from the checkpoint file:  "cyclopropene.chk"
 Charge =  0 Multiplicity = 1

                         Standard orientation:
 ---------------------------------------------------------------------
 Center     Atomic      Atomic             Coordinates (Angstroms)
 Number     Number       Type             X           Y           Z
 ---------------------------------------------------------------------
      1          6           0        0.000000    0.000000    0.861410
      2          6           0        0.000000    0.643280   -0.499979
      3          6           0       -0.000000   -0.643280   -0.499979
      4          1           0        0.000000    1.571117   -1.041246
      5          1           0       -0.000000   -1.571117   -1.041246
      6          1           0        0.910708   -0.000000    1.456887
      7          1           0       -0.910708    0.000000    1.456887
 ---------------------------------------------------------------------

 SCF Done:  E(RHF) =  -115.962293993     A.U. after    2 cycles

 The electronic state is 1-A1.
 Alpha  occ. eigenvalues --  -11.25259 -11.25028 -11.24750  -1.16417  -0.82857
 Alpha  occ. eigenvalues --   -0.77079  -0.69504  -0.60487  -0.50608  -0.42942
 Alpha  occ. eigenvalues --   -0.36718
 Alpha virt. eigenvalues --    0.03926   0.04090   0.04751   0.05349   0.10026
 Alpha virt. eigenvalues --    0.10632   0.10691   0.13082   0.13302   0.15831
 Alpha virt. eigenvalues --    0.15962   0.16035   0.18081   0.18786   0.20707

 Mulliken charges:
               1
     1  C   -0.011847
     2  C    0.227533
     3  C    0.227533
     4  H   -0.197636
     5  H   -0.197636
     6  H   -0.023973
     7  H   -0.023973
 Sum of Mulliken charges =   0.00000

 Dipole moment (field-independent basis, Debye):
    X=              0.0000    Y=              0.0000    Z=             -0.4986  Tot=              0.4986

 Test job not archived.
 1\1\GINC-SE205\SP\RHF\Aug-CC-pVDZ\C3H4\OHZDE\05-Apr-2025\0\\#t hf aug-
 cc-pvdz iop(5/13=1,5/36=2,99/5=2) pseudo=read geom=check guess=(read,t
 check) scf=(maxcycle=1)\\title\\0,1\C,0,0.,0.,0.86141\C,0,0.,0.64328,-
 0.499979\C,0,0.,-0.64328,-0.499979\H,0,0.,1.571117,-1.041246\H,0,0.,-1
 .571117,-1.041246\H,0,0.910708,0.,1.456887\H,0,-0.910708,0.,1.456887\\
 Version=ES64L-G16RevC.01\State=1-A1\HF=-115.962294\RMSD=2.170e-02\Dipo
 le=0.,0.,-0.1961753\Quadrupole=-1.0830148,1.2703,-0.1872852,0.,0.,0.\P
 G=C02V [C2(C1),SGV(C2H2),SGV'(H2)]\\@

 Normal termination of Gaussian 16 at Sat Apr  5 22:58:13 2025.
