 Gaussian 16, Revision C.01,

 ----------------------------------------------------------------------
 #t hf aug-cc-pvdz symm=none int=(grid=ultrafine) guess=(read,tcheck) s
 table=(opt,rrhf)
 ----------------------------------------------------------------------
 -----
 title
 -----
 Symbolic Z-matrix:
 Charge =  0 Multiplicity = 1

 SCF Done:  E(RHF) =  -234.232279177     A.U. after   10 cycles
 Normal termination of Gaussian 16 at Sat Apr  5 22:58:40 2025.
 Gaussian 16:  ES64L-G16RevC.01  3-Jul-2019

 ----------------------------------------------------------------------
 #t hf aug-cc-pvdz iop(5/13=1,5/36=2,99/5=2) pseudo=read geom=check gue
 ss=(read,tcheck) scf=(maxcycle=1)
 ----------------------------------------------------------------------
 -----
 title
 -----
 Structure from the checkpoint file:  "cyclohexane.chk"
 Charge =  0 Multiplicity = 1

                         Standard orientation:
 ---------------------------------------------------------------------
 Center     Atomic      Atomic             Coordinates (Angstroms)
 Number     Number       Type             X           Y           Z
 ---------------------------------------------------------------------
      1          6           0        0.227515    0.731652    1.267259
      2          6           0       -0.227515    1.463304    0.000000
      3          6           0       -0.227515   -0.731652    1.267259
      4          6           0        0.227515   -1.463304    0.000000
      5          6           0       -0.227515   -0.731652   -1.267259
      6          6           0        0.227515    0.731652   -1.267259
      7          1           0       -0.149267    1.244327   -2.155238
      8          1           0       -0.149267    1.244327    2.155238
      9          1           0        0.149267    2.488655    0.000000
     10          1           0        0.149267   -1.244327   -2.155238
     11          1           0       -1.320511   -0.767324   -1.329045
     12          1           0       -1.320511   -0.767324    1.329045
     13          1           0       -1.320511    1.534649    0.000000
     14          1           0       -0.149267   -2.488655    0.000000
     15          1           0        1.320511   -1.534649    0.000000
     16          1           0        0.149267   -1.244327    2.155238
     17          1           0        1.320511    0.767324    1.329045
     18          1           0        1.320511    0.767324   -1.329045
 ---------------------------------------------------------------------

 SCF Done:  E(RHF) =  -234.495493970     A.U. after    2 cycles

 The electronic state is 1-AG.
 Alpha  occ. eigenvalues --  -11.21926 -11.21926 -11.21922 -11.21914 -11.21914
 Alpha  occ. eigenvalues --  -11.21870  -1.11296  -0.99907  -0.99907  -0.82906
 Alpha  occ. eigenvalues --   -0.82906  -0.75186  -0.65544  -0.61216  -0.60145
 Alpha  occ. eigenvalues --   -0.60145  -0.53196  -0.53196  -0.52346  -0.48569
 Alpha  occ. eigenvalues --   -0.48569  -0.45268  -0.43365  -0.43365
 Alpha virt. eigenvalues --    0.03671   0.03704   0.03704   0.04116   0.06024
 Alpha virt. eigenvalues --    0.06024   0.06467   0.06601   0.06601   0.09397
 Alpha virt. eigenvalues --    0.09632   0.09632   0.13973   0.14774   0.14774

 Mulliken charges:
               1
     1  C   -0.240968
     2  C   -0.240971
     3  C   -0.240968
     4  C   -0.240971
     5  C   -0.240968
     6  C   -0.240968
     7  H    0.093815
     8  H    0.093815
     9  H    0.093817
    10  H    0.093815
    11  H    0.147154
    12  H    0.147154
    13  H    0.147153
    14  H    0.093817
    15  H    0.147153
    16  H    0.093815
    17  H    0.147154
    18  H    0.147154
 Sum of Mulliken charges =  -0.00000

 Dipole moment (field-independent basis, Debye):
    X=              0.0000    Y=              0.0000    Z=              0.0000  Tot=              0.0000

 Test job not archived.
 1\1\GINC-SE211\SP\RHF\Aug-CC-pVDZ\C6H12\OHZDE\05-Apr-2025\0\\#t hf aug
 -cc-pvdz iop(5/13=1,5/36=2,99/5=2) pseudo=read geom=check guess=(read,
 tcheck) scf=(maxcycle=1)\\title\\0,1\C,0,-1.267259,0.731652,0.227515\C
 ,0,0.,1.463304,-0.227515\C,0,-1.267259,-0.731652,-0.227515\C,0,0.,-1.4
 63304,0.227515\C,0,1.267259,-0.731652,-0.227515\C,0,1.267259,0.731652,
 0.227515\H,0,2.155238,1.244327,-0.149267\H,0,-2.155238,1.244327,-0.149
 267\H,0,0.,2.488655,0.149267\H,0,2.155238,-1.244327,0.149267\H,0,1.329
 045,-0.767324,-1.320511\H,0,-1.329045,-0.767324,-1.320511\H,0,0.,1.534

 Normal termination of Gaussian 16 at Sat Apr  5 22:58:49 2025.
