 Gaussian 16, Revision C.01,

 ----------------------------------------------------------------------
 #t hf aug-cc-pvdz symm=none int=(grid=ultrafine) guess=(read,tcheck) s
 table=(opt,rrhf)
 ----------------------------------------------------------------------
 -----
 title
 -----
 Symbolic Z-matrix:
 Charge =  0 Multiplicity = 1

 SCF Done:  E(RHF) =  -289.268718044     A.U. after   12 cycles

 1\1\GINC-SE151\Stability\RHF\Aug-CC-pVDZ\C6H13N1\OHZDE\05-Apr-2025\0\\
 #t hf aug-cc-pvdz symm=none int=(grid=ultrafine) guess=(read,tcheck) s
 table=(opt,rrhf)\\title\\0,1\C,0,-0.974235,1.501801,0.\C,0,-0.31371,0.
 943702,1.264192\C,0,-0.31371,0.943702,-1.264192\C,0,-0.31371,-0.588507
 ,1.262787\C,0,-0.31371,-0.588507,-1.262787\C,0,0.322144,-1.187508,0.\N
 ,0,1.768888,-0.919814,0.\H,0,-2.037859,1.237524,0.\H,0,-0.926534,2.593
 057,0.\H,0,0.714983,1.30509,1.322149\H,0,-0.829805,1.310092,2.154594\H
 ,0,-0.829805,1.310092,-2.154594\H,0,0.714983,1.30509,-1.322149\H,0,0.2

 Normal termination of Gaussian 16 at Sat Apr  5 22:59:04 2025.
 Gaussian 16:  ES64L-G16RevC.01  3-Jul-2019

 ----------------------------------------------------------------------
 #t hf aug-cc-pvdz iop(5/13=1,5/36=2,99/5=2) pseudo=read geom=check gue
 ss=(read,tcheck) scf=(maxcycle=1)
 ----------------------------------------------------------------------
 -----
 title
 -----
 Structure from the checkpoint file:  "cyclohexylamine.chk"
 Charge =  0 Multiplicity = 1

                         Standard orientation:
 ---------------------------------------------------------------------
 Center     Atomic      Atomic             Coordinates (Angstroms)
 Number     Number       Type             X           Y           Z
 ---------------------------------------------------------------------
      1          6           0       -0.974235    1.501801   -0.000000
      2          6           0       -0.313710    0.943702    1.264192
      3          6           0       -0.313710    0.943702   -1.264192
      4          6           0       -0.313710   -0.588507    1.262787
      5          6           0       -0.313710   -0.588507   -1.262787
      6          6           0        0.322144   -1.187508    0.000000
      7          7           0        1.768888   -0.919814    0.000000
      8          1           0       -2.037859    1.237524   -0.000000
      9          1           0       -0.926534    2.593057   -0.000000
     10          1           0        0.714983    1.305090    1.322149
     11          1           0       -0.829805    1.310092    2.154594
     12          1           0       -0.829805    1.310092   -2.154594
     13          1           0        0.714983    1.305090   -1.322149
     14          1           0        0.204080   -0.970114    2.147778
     15          1           0       -1.343580   -0.952418    1.329721
     16          1           0       -1.343580   -0.952418   -1.329721
     17          1           0        0.204080   -0.970114   -2.147778
     18          1           0        0.112103   -2.266434    0.000000
     19          1           0        2.210148   -1.329430   -0.814645
     20          1           0        2.210148   -1.329430    0.814645
 ---------------------------------------------------------------------

 SCF Done:  E(RHF) =  -289.587850652     A.U. after    2 cycles

 The electronic state is 1-A'.
 Alpha  occ. eigenvalues --  -15.47691 -11.25242 -11.21917 -11.21882 -11.21512
 Alpha  occ. eigenvalues --  -11.21344 -11.21325  -1.18328  -1.08640  -0.99984
 Alpha  occ. eigenvalues --   -0.97782  -0.83310  -0.82114  -0.74466  -0.68131
 Alpha  occ. eigenvalues --   -0.66275  -0.63537  -0.60981  -0.58746  -0.54639
 Alpha  occ. eigenvalues --   -0.52893  -0.51910  -0.51638  -0.48208  -0.46630
 Alpha  occ. eigenvalues --   -0.44628  -0.43155  -0.40787
 Alpha virt. eigenvalues --    0.03423   0.03844   0.03914   0.04166   0.05422
 Alpha virt. eigenvalues --    0.05772   0.05922   0.06311   0.06804   0.09178
 Alpha virt. eigenvalues --    0.09319   0.09534   0.09805   0.13645   0.14275

 Mulliken charges:
               1
     1  C   -0.204574
     2  C   -0.241300
     3  C   -0.241300
     4  C    0.034854
     5  C    0.034854
     6  C   -1.809903
     7  N    0.658427
     8  H    0.144699
     9  H    0.089920
    10  H    0.213096
    11  H    0.103996
    12  H    0.103996
    13  H    0.213096
    14  H    0.088421
    15  H    0.155503
    16  H    0.155503
    17  H    0.088421
    18  H    0.082827
    19  H    0.164732
    20  H    0.164732
 Sum of Mulliken charges =  -0.00000

 Dipole moment (field-independent basis, Debye):
    X=             -0.1210    Y=             -1.2246    Z=             -0.0000  Tot=              1.2306

 Test job not archived.
 1\1\GINC-SE151\SP\RHF\Aug-CC-pVDZ\C6H13N1\OHZDE\05-Apr-2025\0\\#t hf a
 ug-cc-pvdz iop(5/13=1,5/36=2,99/5=2) pseudo=read geom=check guess=(rea
 d,tcheck) scf=(maxcycle=1)\\title\\0,1\C,0,-0.974235,1.501801,0.\C,0,-
 0.31371,0.943702,1.264192\C,0,-0.31371,0.943702,-1.264192\C,0,-0.31371
 ,-0.588507,1.262787\C,0,-0.31371,-0.588507,-1.262787\C,0,0.322144,-1.1
 87508,0.\N,0,1.768888,-0.919814,0.\H,0,-2.037859,1.237524,0.\H,0,-0.92
 6534,2.593057,0.\H,0,0.714983,1.30509,1.322149\H,0,-0.829805,1.310092,
 2.154594\H,0,-0.829805,1.310092,-2.154594\H,0,0.714983,1.30509,-1.3221

 Normal termination of Gaussian 16 at Sat Apr  5 23:00:03 2025.
