 Gaussian 16, Revision C.01,

 ----------------------------------------------------------------------
 #t hf aug-cc-pvdz symm=none int=(grid=ultrafine) guess=(read,tcheck) s
 table=(opt,rrhf)
 ----------------------------------------------------------------------
 -----
 title
 -----
 Symbolic Z-matrix:
 Charge =  0 Multiplicity = 1

 SCF Done:  E(RHF) =  -270.056265165     A.U. after   12 cycles

 1\1\GINC-SE168\Stability\RHF\Aug-CC-pVDZ\C5H10O1\OHZDE\05-Apr-2025\0\\
 #t hf aug-cc-pvdz symm=none int=(grid=ultrafine) guess=(read,tcheck) s
 table=(opt,rrhf)\\title\\0,1\C,0,1.478824,0.602081,-0.167602\C,0,1.131
 874,-0.871035,-0.441609\C,0,0.138007,1.266828,0.236745\C,0,-0.007005,-
 1.147497,0.545787\C,0,-0.865878,0.122768,0.481642\O,0,-1.764277,0.1003
 55,-0.639892\H,0,2.191316,0.663706,0.657603\H,0,1.942541,1.089472,-1.0
 24485\H,0,0.768396,-0.991211,-1.463462\H,0,1.983364,-1.539018,-0.31224
 4\H,0,0.250934,1.884221,1.127542\H,0,-0.256769,1.906427,-0.551166\H,0,

 Normal termination of Gaussian 16 at Sat Apr  5 22:58:37 2025.
 Gaussian 16:  ES64L-G16RevC.01  3-Jul-2019

 ----------------------------------------------------------------------
 #t hf aug-cc-pvdz iop(5/13=1,5/36=2,99/5=2) pseudo=read geom=check gue
 ss=(read,tcheck) scf=(maxcycle=1)
 ----------------------------------------------------------------------
 -----
 title
 -----
 Structure from the checkpoint file:  "cyclopentanol.chk"
 Charge =  0 Multiplicity = 1

                         Standard orientation:
 ---------------------------------------------------------------------
 Center     Atomic      Atomic             Coordinates (Angstroms)
 Number     Number       Type             X           Y           Z
 ---------------------------------------------------------------------
      1          6           0        1.478824    0.602081   -0.167602
      2          6           0        1.131874   -0.871035   -0.441609
      3          6           0        0.138007    1.266828    0.236745
      4          6           0       -0.007005   -1.147497    0.545787
      5          6           0       -0.865878    0.122768    0.481642
      6          8           0       -1.764277    0.100356   -0.639892
      7          1           0        2.191316    0.663706    0.657603
      8          1           0        1.942541    1.089472   -1.024485
      9          1           0        0.768396   -0.991211   -1.463462
     10          1           0        1.983364   -1.539018   -0.312244
     11          1           0        0.250935    1.884221    1.127542
     12          1           0       -0.256768    1.906427   -0.551166
     13          1           0       -0.583006   -2.047024    0.320771
     14          1           0        0.393171   -1.259290    1.558075
     15          1           0       -1.443380    0.274161    1.398057
     16          1           0       -2.387285   -0.623159   -0.521332
 ---------------------------------------------------------------------

 SCF Done:  E(RHF) =  -270.347743694     A.U. after    2 cycles

 The electronic state is 1-A.
 Alpha  occ. eigenvalues --  -20.54058 -11.28036 -11.22511 -11.22185 -11.22100
 Alpha  occ. eigenvalues --  -11.21950  -1.43801  -1.11379  -0.96582  -0.95194
 Alpha  occ. eigenvalues --   -0.79156  -0.77308  -0.69198  -0.66300  -0.64500
 Alpha  occ. eigenvalues --   -0.59014  -0.54773  -0.53472  -0.50305  -0.48546
 Alpha  occ. eigenvalues --   -0.47929  -0.46926  -0.45756  -0.42796
 Alpha virt. eigenvalues --    0.03523   0.03874   0.04025   0.04545   0.06280
 Alpha virt. eigenvalues --    0.06316   0.06680   0.06972   0.07209   0.09486
 Alpha virt. eigenvalues --    0.13310   0.13740   0.14529   0.15039   0.15309

 Mulliken charges:
               1
     1  C   -0.160966
     2  C   -0.229086
     3  C   -0.363003
     4  C   -0.214998
     5  C    0.999337
     6  O   -1.355383
     7  H    0.095046
     8  H    0.100184
     9  H    0.092429
    10  H    0.120808
    11  H    0.157175
    12  H    0.161977
    13  H    0.107495
    14  H    0.122087
    15  H    0.093809
    16  H    0.273090
 Sum of Mulliken charges =  -0.00000

 Dipole moment (field-independent basis, Debye):
    X=              0.1347    Y=             -1.0121    Z=              1.2022  Tot=              1.5773

 Test job not archived.
 1\1\GINC-SE168\SP\RHF\Aug-CC-pVDZ\C5H10O1\OHZDE\05-Apr-2025\0\\#t hf a
 ug-cc-pvdz iop(5/13=1,5/36=2,99/5=2) pseudo=read geom=check guess=(rea
 d,tcheck) scf=(maxcycle=1)\\title\\0,1\C,0,1.478824,0.602081,-0.167602
 \C,0,1.131874,-0.871035,-0.441609\C,0,0.138007,1.266828,0.236745\C,0,-
 0.007005,-1.147497,0.545787\C,0,-0.865878,0.122768,0.481642\O,0,-1.764
 277,0.100355,-0.639892\H,0,2.191316,0.663706,0.657603\H,0,1.942541,1.0
 89472,-1.024485\H,0,0.768396,-0.991211,-1.463462\H,0,1.983364,-1.53901
 8,-0.312244\H,0,0.250934,1.884221,1.127542\H,0,-0.256769,1.906427,-0.5

 Normal termination of Gaussian 16 at Sat Apr  5 22:58:45 2025.
