 Gaussian 16, Revision C.01,

 ----------------------------------------------------------------------
 #t hf aug-cc-pvdz symm=none int=(grid=ultrafine) guess=(read,tcheck) s
 table=(opt,rrhf)
 ----------------------------------------------------------------------
 -----
 title
 -----
 Symbolic Z-matrix:
 Charge =  0 Multiplicity = 1

 SCF Done:  E(RHF) =  -307.559574478     A.U. after   11 cycles
 Normal termination of Gaussian 16 at Sat Apr  5 22:57:46 2025.
 Gaussian 16:  ES64L-G16RevC.01  3-Jul-2019

 ----------------------------------------------------------------------
 #t hf aug-cc-pvdz iop(5/13=1,5/36=2,99/5=2) pseudo=read geom=check gue
 ss=(read,tcheck) scf=(maxcycle=1)
 ----------------------------------------------------------------------
 -----
 title
 -----
 Structure from the checkpoint file:  "cyclooctatetraene.chk"
 Charge =  0 Multiplicity = 1

                         Standard orientation:
 ---------------------------------------------------------------------
 Center     Atomic      Atomic             Coordinates (Angstroms)
 Number     Number       Type             X           Y           Z
 ---------------------------------------------------------------------
      1          6           0        0.667787    1.563913    0.371103
      2          6           0       -0.667787    1.563913    0.371103
      3          6           0        0.667787   -1.563913    0.371103
      4          6           0       -0.667787   -1.563913    0.371103
      5          6           0        1.563913    0.667787   -0.371103
      6          6           0       -1.563913    0.667787   -0.371103
      7          6           0        1.563913   -0.667787   -0.371103
      8          6           0       -1.563913   -0.667787   -0.371103
      9          1           0        1.166556    2.358559    0.918777
     10          1           0       -1.166556    2.358559    0.918777
     11          1           0        1.166556   -2.358559    0.918777
     12          1           0       -1.166556   -2.358559    0.918777
     13          1           0        2.358559    1.166556   -0.918777
     14          1           0       -2.358559    1.166556   -0.918777
     15          1           0        2.358559   -1.166556   -0.918777
     16          1           0       -2.358559   -1.166556   -0.918777
 ---------------------------------------------------------------------

 SCF Done:  E(RHF) =  -307.879607135     A.U. after    2 cycles

 The electronic state is 1-A1.
 Alpha  occ. eigenvalues --  -11.24484 -11.24473 -11.24473 -11.24410 -11.24369
 Alpha  occ. eigenvalues --  -11.24328 -11.24326 -11.24326  -1.13084  -1.06234
 Alpha  occ. eigenvalues --   -1.06234  -0.95943  -0.90035  -0.78513  -0.78513
 Alpha  occ. eigenvalues --   -0.70212  -0.64172  -0.64075  -0.64075  -0.63995
 Alpha  occ. eigenvalues --   -0.59783  -0.52451  -0.52451  -0.48784  -0.44870
 Alpha  occ. eigenvalues --   -0.38433  -0.38433  -0.30748
 Alpha virt. eigenvalues --    0.03625   0.03647   0.03647   0.04270   0.04998
 Alpha virt. eigenvalues --    0.05880   0.05880   0.07308   0.08329   0.11772
 Alpha virt. eigenvalues --    0.11772   0.12079   0.13824   0.15148   0.15148

 Mulliken charges:
               1
     1  C    0.212009
     2  C    0.212009
     3  C    0.212009
     4  C    0.212009
     5  C    0.212009
     6  C    0.212009
     7  C    0.212009
     8  C    0.212009
     9  H   -0.212009
    10  H   -0.212009
    11  H   -0.212009
    12  H   -0.212009
    13  H   -0.212009
    14  H   -0.212009
    15  H   -0.212009
    16  H   -0.212009
 Sum of Mulliken charges =  -0.00000

 Dipole moment (field-independent basis, Debye):
    X=              0.0000    Y=             -0.0000    Z=             -0.0000  Tot=              0.0000

 Test job not archived.
 1\1\GINC-SE152\SP\RHF\Aug-CC-pVDZ\C8H8\OHZDE\05-Apr-2025\0\\#t hf aug-
 cc-pvdz iop(5/13=1,5/36=2,99/5=2) pseudo=read geom=check guess=(read,t
 check) scf=(maxcycle=1)\\title\\0,1\C,0,0.667787,1.563913,0.371103\C,0
 ,-0.667787,1.563913,0.371103\C,0,0.667787,-1.563913,0.371103\C,0,-0.66
 7787,-1.563913,0.371103\C,0,1.563913,0.667787,-0.371103\C,0,-1.563913,
 0.667787,-0.371103\C,0,1.563913,-0.667787,-0.371103\C,0,-1.563913,-0.6
 67787,-0.371103\H,0,1.166556,2.358559,0.918777\H,0,-1.166556,2.358559,
 0.918777\H,0,1.166556,-2.358559,0.918777\H,0,-1.166556,-2.358559,0.918

 Normal termination of Gaussian 16 at Sat Apr  5 22:58:12 2025.
