 Gaussian 16, Revision C.01,

 ----------------------------------------------------------------------
 #t hf aug-cc-pvdz symm=none int=(grid=ultrafine) guess=(read,tcheck) s
 table=(opt,rrhf)
 ----------------------------------------------------------------------
 -----
 title
 -----
 Symbolic Z-matrix:
 Charge =  0 Multiplicity = 1

 SCF Done:  E(RHF) =  -117.071369667     A.U. after   10 cycles
 Normal termination of Gaussian 16 at Sat Apr  5 22:58:12 2025.
 Gaussian 16:  ES64L-G16RevC.01  3-Jul-2019

 ----------------------------------------------------------------------
 #t hf aug-cc-pvdz iop(5/13=1,5/36=2,99/5=2) pseudo=read geom=check gue
 ss=(read,tcheck) scf=(maxcycle=1)
 ----------------------------------------------------------------------
 -----
 title
 -----
 Structure from the checkpoint file:  "cyclopropane.chk"
 Charge =  0 Multiplicity = 1

                         Standard orientation:
 ---------------------------------------------------------------------
 Center     Atomic      Atomic             Coordinates (Angstroms)
 Number     Number       Type             X           Y           Z
 ---------------------------------------------------------------------
      1          6           0        0.000000    0.000000    0.868264
      2          6           0        0.000000    0.751939   -0.434132
      3          6           0       -0.000000   -0.751939   -0.434132
      4          1           0       -0.907443   -1.260331   -0.727653
      5          1           0       -0.907443    0.000000    1.455305
      6          1           0        0.907443   -1.260331   -0.727653
      7          1           0       -0.907443    1.260331   -0.727653
      8          1           0        0.907443    1.260331   -0.727653
      9          1           0        0.907443   -0.000000    1.455305
 ---------------------------------------------------------------------

 SCF Done:  E(RHF) =  -117.204307925     A.U. after    2 cycles

 The electronic state is 1-A1.
 Alpha  occ. eigenvalues --  -11.23072 -11.22978 -11.22978  -1.13531  -0.82052
 Alpha  occ. eigenvalues --   -0.82052  -0.67551  -0.64106  -0.51831  -0.51831
 Alpha  occ. eigenvalues --   -0.42875  -0.42875
 Alpha virt. eigenvalues --    0.04297   0.04301   0.04629   0.04629   0.07268
 Alpha virt. eigenvalues --    0.07268   0.11832   0.11946   0.11946   0.15484
 Alpha virt. eigenvalues --    0.15484   0.16105   0.16935   0.18183   0.19771

 Mulliken charges:
               1
     1  C    0.224592
     2  C    0.224592
     3  C    0.224592
     4  H   -0.112296
     5  H   -0.112296
     6  H   -0.112296
     7  H   -0.112296
     8  H   -0.112296
     9  H   -0.112296
 Sum of Mulliken charges =  -0.00000

 Dipole moment (field-independent basis, Debye):
    X=             -0.0000    Y=             -0.0000    Z=             -0.0000  Tot=              0.0000

 Test job not archived.
 1\1\GINC-SE203\SP\RHF\Aug-CC-pVDZ\C3H6\OHZDE\05-Apr-2025\0\\#t hf aug-
 cc-pvdz iop(5/13=1,5/36=2,99/5=2) pseudo=read geom=check guess=(read,t
 check) scf=(maxcycle=1)\\title\\0,1\C,0,0.,0.868264,0.\C,0,-0.751939,-
 0.434132,0.\C,0,0.751939,-0.434132,0.\H,0,1.260331,-0.727653,0.907443\
 H,0,0.,1.455305,0.907443\H,0,1.260331,-0.727653,-0.907443\H,0,-1.26033
 1,-0.727653,0.907443\H,0,-1.260331,-0.727653,-0.907443\H,0,0.,1.455305
 ,-0.907443\\Version=ES64L-G16RevC.01\State=1-A1\HF=-117.2043079\RMSD=1
 .118e-02\Dipole=0.,0.,0.\Quadrupole=-0.5733862,-0.5733821,1.1467683,0.

 Normal termination of Gaussian 16 at Sat Apr  5 22:58:14 2025.
