 Gaussian 16, Revision C.01,

 ----------------------------------------------------------------------
 #t hf aug-cc-pvdz symm=none int=(grid=ultrafine) guess=(read,tcheck) s
 table=(opt,rrhf)
 ----------------------------------------------------------------------
 -----
 title
 -----
 Symbolic Z-matrix:
 Charge =  0 Multiplicity = 1

 SCF Done:  E(RHF) =  -156.113163665     A.U. after   10 cycles
 Normal termination of Gaussian 16 at Sat Apr  5 22:58:14 2025.
 Gaussian 16:  ES64L-G16RevC.01  3-Jul-2019

 ----------------------------------------------------------------------
 #t hf aug-cc-pvdz iop(5/13=1,5/36=2,99/5=2) pseudo=read geom=check gue
 ss=(read,tcheck) scf=(maxcycle=1)
 ----------------------------------------------------------------------
 -----
 title
 -----
 Structure from the checkpoint file:  "cyclobutane.chk"
 Charge =  0 Multiplicity = 1

                         Standard orientation:
 ---------------------------------------------------------------------
 Center     Atomic      Atomic             Coordinates (Angstroms)
 Number     Number       Type             X           Y           Z
 ---------------------------------------------------------------------
      1          6           0        0.000000    1.082580    0.123180
      2          6           0        1.082580   -0.000000   -0.123180
      3          6           0       -1.082580    0.000000   -0.123180
      4          6           0       -0.000000   -1.082580    0.123180
      5          1           0        0.000000   -1.957007   -0.526411
      6          1           0        1.957007   -0.000000    0.526411
      7          1           0       -1.957007    0.000000    0.526411
      8          1           0        0.000000    1.957007   -0.526411
      9          1           0        0.000000    1.422103    1.159302
     10          1           0       -1.422103    0.000000   -1.159302
     11          1           0        1.422103   -0.000000   -1.159302
     12          1           0       -0.000000   -1.422103    1.159302
 ---------------------------------------------------------------------

 SCF Done:  E(RHF) =  -156.289657684     A.U. after    2 cycles

 The electronic state is 1-A1.
 Alpha  occ. eigenvalues --  -11.22289 -11.22282 -11.22278 -11.22278  -1.12344
 Alpha  occ. eigenvalues --   -0.89299  -0.89299  -0.75220  -0.65429  -0.65090
 Alpha  occ. eigenvalues --   -0.54189  -0.54189  -0.49428  -0.45638  -0.44349
 Alpha  occ. eigenvalues --   -0.44349
 Alpha virt. eigenvalues --    0.04018   0.04195   0.04268   0.04268   0.06838
 Alpha virt. eigenvalues --    0.07045   0.07045   0.07388   0.12461   0.13959
 Alpha virt. eigenvalues --    0.13959   0.14258   0.14750   0.16371   0.16371

 Mulliken charges:
               1
     1  C   -0.060810
     2  C   -0.060810
     3  C   -0.060810
     4  C   -0.060810
     5  H    0.021310
     6  H    0.021310
     7  H    0.021310
     8  H    0.021310
     9  H    0.039500
    10  H    0.039500
    11  H    0.039500
    12  H    0.039500
 Sum of Mulliken charges =   0.00000

 Dipole moment (field-independent basis, Debye):
    X=             -0.0000    Y=              0.0000    Z=             -0.0000  Tot=              0.0000

 Test job not archived.
 1\1\GINC-SE196\SP\RHF\Aug-CC-pVDZ\C4H8\OHZDE\05-Apr-2025\0\\#t hf aug-
 cc-pvdz iop(5/13=1,5/36=2,99/5=2) pseudo=read geom=check guess=(read,t
 check) scf=(maxcycle=1)\\title\\0,1\C,0,0.,1.08258,0.12318\C,0,1.08258
 ,0.,-0.12318\C,0,-1.08258,0.,-0.12318\C,0,0.,-1.08258,0.12318\H,0,0.,-
 1.957007,-0.526411\H,0,1.957007,0.,0.526411\H,0,-1.957007,0.,0.526411\
 H,0,0.,1.957007,-0.526411\H,0,0.,1.422103,1.159302\H,0,-1.422103,0.,-1
 .159302\H,0,1.422103,0.,-1.159302\H,0,0.,-1.422103,1.159302\\Version=E
 S64L-G16RevC.01\State=1-A1\HF=-156.2896577\RMSD=2.019e-02\Dipole=0.,0.

 Normal termination of Gaussian 16 at Sat Apr  5 22:58:17 2025.
