 Gaussian 16, Revision C.01,

 ----------------------------------------------------------------------
 #t hf aug-cc-pvdz symm=none int=(grid=ultrafine) guess=(read,tcheck) s
 table=(opt,rrhf)
 ----------------------------------------------------------------------
 -----
 title
 -----
 Symbolic Z-matrix:
 Charge =  0 Multiplicity = 1

 SCF Done:  E(RHF) =  -195.183728971     A.U. after   10 cycles
 Normal termination of Gaussian 16 at Sat Apr  5 22:57:22 2025.
 Gaussian 16:  ES64L-G16RevC.01  3-Jul-2019

 ----------------------------------------------------------------------
 #t hf aug-cc-pvdz iop(5/13=1,5/36=2,99/5=2) pseudo=read geom=check gue
 ss=(read,tcheck) scf=(maxcycle=1)
 ----------------------------------------------------------------------
 -----
 title
 -----
 Structure from the checkpoint file:  "cyclopentane.chk"
 Charge =  0 Multiplicity = 1

                         Standard orientation:
 ---------------------------------------------------------------------
 Center     Atomic      Atomic             Coordinates (Angstroms)
 Number     Number       Type             X           Y           Z
 ---------------------------------------------------------------------
      1          6           0       -1.186099    0.424054   -0.243636
      2          6           0       -0.796304   -0.975594    0.244802
      3          6           0        0.027649    1.287279    0.136896
      4          6           0        0.687567   -1.087751   -0.139625
      5          6           0        1.257329    0.349099    0.001362
      6          1           0       -2.118416    0.788697    0.188807
      7          1           0        1.226219   -1.811775    0.471854
      8          1           0       -1.407973   -1.769476   -0.185074
      9          1           0        0.115722    2.182366   -0.478872
     10          1           0       -1.314609    0.411636   -1.329698
     11          1           0        1.864136    0.611700   -0.865357
     12          1           0        1.906692    0.434165    0.872795
     13          1           0       -0.909537   -1.029888    1.331284
     14          1           0       -0.074240    1.623629    1.170697
     15          1           0        0.771151   -1.423572   -1.175226
 ---------------------------------------------------------------------

 SCF Done:  E(RHF) =  -195.404113198     A.U. after    2 cycles

 The electronic state is 1-A.
 Alpha  occ. eigenvalues --  -11.21918 -11.21909 -11.21903 -11.21898 -11.21869
 Alpha  occ. eigenvalues --   -1.11519  -0.95690  -0.95629  -0.77965  -0.77213
 Alpha  occ. eigenvalues --   -0.65503  -0.65343  -0.57626  -0.57502  -0.48331
 Alpha  occ. eigenvalues --   -0.48218  -0.47397  -0.47100  -0.46467  -0.45557
 Alpha virt. eigenvalues --    0.03813   0.04096   0.04138   0.04206   0.06497
 Alpha virt. eigenvalues --    0.06653   0.06694   0.06833   0.07024   0.09733
 Alpha virt. eigenvalues --    0.13931   0.14085   0.14904   0.15411   0.15609

 Mulliken charges:
               1
     1  C   -0.209439
     2  C   -0.209208
     3  C   -0.237148
     4  C   -0.238180
     5  C   -0.175420
     6  H    0.123984
     7  H    0.088847
     8  H    0.124527
     9  H    0.088567
    10  H    0.093961
    11  H    0.131827
    12  H    0.131499
    13  H    0.093467
    14  H    0.096478
    15  H    0.096237
 Sum of Mulliken charges =   0.00000

 Dipole moment (field-independent basis, Debye):
    X=             -0.0141    Y=             -0.0041    Z=              0.0002  Tot=              0.0147

 Test job not archived.
 1\1\GINC-SE154\SP\RHF\Aug-CC-pVDZ\C5H10\OHZDE\05-Apr-2025\0\\#t hf aug
 -cc-pvdz iop(5/13=1,5/36=2,99/5=2) pseudo=read geom=check guess=(read,
 tcheck) scf=(maxcycle=1)\\title\\0,1\C,0,-1.186192,0.423794,-0.243636\
 C,0,-0.79609,-0.975769,0.244802\C,0,0.027367,1.287285,0.136896\C,0,0.6
 87806,-1.0876,-0.139625\C,0,1.257252,0.349375,0.001362\H,0,-2.118589,0
 .788232,0.188807\H,0,1.226616,-1.811506,0.471854\H,0,-1.407585,-1.7697
 85,-0.185074\H,0,0.115243,2.182391,-0.478872\H,0,-1.314699,0.411348,-1
 .329698\H,0,1.864002,0.612109,-0.865357\H,0,1.906597,0.434583,0.872795

 Normal termination of Gaussian 16 at Sat Apr  5 22:58:09 2025.
