 Gaussian 16, Revision C.01,

 ----------------------------------------------------------------------
 #t hf aug-cc-pvdz symm=none int=(grid=ultrafine) guess=(read,tcheck) s
 table=(opt,rrhf)
 ----------------------------------------------------------------------
 -----
 title
 -----
 Symbolic Z-matrix:
 Charge =  0 Multiplicity = 1

 SCF Done:  E(RHF) =  -273.258642816     A.U. after   11 cycles
 Normal termination of Gaussian 16 at Sat Apr  5 22:58:08 2025.
 Gaussian 16:  ES64L-G16RevC.01  3-Jul-2019

 ----------------------------------------------------------------------
 #t hf aug-cc-pvdz iop(5/13=1,5/36=2,99/5=2) pseudo=read geom=check gue
 ss=(read,tcheck) scf=(maxcycle=1)
 ----------------------------------------------------------------------
 -----
 title
 -----
 Structure from the checkpoint file:  "cycloheptane.chk"
 Charge =  0 Multiplicity = 1

                         Standard orientation:
 ---------------------------------------------------------------------
 Center     Atomic      Atomic             Coordinates (Angstroms)
 Number     Number       Type             X           Y           Z
 ---------------------------------------------------------------------
      1          6           0        0.000000   -0.000000    1.772157
      2          6           0        0.703601    1.107660    0.968327
      3          6           0       -0.703601   -1.107660    0.968327
      4          6           0       -0.000000    1.576287   -0.314065
      5          6           0       -0.000000   -1.576287   -0.314065
      6          6           0        0.302469    0.703389   -1.539522
      7          6           0       -0.302469   -0.703389   -1.539522
      8          1           0       -0.742021    0.456246    2.433052
      9          1           0        0.742021   -0.456246    2.433052
     10          1           0        1.710243    0.776893    0.696626
     11          1           0       -1.710243   -0.776893    0.696626
     12          1           0        0.847619    1.961484    1.634661
     13          1           0       -0.847619   -1.961484    1.634661
     14          1           0        0.331829    2.593009   -0.538454
     15          1           0       -0.331829   -2.593009   -0.538454
     16          1           0       -1.081166    1.642958   -0.154172
     17          1           0        1.081166   -1.642958   -0.154172
     18          1           0        1.390576    0.624307   -1.637984
     19          1           0       -1.390576   -0.624307   -1.637984
     20          1           0       -0.042785    1.221357   -2.438645
     21          1           0        0.042785   -1.221357   -2.438645
 ---------------------------------------------------------------------

 SCF Done:  E(RHF) =  -273.564591079     A.U. after    2 cycles

 The electronic state is 1-A.
 Alpha  occ. eigenvalues --  -11.21965 -11.21963 -11.21945 -11.21934 -11.21918
 Alpha  occ. eigenvalues --  -11.21879 -11.21877  -1.10565  -1.02365  -1.02320
 Alpha  occ. eigenvalues --   -0.88003  -0.87946  -0.76808  -0.75056  -0.65278
 Alpha  occ. eigenvalues --   -0.62684  -0.61556  -0.59519  -0.56312  -0.55908
 Alpha  occ. eigenvalues --   -0.52755  -0.52298  -0.46985  -0.46913  -0.46065
 Alpha  occ. eigenvalues --   -0.44683  -0.44027  -0.43993
 Alpha virt. eigenvalues --    0.03364   0.03552   0.03554   0.04106   0.05730
 Alpha virt. eigenvalues --    0.05796   0.06180   0.06316   0.06547   0.09111
 Alpha virt. eigenvalues --    0.09174   0.09466   0.09718   0.09739   0.13923

 Mulliken charges:
               1
     1  C   -0.324130
     2  C   -0.334488
     3  C   -0.334488
     4  C   -0.081784
     5  C   -0.081784
     6  C   -0.320261
     7  C   -0.320261
     8  H    0.152619
     9  H    0.152619
    10  H    0.152623
    11  H    0.152623
    12  H    0.078242
    13  H    0.078242
    14  H    0.083687
    15  H    0.083687
    16  H    0.164523
    17  H    0.164523
    18  H    0.167309
    19  H    0.167309
    20  H    0.099595
    21  H    0.099595
 Sum of Mulliken charges =  -0.00000

 Dipole moment (field-independent basis, Debye):
    X=             -0.0000    Y=             -0.0000    Z=             -0.0078  Tot=              0.0078

 Test job not archived.
 1\1\GINC-SE213\SP\RHF\Aug-CC-pVDZ\C7H14\OHZDE\05-Apr-2025\0\\#t hf aug
 -cc-pvdz iop(5/13=1,5/36=2,99/5=2) pseudo=read geom=check guess=(read,
 tcheck) scf=(maxcycle=1)\\title\\0,1\C,0,0.,0.,1.772157\C,0,0.703601,1
 .10766,0.968327\C,0,-0.703601,-1.10766,0.968327\C,0,0.,1.576287,-0.314
 065\C,0,0.,-1.576287,-0.314065\C,0,0.302469,0.703389,-1.539522\C,0,-0.
 302469,-0.703389,-1.539522\H,0,-0.742021,0.456246,2.433052\H,0,0.74202
 1,-0.456246,2.433052\H,0,1.710243,0.776893,0.696626\H,0,-1.710243,-0.7
 76893,0.696626\H,0,0.847619,1.961484,1.634661\H,0,-0.847619,-1.961484,

 Normal termination of Gaussian 16 at Sat Apr  5 22:58:15 2025.
