 Gaussian 16, Revision C.01,

 ----------------------------------------------------------------------
 #t hf aug-cc-pvdz symm=none int=(grid=ultrafine) guess=(read,tcheck) s
 table=(opt,rrhf)
 ----------------------------------------------------------------------
 -----
 title
 -----
 Symbolic Z-matrix:
 Charge =  0 Multiplicity = 1

 SCF Done:  E(RHF) =  -250.221894148     A.U. after   12 cycles

 1\1\GINC-SE153\Stability\RHF\Aug-CC-pVDZ\C5H11N1\OHZDE\05-Apr-2025\0\\
 #t hf aug-cc-pvdz symm=none int=(grid=ultrafine) guess=(read,tcheck) s
 table=(opt,rrhf)\\title\\0,1\N,0,0.137512,2.151652,0.\C,0,0.448122,0.7
 21591,0.\H,0,1.532762,0.530144,0.\H,0,0.53356,2.608259,0.8131\H,0,0.53
 356,2.608259,-0.8131\C,0,-0.167084,-1.496898,0.778524\C,0,-0.167084,-1
 .496898,-0.778524\C,0,-0.167084,-0.013012,-1.194728\C,0,-0.167084,-0.0
 13012,1.194728\H,0,-1.025406,-2.027487,-1.189237\H,0,-1.025406,-2.0274
 87,1.189237\H,0,0.721946,-2.002668,1.157019\H,0,0.721946,-2.002668,-1.

 Normal termination of Gaussian 16 at Sat Apr  5 22:57:35 2025.
 Gaussian 16:  ES64L-G16RevC.01  3-Jul-2019

 ----------------------------------------------------------------------
 #t hf aug-cc-pvdz iop(5/13=1,5/36=2,99/5=2) pseudo=read geom=check gue
 ss=(read,tcheck) scf=(maxcycle=1)
 ----------------------------------------------------------------------
 -----
 title
 -----
 Structure from the checkpoint file:  "cyclopentanamine.chk"
 Charge =  0 Multiplicity = 1

                         Standard orientation:
 ---------------------------------------------------------------------
 Center     Atomic      Atomic             Coordinates (Angstroms)
 Number     Number       Type             X           Y           Z
 ---------------------------------------------------------------------
      1          7           0        0.137512    2.151652    0.000000
      2          6           0        0.448122    0.721591    0.000000
      3          1           0        1.532762    0.530144    0.000000
      4          1           0        0.533560    2.608259    0.813100
      5          1           0        0.533560    2.608259   -0.813100
      6          6           0       -0.167084   -1.496898    0.778524
      7          6           0       -0.167084   -1.496898   -0.778524
      8          6           0       -0.167084   -0.013012   -1.194728
      9          6           0       -0.167084   -0.013012    1.194728
     10          1           0       -1.025406   -2.027487   -1.189237
     11          1           0       -1.025406   -2.027487    1.189237
     12          1           0        0.721946   -2.002668    1.157019
     13          1           0        0.721946   -2.002668   -1.157019
     14          1           0       -1.187175    0.355253   -1.326931
     15          1           0       -1.187175    0.355253    1.326931
     16          1           0        0.370046    0.165478   -2.127734
     17          1           0        0.370046    0.165478    2.127734
 ---------------------------------------------------------------------

 SCF Done:  E(RHF) =  -250.498565207     A.U. after    2 cycles

 The electronic state is 1-A'.
 Alpha  occ. eigenvalues --  -15.47904 -11.25057 -11.22113 -11.22104 -11.21700
 Alpha  occ. eigenvalues --  -11.21655  -1.18452  -1.09253  -0.96115  -0.93591
 Alpha  occ. eigenvalues --   -0.78128  -0.77476  -0.67873  -0.66996  -0.65584
 Alpha  occ. eigenvalues --   -0.60307  -0.57416  -0.51817  -0.49016  -0.48519
 Alpha  occ. eigenvalues --   -0.47673  -0.46536  -0.45711  -0.41649
 Alpha virt. eigenvalues --    0.03439   0.03998   0.04157   0.04318   0.05989
 Alpha virt. eigenvalues --    0.06272   0.06559   0.06725   0.07237   0.09154
 Alpha virt. eigenvalues --    0.09656   0.12865   0.14210   0.14563   0.14833

 Mulliken charges:
               1
     1  N    0.597718
     2  C   -1.693986
     3  H    0.039152
     4  H    0.141780
     5  H    0.141780
     6  C   -0.149019
     7  C   -0.149019
     8  C    0.040042
     9  C    0.040042
    10  H    0.106648
    11  H    0.106648
    12  H    0.105750
    13  H    0.105750
    14  H    0.197047
    15  H    0.197047
    16  H    0.086310
    17  H    0.086310
 Sum of Mulliken charges =  -0.00000

 Dipole moment (field-independent basis, Debye):
    X=              1.2956    Y=             -0.2126    Z=             -0.0000  Tot=              1.3129

 Test job not archived.
 1\1\GINC-SE153\SP\RHF\Aug-CC-pVDZ\C5H11N1\OHZDE\05-Apr-2025\0\\#t hf a
 ug-cc-pvdz iop(5/13=1,5/36=2,99/5=2) pseudo=read geom=check guess=(rea
 d,tcheck) scf=(maxcycle=1)\\title\\0,1\N,0,0.137512,2.151652,0.\C,0,0.
 448122,0.721591,0.\H,0,1.532762,0.530144,0.\H,0,0.53356,2.608259,0.813
 1\H,0,0.53356,2.608259,-0.8131\C,0,-0.167084,-1.496898,0.778524\C,0,-0
 .167084,-1.496898,-0.778524\C,0,-0.167084,-0.013012,-1.194728\C,0,-0.1
 67084,-0.013012,1.194728\H,0,-1.025406,-2.027487,-1.189237\H,0,-1.0254
 06,-2.027487,1.189237\H,0,0.721946,-2.002668,1.157019\H,0,0.721946,-2.

 Normal termination of Gaussian 16 at Sat Apr  5 22:58:09 2025.
