 Gaussian 16, Revision C.01,

 ----------------------------------------------------------------------
 #t hf aug-cc-pvdz symm=none int=(grid=ultrafine) guess=(read,tcheck) s
 table=(opt,rrhf)
 ----------------------------------------------------------------------
 -----
 title
 -----
 Symbolic Z-matrix:
 Charge =  0 Multiplicity = 1

 SCF Done:  E(RHF) =  -154.917343715     A.U. after   11 cycles
 Normal termination of Gaussian 16 at Sat Apr  5 22:58:13 2025.
 Gaussian 16:  ES64L-G16RevC.01  3-Jul-2019

 ----------------------------------------------------------------------
 #t hf aug-cc-pvdz iop(5/13=1,5/36=2,99/5=2) pseudo=read geom=check gue
 ss=(read,tcheck) scf=(maxcycle=1)
 ----------------------------------------------------------------------
 -----
 title
 -----
 Structure from the checkpoint file:  "cyclobutene.chk"
 Charge =  0 Multiplicity = 1

                         Standard orientation:
 ---------------------------------------------------------------------
 Center     Atomic      Atomic             Coordinates (Angstroms)
 Number     Number       Type             X           Y           Z
 ---------------------------------------------------------------------
      1          6           0        0.000000    0.667446    0.812417
      2          6           0       -0.000000   -0.667446    0.812417
      3          6           0        0.000000    0.784886   -0.698476
      4          6           0       -0.000000   -0.784886   -0.698476
      5          1           0        0.000000    1.411038    1.598258
      6          1           0       -0.000000   -1.411038    1.598258
      7          1           0        0.886543    1.242452   -1.140953
      8          1           0       -0.886543   -1.242452   -1.140953
      9          1           0       -0.886543    1.242452   -1.140953
     10          1           0        0.886543   -1.242452   -1.140953
 ---------------------------------------------------------------------

 SCF Done:  E(RHF) =  -155.086727071     A.U. after    2 cycles

 The electronic state is 1-A1.
 Alpha  occ. eigenvalues --  -11.23432 -11.23376 -11.23353 -11.23305  -1.14962
 Alpha  occ. eigenvalues --   -0.90072  -0.87901  -0.71257  -0.68740  -0.63006
 Alpha  occ. eigenvalues --   -0.54614  -0.51285  -0.47288  -0.46568  -0.35890
 Alpha virt. eigenvalues --    0.03984   0.04084   0.04423   0.04785   0.06251
 Alpha virt. eigenvalues --    0.07030   0.11267   0.12254   0.12663   0.13561
 Alpha virt. eigenvalues --    0.13568   0.14669   0.14938   0.16898   0.17168

 Mulliken charges:
               1
     1  C    0.151409
     2  C    0.151409
     3  C   -0.216314
     4  C   -0.216314
     5  H   -0.095619
     6  H   -0.095619
     7  H    0.080262
     8  H    0.080262
     9  H    0.080262
    10  H    0.080262
 Sum of Mulliken charges =  -0.00000

 Dipole moment (field-independent basis, Debye):
    X=              0.0000    Y=              0.0000    Z=             -0.1016  Tot=              0.1016

 Test job not archived.
 1\1\GINC-SE198\SP\RHF\Aug-CC-pVDZ\C4H6\OHZDE\05-Apr-2025\0\\#t hf aug-
 cc-pvdz iop(5/13=1,5/36=2,99/5=2) pseudo=read geom=check guess=(read,t
 check) scf=(maxcycle=1)\\title\\0,1\C,0,0.,0.667446,0.812417\C,0,0.,-0
 .667446,0.812417\C,0,0.,0.784886,-0.698476\C,0,0.,-0.784886,-0.698476\
 H,0,0.,1.411038,1.598258\H,0,0.,-1.411038,1.598258\H,0,0.886543,1.2424
 52,-1.140953\H,0,-0.886543,-1.242452,-1.140953\H,0,-0.886543,1.242452,
 -1.140953\H,0,0.886543,-1.242452,-1.140953\\Version=ES64L-G16RevC.01\S
 tate=1-A1\HF=-155.0867271\RMSD=2.285e-02\Dipole=0.,0.,-0.0399606\Quadr

 Normal termination of Gaussian 16 at Sat Apr  5 22:58:15 2025.
