 Gaussian 16, Revision C.01,

 ----------------------------------------------------------------------
 #t hf aug-cc-pvdz symm=none int=(grid=ultrafine) guess=(read,tcheck) s
 table=(opt,rrhf)
 ----------------------------------------------------------------------
 -----
 title
 -----
 Symbolic Z-matrix:
 Charge =  0 Multiplicity = 1

 SCF Done:  E(RHF) =  -192.752686818     A.U. after   13 cycles
 Normal termination of Gaussian 16 at Sat Apr  5 22:57:11 2025.
 Gaussian 16:  ES64L-G16RevC.01  3-Jul-2019

 ----------------------------------------------------------------------
 #t hf aug-cc-pvdz iop(5/13=1,5/36=2,99/5=2) pseudo=read geom=check gue
 ss=(read,tcheck) scf=(maxcycle=1)
 ----------------------------------------------------------------------
 -----
 title
 -----
 Structure from the checkpoint file:  "cyclopropylacetylene.chk"
 Charge =  0 Multiplicity = 1

                         Standard orientation:
 ---------------------------------------------------------------------
 Center     Atomic      Atomic             Coordinates (Angstroms)
 Number     Number       Type             X           Y           Z
 ---------------------------------------------------------------------
      1          6           0        0.611276    0.150433    0.000000
      2          6           0       -0.558771    0.979132   -0.000000
      3          1           0        1.547692    0.693190    0.000000
      4          6           0        0.611276   -1.169532    0.748025
      5          6           0        0.611276   -1.169532   -0.748025
      6          6           0       -1.538704    1.673681   -0.000000
      7          1           0       -2.403449    2.288355   -0.000000
      8          1           0        1.520070   -1.440716    1.265675
      9          1           0       -0.301248   -1.442601    1.256473
     10          1           0        1.520070   -1.440716   -1.265675
     11          1           0       -0.301248   -1.442601   -1.256473
 ---------------------------------------------------------------------

 SCF Done:  E(RHF) =  -192.959103616     A.U. after    2 cycles

 The electronic state is 1-A'.
 Alpha  occ. eigenvalues --  -11.26484 -11.24794 -11.24734 -11.24186 -11.22905
 Alpha  occ. eigenvalues --   -1.16514  -1.02502  -0.87477  -0.83718  -0.73139
 Alpha  occ. eigenvalues --   -0.69686  -0.66691  -0.56806  -0.53542  -0.48841
 Alpha  occ. eigenvalues --   -0.46971  -0.39069  -0.36905
 Alpha virt. eigenvalues --    0.03605   0.03823   0.04496   0.04564   0.05964
 Alpha virt. eigenvalues --    0.07048   0.09986   0.10781   0.11138   0.12731
 Alpha virt. eigenvalues --    0.12818   0.12964   0.14746   0.15724   0.16224

 Mulliken charges:
               1
     1  C    0.344467
     2  C   -0.127932
     3  H   -0.157942
     4  C    0.213192
     5  C    0.213192
     6  C    0.395010
     7  H   -0.422921
     8  H   -0.103105
     9  H   -0.125429
    10  H   -0.103105
    11  H   -0.125429
 Sum of Mulliken charges =  -0.00000

 Dipole moment (field-independent basis, Debye):
    X=              0.5992    Y=             -0.7501    Z=             -0.0000  Tot=              0.9600

 Test job not archived.
 1\1\GINC-SE292\SP\RHF\Aug-CC-pVDZ\C5H6\OHZDE\05-Apr-2025\0\\#t hf aug-
 cc-pvdz iop(5/13=1,5/36=2,99/5=2) pseudo=read geom=check guess=(read,t
 check) scf=(maxcycle=1)\\title\\0,1\C,0,0.611276,0.150433,0.\C,0,-0.55
 8771,0.979132,0.\H,0,1.547692,0.69319,0.\C,0,0.611276,-1.169532,0.7480
 25\C,0,0.611276,-1.169532,-0.748025\C,0,-1.538704,1.673681,0.\H,0,-2.4
 03449,2.288355,0.\H,0,1.52007,-1.440716,1.265675\H,0,-0.301248,-1.4426
 01,1.256473\H,0,1.52007,-1.440716,-1.265675\H,0,-0.301248,-1.442601,-1
 .256473\\Version=ES64L-G16RevC.01\State=1-A'\HF=-192.9591036\RMSD=2.47

 Normal termination of Gaussian 16 at Sat Apr  5 22:58:08 2025.
