 Gaussian 16, Revision C.01,

 ----------------------------------------------------------------------
 #t hf aug-cc-pvdz symm=none int=(grid=ultrafine) guess=(read,tcheck) s
 table=(opt,rrhf)
 ----------------------------------------------------------------------
 -----
 title
 -----
 Symbolic Z-matrix:
 Charge =  0 Multiplicity = 1

 SCF Done:  E(RHF) =  -286.930239760     A.U. after   14 cycles
 Normal termination of Gaussian 16 at Sat Apr  5 22:57:44 2025.
 Gaussian 16:  ES64L-G16RevC.01  3-Jul-2019

 ----------------------------------------------------------------------
 #t hf aug-cc-pvdz iop(5/13=1,5/36=2,99/5=2) pseudo=read geom=check gue
 ss=(read,tcheck) scf=(maxcycle=1)
 ----------------------------------------------------------------------
 -----
 title
 -----
 Structure from the checkpoint file:  "cyclopentanecarbonitrile.chk"
 Charge =  0 Multiplicity = 1

                         Standard orientation:
 ---------------------------------------------------------------------
 Center     Atomic      Atomic             Coordinates (Angstroms)
 Number     Number       Type             X           Y           Z
 ---------------------------------------------------------------------
      1          6           0        1.602438    0.009053   -0.031364
      2          6           0       -1.371859    0.746330   -0.653168
      3          6           0       -1.307418   -0.806205   -0.645590
      4          6           0       -0.501396    1.220231    0.531175
      5          6           0       -0.485334   -1.190374    0.598276
      6          6           0        0.432357    0.028014    0.847230
      7          7           0        2.515785   -0.006019   -0.731269
      8          1           0       -0.984080    1.137519   -1.592694
      9          1           0       -2.392524    1.113594   -0.555555
     10          1           0       -2.295941   -1.262646   -0.625195
     11          1           0       -0.810388   -1.165675   -1.546124
     12          1           0        0.045306    2.137508    0.322211
     13          1           0       -1.117683    1.398437    1.413455
     14          1           0       -1.132932   -1.299095    1.469966
     15          1           0        0.067826   -2.119975    0.478891
     16          1           0        0.797203    0.060175    1.874581
 ---------------------------------------------------------------------

 SCF Done:  E(RHF) =  -287.232625301     A.U. after    2 cycles

 The electronic state is 1-A.
 Alpha  occ. eigenvalues --  -15.50511 -11.28539 -11.27275 -11.25266 -11.25232
 Alpha  occ. eigenvalues --  -11.24028 -11.23999  -1.23055  -1.15238  -1.00836
 Alpha  occ. eigenvalues --   -0.98836  -0.85235  -0.79983  -0.71038  -0.69224
 Alpha  occ. eigenvalues --   -0.64339  -0.61455  -0.59788  -0.54474  -0.53834
 Alpha  occ. eigenvalues --   -0.52339  -0.50900  -0.50019  -0.48548  -0.47879
 Alpha  occ. eigenvalues --   -0.46847
 Alpha virt. eigenvalues --    0.02733   0.03436   0.03705   0.04211   0.05658
 Alpha virt. eigenvalues --    0.05774   0.06710   0.06856   0.09020   0.09576
 Alpha virt. eigenvalues --    0.11844   0.13157   0.13203   0.14021   0.14270

 Mulliken charges:
               1
     1  C   -1.945685
     2  C   -0.177807
     3  C   -0.178078
     4  C    0.093398
     5  C    0.097199
     6  C   -0.118323
     7  N    1.080970
     8  H    0.163913
     9  H    0.117708
    10  H    0.095170
    11  H    0.155825
    12  H    0.108005
    13  H    0.109066
    14  H    0.113955
    15  H    0.121056
    16  H    0.163626
 Sum of Mulliken charges =  -0.00000

 Dipole moment (field-independent basis, Debye):
    X=             -4.2668    Y=              0.0461    Z=              2.5598  Tot=              4.9760

 Test job not archived.
 1\1\GINC-SE169\SP\RHF\Aug-CC-pVDZ\C6H9N1\OHZDE\05-Apr-2025\0\\#t hf au
 g-cc-pvdz iop(5/13=1,5/36=2,99/5=2) pseudo=read geom=check guess=(read
 ,tcheck) scf=(maxcycle=1)\\title\\0,1\C,0,1.602438,0.009053,-0.031364\
 C,0,-1.371859,0.74633,-0.653168\C,0,-1.307418,-0.806205,-0.64559\C,0,-
 0.501396,1.220231,0.531175\C,0,-0.485334,-1.190374,0.598276\C,0,0.4323
 57,0.028014,0.84723\N,0,2.515785,-0.006019,-0.731269\H,0,-0.98408,1.13
 7519,-1.592694\H,0,-2.392524,1.113594,-0.555555\H,0,-2.295941,-1.26264
 6,-0.625195\H,0,-0.810388,-1.165675,-1.546124\H,0,0.045306,2.137508,0.

 Normal termination of Gaussian 16 at Sat Apr  5 22:58:11 2025.
