 Gaussian 16, Revision C.01,

 ----------------------------------------------------------------------
 #t hf aug-cc-pvdz symm=none int=(grid=ultrafine) guess=(read,tcheck) s
 table=(opt,rrhf)
 ----------------------------------------------------------------------
 -----
 title
 -----
 Symbolic Z-matrix:
 Charge =  0 Multiplicity = 1

 SCF Done:  E(RHF) =  -719.453041133     A.U. after   14 cycles
 Normal termination of Gaussian 16 at Sat Apr  5 22:58:37 2025.
 Gaussian 16:  ES64L-G16RevC.01  3-Jul-2019

 ----------------------------------------------------------------------
 #t hf aug-cc-pvdz iop(5/13=1,5/36=2,99/5=2) pseudo=read geom=check gue
 ss=(read,tcheck) scf=(maxcycle=1)
 ----------------------------------------------------------------------
 -----
 title
 -----
 Structure from the checkpoint file:  "cysteine.chk"
 Charge =  0 Multiplicity = 1

                         Standard orientation:
 ---------------------------------------------------------------------
 Center     Atomic      Atomic             Coordinates (Angstroms)
 Number     Number       Type             X           Y           Z
 ---------------------------------------------------------------------
      1          7           0        0.132502    1.611883    0.297686
      2          6           0        0.232379    0.161878    0.470580
      3          6           0        1.642693   -0.320889    0.078786
      4          8           0        2.061362   -1.407821    0.371619
      5          8           0        2.340267    0.562288   -0.647593
      6          1           0        1.773757    1.361340   -0.710982
      7          6           0       -0.766023   -0.575233   -0.432100
      8         16           0       -2.526785   -0.165977   -0.120311
      9          1           0        0.072670   -0.163602    1.501691
     10          1           0       -0.615582   -1.646562   -0.340585
     11          1           0       -0.604235   -0.298474   -1.474310
     12          1           0       -2.603154   -0.697517    1.114290
     13          1           0       -0.830276    1.882258    0.128698
     14          1           0        0.440533    2.104739    1.126558
 ---------------------------------------------------------------------

 SCF Done:  E(RHF) =  -719.838936669     A.U. after    2 cycles

 The electronic state is 1-A.
 Alpha  occ. eigenvalues --  -93.97301 -20.59362 -20.53389 -15.52928 -11.39187
 Alpha  occ. eigenvalues --  -11.31035 -11.29963  -8.25361  -6.23209  -6.23060
 Alpha  occ. eigenvalues --   -6.22844  -1.54223  -1.45498  -1.23405  -1.09541
 Alpha  occ. eigenvalues --   -0.99912  -0.88072  -0.81840  -0.75710  -0.73683
 Alpha  occ. eigenvalues --   -0.70824  -0.65123  -0.63382  -0.61474  -0.58176
 Alpha  occ. eigenvalues --   -0.57530  -0.54121  -0.49945  -0.49218  -0.46432
 Alpha  occ. eigenvalues --   -0.43287  -0.39141
 Alpha virt. eigenvalues --    0.02629   0.03834   0.04488   0.05045   0.06126
 Alpha virt. eigenvalues --    0.06339   0.07343   0.08947   0.10196   0.11272
 Alpha virt. eigenvalues --    0.12272   0.12621   0.13685   0.14260   0.15195

 Mulliken charges:
               1
     1  N    0.246248
     2  C   -1.451685
     3  C    2.489195
     4  O   -1.340304
     5  O   -1.328790
     6  H    0.505675
     7  C   -0.655595
     8  S    0.028029
     9  H    0.164021
    10  H    0.178101
    11  H    0.293037
    12  H    0.327548
    13  H    0.311565
    14  H    0.232954
 Sum of Mulliken charges =  -0.00000

 Dipole moment (field-independent basis, Debye):
    X=             -2.9155    Y=              2.5890    Z=              1.3670  Tot=              4.1318

 Test job not archived.
 1\1\GINC-SE252\SP\RHF\Aug-CC-pVDZ\C3H7N1O2S1\OHZDE\05-Apr-2025\0\\#t h
 f aug-cc-pvdz iop(5/13=1,5/36=2,99/5=2) pseudo=read geom=check guess=(
 read,tcheck) scf=(maxcycle=1)\\title\\0,1\N,0,0.132502,1.611883,0.2976
 86\C,0,0.232379,0.161878,0.47058\C,0,1.642693,-0.320889,0.078786\O,0,2
 .061362,-1.407821,0.371619\O,0,2.340267,0.562288,-0.647593\H,0,1.77375
 7,1.36134,-0.710982\C,0,-0.766023,-0.575233,-0.4321\S,0,-2.526785,-0.1
 65977,-0.120311\H,0,0.07267,-0.163602,1.501691\H,0,-0.615582,-1.646562
 ,-0.340585\H,0,-0.604235,-0.298474,-1.47431\H,0,-2.603154,-0.697517,1.

 Normal termination of Gaussian 16 at Sat Apr  5 22:58:43 2025.
