 Gaussian 16, Revision C.01,

 ----------------------------------------------------------------------
 #t hf aug-cc-pvdz symm=none int=(grid=ultrafine) guess=(read,tcheck) s
 table=(opt,rrhf)
 ----------------------------------------------------------------------
 -----
 title
 -----
 Symbolic Z-matrix:
 Charge =  0 Multiplicity = 1

 SCF Done:  E(RHF) =  -392.678308357     A.U. after   15 cycles
 Normal termination of Gaussian 16 at Sat Apr  5 22:58:38 2025.
 Gaussian 16:  ES64L-G16RevC.01  3-Jul-2019

 ----------------------------------------------------------------------
 #t hf aug-cc-pvdz iop(5/13=1,5/36=2,99/5=2) pseudo=read geom=check gue
 ss=(read,tcheck) scf=(maxcycle=1)
 ----------------------------------------------------------------------
 -----
 title
 -----
 Structure from the checkpoint file:  "cytosine.chk"
 Charge =  0 Multiplicity = 1

                         Standard orientation:
 ---------------------------------------------------------------------
 Center     Atomic      Atomic             Coordinates (Angstroms)
 Number     Number       Type             X           Y           Z
 ---------------------------------------------------------------------
      1          7           0       -1.278679    0.891680    0.000794
      2          6           0       -1.183279   -0.527836   -0.000005
      3          8           0       -2.212368   -1.174968    0.000543
      4          7           0        0.081477   -1.045063    0.000860
      5          6           0        1.129520   -0.251037   -0.001356
      6          7           0        2.350160   -0.839822   -0.016923
      7          6           0        1.044869    1.182278   -0.000701
      8          6           0       -0.202442    1.706311    0.000829
      9          1           0       -2.216305    1.259538    0.001831
     10          1           0        2.393103   -1.842117    0.040782
     11          1           0        3.193278   -0.305790    0.070447
     12          1           0        1.919772    1.812089   -0.004556
     13          1           0       -0.393620    2.770157    0.001442
 ---------------------------------------------------------------------

 SCF Done:  E(RHF) =  -393.072227604     A.U. after    2 cycles

 The electronic state is 1-A.
 Alpha  occ. eigenvalues --  -20.49013 -15.55967 -15.53902 -15.47857 -11.37460
 Alpha  occ. eigenvalues --  -11.35732 -11.33540 -11.25144  -1.44990  -1.31346
 Alpha  occ. eigenvalues --   -1.26777  -1.18435  -1.07676  -0.92738  -0.91586
 Alpha  occ. eigenvalues --   -0.80141  -0.79750  -0.76147  -0.71599  -0.65252
 Alpha  occ. eigenvalues --   -0.64494  -0.63236  -0.60926  -0.57405  -0.50760
 Alpha  occ. eigenvalues --   -0.47436  -0.42886  -0.42335  -0.35965
 Alpha virt. eigenvalues --    0.02170   0.02732   0.03768   0.05889   0.07035
 Alpha virt. eigenvalues --    0.07116   0.09531   0.09916   0.11146   0.11576
 Alpha virt. eigenvalues --    0.11904   0.12233   0.12464   0.12869   0.15012

 Mulliken charges:
               1
     1  N    0.530058
     2  C    0.662460
     3  O   -1.338552
     4  N    0.893561
     5  C   -2.085559
     6  N    0.852508
     7  C    1.100108
     8  C   -0.416699
     9  H    0.142322
    10  H    0.001073
    11  H    0.116177
    12  H   -0.253503
    13  H   -0.203953
 Sum of Mulliken charges =   0.00000

 Dipole moment (field-independent basis, Debye):
    X=              4.6109    Y=              5.5469    Z=              0.2220  Tot=              7.2164

 Test job not archived.
 1\1\GINC-SE255\SP\RHF\Aug-CC-pVDZ\C4H5N3O1\OHZDE\05-Apr-2025\0\\#t hf
 aug-cc-pvdz iop(5/13=1,5/36=2,99/5=2) pseudo=read geom=check guess=(re
 ad,tcheck) scf=(maxcycle=1)\\title\\0,1\N,0,-1.278679,0.89168,0.000794
 \C,0,-1.183279,-0.527836,-0.000005\O,0,-2.212368,-1.174968,0.000543\N,
 0,0.081477,-1.045063,0.00086\C,0,1.12952,-0.251037,-0.001356\N,0,2.350
 16,-0.839822,-0.016923\C,0,1.044869,1.182278,-0.000701\C,0,-0.202442,1
 .706311,0.000829\H,0,-2.216305,1.259538,0.001831\H,0,2.393103,-1.84211
 7,0.040782\H,0,3.193278,-0.30579,0.070447\H,0,1.919772,1.812089,-0.004

 Normal termination of Gaussian 16 at Sat Apr  5 22:58:43 2025.
