 Gaussian 16, Revision C.01,

 ----------------------------------------------------------------------
 #t hf aug-cc-pvdz symm=none int=(grid=ultrafine) guess=(read,tcheck) s
 table=(opt,rrhf)
 ----------------------------------------------------------------------
 -----
 title
 -----
 Symbolic Z-matrix:
 Charge =  0 Multiplicity = 1

 SCF Done:  E(RHF) =  -391.548021700     A.U. after   11 cycles
 Normal termination of Gaussian 16 at Sat Apr  5 23:02:25 2025.
 Gaussian 16:  ES64L-G16RevC.01  3-Jul-2019

 ----------------------------------------------------------------------
 #t hf aug-cc-pvdz iop(5/13=1,5/36=2,99/5=2) pseudo=read geom=check gue
 ss=(read,tcheck) scf=(maxcycle=1)
 ----------------------------------------------------------------------
 -----
 title
 -----
 Structure from the checkpoint file:  "decane.chk"
 Charge =  0 Multiplicity = 1

                         Standard orientation:
 ---------------------------------------------------------------------
 Center     Atomic      Atomic             Coordinates (Angstroms)
 Number     Number       Type             X           Y           Z
 ---------------------------------------------------------------------
      1          6           0        2.789368    5.050688    0.000000
      2          6           0       -2.789368   -5.050688    0.000000
      3          6           0        2.800552    3.522861    0.000000
      4          6           0       -2.800552   -3.522861    0.000000
      5          6           0        1.400494    2.907631    0.000000
      6          6           0       -1.400494   -2.907631    0.000000
      7          6           0        1.400494    1.378640    0.000000
      8          6           0       -1.400494   -1.378640    0.000000
      9          6           0       -0.000057    0.764608    0.000000
     10          6           0        0.000057   -0.764608    0.000000
     11          1           0        3.801408    5.458123    0.000000
     12          1           0        2.275152    5.441067    0.880579
     13          1           0        2.275152    5.441067   -0.880579
     14          1           0       -3.801408   -5.458123    0.000000
     15          1           0       -2.275152   -5.441067   -0.880579
     16          1           0       -2.275152   -5.441067    0.880579
     17          1           0        3.351669    3.162311    0.873843
     18          1           0        3.351669    3.162311   -0.873843
     19          1           0       -3.351669   -3.162311    0.873843
     20          1           0       -3.351669   -3.162311   -0.873843
     21          1           0        0.848853    3.269313   -0.874391
     22          1           0        0.848853    3.269313    0.874391
     23          1           0       -0.848853   -3.269313   -0.874391
     24          1           0       -0.848853   -3.269313    0.874391
     25          1           0        1.952511    1.017990    0.874412
     26          1           0        1.952511    1.017990   -0.874412
     27          1           0       -1.952511   -1.017990    0.874412
     28          1           0       -1.952511   -1.017990   -0.874412
     29          1           0       -0.551998    1.125266   -0.874385
     30          1           0       -0.551998    1.125266    0.874385
     31          1           0        0.551998   -1.125266    0.874385
     32          1           0        0.551998   -1.125266   -0.874385
 ---------------------------------------------------------------------

 SCF Done:  E(RHF) =  -391.991936138     A.U. after    2 cycles

 The electronic state is 1-AG.
 Alpha  occ. eigenvalues --  -11.22198 -11.22196 -11.21953 -11.21951 -11.21946
 Alpha  occ. eigenvalues --  -11.21938 -11.21927 -11.21902 -11.21844 -11.21842
 Alpha  occ. eigenvalues --   -1.09863  -1.07638  -1.04110  -0.99562  -0.94245
 Alpha  occ. eigenvalues --   -0.88457  -0.82900  -0.79346  -0.78875  -0.78454
 Alpha  occ. eigenvalues --   -0.66508  -0.64696  -0.61846  -0.60219  -0.59508
 Alpha  occ. eigenvalues --   -0.58355  -0.57924  -0.55077  -0.54651  -0.54265
 Alpha  occ. eigenvalues --   -0.51193  -0.51140  -0.48499  -0.48473  -0.48371
 Alpha  occ. eigenvalues --   -0.46823  -0.46790  -0.46214  -0.46174  -0.46136
 Alpha  occ. eigenvalues --   -0.43410
 Alpha virt. eigenvalues --    0.03164   0.03321   0.03332   0.03972   0.04416
 Alpha virt. eigenvalues --    0.04560   0.04755   0.05801   0.06199   0.06407
 Alpha virt. eigenvalues --    0.06672   0.07764   0.08034   0.08988   0.09217

 Mulliken charges:
               1
     1  C   -0.381789
     2  C   -0.381789
     3  C   -0.161153
     4  C   -0.161153
     5  C   -0.286575
     6  C   -0.286575
     7  C   -0.221703
     8  C   -0.221703
     9  C   -0.222792
    10  C   -0.222792
    11  H    0.108893
    12  H    0.157861
    13  H    0.157861
    14  H    0.108893
    15  H    0.157861
    16  H    0.157861
    17  H    0.111347
    18  H    0.111347
    19  H    0.111347
    20  H    0.111347
    21  H    0.101715
    22  H    0.101715
    23  H    0.101715
    24  H    0.101715
    25  H    0.101041
    26  H    0.101041
    27  H    0.101041
    28  H    0.101041
    29  H    0.110595
    30  H    0.110595
    31  H    0.110595
    32  H    0.110595
 Sum of Mulliken charges =  -0.00000

 Dipole moment (field-independent basis, Debye):
    X=              0.0000    Y=              0.0000    Z=              0.0000  Tot=              0.0000

 Test job not archived.
 1\1\GINC-SE314\SP\RHF\Aug-CC-pVDZ\C10H22\OHZDE\05-Apr-2025\0\\#t hf au
 g-cc-pvdz iop(5/13=1,5/36=2,99/5=2) pseudo=read geom=check guess=(read
 ,tcheck) scf=(maxcycle=1)\\title\\0,1\C,0,2.789368,5.050688,0.\C,0,-2.
 789368,-5.050688,0.\C,0,2.800552,3.522861,0.\C,0,-2.800552,-3.522861,0
 .\C,0,1.400494,2.907631,0.\C,0,-1.400494,-2.907631,0.\C,0,1.400494,1.3
 7864,0.\C,0,-1.400494,-1.37864,0.\C,0,-0.000057,0.764608,0.\C,0,0.0000
 57,-0.764608,0.\H,0,3.801408,5.458123,0.\H,0,2.275152,5.441067,0.88057
 9\H,0,2.275152,5.441067,-0.880579\H,0,-3.801408,-5.458123,0.\H,0,-2.27

 Normal termination of Gaussian 16 at Sat Apr  5 23:03:11 2025.
