 Gaussian 16, Revision C.01,

 ----------------------------------------------------------------------
 #t hf aug-cc-pvdz symm=none int=(grid=ultrafine) guess=(read,tcheck) s
 table=(opt,rrhf)
 ----------------------------------------------------------------------
 -----
 title
 -----
 Symbolic Z-matrix:
 Charge =  0 Multiplicity = 1

 SCF Done:  E(RHF) =  -465.260797578     A.U. after   13 cycles
 Normal termination of Gaussian 16 at Sat Apr  5 23:02:50 2025.
 Gaussian 16:  ES64L-G16RevC.01  3-Jul-2019

 ----------------------------------------------------------------------
 #t hf aug-cc-pvdz iop(5/13=1,5/36=2,99/5=2) pseudo=read geom=check gue
 ss=(read,tcheck) scf=(maxcycle=1)
 ----------------------------------------------------------------------
 -----
 title
 -----
 Structure from the checkpoint file:  "decan-2-one.chk"
 Charge =  0 Multiplicity = 1

                         Standard orientation:
 ---------------------------------------------------------------------
 Center     Atomic      Atomic             Coordinates (Angstroms)
 Number     Number       Type             X           Y           Z
 ---------------------------------------------------------------------
      1          6           0       -4.175993    0.207367   -0.005507
      2          6           0       -5.448491   -0.614286    0.019396
      3          6           0        6.054156    0.386362    0.006408
      4          6           0       -2.871799   -0.571984   -0.012818
      5          6           0        4.792505   -0.475092   -0.009332
      6          6           0       -1.613136    0.286980    0.008336
      7          6           0        3.501105    0.343620    0.008693
      8          6           0       -0.327445   -0.540456   -0.008111
      9          6           0        2.232016   -0.508852   -0.007095
     10          6           0        0.941983    0.311836    0.009646
     11          8           0       -4.204668    1.417596   -0.016635
     12          1           0       -5.462714   -1.326538   -0.807857
     13          1           0       -5.497683   -1.198360    0.941164
     14          1           0       -6.314776    0.039007   -0.041572
     15          1           0        6.089348    1.049308   -0.860580
     16          1           0        6.956755   -0.226164   -0.008139
     17          1           0        6.092680    1.012377    0.900299
     18          1           0       -2.890569   -1.259757    0.840286
     19          1           0       -2.883947   -1.221971   -0.895528
     20          1           0        4.801833   -1.150837    0.851256
     21          1           0        4.799527   -1.115634   -0.896480
     22          1           0       -1.631210    0.927231    0.893082
     23          1           0       -1.629208    0.965732   -0.846946
     24          1           0        3.492536    1.020304   -0.852403
     25          1           0        3.494509    0.985345    0.896184
     26          1           0       -0.318063   -1.217877    0.852696
     27          1           0       -0.317710   -1.181637   -0.896260
     28          1           0        2.240008   -1.150711   -0.894489
     29          1           0        2.241093   -1.184885    0.854517
     30          1           0        0.932828    0.988464   -0.851005
     31          1           0        0.932699    0.952874    0.897157
 ---------------------------------------------------------------------

 SCF Done:  E(RHF) =  -465.767647877     A.U. after    2 cycles

 The electronic state is 1-A.
 Alpha  occ. eigenvalues --  -20.53102 -11.33565 -11.24349 -11.24277 -11.22645
 Alpha  occ. eigenvalues --  -11.22620 -11.22340 -11.22266 -11.22211 -11.22103
 Alpha  occ. eigenvalues --  -11.21942  -1.46586  -1.10244  -1.07667  -1.03999
 Alpha  occ. eigenvalues --   -1.00611  -0.95952  -0.89598  -0.83174  -0.79484
 Alpha  occ. eigenvalues --   -0.79058  -0.73986  -0.66963  -0.65786  -0.64923
 Alpha  occ. eigenvalues --   -0.63122  -0.61920  -0.59745  -0.59038  -0.58188
 Alpha  occ. eigenvalues --   -0.56257  -0.55823  -0.54800  -0.51932  -0.51889
 Alpha  occ. eigenvalues --   -0.50636  -0.48948  -0.48112  -0.48068  -0.46889
 Alpha  occ. eigenvalues --   -0.46687  -0.46416  -0.44998  -0.40387
 Alpha virt. eigenvalues --    0.02772   0.03233   0.03359   0.03884   0.04269
 Alpha virt. eigenvalues --    0.04618   0.05126   0.05913   0.06373   0.06501
 Alpha virt. eigenvalues --    0.06647   0.08312   0.08434   0.08776   0.09101

 Mulliken charges:
               1
     1  C    1.410321
     2  C   -0.604250
     3  C   -0.382716
     4  C   -0.703754
     5  C   -0.165153
     6  C   -0.046943
     7  C   -0.292954
     8  C   -0.215951
     9  C   -0.157613
    10  C   -0.238828
    11  O   -1.410260
    12  H    0.246999
    13  H    0.255311
    14  H    0.138200
    15  H    0.158443
    16  H    0.108565
    17  H    0.158274
    18  H    0.223706
    19  H    0.227571
    20  H    0.111402
    21  H    0.111500
    22  H    0.114232
    23  H    0.120588
    24  H    0.104055
    25  H    0.103924
    26  H    0.104622
    27  H    0.106676
    28  H    0.099719
    29  H    0.100348
    30  H    0.106894
    31  H    0.107071
 Sum of Mulliken charges =   0.00000

 Dipole moment (field-independent basis, Debye):
    X=              0.2709    Y=             -2.9984    Z=              0.0326  Tot=              3.0107

 Test job not archived.
 1\1\GINC-SE314\SP\RHF\Aug-CC-pVDZ\C10H20O1\OHZDE\05-Apr-2025\0\\#t hf
 aug-cc-pvdz iop(5/13=1,5/36=2,99/5=2) pseudo=read geom=check guess=(re
 ad,tcheck) scf=(maxcycle=1)\\title\\0,1\C,0,-4.175993,0.207367,-0.0055
 07\C,0,-5.448491,-0.614286,0.019396\C,0,6.054156,0.386362,0.006408\C,0
 ,-2.871799,-0.571984,-0.012818\C,0,4.792505,-0.475092,-0.009332\C,0,-1
 .613136,0.28698,0.008336\C,0,3.501105,0.34362,0.008693\C,0,-0.327445,-
 0.540456,-0.008111\C,0,2.232016,-0.508852,-0.007095\C,0,0.941983,0.311
 836,0.009646\O,0,-4.204668,1.417596,-0.016635\H,0,-5.462714,-1.326538,

 Normal termination of Gaussian 16 at Sat Apr  5 23:03:24 2025.
