 Gaussian 16, Revision C.01,

 ----------------------------------------------------------------------
 #t hf aug-cc-pvdz symm=none int=(grid=ultrafine) guess=(read,tcheck) s
 table=(opt,rrhf)
 ----------------------------------------------------------------------
 -----
 title
 -----
 Symbolic Z-matrix:
 Charge =  0 Multiplicity = 1

 SCF Done:  E(RHF) =  -454.989128565     A.U. after   14 cycles
 Normal termination of Gaussian 16 at Sat Apr  5 22:58:51 2025.
 Gaussian 16:  ES64L-G16RevC.01  3-Jul-2019

 ----------------------------------------------------------------------
 #t hf aug-cc-pvdz iop(5/13=1,5/36=2,99/5=2) pseudo=read geom=check gue
 ss=(read,tcheck) scf=(maxcycle=1)
 ----------------------------------------------------------------------
 -----
 title
 -----
 Structure from the checkpoint file:  "di-2-propyn-1-yltrioxidane.chk"
 Charge =  0 Multiplicity = 1

                         Standard orientation:
 ---------------------------------------------------------------------
 Center     Atomic      Atomic             Coordinates (Angstroms)
 Number     Number       Type             X           Y           Z
 ---------------------------------------------------------------------
      1          8           0        0.000000    1.471034   -0.000000
      2          8           0       -1.045393    0.632131    0.498632
      3          8           0        1.045393    0.632130   -0.498632
      4          6           0       -1.857587    0.241250   -0.631137
      5          6           0        1.857587    0.241251    0.631137
      6          6           0       -2.930054   -0.597279   -0.127689
      7          6           0        2.930054   -0.597279    0.127689
      8          6           0       -3.820304   -1.289211    0.276887
      9          6           0        3.820303   -1.289212   -0.276887
     10          1           0       -2.252972    1.138284   -1.112154
     11          1           0       -1.237646   -0.305795   -1.343916
     12          1           0        2.252972    1.138285    1.112154
     13          1           0        1.237646   -0.305794    1.343917
     14          1           0       -4.609105   -1.902231    0.635967
     15          1           0        4.609104   -1.902232   -0.635966
 ---------------------------------------------------------------------

 SCF Done:  E(RHF) =  -455.442730771     A.U. after    2 cycles

 The electronic state is 1-A.
 Alpha  occ. eigenvalues --  -20.68712 -20.63722 -20.63707 -11.33118 -11.33117
 Alpha  occ. eigenvalues --  -11.25859 -11.25859 -11.25384 -11.25383  -1.66948
 Alpha  occ. eigenvalues --   -1.47161  -1.23449  -1.07087  -1.05625  -0.97366
 Alpha  occ. eigenvalues --   -0.94774  -0.76497  -0.74853  -0.72565  -0.72546
 Alpha  occ. eigenvalues --   -0.71440  -0.67853  -0.66266  -0.62969  -0.60101
 Alpha  occ. eigenvalues --   -0.58744  -0.49139  -0.48209  -0.48164  -0.42317
 Alpha  occ. eigenvalues --   -0.42104  -0.41374  -0.41152
 Alpha virt. eigenvalues --    0.03452   0.03493   0.04436   0.04696   0.05680
 Alpha virt. eigenvalues --    0.06273   0.09740   0.09769   0.10422   0.10612
 Alpha virt. eigenvalues --    0.11101   0.11392   0.11856   0.12454   0.13653

 Mulliken charges:
               1
     1  O   -0.060400
     2  O   -0.762799
     3  O   -0.762799
     4  C    0.298163
     5  C    0.298161
     6  C    0.073464
     7  C    0.073464
     8  C    0.506506
     9  C    0.506509
    10  H    0.138788
    11  H    0.175962
    12  H    0.138788
    13  H    0.175963
    14  H   -0.399884
    15  H   -0.399886
 Sum of Mulliken charges =  -0.00000

 Dipole moment (field-independent basis, Debye):
    X=             -0.0000    Y=             -1.1595    Z=              0.0000  Tot=              1.1595

 Test job not archived.
 1\1\GINC-SE412\SP\RHF\Aug-CC-pVDZ\C6H6O3\OHZDE\05-Apr-2025\0\\#t hf au
 g-cc-pvdz iop(5/13=1,5/36=2,99/5=2) pseudo=read geom=check guess=(read
 ,tcheck) scf=(maxcycle=1)\\title\\0,1\O,0,0.,1.471034,0.\O,0,-1.045393
 ,0.632131,0.498632\O,0,1.045393,0.63213,-0.498632\C,0,-1.857587,0.2412
 5,-0.631137\C,0,1.857587,0.241251,0.631137\C,0,-2.930054,-0.597279,-0.
 127689\C,0,2.930054,-0.597279,0.127689\C,0,-3.820304,-1.289211,0.27688
 7\C,0,3.820303,-1.289212,-0.276887\H,0,-2.252972,1.138284,-1.112154\H,
 0,-1.237646,-0.305795,-1.343916\H,0,2.252972,1.138285,1.112154\H,0,1.2

 Normal termination of Gaussian 16 at Sat Apr  5 22:58:57 2025.
