 Gaussian 16, Revision C.01,

 ----------------------------------------------------------------------
 #t hf aug-cc-pvdz symm=none int=(grid=ultrafine) guess=(read,tcheck) s
 table=(opt,rrhf)
 ----------------------------------------------------------------------
 -----
 title
 -----
 Symbolic Z-matrix:
 Charge =  0 Multiplicity = 1

 SCF Done:  E(RHF) =  -1150.02256832     A.U. after   12 cycles
 Normal termination of Gaussian 16 at Sat Apr  5 22:58:54 2025.
 Gaussian 16:  ES64L-G16RevC.01  3-Jul-2019

 ----------------------------------------------------------------------
 #t hf aug-cc-pvdz iop(5/13=1,5/36=2,99/5=2) pseudo=read geom=check gue
 ss=(read,tcheck) scf=(maxcycle=1)
 ----------------------------------------------------------------------
 -----
 title
 -----
 Structure from the checkpoint file:  "di-2-chloroethylether.chk"
 Charge =  0 Multiplicity = 1

                         Standard orientation:
 ---------------------------------------------------------------------
 Center     Atomic      Atomic             Coordinates (Angstroms)
 Number     Number       Type             X           Y           Z
 ---------------------------------------------------------------------
      1          6           0        0.595129    1.129270    1.179795
      2          6           0        0.595129    1.129270   -1.179795
      3          6           0       -0.195354    0.681761    2.384225
      4          6           0       -0.195354    0.681761   -2.384225
      5          8           0       -0.097253    0.782414    0.000000
      6         17           0       -0.195354   -1.116216    2.587045
      7         17           0       -0.195354   -1.116216   -2.587045
      8          1           0        0.715987    2.221674    1.242336
      9          1           0        1.594518    0.679296    1.190046
     10          1           0        1.594518    0.679296   -1.190046
     11          1           0        0.715987    2.221674   -1.242336
     12          1           0        0.235929    1.094093    3.292028
     13          1           0       -1.235057    0.984758    2.300171
     14          1           0       -1.235057    0.984758   -2.300171
     15          1           0        0.235929    1.094093   -3.292028
 ---------------------------------------------------------------------

 SCF Done:  E(RHF) =  -1150.41909411     A.U. after    2 cycles

 The electronic state is 1-A'.
 Alpha  occ. eigenvalues -- -105.55158-105.55157 -20.56322 -11.31038 -11.30968
 Alpha  occ. eigenvalues --  -11.30885 -11.30871 -10.59959 -10.59958  -7.76902
 Alpha  occ. eigenvalues --   -7.76900  -7.76530  -7.76526  -7.76517  -7.76515
 Alpha  occ. eigenvalues --   -1.48602  -1.12607  -1.10056  -1.00389  -0.95972
 Alpha  occ. eigenvalues --   -0.84828  -0.84460  -0.70940  -0.70434  -0.65548
 Alpha  occ. eigenvalues --   -0.63323  -0.62358  -0.58488  -0.56458  -0.54892
 Alpha  occ. eigenvalues --   -0.51982  -0.50535  -0.44676  -0.44524  -0.44133
 Alpha  occ. eigenvalues --   -0.43806  -0.43240
 Alpha virt. eigenvalues --    0.02876   0.03499   0.03872   0.05063   0.05779
 Alpha virt. eigenvalues --    0.06127   0.07263   0.08574   0.08956   0.10901
 Alpha virt. eigenvalues --    0.11737   0.12661   0.14648   0.14831   0.15135

 Mulliken charges:
               1
     1  C    0.545501
     2  C    0.545501
     3  C   -0.638751
     4  C   -0.638751
     5  O   -1.185507
     6  Cl  -0.065048
     7  Cl  -0.065048
     8  H    0.159745
     9  H    0.151245
    10  H    0.151245
    11  H    0.159745
    12  H    0.222730
    13  H    0.217332
    14  H    0.217332
    15  H    0.222730
 Sum of Mulliken charges =  -0.00000

 Dipole moment (field-independent basis, Debye):
    X=              1.2229    Y=              4.8980    Z=              0.0000  Tot=              5.0483

 Test job not archived.
 1\1\GINC-SE396\SP\RHF\Aug-CC-pVDZ\C4H8Cl2O1\OHZDE\05-Apr-2025\0\\#t hf
  aug-cc-pvdz iop(5/13=1,5/36=2,99/5=2) pseudo=read geom=check guess=(r
 ead,tcheck) scf=(maxcycle=1)\\title\\0,1\C,0,0.595129,1.12927,1.179795
 \C,0,0.595129,1.12927,-1.179795\C,0,-0.195354,0.681761,2.384225\C,0,-0
 .195354,0.681761,-2.384225\O,0,-0.097253,0.782414,0.\Cl,0,-0.195354,-1
 .116216,2.587045\Cl,0,-0.195354,-1.116216,-2.587045\H,0,0.715987,2.221
 674,1.242336\H,0,1.594518,0.679296,1.190046\H,0,1.594518,0.679296,-1.1
 90046\H,0,0.715987,2.221674,-1.242336\H,0,0.235929,1.094093,3.292028\H

 Normal termination of Gaussian 16 at Sat Apr  5 22:58:58 2025.
