 Gaussian 16, Revision C.01,

 ----------------------------------------------------------------------
 #t hf aug-cc-pvdz symm=none int=(grid=ultrafine) guess=(read,tcheck) s
 table=(opt,rrhf)
 ----------------------------------------------------------------------
 -----
 title
 -----
 Symbolic Z-matrix:
 Charge =  0 Multiplicity = 1

 SCF Done:  E(RHF) =  -463.113080261     A.U. after   13 cycles

 1\1\GINC-SE422\Stability\RHF\Aug-CC-pVDZ\C8H18O2\OHZDE\05-Apr-2025\0\\
 #t hf aug-cc-pvdz symm=none int=(grid=ultrafine) guess=(read,tcheck) s
 table=(opt,rrhf)\\title\\0,1\O,0,0.57355,-0.456962,-0.218509\O,0,-0.57
 355,0.456962,-0.218509\C,0,-0.08017,1.796241,-0.00302\C,0,0.884776,2.1
 95036,-1.121036\C,0,-1.367264,2.619106,-0.073034\C,0,0.57355,1.917363,
 1.374169\C,0,0.08017,-1.796241,-0.00302\C,0,-0.884776,-2.195036,-1.121
 036\C,0,1.367264,-2.619106,-0.073034\C,0,-0.57355,-1.917363,1.374169\H
 ,0,0.409795,2.068957,-2.094034\H,0,1.176355,3.240428,-1.01102\H,0,1.78

 Normal termination of Gaussian 16 at Sat Apr  5 23:02:35 2025.
 Gaussian 16:  ES64L-G16RevC.01  3-Jul-2019

 ----------------------------------------------------------------------
 #t hf aug-cc-pvdz iop(5/13=1,5/36=2,99/5=2) pseudo=read geom=check gue
 ss=(read,tcheck) scf=(maxcycle=1)
 ----------------------------------------------------------------------
 -----
 title
 -----
 Structure from the checkpoint file:  "di-t-butyl_peroxide.chk"
 Charge =  0 Multiplicity = 1

                         Standard orientation:
 ---------------------------------------------------------------------
 Center     Atomic      Atomic             Coordinates (Angstroms)
 Number     Number       Type             X           Y           Z
 ---------------------------------------------------------------------
      1          8           0        0.573550   -0.456962   -0.218509
      2          8           0       -0.573550    0.456962   -0.218509
      3          6           0       -0.080170    1.796241   -0.003020
      4          6           0        0.884776    2.195036   -1.121036
      5          6           0       -1.367264    2.619106   -0.073034
      6          6           0        0.573550    1.917363    1.374169
      7          6           0        0.080170   -1.796241   -0.003020
      8          6           0       -0.884776   -2.195036   -1.121036
      9          6           0        1.367264   -2.619106   -0.073034
     10          6           0       -0.573550   -1.917363    1.374169
     11          1           0        0.409795    2.068957   -2.094034
     12          1           0        1.176355    3.240428   -1.011020
     13          1           0        1.784373    1.583641   -1.095314
     14          1           0       -2.069771    2.304245    0.698415
     15          1           0       -1.138092    3.673801    0.079206
     16          1           0       -1.845273    2.506130   -1.045680
     17          1           0        1.459710    1.289466    1.438562
     18          1           0        0.871203    2.950204    1.559960
     19          1           0       -0.124150    1.615244    2.155502
     20          1           0       -0.409795   -2.068957   -2.094034
     21          1           0       -1.176355   -3.240428   -1.011020
     22          1           0       -1.784373   -1.583641   -1.095314
     23          1           0        2.069771   -2.304245    0.698415
     24          1           0        1.138092   -3.673801    0.079206
     25          1           0        1.845273   -2.506130   -1.045680
     26          1           0       -1.459710   -1.289466    1.438562
     27          1           0       -0.871203   -2.950204    1.559960
     28          1           0        0.124150   -1.615244    2.155502
 ---------------------------------------------------------------------

 SCF Done:  E(RHF) =  -463.608422987     A.U. after    2 cycles

 The electronic state is 1-A.
 Alpha  occ. eigenvalues --  -20.58790 -20.58790 -11.29094 -11.29092 -11.22308
 Alpha  occ. eigenvalues --  -11.22307 -11.21737 -11.21731 -11.21595 -11.21594
 Alpha  occ. eigenvalues --   -1.55500  -1.29958  -1.06959  -1.05240  -0.94260
 Alpha  occ. eigenvalues --   -0.94001  -0.93837  -0.93509  -0.76780  -0.75838
 Alpha  occ. eigenvalues --   -0.66189  -0.65829  -0.65477  -0.62111  -0.60399
 Alpha  occ. eigenvalues --   -0.59953  -0.57933  -0.56668  -0.55288  -0.54635
 Alpha  occ. eigenvalues --   -0.52573  -0.52483  -0.52466  -0.52123  -0.51961
 Alpha  occ. eigenvalues --   -0.49578  -0.49323  -0.48705  -0.46187  -0.44277
 Alpha  occ. eigenvalues --   -0.39573
 Alpha virt. eigenvalues --    0.03668   0.03798   0.03812   0.04015   0.05124
 Alpha virt. eigenvalues --    0.05422   0.05489   0.06289   0.06328   0.07669
 Alpha virt. eigenvalues --    0.07980   0.08153   0.08769   0.08850   0.09761

 Mulliken charges:
               1
     1  O   -0.989876
     2  O   -0.989876
     3  C   -1.100972
     4  C    0.088294
     5  C    0.064292
     6  C    0.083072
     7  C   -1.100972
     8  C    0.088294
     9  C    0.064292
    10  C    0.083072
    11  H    0.217331
    12  H    0.186405
    13  H    0.184980
    14  H    0.209487
    15  H    0.228302
    16  H    0.193435
    17  H    0.226317
    18  H    0.177164
    19  H    0.231769
    20  H    0.217331
    21  H    0.186405
    22  H    0.184980
    23  H    0.209487
    24  H    0.228302
    25  H    0.193435
    26  H    0.226317
    27  H    0.177164
    28  H    0.231769
 Sum of Mulliken charges =  -0.00000

 Dipole moment (field-independent basis, Debye):
    X=             -0.0000    Y=             -0.0000    Z=              0.4429  Tot=              0.4429

 Test job not archived.
 1\1\GINC-SE422\SP\RHF\Aug-CC-pVDZ\C8H18O2\OHZDE\05-Apr-2025\0\\#t hf a
 ug-cc-pvdz iop(5/13=1,5/36=2,99/5=2) pseudo=read geom=check guess=(rea
 d,tcheck) scf=(maxcycle=1)\\title\\0,1\O,0,0.57355,-0.456962,-0.218509
 \O,0,-0.57355,0.456962,-0.218509\C,0,-0.08017,1.796241,-0.00302\C,0,0.
 884776,2.195036,-1.121036\C,0,-1.367264,2.619106,-0.073034\C,0,0.57355
 ,1.917363,1.374169\C,0,0.08017,-1.796241,-0.00302\C,0,-0.884776,-2.195
 036,-1.121036\C,0,1.367264,-2.619106,-0.073034\C,0,-0.57355,-1.917363,
 1.374169\H,0,0.409795,2.068957,-2.094034\H,0,1.176355,3.240428,-1.0110

 Normal termination of Gaussian 16 at Sat Apr  5 23:03:14 2025.
