 Gaussian 16, Revision C.01,

 ----------------------------------------------------------------------
 #t hf aug-cc-pvdz symm=none int=(grid=ultrafine) guess=(read,tcheck) s
 table=(opt,rrhf)
 ----------------------------------------------------------------------
 -----
 title
 -----
 Symbolic Z-matrix:
 Charge =  0 Multiplicity = 1

 SCF Done:  E(RHF) =  -785.803158284     A.U. after   15 cycles
 Normal termination of Gaussian 16 at Sat Apr  5 23:02:32 2025.
 Gaussian 16:  ES64L-G16RevC.01  3-Jul-2019

 ----------------------------------------------------------------------
 #t hf aug-cc-pvdz iop(5/13=1,5/36=2,99/5=2) pseudo=read geom=check gue
 ss=(read,tcheck) scf=(maxcycle=1)
 ----------------------------------------------------------------------
 -----
 title
 -----
 Structure from the checkpoint file:  "di-t-butyl_sulfoxide.chk"
 Charge =  0 Multiplicity = 1

                         Standard orientation:
 ---------------------------------------------------------------------
 Center     Atomic      Atomic             Coordinates (Angstroms)
 Number     Number       Type             X           Y           Z
 ---------------------------------------------------------------------
      1          6           0        2.663848   -0.782766   -0.312447
      2          6           0        1.574850    0.243819    0.027897
      3         16           0        0.003172   -0.652999   -0.591505
      4          8           0       -0.020248   -1.977073    0.141990
      5          6           0        1.557609    0.507360    1.528193
      6          6           0        1.785704    1.512671   -0.796723
      7          6           0       -1.573874    0.251467    0.029249
      8          6           0       -1.560609    1.730836   -0.336792
      9          6           0       -1.776120    0.006480    1.519693
     10          6           0       -2.659747   -0.480531   -0.773418
     11          1           0        2.509176   -1.714151    0.227716
     12          1           0        2.686446   -1.005976   -1.380264
     13          1           0        3.635357   -0.369465   -0.033555
     14          1           0        1.255380   -0.384375    2.076591
     15          1           0        0.895101    1.328817    1.794977
     16          1           0        2.563900    0.776586    1.859022
     17          1           0        1.684867    1.314388   -1.864966
     18          1           0        2.799008    1.883799   -0.626678
     19          1           0        1.096530    2.309355   -0.528584
     20          1           0       -1.282606    1.890906   -1.379789
     21          1           0       -0.889760    2.308180    0.296527
     22          1           0       -2.565562    2.138481   -0.202592
     23          1           0       -1.549414   -1.030527    1.766119
     24          1           0       -2.819894    0.198857    1.778581
     25          1           0       -1.156770    0.655303    2.134375
     26          1           0       -2.534148   -0.333472   -1.846700
     27          1           0       -2.647862   -1.549896   -0.566985
     28          1           0       -3.638489   -0.088261   -0.489546
 ---------------------------------------------------------------------

 SCF Done:  E(RHF) =  -786.285804294     A.U. after    2 cycles

 The electronic state is 1-A.
 Alpha  occ. eigenvalues --  -94.04180 -20.47860 -11.28335 -11.28274 -11.24325
 Alpha  occ. eigenvalues --  -11.24019 -11.23413 -11.23172 -11.22842 -11.22581
 Alpha  occ. eigenvalues --   -8.31074  -6.28892  -6.28772  -6.28562  -1.40501
 Alpha  occ. eigenvalues --   -1.12674  -1.10873  -0.96048  -0.95387  -0.94687
 Alpha  occ. eigenvalues --   -0.94139  -0.92811  -0.77861  -0.73476  -0.66135
 Alpha  occ. eigenvalues --   -0.64230  -0.62779  -0.62264  -0.61509  -0.61033
 Alpha  occ. eigenvalues --   -0.57964  -0.56274  -0.55799  -0.54977  -0.53769
 Alpha  occ. eigenvalues --   -0.53003  -0.52484  -0.51423  -0.50496  -0.49494
 Alpha  occ. eigenvalues --   -0.49374  -0.48777  -0.47691  -0.38070  -0.33857
 Alpha virt. eigenvalues --    0.02986   0.03160   0.03320   0.04219   0.05076
 Alpha virt. eigenvalues --    0.05179   0.05326   0.06385   0.06513   0.07878
 Alpha virt. eigenvalues --    0.08226   0.08473   0.08831   0.09097   0.09970

 Mulliken charges:
               1
     1  C    0.177734
     2  C   -1.775741
     3  S    1.865468
     4  O   -1.699239
     5  C   -0.166929
     6  C   -0.019491
     7  C   -1.699783
     8  C   -0.091730
     9  C   -0.152565
    10  C    0.201929
    11  H    0.278944
    12  H    0.225078
    13  H    0.142297
    14  H    0.212922
    15  H    0.196323
    16  H    0.124745
    17  H    0.197311
    18  H    0.232501
    19  H    0.088551
    20  H    0.186621
    21  H    0.224422
    22  H    0.132194
    23  H    0.231869
    24  H    0.198019
    25  H    0.084632
    26  H    0.231715
    27  H    0.249203
    28  H    0.123001
 Sum of Mulliken charges =  -0.00000

 Dipole moment (field-independent basis, Debye):
    X=              0.0456    Y=              4.1437    Z=             -0.0044  Tot=              4.1439

 Test job not archived.
 1\1\GINC-SE454\SP\RHF\Aug-CC-pVDZ\C8H18O1S1\OHZDE\05-Apr-2025\0\\#t hf
  aug-cc-pvdz iop(5/13=1,5/36=2,99/5=2) pseudo=read geom=check guess=(r
 ead,tcheck) scf=(maxcycle=1)\\title\\0,1\C,0,2.663848,-0.782766,-0.312
 447\C,0,1.57485,0.243819,0.027897\S,0,0.003172,-0.652999,-0.591505\O,0
 ,-0.020248,-1.977073,0.14199\C,0,1.557609,0.50736,1.528193\C,0,1.78570
 4,1.512671,-0.796723\C,0,-1.573874,0.251467,0.029249\C,0,-1.560609,1.7
 30836,-0.336792\C,0,-1.77612,0.00648,1.519693\C,0,-2.659747,-0.480531,
 -0.773418\H,0,2.509176,-1.714151,0.227716\H,0,2.686446,-1.005976,-1.38

 Normal termination of Gaussian 16 at Sat Apr  5 23:03:26 2025.
