 Gaussian 16, Revision C.01,

 ----------------------------------------------------------------------
 #t hf aug-cc-pvdz symm=none int=(grid=ultrafine) guess=(read,tcheck) s
 table=(opt,rrhf)
 ----------------------------------------------------------------------
 -----
 title
 -----
 Symbolic Z-matrix:
 Charge =  0 Multiplicity = 1

 SCF Done:  E(RHF) =  -150.273203361     A.U. after   11 cycles
 Normal termination of Gaussian 16 at Sat Apr  5 22:57:08 2025.
 Gaussian 16:  ES64L-G16RevC.01  3-Jul-2019

 ----------------------------------------------------------------------
 #t hf aug-cc-pvdz iop(5/13=1,5/36=2,99/5=2) pseudo=read geom=check gue
 ss=(read,tcheck) scf=(maxcycle=1)
 ----------------------------------------------------------------------
 -----
 title
 -----
 Structure from the checkpoint file:  "diaminomethane.chk"
 Charge =  0 Multiplicity = 1

                         Standard orientation:
 ---------------------------------------------------------------------
 Center     Atomic      Atomic             Coordinates (Angstroms)
 Number     Number       Type             X           Y           Z
 ---------------------------------------------------------------------
      1          6           0        0.000000   -0.000000    0.550170
      2          7           0        0.000000    1.261601   -0.185123
      3          7           0       -0.000000   -1.261601   -0.185123
      4          1           0        0.876907   -0.000000    1.198167
      5          1           0       -0.876907    0.000000    1.198167
      6          1           0        0.817663    1.348464   -0.776410
      7          1           0       -0.817663    1.348464   -0.776410
      8          1           0       -0.817663   -1.348464   -0.776410
      9          1           0        0.817663   -1.348464   -0.776410
 ---------------------------------------------------------------------

 SCF Done:  E(RHF) =  -150.438458587     A.U. after    2 cycles

 The electronic state is 1-A1.
 Alpha  occ. eigenvalues --  -15.48387 -15.48385 -11.28271  -1.21185  -1.12710
 Alpha  occ. eigenvalues --   -0.88682  -0.72702  -0.66583  -0.66524  -0.60565
 Alpha  occ. eigenvalues --   -0.52258  -0.47693  -0.42501
 Alpha virt. eigenvalues --    0.03162   0.05334   0.05469   0.05731   0.06768
 Alpha virt. eigenvalues --    0.07288   0.10855   0.11778   0.16119   0.16561
 Alpha virt. eigenvalues --    0.17026   0.17909   0.19473   0.21534   0.22881

 Mulliken charges:
               1
     1  C   -1.049599
     2  N    0.130990
     3  N    0.130990
     4  H    0.110933
     5  H    0.110933
     6  H    0.141438
     7  H    0.141438
     8  H    0.141438
     9  H    0.141438
 Sum of Mulliken charges =   0.00000

 Dipole moment (field-independent basis, Debye):
    X=             -0.0000    Y=             -0.0000    Z=             -1.8302  Tot=              1.8302

 Test job not archived.
 1\1\GINC-SE271\SP\RHF\Aug-CC-pVDZ\C1H6N2\OHZDE\05-Apr-2025\0\\#t hf au
 g-cc-pvdz iop(5/13=1,5/36=2,99/5=2) pseudo=read geom=check guess=(read
 ,tcheck) scf=(maxcycle=1)\\title\\0,1\C,0,0.,0.,0.55017\N,0,0.,1.26160
 1,-0.185123\N,0,0.,-1.261601,-0.185123\H,0,0.876907,0.,1.198167\H,0,-0
 .876907,0.,1.198167\H,0,0.817663,1.348464,-0.77641\H,0,-0.817663,1.348
 464,-0.77641\H,0,-0.817663,-1.348464,-0.77641\H,0,0.817663,-1.348464,-
 0.77641\\Version=ES64L-G16RevC.01\State=1-A1\HF=-150.4384586\RMSD=1.19
 0e-02\Dipole=0.,0.,-0.720068\Quadrupole=2.7610744,-4.2997079,1.5386335

 Normal termination of Gaussian 16 at Sat Apr  5 22:58:07 2025.
