 Gaussian 16, Revision C.01,

 ----------------------------------------------------------------------
 #t hf aug-cc-pvdz symm=none int=(grid=ultrafine) guess=(read,tcheck) s
 table=(opt,rrhf)
 ----------------------------------------------------------------------
 -----
 title
 -----
 Symbolic Z-matrix:
 Charge =  0 Multiplicity = 1

 SCF Done:  E(RHF) =  -186.908830924     A.U. after   12 cycles
 Normal termination of Gaussian 16 at Sat Apr  5 22:58:12 2025.
 Gaussian 16:  ES64L-G16RevC.01  3-Jul-2019

 ----------------------------------------------------------------------
 #t hf aug-cc-pvdz iop(5/13=1,5/36=2,99/5=2) pseudo=read geom=check gue
 ss=(read,tcheck) scf=(maxcycle=1)
 ----------------------------------------------------------------------
 -----
 title
 -----
 Structure from the checkpoint file:  "diaminoethyne.chk"
 Charge =  0 Multiplicity = 1

                         Standard orientation:
 ---------------------------------------------------------------------
 Center     Atomic      Atomic             Coordinates (Angstroms)
 Number     Number       Type             X           Y           Z
 ---------------------------------------------------------------------
      1          7           0       -1.948870   -0.047511    0.054375
      2          7           0        1.948870   -0.047536   -0.054353
      3          6           0       -0.602828    0.001551    0.003804
      4          6           0        0.602828    0.001550   -0.003806
      5          1           0       -2.420980   -0.433572   -0.748716
      6          1           0       -2.421589    0.756865    0.436515
      7          1           0        2.420977   -0.433234    0.748914
      8          1           0        2.421590    0.756668   -0.436853
 ---------------------------------------------------------------------

 SCF Done:  E(RHF) =  -187.105751206     A.U. after    2 cycles

 The electronic state is 1-A.
 Alpha  occ. eigenvalues --  -15.52295 -15.52036 -11.24394 -11.24062  -1.21826
 Alpha  occ. eigenvalues --   -1.20460  -0.98021  -0.78816  -0.73927  -0.72692
 Alpha  occ. eigenvalues --   -0.72678  -0.54112  -0.54025  -0.35061  -0.35037
 Alpha virt. eigenvalues --    0.02793   0.03892   0.06161   0.06227   0.11491
 Alpha virt. eigenvalues --    0.12163   0.13317   0.13729   0.15638   0.16728
 Alpha virt. eigenvalues --    0.16980   0.17441   0.21549   0.21553   0.21845

 Mulliken charges:
               1
     1  N    0.854269
     2  N    0.854268
     3  C   -1.129368
     4  C   -1.129366
     5  H    0.135065
     6  H    0.140033
     7  H    0.135066
     8  H    0.140033
 Sum of Mulliken charges =   0.00000

 Dipole moment (field-independent basis, Debye):
    X=             -0.0000    Y=              1.3235    Z=             -0.0003  Tot=              1.3235

 Test job not archived.
 1\1\GINC-SE270\SP\RHF\Aug-CC-pVDZ\C2H4N2\OHZDE\05-Apr-2025\0\\#t hf au
 g-cc-pvdz iop(5/13=1,5/36=2,99/5=2) pseudo=read geom=check guess=(read
 ,tcheck) scf=(maxcycle=1)\\title\\0,1\N,0,-1.94887,-0.047511,0.054375\
 N,0,1.94887,-0.047536,-0.054353\C,0,-0.602828,0.001551,0.003804\C,0,0.
 602828,0.00155,-0.003806\H,0,-2.42098,-0.433572,-0.748716\H,0,-2.42158
 9,0.756865,0.436515\H,0,2.420977,-0.433234,0.748914\H,0,2.42159,0.7566
 68,-0.436853\\Version=ES64L-G16RevC.01\State=1-A\HF=-187.1057512\RMSD=
 7.301e-02\Dipole=-0.0000014,0.5206897,-0.0001143\Quadrupole=5.3322659,

 Normal termination of Gaussian 16 at Sat Apr  5 22:58:14 2025.
