 Gaussian 16, Revision C.01,

 ----------------------------------------------------------------------
 #t hf aug-cc-pvdz symm=none int=(grid=ultrafine) guess=(read,tcheck) s
 table=(opt,rrhf)
 ----------------------------------------------------------------------
 -----
 title
 -----
 Symbolic Z-matrix:
 Charge =  0 Multiplicity = 1

 SCF Done:  E(RHF) =  -149.031149781     A.U. after   11 cycles
 Normal termination of Gaussian 16 at Sat Apr  5 22:57:07 2025.
 Gaussian 16:  ES64L-G16RevC.01  3-Jul-2019

 ----------------------------------------------------------------------
 #t hf aug-cc-pvdz iop(5/13=1,5/36=2,99/5=2) pseudo=read geom=check gue
 ss=(read,tcheck) scf=(maxcycle=1)
 ----------------------------------------------------------------------
 -----
 title
 -----
 Structure from the checkpoint file:  "diaziridine.chk"
 Charge =  0 Multiplicity = 1

                         Standard orientation:
 ---------------------------------------------------------------------
 Center     Atomic      Atomic             Coordinates (Angstroms)
 Number     Number       Type             X           Y           Z
 ---------------------------------------------------------------------
      1          6           0        0.000000    0.000000    0.794985
      2          7           0       -0.000000    0.748957   -0.440025
      3          7           0       -0.000000   -0.748957   -0.440025
      4          1           0        0.911241    0.078114    1.376716
      5          1           0       -0.911241   -0.078114    1.376716
      6          1           0       -0.955168    0.999325   -0.681494
      7          1           0        0.955168   -0.999325   -0.681494
 ---------------------------------------------------------------------

 SCF Done:  E(RHF) =  -149.194395084     A.U. after    2 cycles

 The electronic state is 1-A.
 Alpha  occ. eigenvalues --  -15.53638 -15.53348 -11.30046  -1.34294  -1.01204
 Alpha  occ. eigenvalues --   -0.89658  -0.73022  -0.71650  -0.55710  -0.55330
 Alpha  occ. eigenvalues --   -0.48662  -0.46753
 Alpha virt. eigenvalues --    0.03552   0.05110   0.05710   0.06259   0.09357
 Alpha virt. eigenvalues --    0.10773   0.15413   0.15495   0.16638   0.16712
 Alpha virt. eigenvalues --    0.17425   0.19537   0.19907   0.21644   0.26953

 Mulliken charges:
               1
     1  C   -0.381575
     2  N   -0.015210
     3  N   -0.015210
     4  H   -0.044043
     5  H   -0.044043
     6  H    0.250041
     7  H    0.250041
 Sum of Mulliken charges =  -0.00000

 Dipole moment (field-independent basis, Debye):
    X=             -0.0000    Y=             -0.0000    Z=              1.7039  Tot=              1.7039

 Test job not archived.
 1\1\GINC-SE275\SP\RHF\Aug-CC-pVDZ\C1H4N2\OHZDE\05-Apr-2025\0\\#t hf au
 g-cc-pvdz iop(5/13=1,5/36=2,99/5=2) pseudo=read geom=check guess=(read
 ,tcheck) scf=(maxcycle=1)\\title\\0,1\C,0,0.,0.,0.794985\N,0,0.,0.7489
 57,-0.440025\N,0,0.,-0.748957,-0.440025\H,0,0.911241,0.078114,1.376716
 \H,0,-0.911241,-0.078114,1.376716\H,0,-0.955168,0.999325,-0.681494\H,0
 ,0.955168,-0.999325,-0.681494\\Version=ES64L-G16RevC.01\State=1-A\HF=-
 149.1943951\RMSD=1.872e-02\Dipole=0.,0.,0.6703625\Quadrupole=1.4889801
 ,-1.75444,0.2654599,-2.8018451,0.,0.\PG=C02 [C2(C1),X(H4N2)]\\@

 Normal termination of Gaussian 16 at Sat Apr  5 22:58:08 2025.
