 Gaussian 16, Revision C.01,

 ----------------------------------------------------------------------
 #t hf aug-cc-pvdz symm=none int=(grid=ultrafine) guess=(read,tcheck) s
 table=(opt,rrhf)
 ----------------------------------------------------------------------
 -----
 title
 -----
 Symbolic Z-matrix:
 Charge =  0 Multiplicity = 1

 SCF Done:  E(RHF) =  -147.866712481     A.U. after   13 cycles
 Normal termination of Gaussian 16 at Sat Apr  5 22:57:06 2025.
 Gaussian 16:  ES64L-G16RevC.01  3-Jul-2019

 ----------------------------------------------------------------------
 #t hf aug-cc-pvdz iop(5/13=1,5/36=2,99/5=2) pseudo=read geom=check gue
 ss=(read,tcheck) scf=(maxcycle=1)
 ----------------------------------------------------------------------
 -----
 title
 -----
 Structure from the checkpoint file:  "diazomethane.chk"
 Charge =  0 Multiplicity = 1

                         Standard orientation:
 ---------------------------------------------------------------------
 Center     Atomic      Atomic             Coordinates (Angstroms)
 Number     Number       Type             X           Y           Z
 ---------------------------------------------------------------------
      1          6           0        0.000100   -1.136474    0.000000
      2          7           0        0.000000    0.155349   -0.000000
      3          7           0       -0.000113    1.287404   -0.000000
      4          1           0        0.000096   -1.640214    0.950280
      5          1           0        0.000096   -1.640214   -0.950280
 ---------------------------------------------------------------------

 SCF Done:  E(RHF) =  -148.011479603     A.U. after    2 cycles

 The electronic state is 1-A'.
 Alpha  occ. eigenvalues --  -15.67491 -15.59674 -11.27558  -1.47753  -1.15800
 Alpha  occ. eigenvalues --   -0.78044  -0.73395  -0.71436  -0.70285  -0.57213
 Alpha  occ. eigenvalues --   -0.36121
 Alpha virt. eigenvalues --    0.03581   0.04722   0.07434   0.07951   0.08386
 Alpha virt. eigenvalues --    0.11650   0.16054   0.16172   0.16772   0.18678
 Alpha virt. eigenvalues --    0.19251   0.23868   0.25248   0.25468   0.26074

 Mulliken charges:
               1
     1  C   -0.251194
     2  N   -0.735634
     3  N    0.892659
     4  H    0.047085
     5  H    0.047085
 Sum of Mulliken charges =  -0.00000

 Dipole moment (field-independent basis, Debye):
    X=              0.0001    Y=             -2.2214    Z=              0.0000  Tot=              2.2214

 Test job not archived.
 1\1\GINC-SE276\SP\RHF\Aug-CC-pVDZ\C1H2N2\OHZDE\05-Apr-2025\0\\#t hf au
 g-cc-pvdz iop(5/13=1,5/36=2,99/5=2) pseudo=read geom=check guess=(read
 ,tcheck) scf=(maxcycle=1)\\title\\0,1\C,0,0.0001,-1.136474,0.\N,0,0.,0
 .155349,0.\N,0,-0.000113,1.287404,0.\H,0,0.000095,-1.640214,0.95028\H,
 0,0.000095,-1.640214,-0.95028\\Version=ES64L-G16RevC.01\State=1-A'\HF=
 -148.0114796\RMSD=7.510e-02\Dipole=0.0000322,-0.873954,0.\Quadrupole=-
 1.3803923,-0.1202337,1.500626,0.0000573,0.,0.\PG=CS [SG(C1N2),X(H2)]\\
 @

 Normal termination of Gaussian 16 at Sat Apr  5 22:58:07 2025.
