 Gaussian 16, Revision C.01,

 ----------------------------------------------------------------------
 #t hf aug-cc-pvdz symm=none int=(grid=ultrafine) guess=(read,tcheck) s
 table=(opt,rrhf)
 ----------------------------------------------------------------------
 -----
 title
 -----
 Symbolic Z-matrix:
 Charge =  0 Multiplicity = 1

 SCF Done:  E(RHF) =  -336.690702679     A.U. after   15 cycles
 Normal termination of Gaussian 16 at Sat Apr  5 22:57:12 2025.
 Gaussian 16:  ES64L-G16RevC.01  3-Jul-2019

 ----------------------------------------------------------------------
 #t hf aug-cc-pvdz iop(5/13=1,5/36=2,99/5=2) pseudo=read geom=check gue
 ss=(read,tcheck) scf=(maxcycle=1)
 ----------------------------------------------------------------------
 -----
 title
 -----
 Structure from the checkpoint file:  "diazenylacetic_acid.chk"
 Charge =  0 Multiplicity = 1

                         Standard orientation:
 ---------------------------------------------------------------------
 Center     Atomic      Atomic             Coordinates (Angstroms)
 Number     Number       Type             X           Y           Z
 ---------------------------------------------------------------------
      1          8           0       -2.011808   -0.775896   -0.227722
      2          8           0       -1.126265    1.260042   -0.024183
      3          7           0        1.364084    0.336361    0.181249
      4          7           0        2.444806    0.013050   -0.303623
      5          6           0       -1.063326   -0.080407   -0.006367
      6          6           0        0.305241   -0.661369    0.352535
      7          1           0       -0.236965    1.621218    0.140319
      8          1           0        2.475277   -1.001924   -0.544358
      9          1           0        0.269739   -0.910304    1.417114
     10          1           0        0.482809   -1.577382   -0.218226
 ---------------------------------------------------------------------

 SCF Done:  E(RHF) =  -337.023295553     A.U. after    2 cycles

 The electronic state is 1-A.
 Alpha  occ. eigenvalues --  -20.60975 -20.54752 -15.61338 -15.60412 -11.41243
 Alpha  occ. eigenvalues --  -11.31993  -1.55763  -1.47054  -1.41100  -1.10822
 Alpha  occ. eigenvalues --   -0.93898  -0.85202  -0.80072  -0.75779  -0.71321
 Alpha  occ. eigenvalues --   -0.66932  -0.64516  -0.61719  -0.58052  -0.56684
 Alpha  occ. eigenvalues --   -0.48517  -0.47849  -0.45467
 Alpha virt. eigenvalues --    0.02485   0.03510   0.04643   0.05481   0.06223
 Alpha virt. eigenvalues --    0.08650   0.09583   0.11080   0.12240   0.12965
 Alpha virt. eigenvalues --    0.13980   0.15327   0.15855   0.16402   0.17937

 Mulliken charges:
               1
     1  O   -1.207505
     2  O   -1.226304
     3  N   -0.286394
     4  N    0.320798
     5  C    2.032507
     6  C   -0.719224
     7  H    0.480375
     8  H    0.181247
     9  H    0.310795
    10  H    0.113706
 Sum of Mulliken charges =  -0.00000

 Dipole moment (field-independent basis, Debye):
    X=              2.9977    Y=             -1.6385    Z=              0.9129  Tot=              3.5362

 Test job not archived.
 1\1\GINC-SE275\SP\RHF\Aug-CC-pVDZ\C2H4N2O2\OHZDE\05-Apr-2025\0\\#t hf
 aug-cc-pvdz iop(5/13=1,5/36=2,99/5=2) pseudo=read geom=check guess=(re
 ad,tcheck) scf=(maxcycle=1)\\title\\0,1\O,0,-2.011808,-0.775896,-0.227
 722\O,0,-1.126265,1.260042,-0.024183\N,0,1.364084,0.336361,0.181249\N,
 0,2.444806,0.01305,-0.303623\C,0,-1.063326,-0.080407,-0.006367\C,0,0.3
 05241,-0.661369,0.352535\H,0,-0.236965,1.621218,0.140319\H,0,2.475277,
 -1.001924,-0.544358\H,0,0.269739,-0.910304,1.417114\H,0,0.482809,-1.57
 7382,-0.218226\\Version=ES64L-G16RevC.01\State=1-A\HF=-337.0232956\RMS

 Normal termination of Gaussian 16 at Sat Apr  5 22:58:08 2025.
