 Gaussian 16, Revision C.01,

 ----------------------------------------------------------------------
 #t hf aug-cc-pvdz symm=none int=(grid=ultrafine) guess=(read,tcheck) s
 table=(opt,rrhf)
 ----------------------------------------------------------------------
 -----
 title
 -----
 Symbolic Z-matrix:
 Charge =  0 Multiplicity = 1

 SCF Done:  E(RHF) =  -1155.76453131     A.U. after   12 cycles

 1\1\GINC-SE347\Stability\RHF\Aug-CC-pVDZ\C1Cl2F2\OHZDE\05-Apr-2025\0\\
 #t hf aug-cc-pvdz symm=none int=(grid=ultrafine) guess=(read,tcheck) s
 table=(opt,rrhf)\\title\\0,1\C,0,0.,0.,0.34234\F,0,0.,1.079325,1.12641
 4\F,0,0.,-1.079325,1.126414\Cl,0,1.472567,0.,-0.65675\Cl,0,-1.472567,0
 .,-0.65675\\Version=ES64L-G16RevC.01\HF=-1155.7645313\RMSD=1.547e-09\D
 ipole=0.,0.,-0.2214838\Quadrupole=1.293451,-1.0448934,-0.2485576,0.,0.
 ,0.\PG=Unknown\\@
 The archive entry for this job was punched.

 Normal termination of Gaussian 16 at Sat Apr  5 22:57:07 2025.
 Gaussian 16:  ES64L-G16RevC.01  3-Jul-2019

 ----------------------------------------------------------------------
 #t hf aug-cc-pvdz iop(5/13=1,5/36=2,99/5=2) pseudo=read geom=check gue
 ss=(read,tcheck) scf=(maxcycle=1)
 ----------------------------------------------------------------------
 -----
 title
 -----
 Structure from the checkpoint file:  "dichlorodifluoromethane.chk"
 Charge =  0 Multiplicity = 1

                         Standard orientation:
 ---------------------------------------------------------------------
 Center     Atomic      Atomic             Coordinates (Angstroms)
 Number     Number       Type             X           Y           Z
 ---------------------------------------------------------------------
      1          6           0       -0.000000    0.000000    0.342340
      2          9           0       -0.000000    1.079325    1.126414
      3          9           0       -0.000000   -1.079325    1.126414
      4         17           0        1.472567   -0.000000   -0.656750
      5         17           0       -1.472567    0.000000   -0.656750
 ---------------------------------------------------------------------

 SCF Done:  E(RHF) =  -1156.12971004     A.U. after    2 cycles

 The electronic state is 1-A1.
 Alpha  occ. eigenvalues -- -105.61459-105.61458 -26.53763 -26.53761 -11.56968
 Alpha  occ. eigenvalues --  -10.66357 -10.66350  -7.83305  -7.83296  -7.82847
 Alpha  occ. eigenvalues --   -7.82847  -7.82846  -7.82845  -1.72216  -1.64522
 Alpha  occ. eigenvalues --   -1.17519  -1.10050  -0.92586  -0.81974  -0.78929
 Alpha  occ. eigenvalues --   -0.78663  -0.69965  -0.66027  -0.65391  -0.56876
 Alpha  occ. eigenvalues --   -0.53524  -0.52086  -0.50429  -0.48760
 Alpha virt. eigenvalues --    0.06422   0.08144   0.09474   0.09942   0.10843
 Alpha virt. eigenvalues --    0.11686   0.14478   0.14500   0.15364   0.17962
 Alpha virt. eigenvalues --    0.19499   0.21966   0.25829   0.26900   0.29556

 Mulliken charges:
               1
     1  C    1.049072
     2  F   -0.541587
     3  F   -0.541587
     4  Cl   0.017051
     5  Cl   0.017051
 Sum of Mulliken charges =  -0.00000

 Dipole moment (field-independent basis, Debye):
    X=              0.0000    Y=             -0.0000    Z=             -0.3509  Tot=              0.3509

 Test job not archived.
 1\1\GINC-SE347\SP\RHF\Aug-CC-pVDZ\C1Cl2F2\OHZDE\05-Apr-2025\0\\#t hf a
 ug-cc-pvdz iop(5/13=1,5/36=2,99/5=2) pseudo=read geom=check guess=(rea
 d,tcheck) scf=(maxcycle=1)\\title\\0,1\C,0,0.,0.,0.34234\F,0,0.,1.0793
 25,1.126414\F,0,0.,-1.079325,1.126414\Cl,0,1.472567,0.,-0.65675\Cl,0,-
 1.472567,0.,-0.65675\\Version=ES64L-G16RevC.01\State=1-A1\HF=-1156.129
 71\RMSD=3.236e-03\Dipole=0.,0.,-0.1380705\Quadrupole=1.1200332,-0.9427
 252,-0.177308,0.,0.,0.\PG=C02V [C2(C1),SGV(F2),SGV'(Cl2)]\\@

 Normal termination of Gaussian 16 at Sat Apr  5 22:58:07 2025.
