 Gaussian 16, Revision C.01,

 ----------------------------------------------------------------------
 #t hf aug-cc-pvdz symm=none int=(grid=ultrafine) guess=(read,tcheck) s
 table=(opt,rrhf)
 ----------------------------------------------------------------------
 -----
 title
 -----
 Symbolic Z-matrix:
 Charge =  0 Multiplicity = 1

 SCF Done:  E(RHF) =  -1070.77392947     A.U. after   13 cycles
 Normal termination of Gaussian 16 at Sat Apr  5 22:57:09 2025.
 Gaussian 16:  ES64L-G16RevC.01  3-Jul-2019

 ----------------------------------------------------------------------
 #t hf aug-cc-pvdz iop(5/13=1,5/36=2,99/5=2) pseudo=read geom=check gue
 ss=(read,tcheck) scf=(maxcycle=1)
 ----------------------------------------------------------------------
 -----
 title
 -----
 Structure from the checkpoint file:  "dichloroacetaldehyde.chk"
 Charge =  0 Multiplicity = 1

                         Standard orientation:
 ---------------------------------------------------------------------
 Center     Atomic      Atomic             Coordinates (Angstroms)
 Number     Number       Type             X           Y           Z
 ---------------------------------------------------------------------
      1          6           0        0.392398   -0.014823    0.000000
      2          6           0       -0.171128    1.398319   -0.000000
      3          1           0        1.474917   -0.012492    0.000000
      4         17           0       -0.171128   -0.843017    1.485142
      5         17           0       -0.171128   -0.843017   -1.485142
      6          8           0        0.536130    2.365239   -0.000000
      7          1           0       -1.273222    1.452187   -0.000000
 ---------------------------------------------------------------------

 SCF Done:  E(RHF) =  -1071.07374312     A.U. after    2 cycles

 The electronic state is 1-A'.
 Alpha  occ. eigenvalues -- -105.60312-105.60312 -20.58833 -11.40153 -11.38377
 Alpha  occ. eigenvalues --  -10.65113 -10.65113  -7.82059  -7.82057  -7.81648
 Alpha  occ. eigenvalues --   -7.81646  -7.81637  -7.81636  -1.52070  -1.19415
 Alpha  occ. eigenvalues --   -1.07377  -0.96147  -0.84603  -0.70823  -0.70147
 Alpha  occ. eigenvalues --   -0.63677  -0.63590  -0.55279  -0.52061  -0.50196
 Alpha  occ. eigenvalues --   -0.48861  -0.47671  -0.44782
 Alpha virt. eigenvalues --    0.04283   0.04404   0.06727   0.07261   0.09556
 Alpha virt. eigenvalues --    0.10159   0.11500   0.11664   0.12736   0.14211
 Alpha virt. eigenvalues --    0.15092   0.15783   0.16708   0.17654   0.17894

 Mulliken charges:
               1
     1  C   -0.852048
     2  C    1.289844
     3  H    0.249379
     4  Cl   0.044386
     5  Cl   0.044386
     6  O   -1.005149
     7  H    0.229201
 Sum of Mulliken charges =  -0.00000

 Dipole moment (field-independent basis, Debye):
    X=             -0.4132    Y=             -0.8550    Z=             -0.0000  Tot=              0.9496

 Test job not archived.
 1\1\GINC-SE300\SP\RHF\Aug-CC-pVDZ\C2H2Cl2O1\OHZDE\05-Apr-2025\0\\#t hf
  aug-cc-pvdz iop(5/13=1,5/36=2,99/5=2) pseudo=read geom=check guess=(r
 ead,tcheck) scf=(maxcycle=1)\\title\\0,1\C,0,0.392398,-0.014823,0.\C,0
 ,-0.171128,1.398319,0.\H,0,1.474917,-0.012492,0.\Cl,0,-0.171128,-0.843
 017,1.485142\Cl,0,-0.171128,-0.843017,-1.485142\O,0,0.53613,2.365239,0
 .\H,0,-1.273222,1.452187,0.\\Version=ES64L-G16RevC.01\State=1-A'\HF=-1
 071.0737431\RMSD=7.653e-03\Dipole=-0.1625551,-0.3363827,0.\Quadrupole=
 2.7198774,-3.6805431,0.9606657,-2.5185475,0.,0.\PG=CS [SG(C2H2O1),X(Cl

 Normal termination of Gaussian 16 at Sat Apr  5 22:58:07 2025.
