 Gaussian 16, Revision C.01,

 ----------------------------------------------------------------------
 #t hf aug-cc-pvdz symm=none int=(grid=ultrafine) guess=(read,tcheck) s
 table=(opt,rrhf)
 ----------------------------------------------------------------------
 -----
 title
 -----
 Symbolic Z-matrix:
 Charge =  0 Multiplicity = 1

 SCF Done:  E(RHF) =  -958.039510263     A.U. after   11 cycles

 1\1\GINC-SE348\Stability\RHF\Aug-CC-pVDZ\C1H2Cl2\OHZDE\05-Apr-2025\0\\
 #t hf aug-cc-pvdz symm=none int=(grid=ultrafine) guess=(read,tcheck) s
 table=(opt,rrhf)\\title\\0,1\Cl,0,0.,1.489376,-0.216532\Cl,0,0.,-1.489
 376,-0.216532\C,0,0.,0.,0.769333\H,0,-0.896869,0.,1.373046\H,0,0.89686
 9,0.,1.373046\\Version=ES64L-G16RevC.01\HF=-958.0395103\RMSD=6.974e-09
 \Dipole=0.,0.,0.746973\Quadrupole=0.2644597,-1.8865593,1.6220996,0.,0.
 ,0.\PG=Unknown\\@
 The archive entry for this job was punched.

 Normal termination of Gaussian 16 at Sat Apr  5 22:58:09 2025.
 Gaussian 16:  ES64L-G16RevC.01  3-Jul-2019

 ----------------------------------------------------------------------
 #t hf aug-cc-pvdz iop(5/13=1,5/36=2,99/5=2) pseudo=read geom=check gue
 ss=(read,tcheck) scf=(maxcycle=1)
 ----------------------------------------------------------------------
 -----
 title
 -----
 Structure from the checkpoint file:  "dichloromethane.chk"
 Charge =  0 Multiplicity = 1

                         Standard orientation:
 ---------------------------------------------------------------------
 Center     Atomic      Atomic             Coordinates (Angstroms)
 Number     Number       Type             X           Y           Z
 ---------------------------------------------------------------------
      1         17           0        0.000000    1.489376   -0.216532
      2         17           0       -0.000000   -1.489376   -0.216532
      3          6           0       -0.000000   -0.000000    0.769333
      4          1           0       -0.896869    0.000000    1.373046
      5          1           0        0.896869   -0.000000    1.373046
 ---------------------------------------------------------------------

 SCF Done:  E(RHF) =  -958.234138106     A.U. after    2 cycles

 The electronic state is 1-A1.
 Alpha  occ. eigenvalues -- -105.58237-105.58237 -11.37985 -10.63069 -10.63063
 Alpha  occ. eigenvalues --   -7.80011  -7.80010  -7.79606  -7.79605  -7.79594
 Alpha  occ. eigenvalues --   -7.79593  -1.16331  -1.05273  -0.89032  -0.68872
 Alpha  occ. eigenvalues --   -0.62562  -0.59673  -0.48506  -0.48161  -0.45959
 Alpha  occ. eigenvalues --   -0.45756
 Alpha virt. eigenvalues --    0.03445   0.05043   0.07420   0.07841   0.12566
 Alpha virt. eigenvalues --    0.13582   0.13887   0.15813   0.15973   0.16007
 Alpha virt. eigenvalues --    0.17787   0.18044   0.21145   0.22259   0.27478

 Mulliken charges:
               1
     1  Cl  -0.004638
     2  Cl  -0.004638
     3  C   -0.648135
     4  H    0.328706
     5  H    0.328706
 Sum of Mulliken charges =  -0.00000

 Dipole moment (field-independent basis, Debye):
    X=              0.0000    Y=             -0.0000    Z=              1.9004  Tot=              1.9004

 Test job not archived.
 1\1\GINC-SE348\SP\RHF\Aug-CC-pVDZ\C1H2Cl2\OHZDE\05-Apr-2025\0\\#t hf a
 ug-cc-pvdz iop(5/13=1,5/36=2,99/5=2) pseudo=read geom=check guess=(rea
 d,tcheck) scf=(maxcycle=1)\\title\\0,1\Cl,0,0.,1.489376,-0.216532\Cl,0
 ,0.,-1.489376,-0.216532\C,0,0.,0.,0.769333\H,0,-0.896869,0.,1.373046\H
 ,0,0.896869,0.,1.373046\\Version=ES64L-G16RevC.01\State=1-A1\HF=-958.2
 341381\RMSD=4.176e-03\Dipole=0.,0.,0.7476646\Quadrupole=0.2421782,-1.8
 642708,1.6220926,0.,0.,0.\PG=C02V [C2(C1),SGV(Cl2),SGV'(H2)]\\@

 Normal termination of Gaussian 16 at Sat Apr  5 22:58:10 2025.
