 Gaussian 16, Revision C.01,

 ----------------------------------------------------------------------
 #t hf aug-cc-pvdz symm=none int=(grid=ultrafine) guess=(read,tcheck) s
 table=(opt,rrhf)
 ----------------------------------------------------------------------
 -----
 title
 -----
 Symbolic Z-matrix:
 Charge =  0 Multiplicity = 1

 SCF Done:  E(RHF) =  -994.647884286     A.U. after   11 cycles
 Normal termination of Gaussian 16 at Sat Apr  5 22:58:11 2025.
 Gaussian 16:  ES64L-G16RevC.01  3-Jul-2019

 ----------------------------------------------------------------------
 #t hf aug-cc-pvdz iop(5/13=1,5/36=2,99/5=2) pseudo=read geom=check gue
 ss=(read,tcheck) scf=(maxcycle=1)
 ----------------------------------------------------------------------
 -----
 title
 -----
 Structure from the checkpoint file:  "dichloroacetylene.chk"
 Charge =  0 Multiplicity = 1

                         Standard orientation:
 ---------------------------------------------------------------------
 Center     Atomic      Atomic             Coordinates (Angstroms)
 Number     Number       Type             X           Y           Z
 ---------------------------------------------------------------------
      1          6           0        0.000000    0.000000    0.599276
      2          6           0        0.000000    0.000000   -0.599276
      3         17           0        0.000000    0.000000    2.241149
      4         17           0        0.000000    0.000000   -2.241149
 ---------------------------------------------------------------------

 SCF Done:  E(RHF) =  -994.874519578     A.U. after    2 cycles

 The electronic state is 1-SGG.
 Alpha  occ. eigenvalues -- -105.62992-105.62991 -11.31829 -11.31478 -10.67655
 Alpha  occ. eigenvalues --  -10.67655  -7.84678  -7.84673  -7.84174  -7.84174
 Alpha  occ. eigenvalues --   -7.84173  -7.84173  -1.18092  -1.14905  -1.01551
 Alpha  occ. eigenvalues --   -0.72568  -0.68309  -0.58893  -0.58893  -0.54025
 Alpha  occ. eigenvalues --   -0.54025  -0.39570  -0.39570
 Alpha virt. eigenvalues --    0.05842   0.06652   0.11502   0.11964   0.11964
 Alpha virt. eigenvalues --    0.12023   0.13909   0.13909   0.16316   0.16316
 Alpha virt. eigenvalues --    0.18049   0.18049   0.18992   0.19567   0.24553

 Mulliken charges:
               1
     1  C   -0.005830
     2  C   -0.005830
     3  Cl   0.005830
     4  Cl   0.005830
 Sum of Mulliken charges =  -0.00000

 Dipole moment (field-independent basis, Debye):
    X=             -0.0000    Y=              0.0000    Z=              0.0000  Tot=              0.0000

 Test job not archived.
 1\1\GINC-SE301\SP\RHF\Aug-CC-pVDZ\C2Cl2\OHZDE\05-Apr-2025\0\\#t hf aug
 -cc-pvdz iop(5/13=1,5/36=2,99/5=2) pseudo=read geom=check guess=(read,
 tcheck) scf=(maxcycle=1)\\title\\0,1\C,0,0.,0.,0.599276\C,0,0.,0.,-0.5
 99276\Cl,0,0.,0.,2.241149\Cl,0,0.,0.,-2.241149\\Version=ES64L-G16RevC.
 01\State=1-SGG\HF=-994.8745196\RMSD=1.223e-02\Dipole=0.,0.,0.\Quadrupo
 le=-1.4170911,-1.4170911,2.8341822,0.,0.,0.\PG=D*H [C*(Cl1C1.C1Cl1)]\\
 @

 Normal termination of Gaussian 16 at Sat Apr  5 22:58:12 2025.
