 Gaussian 16, Revision C.01,

 ----------------------------------------------------------------------
 #t hf aug-cc-pvdz symm=none int=(grid=ultrafine) guess=(read,tcheck) s
 table=(opt,rrhf)
 ----------------------------------------------------------------------
 -----
 title
 -----
 Symbolic Z-matrix:
 Charge =  0 Multiplicity = 1

 SCF Done:  E(RHF) =  -1056.89901147     A.U. after   12 cycles
 Normal termination of Gaussian 16 at Sat Apr  5 22:57:07 2025.
 Gaussian 16:  ES64L-G16RevC.01  3-Jul-2019

 ----------------------------------------------------------------------
 #t hf aug-cc-pvdz iop(5/13=1,5/36=2,99/5=2) pseudo=read geom=check gue
 ss=(read,tcheck) scf=(maxcycle=1)
 ----------------------------------------------------------------------
 -----
 title
 -----
 Structure from the checkpoint file:  "dichlorofluoromethane.chk"
 Charge =  0 Multiplicity = 1

                         Standard orientation:
 ---------------------------------------------------------------------
 Center     Atomic      Atomic             Coordinates (Angstroms)
 Number     Number       Type             X           Y           Z
 ---------------------------------------------------------------------
      1          6           0       -0.178150    0.524281   -0.000000
      2          1           0       -1.074887    1.131933   -0.000000
      3          9           0        0.911211    1.319595   -0.000000
      4         17           0       -0.178150   -0.475117    1.474553
      5         17           0       -0.178150   -0.475117   -1.474553
 ---------------------------------------------------------------------

 SCF Done:  E(RHF) =  -1057.17886501     A.U. after    2 cycles

 The electronic state is 1-A'.
 Alpha  occ. eigenvalues -- -105.59869-105.59869 -26.51394 -11.47560 -10.64749
 Alpha  occ. eigenvalues --  -10.64748  -7.81693  -7.81688  -7.81266  -7.81264
 Alpha  occ. eigenvalues --   -7.81259  -7.81259  -1.65204  -1.16813  -1.07627
 Alpha  occ. eigenvalues --   -0.90875  -0.77556  -0.72733  -0.71789  -0.60277
 Alpha  occ. eigenvalues --   -0.57595  -0.51393  -0.49396  -0.48716  -0.47330
 Alpha virt. eigenvalues --    0.03729   0.07255   0.07973   0.10151   0.11538
 Alpha virt. eigenvalues --    0.12708   0.14038   0.15035   0.15666   0.15880
 Alpha virt. eigenvalues --    0.17928   0.21023   0.21346   0.25458   0.27822

 Mulliken charges:
               1
     1  C    0.244693
     2  H    0.309872
     3  F   -0.576348
     4  Cl   0.010892
     5  Cl   0.010892
 Sum of Mulliken charges =   0.00000

 Dipole moment (field-independent basis, Debye):
    X=             -1.1991    Y=              0.7133    Z=              0.0000  Tot=              1.3952

 Test job not archived.
 1\1\GINC-SE347\SP\RHF\Aug-CC-pVDZ\C1H1Cl2F1\OHZDE\05-Apr-2025\0\\#t hf
  aug-cc-pvdz iop(5/13=1,5/36=2,99/5=2) pseudo=read geom=check guess=(r
 ead,tcheck) scf=(maxcycle=1)\\title\\0,1\C,0,-0.17815,0.524281,0.\H,0,
 -1.074887,1.131933,0.\F,0,0.911211,1.319595,0.\Cl,0,-0.17815,-0.475117
 ,1.474553\Cl,0,-0.17815,-0.475117,-1.474553\\Version=ES64L-G16RevC.01\
 State=1-A'\HF=-1057.178865\RMSD=3.758e-03\Dipole=-0.4717712,0.2806213,
 0.\Quadrupole=-0.0837698,0.3306678,-0.246898,-1.6039158,0.,0.\PG=CS [S
 G(C1H1F1),X(Cl2)]\\@

 Normal termination of Gaussian 16 at Sat Apr  5 22:58:08 2025.
