 Gaussian 16, Revision C.01,

 ----------------------------------------------------------------------
 #t hf aug-cc-pvdz symm=none int=(grid=ultrafine) guess=(read,tcheck) s
 table=(opt,rrhf)
 ----------------------------------------------------------------------
 -----
 title
 -----
 Symbolic Z-matrix:
 Charge =  0 Multiplicity = 1

 SCF Done:  E(RHF) =  -223.670486693     A.U. after   12 cycles
 Normal termination of Gaussian 16 at Sat Apr  5 22:57:09 2025.
 Gaussian 16:  ES64L-G16RevC.01  3-Jul-2019

 ----------------------------------------------------------------------
 #t hf aug-cc-pvdz iop(5/13=1,5/36=2,99/5=2) pseudo=read geom=check gue
 ss=(read,tcheck) scf=(maxcycle=1)
 ----------------------------------------------------------------------
 -----
 title
 -----
 Structure from the checkpoint file:  "dicyanomethane.chk"
 Charge =  0 Multiplicity = 1

                         Standard orientation:
 ---------------------------------------------------------------------
 Center     Atomic      Atomic             Coordinates (Angstroms)
 Number     Number       Type             X           Y           Z
 ---------------------------------------------------------------------
      1          6           0        0.000000   -0.000000    0.828233
      2          6           0        0.000000    1.221205    0.021726
      3          6           0       -0.000000   -1.221205    0.021726
      4          1           0        0.879349   -0.000000    1.476388
      5          1           0       -0.879349    0.000000    1.476388
      6          7           0        0.000000    2.195867   -0.584492
      7          7           0       -0.000000   -2.195867   -0.584492
 ---------------------------------------------------------------------

 SCF Done:  E(RHF) =  -223.888871390     A.U. after    2 cycles

 The electronic state is 1-A1.
 Alpha  occ. eigenvalues --  -15.54834 -15.54823 -11.36807 -11.31752 -11.31748
 Alpha  occ. eigenvalues --   -1.27576  -1.26500  -1.12355  -0.80843  -0.74484
 Alpha  occ. eigenvalues --   -0.70905  -0.63902  -0.63432  -0.54729  -0.54093
 Alpha  occ. eigenvalues --   -0.53304  -0.51912
 Alpha virt. eigenvalues --    0.02027   0.03858   0.06327   0.06461   0.10001
 Alpha virt. eigenvalues --    0.10210   0.11146   0.11509   0.12191   0.13278
 Alpha virt. eigenvalues --    0.13952   0.14154   0.14250   0.15191   0.15685

 Mulliken charges:
               1
     1  C    0.349402
     2  C   -1.341838
     3  C   -1.341838
     4  H    0.355374
     5  H    0.355374
     6  N    0.811762
     7  N    0.811762
 Sum of Mulliken charges =   0.00000

 Dipole moment (field-independent basis, Debye):
    X=              0.0000    Y=             -0.0000    Z=              4.6331  Tot=              4.6331

 Test job not archived.
 1\1\GINC-SE350\SP\RHF\Aug-CC-pVDZ\C3H2N2\OHZDE\05-Apr-2025\0\\#t hf au
 g-cc-pvdz iop(5/13=1,5/36=2,99/5=2) pseudo=read geom=check guess=(read
 ,tcheck) scf=(maxcycle=1)\\title\\0,1\C,0,0.,0.,0.828233\C,0,0.,1.2212
 05,0.021726\C,0,0.,-1.221205,0.021726\H,0,0.879349,0.,1.476388\H,0,-0.
 879349,0.,1.476388\N,0,0.,2.195867,-0.584492\N,0,0.,-2.195867,-0.58449
 2\\Version=ES64L-G16RevC.01\State=1-A1\HF=-223.8888714\RMSD=2.373e-02\
 Dipole=0.,0.,1.8228022\Quadrupole=4.7319835,-9.4877836,4.7558,0.,0.,0.
 \PG=C02V [C2(C1),SGV(C2N2),SGV'(H2)]\\@

 Normal termination of Gaussian 16 at Sat Apr  5 22:58:07 2025.
