 Gaussian 16, Revision C.01,

 ----------------------------------------------------------------------
 #t hf aug-cc-pvdz symm=none int=(grid=ultrafine) guess=(read,tcheck) s
 table=(opt,rrhf)
 ----------------------------------------------------------------------
 -----
 title
 -----
 Symbolic Z-matrix:
 Charge =  0 Multiplicity = 1

 SCF Done:  E(RHF) =  -298.525435495     A.U. after   14 cycles
 Normal termination of Gaussian 16 at Sat Apr  5 22:57:10 2025.
 Gaussian 16:  ES64L-G16RevC.01  3-Jul-2019

 ----------------------------------------------------------------------
 #t hf aug-cc-pvdz iop(5/13=1,5/36=2,99/5=2) pseudo=read geom=check gue
 ss=(read,tcheck) scf=(maxcycle=1)
 ----------------------------------------------------------------------
 -----
 title
 -----
 Structure from the checkpoint file:  "dicyanomethanol.chk"
 Charge =  0 Multiplicity = 1

                         Standard orientation:
 ---------------------------------------------------------------------
 Center     Atomic      Atomic             Coordinates (Angstroms)
 Number     Number       Type             X           Y           Z
 ---------------------------------------------------------------------
      1          8           0       -0.023151    1.622923   -0.280281
      2          7           0       -2.199831   -0.919309   -0.166719
      3          7           0        2.157942   -0.992833   -0.172002
      4          6           0       -0.002614    0.387114    0.400860
      5          6           0       -1.233688   -0.342601    0.060384
      6          6           0        1.190268   -0.419958    0.063748
      7          1           0        0.756685    2.130316   -0.026335
      8          1           0       -0.002056    0.523963    1.489685
 ---------------------------------------------------------------------

 SCF Done:  E(RHF) =  -298.813600413     A.U. after    2 cycles

 The electronic state is 1-A.
 Alpha  occ. eigenvalues --  -20.62909 -15.56000 -15.55453 -11.42830 -11.32118
 Alpha  occ. eigenvalues --  -11.31736  -1.53575  -1.27892  -1.27021  -1.09779
 Alpha  occ. eigenvalues --   -0.84904  -0.77761  -0.75990  -0.65383  -0.64524
 Alpha  occ. eigenvalues --   -0.61794  -0.56733  -0.54957  -0.54172  -0.53563
 Alpha  occ. eigenvalues --   -0.52293
 Alpha virt. eigenvalues --    0.01767   0.03612   0.06239   0.06720   0.07757
 Alpha virt. eigenvalues --    0.10208   0.10743   0.11370   0.12038   0.12506
 Alpha virt. eigenvalues --    0.12883   0.13975   0.14663   0.15804   0.16119

 Mulliken charges:
               1
     1  O   -1.192227
     2  N    0.842425
     3  N    0.825411
     4  C    1.761728
     5  C   -1.476077
     6  C   -1.430307
     7  H    0.340315
     8  H    0.328732
 Sum of Mulliken charges =  -0.00000

 Dipole moment (field-independent basis, Debye):
    X=              1.2869    Y=              3.9130    Z=              2.7023  Tot=              4.9265

 Test job not archived.
 1\1\GINC-SE351\SP\RHF\Aug-CC-pVDZ\C3H2N2O1\OHZDE\05-Apr-2025\0\\#t hf
 aug-cc-pvdz iop(5/13=1,5/36=2,99/5=2) pseudo=read geom=check guess=(re
 ad,tcheck) scf=(maxcycle=1)\\title\\0,1\O,0,-0.023151,1.622923,-0.2802
 81\N,0,-2.199831,-0.919309,-0.166719\N,0,2.157942,-0.992833,-0.172002\
 C,0,-0.002614,0.387114,0.40086\C,0,-1.233688,-0.342601,0.060384\C,0,1.
 190268,-0.419958,0.063748\H,0,0.756685,2.130316,-0.026335\H,0,-0.00205
 6,0.523963,1.489685\\Version=ES64L-G16RevC.01\State=1-A\HF=-298.813600
 4\RMSD=2.119e-02\Dipole=0.5063109,1.5394922,1.0631821\Quadrupole=-7.63

 Normal termination of Gaussian 16 at Sat Apr  5 22:58:08 2025.
