 Gaussian 16, Revision C.01,

 ----------------------------------------------------------------------
 #t hf aug-cc-pvdz symm=none int=(grid=ultrafine) guess=(read,tcheck) s
 table=(opt,rrhf)
 ----------------------------------------------------------------------
 -----
 title
 -----
 Symbolic Z-matrix:
 Charge =  0 Multiplicity = 1

 SCF Done:  E(RHF) =  -704.513697478     A.U. after   13 cycles
 Normal termination of Gaussian 16 at Sat Apr  5 22:58:55 2025.
 Gaussian 16:  ES64L-G16RevC.01  3-Jul-2019

 ----------------------------------------------------------------------
 #t hf aug-cc-pvdz iop(5/13=1,5/36=2,99/5=2) pseudo=read geom=check gue
 ss=(read,tcheck) scf=(maxcycle=1)
 ----------------------------------------------------------------------
 -----
 title
 -----
 Structure from the checkpoint file:  "diethyl_sulfone.chk"
 Charge =  0 Multiplicity = 1

                         Standard orientation:
 ---------------------------------------------------------------------
 Center     Atomic      Atomic             Coordinates (Angstroms)
 Number     Number       Type             X           Y           Z
 ---------------------------------------------------------------------
      1          8           0        0.424779    2.021733    0.000000
      2         16           0        0.358890    0.561255    0.000000
      3          6           0       -0.613205    0.101793    1.471297
      4          6           0       -0.613205   -1.376626    1.826915
      5          6           0       -0.613205    0.101793   -1.471297
      6          6           0       -0.613205   -1.376626   -1.826915
      7          8           0        1.592893   -0.223650   -0.000000
      8          1           0       -1.610423    0.511825    1.314449
      9          1           0       -0.127133    0.701508    2.241547
     10          1           0        0.402605   -1.766402    1.849066
     11          1           0       -1.195297   -1.970903    1.125329
     12          1           0       -1.053100   -1.509402    2.815892
     13          1           0       -0.127133    0.701508   -2.241547
     14          1           0       -1.610423    0.511825   -1.314449
     15          1           0        0.402605   -1.766402   -1.849066
     16          1           0       -1.053100   -1.509402   -2.815892
     17          1           0       -1.195297   -1.970903   -1.125329
 ---------------------------------------------------------------------

 SCF Done:  E(RHF) =  -704.901876746     A.U. after    2 cycles

 The electronic state is 1-A'.
 Alpha  occ. eigenvalues --  -94.17696 -20.52609 -20.52374 -11.28944 -11.28914
 Alpha  occ. eigenvalues --  -11.25533 -11.25525  -8.43094  -6.41191  -6.40975
 Alpha  occ. eigenvalues --   -6.40922  -1.53503  -1.41843  -1.10802  -1.07271
 Alpha  occ. eigenvalues --   -0.95680  -0.89799  -0.80471  -0.69465  -0.68957
 Alpha  occ. eigenvalues --   -0.65995  -0.63423  -0.62790  -0.59922  -0.58447
 Alpha  occ. eigenvalues --   -0.56504  -0.55445  -0.54340  -0.52390  -0.47701
 Alpha  occ. eigenvalues --   -0.47398  -0.44796  -0.41940
 Alpha virt. eigenvalues --    0.02678   0.03201   0.03696   0.04685   0.05850
 Alpha virt. eigenvalues --    0.06252   0.06256   0.07481   0.09006   0.09715
 Alpha virt. eigenvalues --    0.10824   0.11863   0.13756   0.14121   0.14449

 Mulliken charges:
               1
     1  O   -1.636588
     2  S    3.624721
     3  C   -0.823773
     4  C   -0.245612
     5  C   -0.823773
     6  C   -0.245612
     7  O   -1.625321
     8  H    0.174249
     9  H    0.232088
    10  H    0.213454
    11  H    0.123125
    12  H    0.145063
    13  H    0.232088
    14  H    0.174249
    15  H    0.213454
    16  H    0.145063
    17  H    0.123125
 Sum of Mulliken charges =  -0.00000

 Dipole moment (field-independent basis, Debye):
    X=             -4.4621    Y=             -2.8696    Z=             -0.0000  Tot=              5.3052

 Test job not archived.
 1\1\GINC-SE206\SP\RHF\Aug-CC-pVDZ\C4H10O2S1\OHZDE\05-Apr-2025\0\\#t hf
  aug-cc-pvdz iop(5/13=1,5/36=2,99/5=2) pseudo=read geom=check guess=(r
 ead,tcheck) scf=(maxcycle=1)\\title\\0,1\O,0,0.424779,2.021733,0.\S,0,
 0.35889,0.561255,0.\C,0,-0.613205,0.101793,1.471297\C,0,-0.613205,-1.3
 76626,1.826915\C,0,-0.613205,0.101793,-1.471297\C,0,-0.613205,-1.37662
 6,-1.826915\O,0,1.592893,-0.22365,0.\H,0,-1.610423,0.511825,1.314449\H
 ,0,-0.127133,0.701508,2.241547\H,0,0.402605,-1.766402,1.849066\H,0,-1.
 195297,-1.970903,1.125329\H,0,-1.0531,-1.509402,2.815892\H,0,-0.127133

 Normal termination of Gaussian 16 at Sat Apr  5 22:59:00 2025.
