 Gaussian 16, Revision C.01,

 ----------------------------------------------------------------------
 #t hf aug-cc-pvdz symm=none int=(grid=ultrafine) guess=(read,tcheck) s
 table=(opt,rrhf)
 ----------------------------------------------------------------------
 -----
 title
 -----
 Symbolic Z-matrix:
 Charge =  0 Multiplicity = 1

 SCF Done:  E(RHF) =  -952.382169397     A.U. after   13 cycles

 1\1\GINC-SE359\Stability\RHF\Aug-CC-pVDZ\C4H10S2\OHZDE\05-Apr-2025\0\\
 #t hf aug-cc-pvdz symm=none int=(grid=ultrafine) guess=(read,tcheck) s
 table=(opt,rrhf)\\title\\0,1\C,0,0.340762,3.287075,0.629973\C,0,-0.340
 762,-3.287075,0.629973\C,0,0.695762,1.806304,0.586711\C,0,-0.695762,-1
 .806304,0.586711\S,0,-0.340762,0.974925,-0.694192\S,0,0.340762,-0.9749
 25,-0.694192\H,0,0.525276,3.767942,-0.330968\H,0,-0.707346,3.438737,0.
 88965\H,0,0.949124,3.792561,1.381474\H,0,-0.525276,-3.767942,-0.330968
 \H,0,0.707346,-3.438737,0.88965\H,0,-0.949124,-3.792561,1.381474\H,0,0

 Normal termination of Gaussian 16 at Sat Apr  5 22:57:32 2025.
 Gaussian 16:  ES64L-G16RevC.01  3-Jul-2019

 ----------------------------------------------------------------------
 #t hf aug-cc-pvdz iop(5/13=1,5/36=2,99/5=2) pseudo=read geom=check gue
 ss=(read,tcheck) scf=(maxcycle=1)
 ----------------------------------------------------------------------
 -----
 title
 -----
 Structure from the checkpoint file:  "diethyl_disulfide.chk"
 Charge =  0 Multiplicity = 1

                         Standard orientation:
 ---------------------------------------------------------------------
 Center     Atomic      Atomic             Coordinates (Angstroms)
 Number     Number       Type             X           Y           Z
 ---------------------------------------------------------------------
      1          6           0        0.340762    3.287075    0.629973
      2          6           0       -0.340762   -3.287075    0.629973
      3          6           0        0.695762    1.806304    0.586711
      4          6           0       -0.695762   -1.806304    0.586711
      5         16           0       -0.340762    0.974925   -0.694192
      6         16           0        0.340762   -0.974925   -0.694192
      7          1           0        0.525276    3.767942   -0.330968
      8          1           0       -0.707346    3.438737    0.889650
      9          1           0        0.949124    3.792561    1.381474
     10          1           0       -0.525276   -3.767942   -0.330968
     11          1           0        0.707346   -3.438737    0.889650
     12          1           0       -0.949124   -3.792561    1.381474
     13          1           0        0.508220    1.330131    1.547298
     14          1           0        1.739469    1.654869    0.319514
     15          1           0       -0.508220   -1.330131    1.547298
     16          1           0       -1.739469   -1.654869    0.319514
 ---------------------------------------------------------------------

 SCF Done:  E(RHF) =  -952.681997483     A.U. after    2 cycles

 The electronic state is 1-A.
 Alpha  occ. eigenvalues --  -93.96153 -93.96145 -11.27072 -11.27071 -11.23986
 Alpha  occ. eigenvalues --  -11.23986  -8.24118  -8.24093  -6.21934  -6.21889
 Alpha  occ. eigenvalues --   -6.21703  -6.21696  -6.21483  -6.21483  -1.11693
 Alpha  occ. eigenvalues --   -1.06875  -1.00211  -0.90492  -0.83924  -0.79410
 Alpha  occ. eigenvalues --   -0.64161  -0.63966  -0.62399  -0.58285  -0.55543
 Alpha  occ. eigenvalues --   -0.55211  -0.52488  -0.52264  -0.49787  -0.47456
 Alpha  occ. eigenvalues --   -0.44254  -0.35686  -0.35303
 Alpha virt. eigenvalues --    0.03475   0.03577   0.04084   0.04631   0.05749
 Alpha virt. eigenvalues --    0.05822   0.06045   0.07735   0.08040   0.09465
 Alpha virt. eigenvalues --    0.10170   0.10895   0.11902   0.13594   0.13795

 Mulliken charges:
               1
     1  C   -0.386482
     2  C   -0.386482
     3  C   -0.599747
     4  C   -0.599747
     5  S    0.132027
     6  S    0.132027
     7  H    0.172008
     8  H    0.168079
     9  H    0.140117
    10  H    0.172008
    11  H    0.168079
    12  H    0.140117
    13  H    0.167057
    14  H    0.206940
    15  H    0.167057
    16  H    0.206940
 Sum of Mulliken charges =  -0.00000

 Dipole moment (field-independent basis, Debye):
    X=             -0.0000    Y=             -0.0000    Z=              2.4830  Tot=              2.4830

 Test job not archived.
 1\1\GINC-SE359\SP\RHF\Aug-CC-pVDZ\C4H10S2\OHZDE\05-Apr-2025\0\\#t hf a
 ug-cc-pvdz iop(5/13=1,5/36=2,99/5=2) pseudo=read geom=check guess=(rea
 d,tcheck) scf=(maxcycle=1)\\title\\0,1\C,0,0.340762,3.287075,0.629973\
 C,0,-0.340762,-3.287075,0.629973\C,0,0.695762,1.806304,0.586711\C,0,-0
 .695762,-1.806304,0.586711\S,0,-0.340762,0.974925,-0.694192\S,0,0.3407
 62,-0.974925,-0.694192\H,0,0.525276,3.767942,-0.330968\H,0,-0.707346,3
 .438737,0.88965\H,0,0.949124,3.792561,1.381474\H,0,-0.525276,-3.767942
 ,-0.330968\H,0,0.707346,-3.438737,0.88965\H,0,-0.949124,-3.792561,1.38

 Normal termination of Gaussian 16 at Sat Apr  5 22:58:09 2025.
