 Gaussian 16, Revision C.01,

 ----------------------------------------------------------------------
 #t hf aug-cc-pvdz symm=none int=(grid=ultrafine) guess=(read,tcheck) s
 table=(opt,rrhf)
 ----------------------------------------------------------------------
 -----
 title
 -----
 Symbolic Z-matrix:
 Charge =  0 Multiplicity = 1

 SCF Done:  E(RHF) =  -1040.44191883     A.U. after   16 cycles
 Normal termination of Gaussian 16 at Sat Apr  5 22:58:42 2025.
 Gaussian 16:  ES64L-G16RevC.01  3-Jul-2019

 ----------------------------------------------------------------------
 #t hf aug-cc-pvdz iop(5/13=1,5/36=2,99/5=2) pseudo=read geom=check gue
 ss=(read,tcheck) scf=(maxcycle=1)
 ----------------------------------------------------------------------
 -----
 title
 -----
 Structure from the checkpoint file:  "diethynylcarbamodithioic_acid.chk"
 Charge =  0 Multiplicity = 1

                         Standard orientation:
 ---------------------------------------------------------------------
 Center     Atomic      Atomic             Coordinates (Angstroms)
 Number     Number       Type             X           Y           Z
 ---------------------------------------------------------------------
      1         16           0        1.785670    1.142217    0.000055
      2         16           0        1.219672   -1.735365   -0.000051
      3          7           0       -0.725832    0.098898   -0.000008
      4          6           0        0.657309   -0.199788   -0.000005
      5          6           0       -1.229802    1.357919   -0.000005
      6          6           0       -1.636456   -0.913123   -0.000051
      7          6           0       -1.716877    2.453131   -0.000088
      8          6           0       -2.495075   -1.745682    0.000145
      9          1           0        0.900324    2.162084    0.000064
     10          1           0       -2.142643    3.424999   -0.000013
     11          1           0       -3.236935   -2.503744   -0.000019
 ---------------------------------------------------------------------

 SCF Done:  E(RHF) =  -1040.80077136     A.U. after    2 cycles

 The electronic state is 1-A.
 Alpha  occ. eigenvalues --  -94.00229 -93.93138 -15.63490 -11.41311 -11.31787
 Alpha  occ. eigenvalues --  -11.29991 -11.27748 -11.26104  -8.28364  -8.21426
 Alpha  occ. eigenvalues --   -6.26191  -6.26022  -6.25806  -6.19274  -6.18986
 Alpha  occ. eigenvalues --   -6.18832  -1.36143  -1.14429  -1.08181  -1.04295
 Alpha  occ. eigenvalues --   -1.02376  -0.89945  -0.88905  -0.74937  -0.73414
 Alpha  occ. eigenvalues --   -0.70168  -0.68832  -0.55635  -0.54094  -0.48931
 Alpha  occ. eigenvalues --   -0.46735  -0.45551  -0.43365  -0.38952  -0.36060
 Alpha  occ. eigenvalues --   -0.35796
 Alpha virt. eigenvalues --    0.02666   0.03513   0.03842   0.04501   0.07192
 Alpha virt. eigenvalues --    0.07764   0.08439   0.09153   0.10266   0.10425
 Alpha virt. eigenvalues --    0.11588   0.11839   0.12460   0.12572   0.13514

 Mulliken charges:
               1
     1  S    0.163109
     2  S    0.172802
     3  N    1.393427
     4  C   -0.987168
     5  C   -1.256646
     6  C   -1.205394
     7  C    1.011128
     8  C    1.025573
     9  H    0.391772
    10  H   -0.343267
    11  H   -0.365336
 Sum of Mulliken charges =   0.00000

 Dipole moment (field-independent basis, Debye):
    X=             -2.1705    Y=              3.0834    Z=             -0.0000  Tot=              3.7708

 Test job not archived.
 1\1\GINC-SE173\SP\RHF\Aug-CC-pVDZ\C5H3N1S2\OHZDE\05-Apr-2025\0\\#t hf
 aug-cc-pvdz iop(5/13=1,5/36=2,99/5=2) pseudo=read geom=check guess=(re
 ad,tcheck) scf=(maxcycle=1)\\title\\0,1\S,0,1.785669,1.142219,0.000055
 \S,0,1.219674,-1.735364,-0.000051\N,0,-0.725832,0.098897,-0.000008\C,0
 ,0.657309,-0.199787,-0.000005\C,0,-1.229803,1.357918,-0.000005\C,0,-1.
 636455,-0.913125,-0.000051\C,0,-1.716879,2.453129,-0.000088\C,0,-2.495
 073,-1.745684,0.000145\H,0,0.900322,2.162085,0.000064\H,0,-2.142646,3.
 424997,-0.000013\H,0,-3.236933,-2.503747,-0.000019\\Version=ES64L-G16R

 Normal termination of Gaussian 16 at Sat Apr  5 22:58:50 2025.
