 Gaussian 16, Revision C.01,

 ----------------------------------------------------------------------
 #t hf aug-cc-pvdz symm=none int=(grid=ultrafine) guess=(read,tcheck) s
 table=(opt,rrhf)
 ----------------------------------------------------------------------
 -----
 title
 -----
 Symbolic Z-matrix:
 Charge =  0 Multiplicity = 1

 SCF Done:  E(RHF) =  -287.158991753     A.U. after   12 cycles
 Normal termination of Gaussian 16 at Sat Apr  5 22:58:51 2025.
 Gaussian 16:  ES64L-G16RevC.01  3-Jul-2019

 ----------------------------------------------------------------------
 #t hf aug-cc-pvdz iop(5/13=1,5/36=2,99/5=2) pseudo=read geom=check gue
 ss=(read,tcheck) scf=(maxcycle=1)
 ----------------------------------------------------------------------
 -----
 title
 -----
 Structure from the checkpoint file:  "diethylhydroxylamine.chk"
 Charge =  0 Multiplicity = 1

                         Standard orientation:
 ---------------------------------------------------------------------
 Center     Atomic      Atomic             Coordinates (Angstroms)
 Number     Number       Type             X           Y           Z
 ---------------------------------------------------------------------
      1          7           0       -0.135879   -0.159469   -0.000000
      2          8           0        1.161592   -0.759998    0.000000
      3          1           0        1.809832   -0.031424    0.000000
      4          6           0       -0.288759   -0.230429    2.472841
      5          6           0       -0.288759   -0.230429   -2.472841
      6          6           0       -0.288759    0.629302    1.218177
      7          6           0       -0.288759    0.629302   -1.218177
      8          1           0        0.647697   -0.775732    2.573295
      9          1           0        0.647697   -0.775732   -2.573295
     10          1           0        0.502431    1.398690   -1.280754
     11          1           0        0.502431    1.398690    1.280754
     12          1           0       -1.239354    1.157946   -1.127847
     13          1           0       -1.239354    1.157946    1.127847
     14          1           0       -1.101796   -0.955280    2.437155
     15          1           0       -1.101796   -0.955280   -2.437155
     16          1           0       -0.419577    0.394984    3.356866
     17          1           0       -0.419577    0.394984   -3.356866
 ---------------------------------------------------------------------

 SCF Done:  E(RHF) =  -287.468094562     A.U. after    2 cycles

 The electronic state is 1-A'.
 Alpha  occ. eigenvalues --  -20.57121 -15.54415 -11.26253 -11.26244 -11.22034
 Alpha  occ. eigenvalues --  -11.22030  -1.47521  -1.16753  -1.03971  -0.97155
 Alpha  occ. eigenvalues --   -0.84853  -0.82958  -0.68405  -0.68202  -0.68025
 Alpha  occ. eigenvalues --   -0.61803  -0.57637  -0.56695  -0.53858  -0.52798
 Alpha  occ. eigenvalues --   -0.51069  -0.49560  -0.49446  -0.46786  -0.41668
 Alpha virt. eigenvalues --    0.03656   0.04256   0.04277   0.04768   0.05498
 Alpha virt. eigenvalues --    0.05850   0.05886   0.06499   0.08591   0.09071
 Alpha virt. eigenvalues --    0.10125   0.12424   0.13649   0.14686   0.15651

 Mulliken charges:
               1
     1  N    1.262445
     2  O   -1.329484
     3  H    0.361641
     4  C   -0.354578
     5  C   -0.354578
     6  C   -0.369163
     7  C   -0.369163
     8  H    0.190204
     9  H    0.190204
    10  H    0.076521
    11  H    0.076521
    12  H   -0.009767
    13  H   -0.009767
    14  H    0.171039
    15  H    0.171039
    16  H    0.148443
    17  H    0.148443
 Sum of Mulliken charges =   0.00000

 Dipole moment (field-independent basis, Debye):
    X=              0.2399    Y=              2.4988    Z=             -0.0000  Tot=              2.5103

 Test job not archived.
 1\1\GINC-SE055\SP\RHF\Aug-CC-pVDZ\C4H11N1O1\OHZDE\05-Apr-2025\0\\#t hf
  aug-cc-pvdz iop(5/13=1,5/36=2,99/5=2) pseudo=read geom=check guess=(r
 ead,tcheck) scf=(maxcycle=1)\\title\\0,1\N,0,-0.135879,-0.159469,0.\O,
 0,1.161592,-0.759998,0.\H,0,1.809832,-0.031424,0.\C,0,-0.288759,-0.230
 429,2.472841\C,0,-0.288759,-0.230429,-2.472841\C,0,-0.288759,0.629302,
 1.218177\C,0,-0.288759,0.629302,-1.218177\H,0,0.647697,-0.775732,2.573
 295\H,0,0.647697,-0.775732,-2.573295\H,0,0.502431,1.39869,-1.280754\H,
 0,0.502431,1.39869,1.280754\H,0,-1.239354,1.157946,-1.127847\H,0,-1.23

 Normal termination of Gaussian 16 at Sat Apr  5 22:58:56 2025.
