 Gaussian 16, Revision C.01,

 ----------------------------------------------------------------------
 #t hf aug-cc-pvdz symm=none int=(grid=ultrafine) guess=(read,tcheck) s
 table=(opt,rrhf)
 ----------------------------------------------------------------------
 -----
 title
 -----
 Symbolic Z-matrix:
 Charge =  0 Multiplicity = 1

 SCF Done:  E(RHF) =  -779.384290647     A.U. after   13 cycles
 Normal termination of Gaussian 16 at Sat Apr  5 22:58:08 2025.
 Gaussian 16:  ES64L-G16RevC.01  3-Jul-2019

 ----------------------------------------------------------------------
 #t hf aug-cc-pvdz iop(5/13=1,5/36=2,99/5=2) pseudo=read geom=check gue
 ss=(read,tcheck) scf=(maxcycle=1)
 ----------------------------------------------------------------------
 -----
 title
 -----
 Structure from the checkpoint file:  "diethoxysulfoxide.chk"
 Charge =  0 Multiplicity = 1

                         Standard orientation:
 ---------------------------------------------------------------------
 Center     Atomic      Atomic             Coordinates (Angstroms)
 Number     Number       Type             X           Y           Z
 ---------------------------------------------------------------------
      1          6           0        0.150438   -1.090521    3.446524
      2          6           0        0.085296    0.101402    2.517436
      3          8           0        0.150438   -0.404858    1.160874
      4         16           0        0.167579    0.766272    0.000000
      5          8           0       -1.132613    1.441502    0.000000
      6          8           0        0.150438   -0.404858   -1.160874
      7          6           0        0.085296    0.101402   -2.517436
      8          6           0        0.150438   -1.090521   -3.446524
      9          1           0       -0.680200   -1.769479    3.258074
     10          1           0        1.082937   -1.637650    3.313150
     11          1           0        0.092076   -0.751674    4.481673
     12          1           0        0.923392    0.782173    2.691692
     13          1           0       -0.846294    0.654026    2.644175
     14          1           0       -0.846294    0.654026   -2.644175
     15          1           0        0.923392    0.782173   -2.691692
     16          1           0        1.082937   -1.637650   -3.313150
     17          1           0       -0.680200   -1.769479   -3.258074
     18          1           0        0.092076   -0.751674   -4.481673
 ---------------------------------------------------------------------

 SCF Done:  E(RHF) =  -779.838512182     A.U. after    2 cycles

 The electronic state is 1-A'.
 Alpha  occ. eigenvalues --  -94.16581 -20.58614 -20.58608 -20.53231 -11.30595
 Alpha  occ. eigenvalues --  -11.30592 -11.23819 -11.23817  -8.42029  -6.39866
 Alpha  occ. eigenvalues --   -6.39762  -6.39407  -1.56041  -1.46576  -1.44064
 Alpha  occ. eigenvalues --   -1.06333  -1.03049  -0.92287  -0.85265  -0.85230
 Alpha  occ. eigenvalues --   -0.71922  -0.70388  -0.68756  -0.67351  -0.61344
 Alpha  occ. eigenvalues --   -0.60194  -0.59991  -0.56584  -0.55244  -0.54495
 Alpha  occ. eigenvalues --   -0.53166  -0.52861  -0.52671  -0.47578  -0.46623
 Alpha  occ. eigenvalues --   -0.45350  -0.39977
 Alpha virt. eigenvalues --    0.03664   0.03846   0.04198   0.04554   0.05367
 Alpha virt. eigenvalues --    0.05780   0.05863   0.07545   0.07564   0.08950
 Alpha virt. eigenvalues --    0.10608   0.11336   0.12799   0.13226   0.13569

 Mulliken charges:
               1
     1  C   -0.496638
     2  C    0.359719
     3  O   -1.498182
     4  S    3.077798
     5  O   -1.423518
     6  O   -1.498182
     7  C    0.359719
     8  C   -0.496638
     9  H    0.172601
    10  H    0.165803
    11  H    0.148237
    12  H    0.176564
    13  H    0.144756
    14  H    0.144756
    15  H    0.176564
    16  H    0.165803
    17  H    0.172601
    18  H    0.148237
 Sum of Mulliken charges =  -0.00000

 Dipole moment (field-independent basis, Debye):
    X=              1.9451    Y=             -0.4881    Z=             -0.0000  Tot=              2.0054

 Test job not archived.
 1\1\GINC-SE352\SP\RHF\Aug-CC-pVDZ\C4H10O3S1\OHZDE\05-Apr-2025\0\\#t hf
  aug-cc-pvdz iop(5/13=1,5/36=2,99/5=2) pseudo=read geom=check guess=(r
 ead,tcheck) scf=(maxcycle=1)\\title\\0,1\C,0,0.150438,-1.090521,3.4465
 24\C,0,0.085296,0.101402,2.517436\O,0,0.150438,-0.404858,1.160874\S,0,
 0.167579,0.766272,0.\O,0,-1.132613,1.441502,0.\O,0,0.150438,-0.404858,
 -1.160874\C,0,0.085296,0.101402,-2.517436\C,0,0.150438,-1.090521,-3.44
 6524\H,0,-0.6802,-1.769479,3.258074\H,0,1.082937,-1.63765,3.31315\H,0,
 0.092076,-0.751674,4.481673\H,0,0.923392,0.782173,2.691692\H,0,-0.8462

 Normal termination of Gaussian 16 at Sat Apr  5 22:58:13 2025.
