 Gaussian 16, Revision C.01,

 ----------------------------------------------------------------------
 #t hf aug-cc-pvdz symm=none int=(grid=ultrafine) guess=(read,tcheck) s
 table=(opt,rrhf)
 ----------------------------------------------------------------------
 -----
 title
 -----
 Symbolic Z-matrix:
 Charge =  0 Multiplicity = 1

 SCF Done:  E(RHF) =  -629.658937929     A.U. after   14 cycles
 Normal termination of Gaussian 16 at Sat Apr  5 22:58:55 2025.
 Gaussian 16:  ES64L-G16RevC.01  3-Jul-2019

 ----------------------------------------------------------------------
 #t hf aug-cc-pvdz iop(5/13=1,5/36=2,99/5=2) pseudo=read geom=check gue
 ss=(read,tcheck) scf=(maxcycle=1)
 ----------------------------------------------------------------------
 -----
 title
 -----
 Structure from the checkpoint file:  "diethyl_sulfoxide.chk"
 Charge =  0 Multiplicity = 1

                         Standard orientation:
 ---------------------------------------------------------------------
 Center     Atomic      Atomic             Coordinates (Angstroms)
 Number     Number       Type             X           Y           Z
 ---------------------------------------------------------------------
      1          6           0        1.610605    1.384300    0.549759
      2          1           0        2.332239    2.160342    0.292049
      3          1           0        0.860212    1.834406    1.198917
      4          1           0        2.129278    0.606001    1.108397
      5          6           0       -2.280666    0.756806   -0.091466
      6          1           0       -2.643528    0.312964   -1.019464
      7          1           0       -3.146309    0.940646    0.545887
      8          1           0       -1.838910    1.724439   -0.328261
      9          6           0       -1.298769   -0.163282    0.619431
     10          1           0       -1.776187   -1.092001    0.931530
     11          1           0       -0.846975    0.288433    1.501243
     12          6           0        0.999535    0.803974   -0.714910
     13          1           0        0.322444    1.489329   -1.225847
     14         16           0        0.072252   -0.774645   -0.452665
     15          8           0        0.937001   -1.633899    0.435963
     16          1           0        1.771453    0.510148   -1.426400
 ---------------------------------------------------------------------

 SCF Done:  E(RHF) =  -629.971653778     A.U. after    2 cycles

 The electronic state is 1-A.
 Alpha  occ. eigenvalues --  -94.05826 -20.48621 -11.27468 -11.27387 -11.25368
 Alpha  occ. eigenvalues --  -11.23989  -8.32674  -6.30511  -6.30396  -6.30180
 Alpha  occ. eigenvalues --   -1.41544  -1.10232  -1.05067  -0.95012  -0.88254
 Alpha  occ. eigenvalues --   -0.79568  -0.66900  -0.65777  -0.61275  -0.60719
 Alpha  occ. eigenvalues --   -0.59334  -0.55922  -0.54604  -0.54016  -0.51486
 Alpha  occ. eigenvalues --   -0.51344  -0.50230  -0.39973  -0.35636
 Alpha virt. eigenvalues --    0.02964   0.03318   0.03668   0.04608   0.05961
 Alpha virt. eigenvalues --    0.06253   0.06613   0.07640   0.08222   0.09803
 Alpha virt. eigenvalues --    0.10928   0.12643   0.12904   0.14091   0.14586

 Mulliken charges:
               1
     1  C   -0.259636
     2  H    0.109977
     3  H    0.120735
     4  H    0.212088
     5  C   -0.292923
     6  H    0.198276
     7  H    0.125677
     8  H    0.127666
     9  C   -0.688189
    10  H    0.189505
    11  H    0.211196
    12  C   -0.753531
    13  H    0.223406
    14  S    1.834009
    15  O   -1.568008
    16  H    0.209750
 Sum of Mulliken charges =   0.00000

 Dipole moment (field-independent basis, Debye):
    X=             -2.2324    Y=              3.9656    Z=             -0.8782  Tot=              4.6348

 Test job not archived.
 1\1\GINC-SE011\SP\RHF\Aug-CC-pVDZ\C4H10O1S1\OHZDE\05-Apr-2025\0\\#t hf
  aug-cc-pvdz iop(5/13=1,5/36=2,99/5=2) pseudo=read geom=check guess=(r
 ead,tcheck) scf=(maxcycle=1)\\title\\0,1\C,0,1.610605,1.3843,0.549759\
 H,0,2.332239,2.160342,0.292049\H,0,0.860212,1.834406,1.198917\H,0,2.12
 9278,0.606001,1.108397\C,0,-2.280666,0.756806,-0.091466\H,0,-2.643528,
 0.312964,-1.019464\H,0,-3.146309,0.940646,0.545887\H,0,-1.83891,1.7244
 39,-0.328261\C,0,-1.298769,-0.163282,0.619431\H,0,-1.776187,-1.092001,
 0.93153\H,0,-0.846975,0.288433,1.501243\C,0,0.999535,0.803974,-0.71491

 Normal termination of Gaussian 16 at Sat Apr  5 22:59:01 2025.
