 Gaussian 16, Revision C.01,

 ----------------------------------------------------------------------
 #t hf aug-cc-pvdz symm=none int=(grid=ultrafine) guess=(read,tcheck) s
 table=(opt,rrhf)
 ----------------------------------------------------------------------
 -----
 title
 -----
 Symbolic Z-matrix:
 Charge =  0 Multiplicity = 1

 SCF Done:  E(RHF) =  -554.843847888     A.U. after   12 cycles

 1\1\GINC-SE199\Stability\RHF\Aug-CC-pVDZ\C4H10S1\OHZDE\05-Apr-2025\0\\
 #t hf aug-cc-pvdz symm=none int=(grid=ultrafine) guess=(read,tcheck) s
 table=(opt,rrhf)\\title\\0,1\C,0,0.,2.726159,0.135205\C,0,0.,-2.726159
 ,0.135205\C,0,0.,1.403492,-0.620064\C,0,0.,-1.403492,-0.620064\S,0,0.,
 0.,0.556153\H,0,-0.88233,2.818735,0.768807\H,0,0.88233,2.818735,0.7688
 07\H,0,0.,3.560604,-0.567621\H,0,0.88233,-2.818735,0.768807\H,0,-0.882
 33,-2.818735,0.768807\H,0,0.,-3.560604,-0.567621\H,0,0.883227,1.323432
 ,-1.255033\H,0,-0.883227,1.323432,-1.255033\H,0,-0.883227,-1.323432,-1

 Normal termination of Gaussian 16 at Sat Apr  5 22:58:29 2025.
 Gaussian 16:  ES64L-G16RevC.01  3-Jul-2019

 ----------------------------------------------------------------------
 #t hf aug-cc-pvdz iop(5/13=1,5/36=2,99/5=2) pseudo=read geom=check gue
 ss=(read,tcheck) scf=(maxcycle=1)
 ----------------------------------------------------------------------
 -----
 title
 -----
 Structure from the checkpoint file:  "diethyl_sulfide.chk"
 Charge =  0 Multiplicity = 1

                         Standard orientation:
 ---------------------------------------------------------------------
 Center     Atomic      Atomic             Coordinates (Angstroms)
 Number     Number       Type             X           Y           Z
 ---------------------------------------------------------------------
      1          6           0        0.000000    2.726159    0.135205
      2          6           0       -0.000000   -2.726159    0.135205
      3          6           0        0.000000    1.403492   -0.620064
      4          6           0       -0.000000   -1.403492   -0.620064
      5         16           0       -0.000000   -0.000000    0.556153
      6          1           0       -0.882330    2.818735    0.768807
      7          1           0        0.882330    2.818735    0.768807
      8          1           0        0.000000    3.560604   -0.567621
      9          1           0        0.882330   -2.818735    0.768807
     10          1           0       -0.882330   -2.818735    0.768807
     11          1           0       -0.000000   -3.560604   -0.567621
     12          1           0        0.883227    1.323432   -1.255033
     13          1           0       -0.883227    1.323432   -1.255033
     14          1           0       -0.883227   -1.323432   -1.255033
     15          1           0        0.883227   -1.323432   -1.255033
 ---------------------------------------------------------------------

 SCF Done:  E(RHF) =  -555.083261076     A.U. after    2 cycles

 The electronic state is 1-A1.
 Alpha  occ. eigenvalues --  -93.92954 -11.26295 -11.26281 -11.23231 -11.23225
 Alpha  occ. eigenvalues --   -8.21071  -6.18893  -6.18744  -6.18521  -1.09835
 Alpha  occ. eigenvalues --   -1.03856  -0.94098  -0.84069  -0.79829  -0.64330
 Alpha  occ. eigenvalues --   -0.62058  -0.61824  -0.57378  -0.55332  -0.52613
 Alpha  occ. eigenvalues --   -0.52232  -0.50481  -0.46625  -0.42878  -0.33864
 Alpha virt. eigenvalues --    0.03674   0.03685   0.04270   0.04459   0.06048
 Alpha virt. eigenvalues --    0.06062   0.06394   0.07372   0.08607   0.10014
 Alpha virt. eigenvalues --    0.11450   0.12400   0.13530   0.14614   0.15011

 Mulliken charges:
               1
     1  C   -0.378810
     2  C   -0.378810
     3  C   -0.647784
     4  C   -0.647784
     5  S    0.463718
     6  H    0.177275
     7  H    0.177275
     8  H    0.148696
     9  H    0.177275
    10  H    0.177275
    11  H    0.148696
    12  H    0.145745
    13  H    0.145745
    14  H    0.145745
    15  H    0.145745
 Sum of Mulliken charges =   0.00000

 Dipole moment (field-independent basis, Debye):
    X=             -0.0000    Y=             -0.0000    Z=             -1.8513  Tot=              1.8513

 Test job not archived.
 1\1\GINC-SE199\SP\RHF\Aug-CC-pVDZ\C4H10S1\OHZDE\05-Apr-2025\0\\#t hf a
 ug-cc-pvdz iop(5/13=1,5/36=2,99/5=2) pseudo=read geom=check guess=(rea
 d,tcheck) scf=(maxcycle=1)\\title\\0,1\C,0,0.,2.726159,0.135205\C,0,0.
 ,-2.726159,0.135205\C,0,0.,1.403492,-0.620064\C,0,0.,-1.403492,-0.6200
 64\S,0,0.,0.,0.556153\H,0,-0.88233,2.818735,0.768807\H,0,0.88233,2.818
 735,0.768807\H,0,0.,3.560604,-0.567621\H,0,0.88233,-2.818735,0.768807\
 H,0,-0.88233,-2.818735,0.768807\H,0,0.,-3.560604,-0.567621\H,0,0.88322
 7,1.323432,-1.255033\H,0,-0.883227,1.323432,-1.255033\H,0,-0.883227,-1

 Normal termination of Gaussian 16 at Sat Apr  5 22:58:33 2025.
