 Gaussian 16, Revision C.01,

 ----------------------------------------------------------------------
 #t hf aug-cc-pvdz symm=none int=(grid=ultrafine) guess=(read,tcheck) s
 table=(opt,rrhf)
 ----------------------------------------------------------------------
 -----
 title
 -----
 Symbolic Z-matrix:
 Charge =  0 Multiplicity = 1

 SCF Done:  E(RHF) =  -212.343253808     A.U. after   12 cycles

 1\1\GINC-SE042\Stability\RHF\Aug-CC-pVDZ\C4H11N1\OHZDE\05-Apr-2025\0\\
 #t hf aug-cc-pvdz symm=none int=(grid=ultrafine) guess=(read,tcheck) s
 table=(opt,rrhf)\\title\\0,1\C,0,-0.00862,-0.371616,2.45895\C,0,-0.008
 62,-0.371616,-2.45895\C,0,-0.00862,0.517598,1.223905\C,0,-0.00862,0.51
 7598,-1.223905\N,0,-0.059012,-0.273364,0.\H,0,-0.89665,-1.003443,2.479
 604\H,0,0.868669,-1.022627,2.474208\H,0,0.011382,0.229192,3.368838\H,0
 ,0.868669,-1.022627,-2.474208\H,0,-0.89665,-1.003443,-2.479604\H,0,0.0
 11382,0.229192,-3.368838\H,0,0.867606,1.187009,1.250354\H,0,-0.889411,

 Normal termination of Gaussian 16 at Sat Apr  5 22:58:43 2025.
 Gaussian 16:  ES64L-G16RevC.01  3-Jul-2019

 ----------------------------------------------------------------------
 #t hf aug-cc-pvdz iop(5/13=1,5/36=2,99/5=2) pseudo=read geom=check gue
 ss=(read,tcheck) scf=(maxcycle=1)
 ----------------------------------------------------------------------
 -----
 title
 -----
 Structure from the checkpoint file:  "diethylamine.chk"
 Charge =  0 Multiplicity = 1

                         Standard orientation:
 ---------------------------------------------------------------------
 Center     Atomic      Atomic             Coordinates (Angstroms)
 Number     Number       Type             X           Y           Z
 ---------------------------------------------------------------------
      1          6           0       -0.008620   -0.371616    2.458950
      2          6           0       -0.008620   -0.371616   -2.458950
      3          6           0       -0.008620    0.517598    1.223905
      4          6           0       -0.008620    0.517598   -1.223905
      5          7           0       -0.059012   -0.273364    0.000000
      6          1           0       -0.896650   -1.003443    2.479604
      7          1           0        0.868669   -1.022627    2.474208
      8          1           0        0.011382    0.229192    3.368838
      9          1           0        0.868669   -1.022627   -2.474208
     10          1           0       -0.896650   -1.003443   -2.479604
     11          1           0        0.011382    0.229192   -3.368838
     12          1           0        0.867606    1.187009    1.250354
     13          1           0       -0.889411    1.165441    1.236824
     14          1           0       -0.889411    1.165441   -1.236824
     15          1           0        0.867606    1.187009   -1.250354
     16          1           0        0.696784   -0.949384   -0.000000
 ---------------------------------------------------------------------

 SCF Done:  E(RHF) =  -212.583459935     A.U. after    2 cycles

 The electronic state is 1-A'.
 Alpha  occ. eigenvalues --  -15.47613 -11.25063 -11.25058 -11.22077 -11.22073
 Alpha  occ. eigenvalues --   -1.20135  -1.02800  -0.97221  -0.83639  -0.83124
 Alpha  occ. eigenvalues --   -0.67634  -0.65008  -0.61066  -0.60672  -0.56280
 Alpha  occ. eigenvalues --   -0.53069  -0.51736  -0.50244  -0.49561  -0.48640
 Alpha  occ. eigenvalues --   -0.39745
 Alpha virt. eigenvalues --    0.03901   0.04357   0.04395   0.04725   0.05475
 Alpha virt. eigenvalues --    0.05654   0.06076   0.06626   0.09135   0.09922
 Alpha virt. eigenvalues --    0.10343   0.10776   0.14684   0.14758   0.16035

 Mulliken charges:
               1
     1  C   -0.394347
     2  C   -0.394347
     3  C   -0.404908
     4  C   -0.404908
     5  N    0.219581
     6  H    0.189226
     7  H    0.137384
     8  H    0.127070
     9  H    0.137384
    10  H    0.189226
    11  H    0.127070
    12  H    0.067895
    13  H    0.048161
    14  H    0.048161
    15  H    0.067895
    16  H    0.239458
 Sum of Mulliken charges =  -0.00000

 Dipole moment (field-independent basis, Debye):
    X=              0.9070    Y=              0.5165    Z=             -0.0000  Tot=              1.0438

 Test job not archived.
 1\1\GINC-SE042\SP\RHF\Aug-CC-pVDZ\C4H11N1\OHZDE\05-Apr-2025\0\\#t hf a
 ug-cc-pvdz iop(5/13=1,5/36=2,99/5=2) pseudo=read geom=check guess=(rea
 d,tcheck) scf=(maxcycle=1)\\title\\0,1\C,0,-0.00862,-0.371616,2.45895\
 C,0,-0.00862,-0.371616,-2.45895\C,0,-0.00862,0.517598,1.223905\C,0,-0.
 00862,0.517598,-1.223905\N,0,-0.059012,-0.273364,0.\H,0,-0.89665,-1.00
 3443,2.479604\H,0,0.868669,-1.022627,2.474208\H,0,0.011382,0.229192,3.
 368838\H,0,0.868669,-1.022627,-2.474208\H,0,-0.89665,-1.003443,-2.4796
 04\H,0,0.011382,0.229192,-3.368838\H,0,0.867606,1.187009,1.250354\H,0,

 Normal termination of Gaussian 16 at Sat Apr  5 22:58:48 2025.
