 Gaussian 16, Revision C.01,

 ----------------------------------------------------------------------
 #t hf aug-cc-pvdz symm=none int=(grid=ultrafine) guess=(read,tcheck) s
 table=(opt,rrhf)
 ----------------------------------------------------------------------
 -----
 title
 -----
 Symbolic Z-matrix:
 Charge =  0 Multiplicity = 1

 SCF Done:  E(RHF) =  -571.629205049     A.U. after   14 cycles

 1\1\GINC-SE364\Stability\RHF\Aug-CC-pVDZ\C7H12O4\OHZDE\05-Apr-2025\0\\
 #t hf aug-cc-pvdz symm=none int=(grid=ultrafine) guess=(read,tcheck) s
 table=(opt,rrhf)\\title\\0,1\C,0,1.306354,0.956233,-0.134176\C,0,-1.04
 4968,0.127302,0.167328\C,0,3.886887,-1.608049,-0.254851\C,0,-4.599276,
 -0.443312,-0.394492\C,0,-0.088316,0.90624,-0.718617\C,0,3.316527,-0.26
 954,0.15353\C,0,-3.305169,-0.571942,0.375011\O,0,1.744359,1.881556,0.4
 99819\O,0,-0.757253,-0.411532,1.203966\O,0,1.990697,-0.161001,-0.42097
 1\O,0,-2.276334,0.126892,-0.371097\H,0,4.887123,-1.722217,0.164487\H,0

 Normal termination of Gaussian 16 at Sat Apr  5 22:59:58 2025.
 Gaussian 16:  ES64L-G16RevC.01  3-Jul-2019

 ----------------------------------------------------------------------
 #t hf aug-cc-pvdz iop(5/13=1,5/36=2,99/5=2) pseudo=read geom=check gue
 ss=(read,tcheck) scf=(maxcycle=1)
 ----------------------------------------------------------------------
 -----
 title
 -----
 Structure from the checkpoint file:  "diethyl_malonate.chk"
 Charge =  0 Multiplicity = 1

                         Standard orientation:
 ---------------------------------------------------------------------
 Center     Atomic      Atomic             Coordinates (Angstroms)
 Number     Number       Type             X           Y           Z
 ---------------------------------------------------------------------
      1          6           0        1.306354    0.956233   -0.134176
      2          6           0       -1.044968    0.127302    0.167328
      3          6           0        3.886887   -1.608049   -0.254851
      4          6           0       -4.599276   -0.443312   -0.394492
      5          6           0       -0.088316    0.906240   -0.718617
      6          6           0        3.316527   -0.269540    0.153530
      7          6           0       -3.305169   -0.571942    0.375011
      8          8           0        1.744359    1.881556    0.499819
      9          8           0       -0.757253   -0.411532    1.203966
     10          8           0        1.990697   -0.161001   -0.420971
     11          8           0       -2.276334    0.126892   -0.371097
     12          1           0        4.887123   -1.722217    0.164487
     13          1           0        3.266466   -2.424893    0.112600
     14          1           0        3.960144   -1.689656   -1.339244
     15          1           0       -5.395469   -0.960067    0.142386
     16          1           0       -4.886137    0.601847   -0.507648
     17          1           0       -4.512178   -0.886897   -1.386071
     18          1           0       -0.462283    1.922798   -0.825864
     19          1           0       -0.078310    0.440983   -1.704161
     20          1           0        3.919903    0.562400   -0.209284
     21          1           0        3.228446   -0.173746    1.235219
     22          1           0       -2.999534   -1.611161    0.493470
     23          1           0       -3.372156   -0.128302    1.367982
 ---------------------------------------------------------------------

 SCF Done:  E(RHF) =  -572.209435004     A.U. after    2 cycles

 The electronic state is 1-A.
 Alpha  occ. eigenvalues --  -20.59559 -20.58795 -20.54289 -20.53496 -11.40194
 Alpha  occ. eigenvalues --  -11.39233 -11.30429 -11.29644 -11.27268 -11.24091
 Alpha  occ. eigenvalues --  -11.23436  -1.55138  -1.54201  -1.45980  -1.45142
 Alpha  occ. eigenvalues --   -1.09004  -1.05134  -1.02145  -0.89706  -0.86481
 Alpha  occ. eigenvalues --   -0.80799  -0.78311  -0.72474  -0.71314  -0.69803
 Alpha  occ. eigenvalues --   -0.68530  -0.67869  -0.65689  -0.62587  -0.59421
 Alpha  occ. eigenvalues --   -0.57473  -0.57164  -0.56835  -0.56031  -0.54826
 Alpha  occ. eigenvalues --   -0.52434  -0.51703  -0.51514  -0.51178  -0.46231
 Alpha  occ. eigenvalues --   -0.45375  -0.44819  -0.44253
 Alpha virt. eigenvalues --    0.03321   0.03707   0.03949   0.04190   0.04902
 Alpha virt. eigenvalues --    0.05078   0.05432   0.06783   0.07173   0.07375
 Alpha virt. eigenvalues --    0.08102   0.08751   0.10433   0.10964   0.12615

 Mulliken charges:
               1
     1  C    2.473438
     2  C    2.010383
     3  C   -0.462324
     4  C   -0.481814
     5  C   -1.105052
     6  C    0.454645
     7  C    0.319545
     8  O   -1.328785
     9  O   -1.202459
    10  O   -1.346112
    11  O   -1.356365
    12  H    0.158542
    13  H    0.178417
    14  H    0.174243
    15  H    0.155010
    16  H    0.184056
    17  H    0.183779
    18  H    0.253682
    19  H    0.239920
    20  H    0.113637
    21  H    0.124386
    22  H    0.129892
    23  H    0.129337
 Sum of Mulliken charges =   0.00000

 Dipole moment (field-independent basis, Debye):
    X=             -1.3956    Y=             -1.5445    Z=             -2.1938  Tot=              3.0242

 Test job not archived.
 1\1\GINC-SE364\SP\RHF\Aug-CC-pVDZ\C7H12O4\OHZDE\05-Apr-2025\0\\#t hf a
 ug-cc-pvdz iop(5/13=1,5/36=2,99/5=2) pseudo=read geom=check guess=(rea
 d,tcheck) scf=(maxcycle=1)\\title\\0,1\C,0,1.306354,0.956233,-0.134176
 \C,0,-1.044968,0.127302,0.167328\C,0,3.886887,-1.608049,-0.254851\C,0,
 -4.599276,-0.443312,-0.394492\C,0,-0.088316,0.90624,-0.718617\C,0,3.31
 6527,-0.26954,0.15353\C,0,-3.305169,-0.571942,0.375011\O,0,1.744359,1.
 881556,0.499819\O,0,-0.757253,-0.411532,1.203966\O,0,1.990697,-0.16100
 1,-0.420971\O,0,-2.276334,0.126892,-0.371097\H,0,4.887123,-1.722217,0.

 Normal termination of Gaussian 16 at Sat Apr  5 23:00:11 2025.
