 Gaussian 16, Revision C.01,

 ----------------------------------------------------------------------
 #t hf aug-cc-pvdz symm=none int=(grid=ultrafine) guess=(read,tcheck) s
 table=(opt,rrhf)
 ----------------------------------------------------------------------
 -----
 title
 -----
 Symbolic Z-matrix:
 Charge =  0 Multiplicity = 1

 SCF Done:  E(RHF) =  -306.947682425     A.U. after   11 cycles

 1\1\GINC-SE176\Stability\RHF\Aug-CC-pVDZ\C4H10O2\OHZDE\05-Apr-2025\0\\
 #t hf aug-cc-pvdz symm=none int=(grid=ultrafine) guess=(read,tcheck) s
 table=(opt,rrhf)\\title\\0,1\O,0,-0.015813,0.731327,0.\O,0,0.015813,-0
 .731327,0.\C,0,-1.344283,-1.140143,0.\H,0,-1.844417,-0.742104,0.887786
 \C,0,1.344283,1.140143,0.\H,0,1.844417,0.742104,-0.887786\H,0,1.844417
 ,0.742104,0.887786\C,0,1.344283,2.657005,0.\C,0,-1.344283,-2.657005,0.
 \H,0,-1.844417,-0.742104,-0.887786\H,0,0.842512,3.047916,-0.884749\H,0
 ,0.842512,3.047916,0.884749\H,0,2.372433,3.01989,0.\H,0,-0.842512,-3.0

 Normal termination of Gaussian 16 at Sat Apr  5 22:58:35 2025.
 Gaussian 16:  ES64L-G16RevC.01  3-Jul-2019

 ----------------------------------------------------------------------
 #t hf aug-cc-pvdz iop(5/13=1,5/36=2,99/5=2) pseudo=read geom=check gue
 ss=(read,tcheck) scf=(maxcycle=1)
 ----------------------------------------------------------------------
 -----
 title
 -----
 Structure from the checkpoint file:  "diethyl_peroxide.chk"
 Charge =  0 Multiplicity = 1

                         Standard orientation:
 ---------------------------------------------------------------------
 Center     Atomic      Atomic             Coordinates (Angstroms)
 Number     Number       Type             X           Y           Z
 ---------------------------------------------------------------------
      1          8           0       -0.015813    0.731327    0.000000
      2          8           0        0.015813   -0.731327    0.000000
      3          6           0       -1.344283   -1.140143    0.000000
      4          1           0       -1.844417   -0.742104    0.887786
      5          6           0        1.344283    1.140143    0.000000
      6          1           0        1.844417    0.742104   -0.887786
      7          1           0        1.844417    0.742104    0.887786
      8          6           0        1.344283    2.657005    0.000000
      9          6           0       -1.344283   -2.657005    0.000000
     10          1           0       -1.844417   -0.742104   -0.887786
     11          1           0        0.842512    3.047916   -0.884749
     12          1           0        0.842512    3.047916    0.884749
     13          1           0        2.372433    3.019890    0.000000
     14          1           0       -0.842512   -3.047916   -0.884749
     15          1           0       -0.842512   -3.047916    0.884749
     16          1           0       -2.372433   -3.019890    0.000000
 ---------------------------------------------------------------------

 SCF Done:  E(RHF) =  -307.271040681     A.U. after    2 cycles

 The electronic state is 1-AG.
 Alpha  occ. eigenvalues --  -20.59709 -20.59706 -11.28350 -11.28345 -11.22982
 Alpha  occ. eigenvalues --  -11.22980  -1.56794  -1.30359  -1.02128  -0.99899
 Alpha  occ. eigenvalues --   -0.85358  -0.83095  -0.69058  -0.68140  -0.64222
 Alpha  occ. eigenvalues --   -0.64059  -0.56921  -0.56441  -0.55298  -0.52521
 Alpha  occ. eigenvalues --   -0.52236  -0.51715  -0.47753  -0.47508  -0.40363
 Alpha virt. eigenvalues --    0.04042   0.04114   0.04212   0.04393   0.05791
 Alpha virt. eigenvalues --    0.06047   0.06365   0.07507   0.08239   0.09365
 Alpha virt. eigenvalues --    0.12100   0.12148   0.14284   0.14908   0.15195

 Mulliken charges:
               1
     1  O   -0.825142
     2  O   -0.825142
     3  C    0.680703
     4  H    0.081206
     5  C    0.680703
     6  H    0.081206
     7  H    0.081206
     8  C   -0.515228
     9  C   -0.515228
    10  H    0.081206
    11  H    0.165697
    12  H    0.165697
    13  H    0.165862
    14  H    0.165697
    15  H    0.165697
    16  H    0.165862
 Sum of Mulliken charges =  -0.00000

 Dipole moment (field-independent basis, Debye):
    X=              0.0000    Y=              0.0000    Z=              0.0000  Tot=              0.0000

 Test job not archived.
 1\1\GINC-SE176\SP\RHF\Aug-CC-pVDZ\C4H10O2\OHZDE\05-Apr-2025\0\\#t hf a
 ug-cc-pvdz iop(5/13=1,5/36=2,99/5=2) pseudo=read geom=check guess=(rea
 d,tcheck) scf=(maxcycle=1)\\title\\0,1\O,0,-0.015813,0.731327,0.\O,0,0
 .015813,-0.731327,0.\C,0,-1.344283,-1.140143,0.\H,0,-1.844417,-0.74210
 4,0.887786\C,0,1.344283,1.140143,0.\H,0,1.844417,0.742104,-0.887786\H,
 0,1.844417,0.742104,0.887786\C,0,1.344283,2.657005,0.\C,0,-1.344283,-2
 .657005,0.\H,0,-1.844417,-0.742104,-0.887786\H,0,0.842512,3.047916,-0.
 884749\H,0,0.842512,3.047916,0.884749\H,0,2.372433,3.01989,0.\H,0,-0.8

 Normal termination of Gaussian 16 at Sat Apr  5 22:58:40 2025.
