 Gaussian 16, Revision C.01,

 ----------------------------------------------------------------------
 #t hf aug-cc-pvdz symm=none int=(grid=ultrafine) guess=(read,tcheck) s
 table=(opt,rrhf)
 ----------------------------------------------------------------------
 -----
 title
 -----
 Symbolic Z-matrix:
 Charge =  0 Multiplicity = 1

 SCF Done:  E(RHF) =  -274.493597187     A.U. after   11 cycles
 Normal termination of Gaussian 16 at Sat Apr  5 22:58:24 2025.
 Gaussian 16:  ES64L-G16RevC.01  3-Jul-2019

 ----------------------------------------------------------------------
 #t hf aug-cc-pvdz iop(5/13=1,5/36=2,99/5=2) pseudo=read geom=check gue
 ss=(read,tcheck) scf=(maxcycle=1)
 ----------------------------------------------------------------------
 -----
 title
 -----
 Structure from the checkpoint file:  "difluoroacetylene.chk"
 Charge =  0 Multiplicity = 1

                         Standard orientation:
 ---------------------------------------------------------------------
 Center     Atomic      Atomic             Coordinates (Angstroms)
 Number     Number       Type             X           Y           Z
 ---------------------------------------------------------------------
      1          6           0        0.000000    0.000000    0.591567
      2          6           0        0.000000    0.000000   -0.591567
      3          9           0        0.000000    0.000000    1.877004
      4          9           0        0.000000    0.000000   -1.877004
 ---------------------------------------------------------------------

 SCF Done:  E(RHF) =  -274.748467074     A.U. after    2 cycles

 The electronic state is 1-SGG.
 Alpha  occ. eigenvalues --  -26.55157 -26.55154 -11.36077 -11.35694  -1.68523
 Alpha  occ. eigenvalues --   -1.68190  -1.07902  -0.86059  -0.82250  -0.75088
 Alpha  occ. eigenvalues --   -0.75088  -0.72692  -0.72692  -0.43246  -0.43246
 Alpha virt. eigenvalues --    0.06450   0.06562   0.10658   0.10658   0.12208
 Alpha virt. eigenvalues --    0.12208   0.13351   0.18222   0.26513   0.26616
 Alpha virt. eigenvalues --    0.26616   0.30803   0.30803   0.30973   0.33172

 Mulliken charges:
               1
     1  C    0.628125
     2  C    0.628125
     3  F   -0.628125
     4  F   -0.628125
 Sum of Mulliken charges =   0.00000

 Dipole moment (field-independent basis, Debye):
    X=             -0.0000    Y=             -0.0000    Z=              0.0000  Tot=              0.0000

 Test job not archived.
 1\1\GINC-SE176\SP\RHF\Aug-CC-pVDZ\C2F2\OHZDE\05-Apr-2025\0\\#t hf aug-
 cc-pvdz iop(5/13=1,5/36=2,99/5=2) pseudo=read geom=check guess=(read,t
 check) scf=(maxcycle=1)\\title\\0,1\C,0,0.,0.,0.591567\C,0,0.,0.,-0.59
 1567\F,0,0.,0.,1.877004\F,0,0.,0.,-1.877004\\Version=ES64L-G16RevC.01\
 State=1-SGG\HF=-274.7484671\RMSD=1.036e-02\Dipole=0.,0.,0.\Quadrupole=
 0.1329775,0.1329775,-0.265955,0.,0.,0.\PG=D*H [C*(F1C1.C1F1)]\\@

 Normal termination of Gaussian 16 at Sat Apr  5 22:58:26 2025.
