 Gaussian 16, Revision C.01,

 ----------------------------------------------------------------------
 #t hf aug-cc-pvdz symm=none int=(grid=ultrafine) guess=(read,tcheck) s
 table=(opt,rrhf)
 ----------------------------------------------------------------------
 -----
 title
 -----
 Symbolic Z-matrix:
 Charge =  0 Multiplicity = 1

 SCF Done:  E(RHF) =  -519.485324621     A.U. after   14 cycles
 Normal termination of Gaussian 16 at Sat Apr  5 22:59:03 2025.
 Gaussian 16:  ES64L-G16RevC.01  3-Jul-2019

 ----------------------------------------------------------------------
 #t hf aug-cc-pvdz iop(5/13=1,5/36=2,99/5=2) pseudo=read geom=check gue
 ss=(read,tcheck) scf=(maxcycle=1)
 ----------------------------------------------------------------------
 -----
 title
 -----
 Structure from the checkpoint file:  "difluoroaminomethyl_acetate.chk"
 Charge =  0 Multiplicity = 1

                         Standard orientation:
 ---------------------------------------------------------------------
 Center     Atomic      Atomic             Coordinates (Angstroms)
 Number     Number       Type             X           Y           Z
 ---------------------------------------------------------------------
      1          9           0        2.734032   -0.044650    0.294765
      2          9           0        1.181883    0.979329   -0.865319
      3          8           0       -0.624931   -0.986352    0.049400
      4          8           0       -2.650125   -0.501223   -0.660014
      5          7           0        1.562213   -0.308934   -0.435957
      6          6           0        0.589833   -0.642433    0.639320
      7          6           0       -1.709038   -0.127949   -0.029755
      8          6           0       -1.645992    1.182508    0.711998
      9          1           0        0.536070    0.185170    1.344177
     10          1           0        1.001583   -1.530166    1.114473
     11          1           0       -0.840166    1.812068    0.338768
     12          1           0       -2.596239    1.685000    0.564689
     13          1           0       -1.488346    1.026194    1.780109
 ---------------------------------------------------------------------

 SCF Done:  E(RHF) =  -519.982853362     A.U. after    2 cycles

 The electronic state is 1-A.
 Alpha  occ. eigenvalues --  -26.52328 -26.52051 -20.61967 -20.55299 -15.73483
 Alpha  occ. eigenvalues --  -11.41504 -11.38165 -11.27551  -1.68344  -1.59623
 Alpha  occ. eigenvalues --   -1.56919  -1.48135  -1.18274  -1.04924  -0.97553
 Alpha  occ. eigenvalues --   -0.84430  -0.79638  -0.79260  -0.75921  -0.72376
 Alpha  occ. eigenvalues --   -0.71355  -0.67207  -0.66266  -0.64561  -0.63134
 Alpha  occ. eigenvalues --   -0.62724  -0.60312  -0.57497  -0.55196  -0.53081
 Alpha  occ. eigenvalues --   -0.48534  -0.46044
 Alpha virt. eigenvalues --    0.02810   0.03900   0.04953   0.05287   0.07613
 Alpha virt. eigenvalues --    0.08719   0.09343   0.11208   0.12051   0.13075
 Alpha virt. eigenvalues --    0.13634   0.14467   0.14619   0.15307   0.15788

 Mulliken charges:
               1
     1  F   -0.630858
     2  F   -0.666823
     3  O   -1.383798
     4  O   -1.186796
     5  N    1.347212
     6  C    0.308805
     7  C    1.784012
     8  C   -0.564128
     9  H    0.325064
    10  H    0.033831
    11  H    0.338449
    12  H   -0.000697
    13  H    0.295726
 Sum of Mulliken charges =  -0.00000

 Dipole moment (field-independent basis, Debye):
    X=              0.8079    Y=              1.6075    Z=              3.8610  Tot=              4.2596

 Test job not archived.
 1\1\GINC-SE010\SP\RHF\Aug-CC-pVDZ\C3H5F2N1O2\OHZDE\05-Apr-2025\0\\#t h
 f aug-cc-pvdz iop(5/13=1,5/36=2,99/5=2) pseudo=read geom=check guess=(
 read,tcheck) scf=(maxcycle=1)\\title\\0,1\F,0,2.734032,-0.04465,0.2947
 65\F,0,1.181883,0.979329,-0.865319\O,0,-0.624931,-0.986352,0.0494\O,0,
 -2.650125,-0.501223,-0.660014\N,0,1.562213,-0.308934,-0.435957\C,0,0.5
 89833,-0.642433,0.63932\C,0,-1.709038,-0.127949,-0.029755\C,0,-1.64599
 2,1.182508,0.711998\H,0,0.53607,0.18517,1.344177\H,0,1.001583,-1.53016
 6,1.114473\H,0,-0.840166,1.812068,0.338768\H,0,-2.596239,1.685,0.56468

 Normal termination of Gaussian 16 at Sat Apr  5 23:00:01 2025.
