 Gaussian 16, Revision C.01,

 ----------------------------------------------------------------------
 #t hf aug-cc-pvdz symm=none int=(grid=ultrafine) guess=(read,tcheck) s
 table=(opt,rrhf)
 ----------------------------------------------------------------------
 -----
 title
 -----
 Symbolic Z-matrix:
 Charge =  0 Multiplicity = 1

 SCF Done:  E(RHF) =  -529.804777613     A.U. after   15 cycles
 Normal termination of Gaussian 16 at Sat Apr  5 23:00:07 2025.
 Gaussian 16:  ES64L-G16RevC.01  3-Jul-2019

 ----------------------------------------------------------------------
 #t hf aug-cc-pvdz iop(5/13=1,5/36=2,99/5=2) pseudo=read geom=check gue
 ss=(read,tcheck) scf=(maxcycle=1)
 ----------------------------------------------------------------------
 -----
 title
 -----
 Structure from the checkpoint file:  "difuro3-2-b-2--3--dfuran.chk"
 Charge =  0 Multiplicity = 1

                         Standard orientation:
 ---------------------------------------------------------------------
 Center     Atomic      Atomic             Coordinates (Angstroms)
 Number     Number       Type             X           Y           Z
 ---------------------------------------------------------------------
      1          6           0        0.000000    2.489253    0.832738
      2          6           0       -0.000000   -2.489253    0.832738
      3          6           0        0.000000    2.874720   -0.476647
      4          6           0       -0.000000   -2.874720   -0.476647
      5          6           0        0.000000    1.073622    0.774661
      6          6           0       -0.000000   -1.073622    0.774661
      7          6           0        0.000000    0.706341   -0.549010
      8          6           0       -0.000000   -0.706341   -0.549010
      9          8           0        0.000000    1.799140   -1.343744
     10          8           0       -0.000000   -1.799140   -1.343744
     11          8           0        0.000000   -0.000000    1.629823
     12          1           0        0.000000    3.143332    1.686236
     13          1           0       -0.000000   -3.143332    1.686236
     14          1           0        0.000000    3.840540   -0.946024
     15          1           0       -0.000000   -3.840540   -0.946024
 ---------------------------------------------------------------------

 SCF Done:  E(RHF) =  -530.325207522     A.U. after    2 cycles

 The electronic state is 1-A1.
 Alpha  occ. eigenvalues --  -20.62556 -20.62542 -20.62258 -11.31358 -11.31350
 Alpha  occ. eigenvalues --  -11.30655 -11.30614 -11.29960 -11.29902 -11.26193
 Alpha  occ. eigenvalues --  -11.26175  -1.56336  -1.55232  -1.53981  -1.12462
 Alpha  occ. eigenvalues --   -1.11388  -1.07454  -0.97960  -0.87137  -0.83867
 Alpha  occ. eigenvalues --   -0.81157  -0.79775  -0.73273  -0.70759  -0.69029
 Alpha  occ. eigenvalues --   -0.65708  -0.63655  -0.63557  -0.62891  -0.60608
 Alpha  occ. eigenvalues --   -0.59751  -0.59313  -0.54713  -0.52339  -0.42378
 Alpha  occ. eigenvalues --   -0.39784  -0.38359  -0.27943
 Alpha virt. eigenvalues --    0.03410   0.03450   0.04172   0.04586   0.07884
 Alpha virt. eigenvalues --    0.07962   0.09317   0.10597   0.10656   0.11234
 Alpha virt. eigenvalues --    0.11416   0.11668   0.12497   0.13376   0.13585

 Mulliken charges:
               1
     1  C    0.749383
     2  C    0.749383
     3  C    0.693293
     4  C    0.693293
     5  C    0.560911
     6  C    0.560911
     7  C    1.121888
     8  C    1.121888
     9  O   -1.829676
    10  O   -1.829676
    11  O   -2.050288
    12  H   -0.126992
    13  H   -0.126992
    14  H   -0.143663
    15  H   -0.143663
 Sum of Mulliken charges =   0.00000

 Dipole moment (field-independent basis, Debye):
    X=             -0.0000    Y=              0.0000    Z=              0.7750  Tot=              0.7750

 Test job not archived.
 1\1\GINC-SE115\SP\RHF\Aug-CC-pVDZ\C8H4O3\OHZDE\05-Apr-2025\0\\#t hf au
 g-cc-pvdz iop(5/13=1,5/36=2,99/5=2) pseudo=read geom=check guess=(read
 ,tcheck) scf=(maxcycle=1)\\title\\0,1\C,0,0.,2.489253,0.832738\C,0,0.,
 -2.489253,0.832738\C,0,0.,2.87472,-0.476647\C,0,0.,-2.87472,-0.476647\
 C,0,0.,1.073622,0.774661\C,0,0.,-1.073622,0.774661\C,0,0.,0.706341,-0.
 54901\C,0,0.,-0.706341,-0.54901\O,0,0.,1.79914,-1.343744\O,0,0.,-1.799
 14,-1.343744\O,0,0.,0.,1.629823\H,0,0.,3.143332,1.686236\H,0,0.,-3.143
 332,1.686236\H,0,0.,3.84054,-0.946024\H,0,0.,-3.84054,-0.946024\\Versi

 Normal termination of Gaussian 16 at Sat Apr  5 23:00:13 2025.
