 Gaussian 16, Revision C.01,

 ----------------------------------------------------------------------
 #t hf aug-cc-pvdz symm=none int=(grid=ultrafine) guess=(read,tcheck) s
 table=(opt,rrhf)
 ----------------------------------------------------------------------
 -----
 title
 -----
 Symbolic Z-matrix:
 Charge =  0 Multiplicity = 1

 SCF Done:  E(RHF) =  -627.400791801     A.U. after   14 cycles
 Normal termination of Gaussian 16 at Sat Apr  5 22:58:45 2025.
 Gaussian 16:  ES64L-G16RevC.01  3-Jul-2019

 ----------------------------------------------------------------------
 #t hf aug-cc-pvdz iop(5/13=1,5/36=2,99/5=2) pseudo=read geom=check gue
 ss=(read,tcheck) scf=(maxcycle=1)
 ----------------------------------------------------------------------
 -----
 title
 -----
 Structure from the checkpoint file:  "dihydro-23H-thiophenone.chk"
 Charge =  0 Multiplicity = 1

                         Standard orientation:
 ---------------------------------------------------------------------
 Center     Atomic      Atomic             Coordinates (Angstroms)
 Number     Number       Type             X           Y           Z
 ---------------------------------------------------------------------
      1          6           0       -0.123642    1.418300    0.182281
      2          1           0       -0.576061    2.246214   -0.360785
      3          1           0       -0.140157    1.675948    1.245871
      4          6           0        1.285993    1.069039   -0.279367
      5          1           0        2.029750    1.761665    0.115463
      6          1           0        1.337092    1.113708   -1.368217
      7          6           0        1.580762   -0.362867    0.182655
      8          1           0        1.863237   -0.398574    1.234120
      9          1           0        2.363223   -0.838008   -0.403468
     10          6           0       -1.005756    0.186332    0.018862
     11          8           0       -2.202205    0.172101   -0.051174
     12         16           0        0.019776   -1.300161   -0.042511
 ---------------------------------------------------------------------

 SCF Done:  E(RHF) =  -627.696788382     A.U. after    2 cycles

 The electronic state is 1-A.
 Alpha  occ. eigenvalues --  -93.96273 -20.54720 -11.37315 -11.28692 -11.26498
 Alpha  occ. eigenvalues --  -11.26470  -8.24494  -6.22260  -6.22153  -6.21935
 Alpha  occ. eigenvalues --   -1.48908  -1.15494  -1.02161  -0.97569  -0.83457
 Alpha  occ. eigenvalues --   -0.74695  -0.68874  -0.67662  -0.61403  -0.60791
 Alpha  occ. eigenvalues --   -0.58810  -0.55825  -0.53391  -0.50446  -0.47260
 Alpha  occ. eigenvalues --   -0.40294  -0.37599
 Alpha virt. eigenvalues --    0.02847   0.03618   0.03811   0.05106   0.06380
 Alpha virt. eigenvalues --    0.06482   0.08511   0.09624   0.11805   0.12303
 Alpha virt. eigenvalues --    0.13211   0.13828   0.14537   0.14962   0.15205

 Mulliken charges:
               1
     1  C   -0.433907
     2  H    0.169462
     3  H    0.253550
     4  C   -0.198320
     5  H    0.189616
     6  H    0.113083
     7  C   -0.535313
     8  H    0.173118
     9  H    0.194360
    10  C    0.705590
    11  O   -1.218488
    12  S    0.587248
 Sum of Mulliken charges =  -0.00000

 Dipole moment (field-independent basis, Debye):
    X=              4.1569    Y=              1.9047    Z=              0.3845  Tot=              4.5887

 Test job not archived.
 1\1\GINC-SE220\SP\RHF\Aug-CC-pVDZ\C4H6O1S1\OHZDE\05-Apr-2025\0\\#t hf
 aug-cc-pvdz iop(5/13=1,5/36=2,99/5=2) pseudo=read geom=check guess=(re
 ad,tcheck) scf=(maxcycle=1)\\title\\0,1\C,0,-0.123642,1.4183,0.182281\
 H,0,-0.576061,2.246214,-0.360785\H,0,-0.140157,1.675948,1.245871\C,0,1
 .285993,1.069039,-0.279367\H,0,2.02975,1.761665,0.115463\H,0,1.337092,
 1.113708,-1.368217\C,0,1.580762,-0.362867,0.182655\H,0,1.863237,-0.398
 574,1.23412\H,0,2.363223,-0.838008,-0.403468\C,0,-1.005756,0.186332,0.
 018862\O,0,-2.202205,0.172101,-0.051174\S,0,0.019776,-1.300161,-0.0425

 Normal termination of Gaussian 16 at Sat Apr  5 22:58:51 2025.
