 Gaussian 16, Revision C.01,

 ----------------------------------------------------------------------
 #t hf aug-cc-pvdz symm=none int=(grid=ultrafine) guess=(read,tcheck) s
 table=(opt,rrhf)
 ----------------------------------------------------------------------
 -----
 title
 -----
 Symbolic Z-matrix:
 Charge =  0 Multiplicity = 1

 SCF Done:  E(RHF) =  -627.390807408     A.U. after   15 cycles
 Normal termination of Gaussian 16 at Sat Apr  5 22:58:48 2025.
 Gaussian 16:  ES64L-G16RevC.01  3-Jul-2019

 ----------------------------------------------------------------------
 #t hf aug-cc-pvdz iop(5/13=1,5/36=2,99/5=2) pseudo=read geom=check gue
 ss=(read,tcheck) scf=(maxcycle=1)
 ----------------------------------------------------------------------
 -----
 title
 -----
 Structure from the checkpoint file:  "dihydro-32H-thiophenone.chk"
 Charge =  0 Multiplicity = 1

                         Standard orientation:
 ---------------------------------------------------------------------
 Center     Atomic      Atomic             Coordinates (Angstroms)
 Number     Number       Type             X           Y           Z
 ---------------------------------------------------------------------
      1          6           0       -1.173933   -0.086028   -0.010331
      2          6           0       -0.518527    1.277829   -0.187572
      3          1           0       -1.108936    2.034769    0.327755
      4          1           0       -0.554216    1.502662   -1.257211
      5          6           0        0.925632    1.196028    0.287908
      6          1           0        1.002801    1.342170    1.364887
      7          1           0        1.581138    1.908061   -0.205713
      8          6           0       -0.148546   -1.207971    0.168542
      9         16           0        1.503686   -0.500212   -0.148246
     10          1           0       -0.361636   -2.019932   -0.522700
     11          8           0       -2.361719   -0.281087   -0.009054
     12          1           0       -0.232120   -1.594793    1.186057
 ---------------------------------------------------------------------

 SCF Done:  E(RHF) =  -627.687136792     A.U. after    2 cycles

 The electronic state is 1-A.
 Alpha  occ. eigenvalues --  -93.95577 -20.54857 -11.35563 -11.28655 -11.28321
 Alpha  occ. eigenvalues --  -11.26325  -8.23669  -6.21465  -6.21353  -6.21107
 Alpha  occ. eigenvalues --   -1.48568  -1.14992  -1.02274  -0.96939  -0.83834
 Alpha  occ. eigenvalues --   -0.76052  -0.68209  -0.67523  -0.62561  -0.61524
 Alpha  occ. eigenvalues --   -0.57497  -0.56864  -0.52207  -0.49632  -0.46922
 Alpha  occ. eigenvalues --   -0.41376  -0.36208
 Alpha virt. eigenvalues --    0.03287   0.03859   0.04218   0.04934   0.06262
 Alpha virt. eigenvalues --    0.06657   0.08185   0.09024   0.11374   0.12577
 Alpha virt. eigenvalues --    0.12849   0.14443   0.14882   0.15150   0.15379

 Mulliken charges:
               1
     1  C    1.135698
     2  C   -0.446740
     3  H    0.196550
     4  H    0.271284
     5  C   -0.483582
     6  H    0.180568
     7  H    0.182218
     8  C   -0.861817
     9  S    0.613843
    10  H    0.283116
    11  O   -1.374648
    12  H    0.303510
 Sum of Mulliken charges =  -0.00000

 Dipole moment (field-independent basis, Debye):
    X=              1.4700    Y=              1.4521    Z=              0.5013  Tot=              2.1262

 Test job not archived.
 1\1\GINC-SE013\SP\RHF\Aug-CC-pVDZ\C4H6O1S1\OHZDE\05-Apr-2025\0\\#t hf
 aug-cc-pvdz iop(5/13=1,5/36=2,99/5=2) pseudo=read geom=check guess=(re
 ad,tcheck) scf=(maxcycle=1)\\title\\0,1\C,0,-1.173933,-0.086028,-0.010
 331\C,0,-0.518527,1.277829,-0.187572\H,0,-1.108936,2.034769,0.327755\H
 ,0,-0.554216,1.502662,-1.257211\C,0,0.925632,1.196028,0.287908\H,0,1.0
 02801,1.34217,1.364887\H,0,1.581138,1.908061,-0.205713\C,0,-0.148546,-
 1.207971,0.168542\S,0,1.503686,-0.500212,-0.148246\H,0,-0.361635,-2.01
 9932,-0.5227\O,0,-2.361719,-0.281087,-0.009054\H,0,-0.232119,-1.594793

 Normal termination of Gaussian 16 at Sat Apr  5 22:58:53 2025.
