 Gaussian 16, Revision C.01,

 ----------------------------------------------------------------------
 #t hf aug-cc-pvdz symm=none int=(grid=ultrafine) guess=(read,tcheck) s
 table=(opt,rrhf)
 ----------------------------------------------------------------------
 -----
 title
 -----
 Symbolic Z-matrix:
 Charge =  0 Multiplicity = 1

 SCF Done:  E(RHF) =  -290.420770279     A.U. after   12 cycles

 1\1\GINC-SE190\Stability\RHF\Aug-CC-pVDZ\C6H15N1\OHZDE\05-Apr-2025\0\\
 #t hf aug-cc-pvdz symm=none int=(grid=ultrafine) guess=(read,tcheck) s
 table=(opt,rrhf)\\title\\0,1\C,0,-1.682099,0.843342,1.108925\C,0,-2.32
 9448,-0.758201,-0.729885\C,0,1.677526,1.04013,-0.932617\C,0,2.330696,-
 0.886661,0.546317\C,0,-1.240487,0.173905,-0.201334\C,0,1.245402,0.1379
 72,0.223722\N,0,0.012917,-0.583301,-0.108885\H,0,-2.599081,1.417126,0.
 962026\H,0,-1.878405,0.091069,1.877487\H,0,-0.925163,1.527203,1.49307\
 H,0,-2.033698,-1.190788,-1.684763\H,0,-3.27226,-0.225869,-0.861804\H,0

 Normal termination of Gaussian 16 at Sat Apr  5 22:59:37 2025.
 Gaussian 16:  ES64L-G16RevC.01  3-Jul-2019

 ----------------------------------------------------------------------
 #t hf aug-cc-pvdz iop(5/13=1,5/36=2,99/5=2) pseudo=read geom=check gue
 ss=(read,tcheck) scf=(maxcycle=1)
 ----------------------------------------------------------------------
 -----
 title
 -----
 Structure from the checkpoint file:  "diisopropylamine.chk"
 Charge =  0 Multiplicity = 1

                         Standard orientation:
 ---------------------------------------------------------------------
 Center     Atomic      Atomic             Coordinates (Angstroms)
 Number     Number       Type             X           Y           Z
 ---------------------------------------------------------------------
      1          6           0       -1.682099    0.843342    1.108925
      2          6           0       -2.329448   -0.758201   -0.729885
      3          6           0        1.677526    1.040130   -0.932617
      4          6           0        2.330696   -0.886661    0.546317
      5          6           0       -1.240487    0.173905   -0.201334
      6          6           0        1.245402    0.137972    0.223722
      7          7           0        0.012917   -0.583301   -0.108885
      8          1           0       -2.599081    1.417126    0.962026
      9          1           0       -1.878405    0.091069    1.877487
     10          1           0       -0.925163    1.527203    1.493070
     11          1           0       -2.033698   -1.190788   -1.684763
     12          1           0       -3.272260   -0.225870   -0.861804
     13          1           0       -2.508153   -1.577776   -0.028379
     14          1           0        2.612240    1.547255   -0.688563
     15          1           0        1.827598    0.448053   -1.836881
     16          1           0        0.936364    1.809119   -1.150478
     17          1           0        2.039406   -1.518516    1.388533
     18          1           0        3.264720   -0.390727    0.811648
     19          1           0        2.513905   -1.532110   -0.314411
     20          1           0       -1.083299    0.957612   -0.946157
     21          1           0        1.117881    0.773535    1.113812
     22          1           0       -0.112018   -1.354992    0.536287
 ---------------------------------------------------------------------

 SCF Done:  E(RHF) =  -290.746914435     A.U. after    2 cycles

 The electronic state is 1-A.
 Alpha  occ. eigenvalues --  -15.47245 -11.25458 -11.25432 -11.21920 -11.21827
 Alpha  occ. eigenvalues --  -11.21653 -11.21524  -1.20369  -1.05848  -0.99516
 Alpha  occ. eigenvalues --   -0.93400  -0.93106  -0.81174  -0.78346  -0.68141
 Alpha  occ. eigenvalues --   -0.64381  -0.62592  -0.60512  -0.56999  -0.56455
 Alpha  occ. eigenvalues --   -0.54549  -0.53976  -0.53129  -0.50904  -0.50286
 Alpha  occ. eigenvalues --   -0.48621  -0.47880  -0.46874  -0.39089
 Alpha virt. eigenvalues --    0.03734   0.03957   0.04069   0.04290   0.05280
 Alpha virt. eigenvalues --    0.05395   0.05638   0.06037   0.06312   0.08654
 Alpha virt. eigenvalues --    0.08997   0.09347   0.09449   0.10298   0.11753

 Mulliken charges:
               1
     1  C   -0.006814
     2  C    0.095379
     3  C   -0.021145
     4  C   -0.021937
     5  C   -1.762733
     6  C   -1.529037
     7  N    0.962763
     8  H    0.168076
     9  H    0.192173
    10  H    0.114109
    11  H    0.163878
    12  H    0.143486
    13  H    0.174621
    14  H    0.134003
    15  H    0.217297
    16  H    0.127475
    17  H    0.101525
    18  H    0.148452
    19  H    0.250337
    20  H   -0.007426
    21  H    0.068955
    22  H    0.286564
 Sum of Mulliken charges =  -0.00000

 Dipole moment (field-independent basis, Debye):
    X=             -0.1363    Y=              0.4525    Z=              0.8742  Tot=              0.9938

 Test job not archived.
 1\1\GINC-SE190\SP\RHF\Aug-CC-pVDZ\C6H15N1\OHZDE\05-Apr-2025\0\\#t hf a
 ug-cc-pvdz iop(5/13=1,5/36=2,99/5=2) pseudo=read geom=check guess=(rea
 d,tcheck) scf=(maxcycle=1)\\title\\0,1\C,0,-1.682099,0.843342,1.108925
 \C,0,-2.329448,-0.758201,-0.729885\C,0,1.677526,1.04013,-0.932617\C,0,
 2.330696,-0.886661,0.546317\C,0,-1.240487,0.173905,-0.201334\C,0,1.245
 402,0.137972,0.223722\N,0,0.012917,-0.583301,-0.108885\H,0,-2.599081,1
 .417126,0.962026\H,0,-1.878405,0.091069,1.877487\H,0,-0.925163,1.52720
 3,1.49307\H,0,-2.033698,-1.190788,-1.684763\H,0,-3.27226,-0.225869,-0.

 Normal termination of Gaussian 16 at Sat Apr  5 23:00:07 2025.
