 Gaussian 16, Revision C.01,

 ----------------------------------------------------------------------
 #t hf aug-cc-pvdz symm=none int=(grid=ultrafine) guess=(read,tcheck) s
 table=(opt,rrhf)
 ----------------------------------------------------------------------
 -----
 title
 -----
 Symbolic Z-matrix:
 Charge =  0 Multiplicity = 1

 SCF Done:  E(RHF) =  -860.669715286     A.U. after   13 cycles
 Normal termination of Gaussian 16 at Sat Apr  5 23:04:19 2025.
 Gaussian 16:  ES64L-G16RevC.01  3-Jul-2019

 ----------------------------------------------------------------------
 #t hf aug-cc-pvdz iop(5/13=1,5/36=2,99/5=2) pseudo=read geom=check gue
 ss=(read,tcheck) scf=(maxcycle=1)
 ----------------------------------------------------------------------
 -----
 title
 -----
 Structure from the checkpoint file:  "diisobutyl_sulfone.chk"
 Charge =  0 Multiplicity = 1

                         Standard orientation:
 ---------------------------------------------------------------------
 Center     Atomic      Atomic             Coordinates (Angstroms)
 Number     Number       Type             X           Y           Z
 ---------------------------------------------------------------------
      1          6           0       -1.420834    0.793414   -0.007311
      2         16           0       -0.000000   -0.346947   -0.000010
      3          6           0       -2.762715    0.095086    0.252798
      4          6           0        1.420834    0.793414    0.007287
      5          8           0       -0.034424   -1.089441    1.260830
      6          8           0        0.034424   -1.089442   -1.260849
      7          6           0       -3.806859    1.145917    0.648578
      8          6           0       -3.239642   -0.730464   -0.945570
      9          6           0        2.762718    0.095073   -0.252778
     10          6           0        3.806866    1.145882   -0.648603
     11          6           0        3.239634   -0.730417    0.945635
     12          1           0       -1.201428    1.513412    0.781999
     13          1           0       -1.403435    1.302515   -0.971723
     14          1           0       -2.618202   -0.575090    1.103169
     15          1           0        1.201441    1.513390   -0.782045
     16          1           0        1.403420    1.302541    0.971685
     17          1           0       -4.763693    0.667778    0.861289
     18          1           0       -3.504390    1.699334    1.539005
     19          1           0       -3.969663    1.865389   -0.157619
     20          1           0       -3.398705   -0.091329   -1.817765
     21          1           0       -2.520753   -1.498674   -1.222382
     22          1           0       -4.188123   -1.215944   -0.712598
     23          1           0        2.618210   -0.575147   -1.103115
     24          1           0        4.763704    0.667732   -0.861274
     25          1           0        3.504408    1.699247   -1.539066
     26          1           0        3.969659    1.865400    0.157555
     27          1           0        3.398692   -0.091241    1.817801
     28          1           0        2.520742   -1.498613    1.222481
     29          1           0        4.188116   -1.215910    0.712694
 ---------------------------------------------------------------------

 SCF Done:  E(RHF) =  -861.229949572     A.U. after    2 cycles

 The electronic state is 1-A.
 Alpha  occ. eigenvalues --  -94.17497 -20.52255 -20.52248 -11.28223 -11.28193
 Alpha  occ. eigenvalues --  -11.25395 -11.25395 -11.23607 -11.23606 -11.22290
 Alpha  occ. eigenvalues --  -11.22288  -8.42880  -6.40974  -6.40774  -6.40699
 Alpha  occ. eigenvalues --   -1.53276  -1.41539  -1.12570  -1.11239  -1.03323
 Alpha  occ. eigenvalues --   -0.96680  -0.94100  -0.94089  -0.84693  -0.79104
 Alpha  occ. eigenvalues --   -0.78874  -0.70052  -0.67574  -0.67554  -0.64219
 Alpha  occ. eigenvalues --   -0.62774  -0.61771  -0.61103  -0.59820  -0.58643
 Alpha  occ. eigenvalues --   -0.56132  -0.55735  -0.54619  -0.54476  -0.51898
 Alpha  occ. eigenvalues --   -0.50473  -0.50191  -0.49307  -0.48740  -0.48738
 Alpha  occ. eigenvalues --   -0.47312  -0.46249  -0.44421  -0.41227
 Alpha virt. eigenvalues --    0.02617   0.03186   0.03425   0.03939   0.04795
 Alpha virt. eigenvalues --    0.04867   0.05205   0.06132   0.06650   0.07297
 Alpha virt. eigenvalues --    0.07588   0.07825   0.07995   0.08248   0.09645

 Mulliken charges:
               1
     1  C   -0.469028
     2  S    3.757904
     3  C   -1.138228
     4  C   -0.469031
     5  O   -1.670630
     6  O   -1.670626
     7  C   -0.070441
     8  C   -0.011685
     9  C   -1.138210
    10  C   -0.070451
    11  C   -0.011687
    12  H    0.133089
    13  H    0.157755
    14  H    0.172350
    15  H    0.133083
    16  H    0.157758
    17  H    0.148148
    18  H    0.137865
    19  H    0.241684
    20  H    0.205221
    21  H    0.118917
    22  H    0.166031
    23  H    0.172348
    24  H    0.148149
    25  H    0.137866
    26  H    0.241686
    27  H    0.205219
    28  H    0.118917
    29  H    0.166030
 Sum of Mulliken charges =  -0.00000

 Dipole moment (field-independent basis, Debye):
    X=             -0.0000    Y=              4.5055    Z=              0.0000  Tot=              4.5055

 Test job not archived.
 1\1\GINC-SE085\SP\RHF\Aug-CC-pVDZ\C8H18O2S1\OHZDE\05-Apr-2025\0\\#t hf
  aug-cc-pvdz iop(5/13=1,5/36=2,99/5=2) pseudo=read geom=check guess=(r
 ead,tcheck) scf=(maxcycle=1)\\title\\0,1\C,0,-1.420834,0.793414,-0.007
 311\S,0,0.,-0.346947,-0.00001\C,0,-2.762715,0.095086,0.252798\C,0,1.42
 0834,0.793414,0.007287\O,0,-0.034424,-1.089441,1.26083\O,0,0.034424,-1
 .089442,-1.260849\C,0,-3.806859,1.145917,0.648578\C,0,-3.239642,-0.730
 464,-0.94557\C,0,2.762718,0.095073,-0.252778\C,0,3.806866,1.145882,-0.
 648603\C,0,3.239634,-0.730417,0.945635\H,0,-1.201428,1.513412,0.781999

 Normal termination of Gaussian 16 at Sat Apr  5 23:05:11 2025.
