 Gaussian 16, Revision C.01,

 ----------------------------------------------------------------------
 #t hf aug-cc-pvdz symm=none int=(grid=ultrafine) guess=(read,tcheck) s
 table=(opt,rrhf)
 ----------------------------------------------------------------------
 -----
 title
 -----
 Symbolic Z-matrix:
 Charge =  0 Multiplicity = 1

 SCF Done:  E(RHF) =  -337.752170121     A.U. after   14 cycles
 Normal termination of Gaussian 16 at Sat Apr  5 22:58:43 2025.
 Gaussian 16:  ES64L-G16RevC.01  3-Jul-2019

 ----------------------------------------------------------------------
 #t hf aug-cc-pvdz iop(5/13=1,5/36=2,99/5=2) pseudo=read geom=check gue
 ss=(read,tcheck) scf=(maxcycle=1)
 ----------------------------------------------------------------------
 -----
 title
 -----
 Structure from the checkpoint file:  "dimethylnitroamine.chk"
 Charge =  0 Multiplicity = 1

                         Standard orientation:
 ---------------------------------------------------------------------
 Center     Atomic      Atomic             Coordinates (Angstroms)
 Number     Number       Type             X           Y           Z
 ---------------------------------------------------------------------
      1          8           0       -0.037714   -1.357944    1.090603
      2          8           0       -0.037714   -1.357944   -1.090603
      3          1           0       -1.093723    1.213482    1.547438
      4          1           0        0.276620    2.273597    1.142183
      5          1           0        0.546613    0.777805    2.052059
      6          6           0       -0.037714    1.240481    1.264007
      7          1           0       -1.093723    1.213482   -1.547438
      8          1           0        0.546613    0.777805   -2.052059
      9          1           0        0.276620    2.273597   -1.142183
     10          6           0       -0.037714    1.240481   -1.264007
     11          7           0        0.022482   -0.802092    0.000000
     12          7           0        0.205657    0.560886   -0.000000
 ---------------------------------------------------------------------

 SCF Done:  E(RHF) =  -338.091247407     A.U. after    2 cycles

 The electronic state is 1-A'.
 Alpha  occ. eigenvalues --  -20.57911 -20.57903 -15.81549 -15.58879 -11.29341
 Alpha  occ. eigenvalues --  -11.29323  -1.67406  -1.50678  -1.31551  -1.05175
 Alpha  occ. eigenvalues --   -1.01633  -0.84488  -0.79859  -0.78273  -0.75776
 Alpha  occ. eigenvalues --   -0.66804  -0.65028  -0.61468  -0.59851  -0.58027
 Alpha  occ. eigenvalues --   -0.51674  -0.47590  -0.45322  -0.44749
 Alpha virt. eigenvalues --    0.02942   0.04368   0.04420   0.05520   0.05774
 Alpha virt. eigenvalues --    0.07461   0.07535   0.08478   0.12433   0.13869
 Alpha virt. eigenvalues --    0.14261   0.14918   0.16210   0.16246   0.18024

 Mulliken charges:
               1
     1  O   -1.319786
     2  O   -1.319786
     3  H    0.199247
     4  H    0.111957
     5  H    0.115169
     6  C   -0.246277
     7  H    0.199247
     8  H    0.115169
     9  H    0.111957
    10  C   -0.246277
    11  N    2.257686
    12  N    0.021694
 Sum of Mulliken charges =  -0.00000

 Dipole moment (field-independent basis, Debye):
    X=             -0.2294    Y=              4.5567    Z=              0.0000  Tot=              4.5625

 Test job not archived.
 1\1\GINC-SE198\SP\RHF\Aug-CC-pVDZ\C2H6N2O2\OHZDE\05-Apr-2025\0\\#t hf
 aug-cc-pvdz iop(5/13=1,5/36=2,99/5=2) pseudo=read geom=check guess=(re
 ad,tcheck) scf=(maxcycle=1)\\title\\0,1\O,0,-0.037714,-1.357944,1.0906
 03\O,0,-0.037714,-1.357944,-1.090603\H,0,-1.093723,1.213482,1.547438\H
 ,0,0.27662,2.273597,1.142183\H,0,0.546613,0.777805,2.052059\C,0,-0.037
 714,1.240481,1.264007\H,0,-1.093723,1.213482,-1.547438\H,0,0.546613,0.
 777805,-2.052059\H,0,0.27662,2.273597,-1.142183\C,0,-0.037714,1.240481
 ,-1.264007\N,0,0.022482,-0.802092,0.\N,0,0.205657,0.560886,0.\\Version

 Normal termination of Gaussian 16 at Sat Apr  5 22:58:48 2025.
