 Gaussian 16, Revision C.01,

 ----------------------------------------------------------------------
 #t hf aug-cc-pvdz symm=none int=(grid=ultrafine) guess=(read,tcheck) s
 table=(opt,rrhf)
 ----------------------------------------------------------------------
 -----
 title
 -----
 Symbolic Z-matrix:
 Charge =  0 Multiplicity = 1

 SCF Done:  E(RHF) =  -701.299579148     A.U. after   13 cycles
 Normal termination of Gaussian 16 at Sat Apr  5 22:58:46 2025.
 Gaussian 16:  ES64L-G16RevC.01  3-Jul-2019

 ----------------------------------------------------------------------
 #t hf aug-cc-pvdz iop(5/13=1,5/36=2,99/5=2) pseudo=read geom=check gue
 ss=(read,tcheck) scf=(maxcycle=1)
 ----------------------------------------------------------------------
 -----
 title
 -----
 Structure from the checkpoint file:  "dimethoxysulfoxide.chk"
 Charge =  0 Multiplicity = 1

                         Standard orientation:
 ---------------------------------------------------------------------
 Center     Atomic      Atomic             Coordinates (Angstroms)
 Number     Number       Type             X           Y           Z
 ---------------------------------------------------------------------
      1         16           0        0.000000   -0.857107   -0.318004
      2          8           0        0.000000   -1.053613    1.137761
      3          8           0        1.279962    0.121780   -0.679264
      4          8           0       -1.279962    0.121780   -0.679265
      5          6           0        1.785232    1.045978    0.304035
      6          6           0       -1.785232    1.045978    0.304035
      7          1           0        2.837899    1.182815    0.071216
      8          1           0       -2.837900    1.182815    0.071215
      9          1           0        1.263493    1.999548    0.224505
     10          1           0        1.675420    0.638837    1.307173
     11          1           0       -1.675421    0.638836    1.307172
     12          1           0       -1.263493    1.999547    0.224506
 ---------------------------------------------------------------------

 SCF Done:  E(RHF) =  -701.665858218     A.U. after    2 cycles

 The electronic state is 1-A.
 Alpha  occ. eigenvalues --  -94.17454 -20.59403 -20.59398 -20.54046 -11.30424
 Alpha  occ. eigenvalues --  -11.30419  -8.42866  -6.40656  -6.40569  -6.40222
 Alpha  occ. eigenvalues --   -1.56345  -1.47577  -1.44347  -1.02607  -0.95535
 Alpha  occ. eigenvalues --   -0.86038  -0.72961  -0.70722  -0.67926  -0.65332
 Alpha  occ. eigenvalues --   -0.63751  -0.63577  -0.57114  -0.54432  -0.52198
 Alpha  occ. eigenvalues --   -0.50248  -0.47227  -0.46063  -0.42308
 Alpha virt. eigenvalues --    0.03411   0.04004   0.05423   0.05719   0.07528
 Alpha virt. eigenvalues --    0.07832   0.07854   0.10400   0.11034   0.11167
 Alpha virt. eigenvalues --    0.14056   0.15347   0.15857   0.16535   0.17347

 Mulliken charges:
               1
     1  S    2.799132
     2  O   -1.307786
     3  O   -1.354940
     4  O   -1.354940
     5  C    0.282449
     6  C    0.282450
     7  H    0.008513
     8  H    0.008517
     9  H    0.144170
    10  H    0.174135
    11  H    0.174133
    12  H    0.144167
 Sum of Mulliken charges =  -0.00000

 Dipole moment (field-independent basis, Debye):
    X=             -0.0000    Y=              2.5974    Z=              0.2150  Tot=              2.6063

 Test job not archived.
 1\1\GINC-SE194\SP\RHF\Aug-CC-pVDZ\C2H6O3S1\OHZDE\05-Apr-2025\0\\#t hf
 aug-cc-pvdz iop(5/13=1,5/36=2,99/5=2) pseudo=read geom=check guess=(re
 ad,tcheck) scf=(maxcycle=1)\\title\\0,1\S,0,0.,-0.857107,-0.318004\O,0
 ,0.,-1.053613,1.137761\O,0,1.279962,0.12178,-0.679264\O,0,-1.279962,0.
 12178,-0.679265\C,0,1.785232,1.045978,0.304035\C,0,-1.785232,1.045978,
 0.304035\H,0,2.837899,1.182815,0.071216\H,0,-2.8379,1.182815,0.071215\
 H,0,1.263493,1.999548,0.224505\H,0,1.67542,0.638837,1.307173\H,0,-1.67
 5421,0.638836,1.307172\H,0,-1.263493,1.999547,0.224506\\Version=ES64L-

 Normal termination of Gaussian 16 at Sat Apr  5 22:58:50 2025.
