 Gaussian 16, Revision C.01,

 ----------------------------------------------------------------------
 #t hf aug-cc-pvdz symm=none int=(grid=ultrafine) guess=(read,tcheck) s
 table=(opt,rrhf)
 ----------------------------------------------------------------------
 -----
 title
 -----
 Symbolic Z-matrix:
 Charge =  0 Multiplicity = 1

 SCF Done:  E(RHF) =  -476.764694378     A.U. after   11 cycles
 Normal termination of Gaussian 16 at Sat Apr  5 22:58:35 2025.
 Gaussian 16:  ES64L-G16RevC.01  3-Jul-2019

 ----------------------------------------------------------------------
 #t hf aug-cc-pvdz iop(5/13=1,5/36=2,99/5=2) pseudo=read geom=check gue
 ss=(read,tcheck) scf=(maxcycle=1)
 ----------------------------------------------------------------------
 -----
 title
 -----
 Structure from the checkpoint file:  "dimethylsulfide.chk"
 Charge =  0 Multiplicity = 1

                         Standard orientation:
 ---------------------------------------------------------------------
 Center     Atomic      Atomic             Coordinates (Angstroms)
 Number     Number       Type             X           Y           Z
 ---------------------------------------------------------------------
      1          6           0        0.000000    1.391186   -0.512622
      2          6           0       -0.000000   -1.391186   -0.512622
      3         16           0        0.000000   -0.000000    0.659277
      4          1           0        0.891412    1.376095   -1.138641
      5          1           0        0.000000    2.304501    0.078799
      6          1           0       -0.891412    1.376095   -1.138641
      7          1           0        0.891412   -1.376095   -1.138641
      8          1           0       -0.891412   -1.376095   -1.138641
      9          1           0       -0.000000   -2.304501    0.078799
 ---------------------------------------------------------------------

 SCF Done:  E(RHF) =  -476.917087326     A.U. after    2 cycles

 The electronic state is 1-A1.
 Alpha  occ. eigenvalues --  -93.93848 -11.26195 -11.26167  -8.21927  -6.19760
 Alpha  occ. eigenvalues --   -6.19601  -6.19373  -1.08025  -0.95814  -0.82640
 Alpha  occ. eigenvalues --   -0.61093  -0.60868  -0.58623  -0.57249  -0.50268
 Alpha  occ. eigenvalues --   -0.44204  -0.34314
 Alpha virt. eigenvalues --    0.03678   0.04114   0.05002   0.05473   0.07298
 Alpha virt. eigenvalues --    0.07787   0.08844   0.13246   0.13914   0.14996
 Alpha virt. eigenvalues --    0.15473   0.16050   0.17076   0.17283   0.17632

 Mulliken charges:
               1
     1  C   -0.676329
     2  C   -0.676329
     3  S    0.346211
     4  H    0.181048
     5  H    0.141127
     6  H    0.181048
     7  H    0.181048
     8  H    0.181048
     9  H    0.141127
 Sum of Mulliken charges =   0.00000

 Dipole moment (field-independent basis, Debye):
    X=              0.0000    Y=              0.0000    Z=             -1.8223  Tot=              1.8223

 Test job not archived.
 1\1\GINC-SE213\SP\RHF\Aug-CC-pVDZ\C2H6S1\OHZDE\05-Apr-2025\0\\#t hf au
 g-cc-pvdz iop(5/13=1,5/36=2,99/5=2) pseudo=read geom=check guess=(read
 ,tcheck) scf=(maxcycle=1)\\title\\0,1\C,0,0.,1.391186,-0.512622\C,0,0.
 ,-1.391186,-0.512622\S,0,0.,0.,0.659277\H,0,0.891412,1.376095,-1.13864
 1\H,0,0.,2.304501,0.078799\H,0,-0.891412,1.376095,-1.138641\H,0,0.8914
 12,-1.376095,-1.138641\H,0,-0.891412,-1.376095,-1.138641\H,0,0.,-2.304
 501,0.078799\\Version=ES64L-G16RevC.01\State=1-A1\HF=-476.9170873\RMSD
 =5.725e-03\Dipole=0.,0.,-0.7169408\Quadrupole=-1.3820859,2.475781,-1.0

 Normal termination of Gaussian 16 at Sat Apr  5 22:58:38 2025.
