 Gaussian 16, Revision C.01,

 ----------------------------------------------------------------------
 #t hf aug-cc-pvdz symm=none int=(grid=ultrafine) guess=(read,tcheck) s
 table=(opt,rrhf)
 ----------------------------------------------------------------------
 -----
 title
 -----
 Symbolic Z-matrix:
 Charge =  0 Multiplicity = 1

 SCF Done:  E(RHF) =  -134.259959328     A.U. after   11 cycles
 Normal termination of Gaussian 16 at Sat Apr  5 22:58:35 2025.
 Gaussian 16:  ES64L-G16RevC.01  3-Jul-2019

 ----------------------------------------------------------------------
 #t hf aug-cc-pvdz iop(5/13=1,5/36=2,99/5=2) pseudo=read geom=check gue
 ss=(read,tcheck) scf=(maxcycle=1)
 ----------------------------------------------------------------------
 -----
 title
 -----
 Structure from the checkpoint file:  "dimethylamine.chk"
 Charge =  0 Multiplicity = 1

                         Standard orientation:
 ---------------------------------------------------------------------
 Center     Atomic      Atomic             Coordinates (Angstroms)
 Number     Number       Type             X           Y           Z
 ---------------------------------------------------------------------
      1          6           0        0.026505   -0.221412    1.216049
      2          6           0        0.026505   -0.221412   -1.216049
      3          7           0        0.026505    0.577608   -0.000000
      4          1           0       -0.798102   -0.949693    1.270491
      5          1           0       -0.034174    0.431778    2.086295
      6          1           0        0.962937   -0.778731    1.284180
      7          1           0       -0.034174    0.431778   -2.086295
      8          1           0       -0.798102   -0.949693   -1.270491
      9          1           0        0.962937   -0.778731   -1.284180
     10          1           0       -0.764915    1.206982    0.000000
 ---------------------------------------------------------------------

 SCF Done:  E(RHF) =  -134.412066462     A.U. after    2 cycles

 The electronic state is 1-A'.
 Alpha  occ. eigenvalues --  -15.48040 -11.24892 -11.24885  -1.19565  -0.95275
 Alpha  occ. eigenvalues --   -0.86506  -0.68520  -0.62609  -0.61758  -0.54654
 Alpha  occ. eigenvalues --   -0.52726  -0.52170  -0.40085
 Alpha virt. eigenvalues --    0.03722   0.04955   0.05163   0.05419   0.06844
 Alpha virt. eigenvalues --    0.06896   0.07732   0.11847   0.14090   0.14450
 Alpha virt. eigenvalues --    0.16027   0.16758   0.16957   0.18194   0.20003

 Mulliken charges:
               1
     1  C   -0.439042
     2  C   -0.439042
     3  N    0.091534
     4  H    0.152626
     5  H    0.022447
     6  H    0.118513
     7  H    0.022447
     8  H    0.152626
     9  H    0.118513
    10  H    0.199375
 Sum of Mulliken charges =  -0.00000

 Dipole moment (field-independent basis, Debye):
    X=             -1.0077    Y=             -0.5213    Z=             -0.0000  Tot=              1.1346

 Test job not archived.
 1\1\GINC-SE046\SP\RHF\Aug-CC-pVDZ\C2H7N1\OHZDE\05-Apr-2025\0\\#t hf au
 g-cc-pvdz iop(5/13=1,5/36=2,99/5=2) pseudo=read geom=check guess=(read
 ,tcheck) scf=(maxcycle=1)\\title\\0,1\C,0,0.026505,-0.221412,1.216049\
 C,0,0.026505,-0.221412,-1.216049\N,0,0.026505,0.577608,0.\H,0,-0.79810
 2,-0.949693,1.270491\H,0,-0.034174,0.431778,2.086295\H,0,0.962937,-0.7
 78731,1.28418\H,0,-0.034174,0.431778,-2.086295\H,0,-0.798102,-0.949693
 ,-1.270491\H,0,0.962937,-0.778731,-1.28418\H,0,-0.764915,1.206982,0.\\
 Version=ES64L-G16RevC.01\State=1-A'\HF=-134.4120665\RMSD=9.129e-03\Dip

 Normal termination of Gaussian 16 at Sat Apr  5 22:58:37 2025.
