 Gaussian 16, Revision C.01,

 ----------------------------------------------------------------------
 #t hf aug-cc-pvdz symm=none int=(grid=ultrafine) guess=(read,tcheck) s
 table=(opt,rrhf)
 ----------------------------------------------------------------------
 -----
 title
 -----
 Symbolic Z-matrix:
 Charge =  0 Multiplicity = 1

 SCF Done:  E(RHF) =  -551.581585076     A.U. after   13 cycles
 Normal termination of Gaussian 16 at Sat Apr  5 23:00:03 2025.
 Gaussian 16:  ES64L-G16RevC.01  3-Jul-2019

 ----------------------------------------------------------------------
 #t hf aug-cc-pvdz iop(5/13=1,5/36=2,99/5=2) pseudo=read geom=check gue
 ss=(read,tcheck) scf=(maxcycle=1)
 ----------------------------------------------------------------------
 -----
 title
 -----
 Structure from the checkpoint file:  "dimethylsulfoxide.chk"
 Charge =  0 Multiplicity = 1

                         Standard orientation:
 ---------------------------------------------------------------------
 Center     Atomic      Atomic             Coordinates (Angstroms)
 Number     Number       Type             X           Y           Z
 ---------------------------------------------------------------------
      1          6           0       -0.259600   -0.785887    1.366100
      2          6           0       -0.259600   -0.785887   -1.366100
      3          8           0        1.100868    1.072126   -0.000000
      4         16           0       -0.259600    0.429008   -0.000000
      5          1           0       -0.208786   -0.213648    2.289139
      6          1           0        0.618458   -1.422179    1.270379
      7          1           0       -1.178748   -1.369415    1.337781
      8          1           0       -1.178748   -1.369415   -1.337781
      9          1           0        0.618458   -1.422179   -1.270379
     10          1           0       -0.208786   -0.213648   -2.289139
 ---------------------------------------------------------------------

 SCF Done:  E(RHF) =  -551.807509323     A.U. after    2 cycles

 The electronic state is 1-A'.
 Alpha  occ. eigenvalues --  -94.06972 -20.49167 -11.27600 -11.27568  -8.33778
 Alpha  occ. eigenvalues --   -6.31625  -6.31508  -6.31288  -1.42343  -1.08367
 Alpha  occ. eigenvalues --   -0.98298  -0.83911  -0.64956  -0.63457  -0.62989
 Alpha  occ. eigenvalues --   -0.59626  -0.56504  -0.55346  -0.51382  -0.41184
 Alpha  occ. eigenvalues --   -0.36508
 Alpha virt. eigenvalues --    0.03004   0.03944   0.04736   0.05413   0.06953
 Alpha virt. eigenvalues --    0.07423   0.08494   0.11632   0.12989   0.13473
 Alpha virt. eigenvalues --    0.14629   0.15053   0.16324   0.16762   0.17081

 Mulliken charges:
               1
     1  C   -0.658910
     2  C   -0.658910
     3  O   -1.455787
     4  S    1.552302
     5  H    0.192787
     6  H    0.207823
     7  H    0.210043
     8  H    0.210043
     9  H    0.207823
    10  H    0.192787
 Sum of Mulliken charges =  -0.00000

 Dipole moment (field-independent basis, Debye):
    X=             -2.8059    Y=             -3.5650    Z=              0.0000  Tot=              4.5368

 Test job not archived.
 1\1\GINC-SE129\SP\RHF\Aug-CC-pVDZ\C2H6O1S1\OHZDE\05-Apr-2025\0\\#t hf
 aug-cc-pvdz iop(5/13=1,5/36=2,99/5=2) pseudo=read geom=check guess=(re
 ad,tcheck) scf=(maxcycle=1)\\title\\0,1\C,0,-0.2596,-0.785887,1.3661\C
 ,0,-0.2596,-0.785887,-1.3661\O,0,1.100868,1.072126,0.\S,0,-0.2596,0.42
 9008,0.\H,0,-0.208786,-0.213648,2.289139\H,0,0.618458,-1.422179,1.2703
 79\H,0,-1.178748,-1.369415,1.337781\H,0,-1.178748,-1.369415,-1.337781\
 H,0,0.618458,-1.422179,-1.270379\H,0,-0.208786,-0.213648,-2.289139\\Ve
 rsion=ES64L-G16RevC.01\State=1-A'\HF=-551.8075093\RMSD=6.289e-03\Dipol

 Normal termination of Gaussian 16 at Sat Apr  5 23:00:08 2025.
