 Gaussian 16, Revision C.01,

 ----------------------------------------------------------------------
 #t hf aug-cc-pvdz symm=none int=(grid=ultrafine) guess=(read,tcheck) s
 table=(opt,rrhf)
 ----------------------------------------------------------------------
 -----
 title
 -----
 Symbolic Z-matrix:
 Charge =  0 Multiplicity = 1

 SCF Done:  E(RHF) =  -228.859640378     A.U. after   11 cycles
 Normal termination of Gaussian 16 at Sat Apr  5 22:58:37 2025.
 Gaussian 16:  ES64L-G16RevC.01  3-Jul-2019

 ----------------------------------------------------------------------
 #t hf aug-cc-pvdz iop(5/13=1,5/36=2,99/5=2) pseudo=read geom=check gue
 ss=(read,tcheck) scf=(maxcycle=1)
 ----------------------------------------------------------------------
 -----
 title
 -----
 Structure from the checkpoint file:  "dimethylperoxide.chk"
 Charge =  0 Multiplicity = 1

                         Standard orientation:
 ---------------------------------------------------------------------
 Center     Atomic      Atomic             Coordinates (Angstroms)
 Number     Number       Type             X           Y           Z
 ---------------------------------------------------------------------
      1          8           0       -0.437201    0.587681    0.000000
      2          8           0        0.437201   -0.587681    0.000000
      3          6           0       -0.437201   -1.696109    0.000000
      4          1           0       -1.064231   -1.705853    0.894667
      5          6           0        0.437201    1.696109    0.000000
      6          1           0        1.064231    1.705853   -0.894667
      7          1           0        1.064231    1.705853    0.894667
      8          1           0       -0.218746    2.566214    0.000000
      9          1           0        0.218746   -2.566214    0.000000
     10          1           0       -1.064231   -1.705853   -0.894667
 ---------------------------------------------------------------------

 SCF Done:  E(RHF) =  -229.095113192     A.U. after    2 cycles

 The electronic state is 1-AG.
 Alpha  occ. eigenvalues --  -20.60403 -20.60398 -11.28527 -11.28521  -1.57400
 Alpha  occ. eigenvalues --   -1.30687  -0.92727  -0.91540  -0.68172  -0.67525
 Alpha  occ. eigenvalues --   -0.66532  -0.61010  -0.56766  -0.55442  -0.49951
 Alpha  occ. eigenvalues --   -0.48422  -0.40949
 Alpha virt. eigenvalues --    0.03960   0.04480   0.05182   0.05366   0.06699
 Alpha virt. eigenvalues --    0.07330   0.10383   0.13108   0.14489   0.15977
 Alpha virt. eigenvalues --    0.16053   0.16074   0.17635   0.17892   0.20331

 Mulliken charges:
               1
     1  O   -0.729057
     2  O   -0.729057
     3  C    0.436026
     4  H    0.130501
     5  C    0.436026
     6  H    0.130501
     7  H    0.130501
     8  H    0.032029
     9  H    0.032029
    10  H    0.130501
 Sum of Mulliken charges =  -0.00000

 Dipole moment (field-independent basis, Debye):
    X=             -0.0000    Y=              0.0000    Z=             -0.0000  Tot=              0.0000

 Test job not archived.
 1\1\GINC-SE214\SP\RHF\Aug-CC-pVDZ\C2H6O2\OHZDE\05-Apr-2025\0\\#t hf au
 g-cc-pvdz iop(5/13=1,5/36=2,99/5=2) pseudo=read geom=check guess=(read
 ,tcheck) scf=(maxcycle=1)\\title\\0,1\O,0,-0.437201,0.587681,0.\O,0,0.
 437201,-0.587681,0.\C,0,-0.437201,-1.696109,0.\H,0,-1.064231,-1.705853
 ,0.894667\C,0,0.437201,1.696109,0.\H,0,1.064231,1.705853,-0.894667\H,0
 ,1.064231,1.705853,0.894667\H,0,-0.218746,2.566214,0.\H,0,0.218746,-2.
 566214,0.\H,0,-1.064231,-1.705853,-0.894667\\Version=ES64L-G16RevC.01\
 State=1-AG\HF=-229.0951132\RMSD=6.961e-03\Dipole=0.,0.,0.\Quadrupole=-

 Normal termination of Gaussian 16 at Sat Apr  5 22:58:39 2025.
