 Gaussian 16, Revision C.01,

 ----------------------------------------------------------------------
 #t hf aug-cc-pvdz symm=none int=(grid=ultrafine) guess=(read,tcheck) s
 table=(opt,rrhf)
 ----------------------------------------------------------------------
 -----
 title
 -----
 Symbolic Z-matrix:
 Charge =  0 Multiplicity = 1

 SCF Done:  E(RHF) =  -1271.84020806     A.U. after   13 cycles
 Normal termination of Gaussian 16 at Sat Apr  5 22:58:42 2025.
 Gaussian 16:  ES64L-G16RevC.01  3-Jul-2019

 ----------------------------------------------------------------------
 #t hf aug-cc-pvdz iop(5/13=1,5/36=2,99/5=2) pseudo=read geom=check gue
 ss=(read,tcheck) scf=(maxcycle=1)
 ----------------------------------------------------------------------
 -----
 title
 -----
 Structure from the checkpoint file:  "dimethyl_trisulfide.chk"
 Charge =  0 Multiplicity = 1

                         Standard orientation:
 ---------------------------------------------------------------------
 Center     Atomic      Atomic             Coordinates (Angstroms)
 Number     Number       Type             X           Y           Z
 ---------------------------------------------------------------------
      1         16           0        0.000000    0.000000    1.056821
      2         16           0        0.000000    1.684277   -0.162632
      3         16           0       -0.000000   -1.684277   -0.162632
      4          6           0        1.760232    1.865036   -0.616415
      5          6           0       -1.760232   -1.865036   -0.616415
      6          1           0        1.824265    2.768057   -1.223005
      7          1           0       -1.824265   -2.768057   -1.223005
      8          1           0        2.373978    1.976752    0.273229
      9          1           0        2.086891    1.011010   -1.204189
     10          1           0       -2.373978   -1.976752    0.273229
     11          1           0       -2.086891   -1.011010   -1.204189
 ---------------------------------------------------------------------

 SCF Done:  E(RHF) =  -1272.11314892     A.U. after    2 cycles

 The electronic state is 1-A.
 Alpha  occ. eigenvalues --  -93.99554 -93.97532 -93.97531 -11.27343 -11.27341
 Alpha  occ. eigenvalues --   -8.27359  -8.25519  -8.25483  -6.25114  -6.24903
 Alpha  occ. eigenvalues --   -6.24654  -6.23314  -6.23295  -6.23096  -6.23092
 Alpha  occ. eigenvalues --   -6.22869  -6.22869  -1.12940  -1.06683  -0.97999
 Alpha  occ. eigenvalues --   -0.88962  -0.80081  -0.61902  -0.61216  -0.60278
 Alpha  occ. eigenvalues --   -0.59985  -0.56139  -0.50979  -0.48835  -0.47474
 Alpha  occ. eigenvalues --   -0.37718  -0.36856  -0.36023
 Alpha virt. eigenvalues --    0.03684   0.03913   0.05111   0.05192   0.06261
 Alpha virt. eigenvalues --    0.06652   0.07727   0.08585   0.09754   0.12390
 Alpha virt. eigenvalues --    0.12448   0.13909   0.13968   0.14384   0.14661

 Mulliken charges:
               1
     1  S   -0.051032
     2  S    0.141008
     3  S    0.141008
     4  C   -0.714789
     5  C   -0.714789
     6  H    0.176838
     7  H    0.176838
     8  H    0.212285
     9  H    0.210175
    10  H    0.212285
    11  H    0.210175
 Sum of Mulliken charges =  -0.00000

 Dipole moment (field-independent basis, Debye):
    X=             -0.0000    Y=             -0.0000    Z=             -1.3634  Tot=              1.3634

 Test job not archived.
 1\1\GINC-SE226\SP\RHF\Aug-CC-pVDZ\C2H6S3\OHZDE\05-Apr-2025\0\\#t hf au
 g-cc-pvdz iop(5/13=1,5/36=2,99/5=2) pseudo=read geom=check guess=(read
 ,tcheck) scf=(maxcycle=1)\\title\\0,1\S,0,0.,0.,1.056821\S,0,0.,1.6842
 77,-0.162632\S,0,0.,-1.684277,-0.162632\C,0,1.760232,1.865036,-0.61641
 5\C,0,-1.760232,-1.865036,-0.616415\H,0,1.824265,2.768057,-1.223005\H,
 0,-1.824265,-2.768057,-1.223005\H,0,2.373978,1.976752,0.273229\H,0,2.0
 86891,1.01101,-1.204189\H,0,-2.373978,-1.976752,0.273229\H,0,-2.086891
 ,-1.01101,-1.204189\\Version=ES64L-G16RevC.01\State=1-A\HF=-1272.11314

 Normal termination of Gaussian 16 at Sat Apr  5 22:58:49 2025.
