 Gaussian 16, Revision C.01,

 ----------------------------------------------------------------------
 #t hf aug-cc-pvdz symm=none int=(grid=ultrafine) guess=(read,tcheck) s
 table=(opt,rrhf)
 ----------------------------------------------------------------------
 -----
 title
 -----
 Symbolic Z-matrix:
 Charge =  0 Multiplicity = 1

 SCF Done:  E(RHF) =  -967.199223039     A.U. after   14 cycles
 Normal termination of Gaussian 16 at Sat Apr  5 22:58:58 2025.
 Gaussian 16:  ES64L-G16RevC.01  3-Jul-2019

 ----------------------------------------------------------------------
 #t hf aug-cc-pvdz iop(5/13=1,5/36=2,99/5=2) pseudo=read geom=check gue
 ss=(read,tcheck) scf=(maxcycle=1)
 ----------------------------------------------------------------------
 -----
 title
 -----
 Structure from the checkpoint file:  "dimethylcarbamodithioic_acid.chk"
 Charge =  0 Multiplicity = 1

                         Standard orientation:
 ---------------------------------------------------------------------
 Center     Atomic      Atomic             Coordinates (Angstroms)
 Number     Number       Type             X           Y           Z
 ---------------------------------------------------------------------
      1          6           0       -1.974833    0.997968    0.019134
      2          7           0       -1.035538   -0.121579   -0.049562
      3          6           0       -1.596834   -1.468210    0.005922
      4          6           0        0.285310    0.130885   -0.019832
      5         16           0        1.322882   -1.336523    0.009919
      6         16           0        0.951587    1.656130    0.001950
      7          1           0       -1.857982    1.544153    0.955692
      8          1           0       -1.791240    1.695551   -0.795852
      9          1           0       -2.985427    0.605274   -0.050728
     10          1           0       -0.950304   -2.175190   -0.507850
     11          1           0       -1.737185   -1.803323    1.037130
     12          1           0       -2.560576   -1.471415   -0.497443
     13          1           0        2.458114   -0.621579   -0.015256
 ---------------------------------------------------------------------

 SCF Done:  E(RHF) =  -967.498357922     A.U. after    2 cycles

 The electronic state is 1-A.
 Alpha  occ. eigenvalues --  -93.98164 -93.89651 -15.56473 -11.37998 -11.29590
 Alpha  occ. eigenvalues --  -11.28036  -8.26342  -8.17953  -6.24179  -6.24026
 Alpha  occ. eigenvalues --   -6.23808  -6.15829  -6.15500  -6.15403  -1.30672
 Alpha  occ. eigenvalues --   -1.10064  -1.02776  -0.97858  -0.94989  -0.77754
 Alpha  occ. eigenvalues --   -0.69622  -0.68834  -0.64912  -0.59457  -0.59256
 Alpha  occ. eigenvalues --   -0.57214  -0.55698  -0.51269  -0.49433  -0.40579
 Alpha  occ. eigenvalues --   -0.34158  -0.33343
 Alpha virt. eigenvalues --    0.02915   0.04242   0.04423   0.05031   0.05670
 Alpha virt. eigenvalues --    0.06643   0.07119   0.07907   0.08680   0.09832
 Alpha virt. eigenvalues --    0.10893   0.12853   0.13944   0.14514   0.15198

 Mulliken charges:
               1
     1  C   -0.341162
     2  N    1.031750
     3  C   -0.389251
     4  C   -1.498553
     5  S    0.007279
     6  S   -0.018072
     7  H    0.218263
     8  H    0.180616
     9  H   -0.003154
    10  H    0.105932
    11  H    0.192025
    12  H    0.093591
    13  H    0.420736
 Sum of Mulliken charges =  -0.00000

 Dipole moment (field-independent basis, Debye):
    X=             -2.9937    Y=             -2.7971    Z=              0.0239  Tot=              4.0972

 Test job not archived.
 1\1\GINC-SE145\SP\RHF\Aug-CC-pVDZ\C3H7N1S2\OHZDE\05-Apr-2025\0\\#t hf
 aug-cc-pvdz iop(5/13=1,5/36=2,99/5=2) pseudo=read geom=check guess=(re
 ad,tcheck) scf=(maxcycle=1)\\title\\0,1\C,0,-1.974833,0.997968,0.01913
 4\N,0,-1.035538,-0.121579,-0.049562\C,0,-1.596834,-1.46821,0.005922\C,
 0,0.28531,0.130885,-0.019832\S,0,1.322882,-1.336523,0.009919\S,0,0.951
 587,1.65613,0.00195\H,0,-1.857982,1.544153,0.955692\H,0,-1.79124,1.695
 551,-0.795852\H,0,-2.985427,0.605274,-0.050728\H,0,-0.950304,-2.17519,
 -0.50785\H,0,-1.737185,-1.803323,1.03713\H,0,-2.560576,-1.471415,-0.49

 Normal termination of Gaussian 16 at Sat Apr  5 22:59:02 2025.
