 Gaussian 16, Revision C.01,

 ----------------------------------------------------------------------
 #t hf aug-cc-pvdz symm=none int=(grid=ultrafine) guess=(read,tcheck) s
 table=(opt,rrhf)
 ----------------------------------------------------------------------
 -----
 title
 -----
 Symbolic Z-matrix:
 Charge =  0 Multiplicity = 1

 SCF Done:  E(RHF) =  -154.086740856     A.U. after   11 cycles
 Normal termination of Gaussian 16 at Sat Apr  5 22:58:35 2025.
 Gaussian 16:  ES64L-G16RevC.01  3-Jul-2019

 ----------------------------------------------------------------------
 #t hf aug-cc-pvdz iop(5/13=1,5/36=2,99/5=2) pseudo=read geom=check gue
 ss=(read,tcheck) scf=(maxcycle=1)
 ----------------------------------------------------------------------
 -----
 title
 -----
 Structure from the checkpoint file:  "dimethylether.chk"
 Charge =  0 Multiplicity = 1

                         Standard orientation:
 ---------------------------------------------------------------------
 Center     Atomic      Atomic             Coordinates (Angstroms)
 Number     Number       Type             X           Y           Z
 ---------------------------------------------------------------------
      1          6           0        0.000000    1.175422   -0.194884
      2          6           0       -0.000000   -1.175422   -0.194884
      3          8           0        0.000000   -0.000000    0.586687
      4          1           0        0.890246    1.231929   -0.833515
      5          1           0        0.000000    2.021254    0.489588
      6          1           0       -0.890246    1.231929   -0.833515
      7          1           0        0.890246   -1.231929   -0.833515
      8          1           0       -0.890246   -1.231929   -0.833515
      9          1           0       -0.000000   -2.021254    0.489588
 ---------------------------------------------------------------------

 SCF Done:  E(RHF) =  -154.252454377     A.U. after    2 cycles

 The electronic state is 1-A1.
 Alpha  occ. eigenvalues --  -20.54257 -11.27987 -11.27922  -1.45789  -0.97168
 Alpha  occ. eigenvalues --   -0.88000  -0.66057  -0.65312  -0.64371  -0.55798
 Alpha  occ. eigenvalues --   -0.53496  -0.47889  -0.41690
 Alpha virt. eigenvalues --    0.03814   0.04515   0.05255   0.05525   0.07341
 Alpha virt. eigenvalues --    0.07929   0.10486   0.14198   0.14597   0.15532
 Alpha virt. eigenvalues --    0.16686   0.17622   0.17887   0.20244   0.22259

 Mulliken charges:
               1
     1  C    0.268719
     2  C    0.268719
     3  O   -1.143767
     4  H    0.159798
     5  H   -0.016432
     6  H    0.159798
     7  H    0.159798
     8  H    0.159798
     9  H   -0.016432
 Sum of Mulliken charges =  -0.00000

 Dipole moment (field-independent basis, Debye):
    X=              0.0000    Y=              0.0000    Z=             -1.3760  Tot=              1.3760

 Test job not archived.
 1\1\GINC-SE199\SP\RHF\Aug-CC-pVDZ\C2H6O1\OHZDE\05-Apr-2025\0\\#t hf au
 g-cc-pvdz iop(5/13=1,5/36=2,99/5=2) pseudo=read geom=check guess=(read
 ,tcheck) scf=(maxcycle=1)\\title\\0,1\C,0,0.,1.175422,-0.194884\C,0,0.
 ,-1.175422,-0.194884\O,0,0.,0.,0.586687\H,0,0.890246,1.231929,-0.83351
 5\H,0,0.,2.021254,0.489588\H,0,-0.890246,1.231929,-0.833515\H,0,0.8902
 46,-1.231929,-0.833515\H,0,-0.890246,-1.231929,-0.833515\H,0,0.,-2.021
 254,0.489588\\Version=ES64L-G16RevC.01\State=1-A1\HF=-154.2524544\RMSD
 =7.065e-03\Dipole=0.,0.,-0.5413416\Quadrupole=-0.3880534,1.6591883,-1.

 Normal termination of Gaussian 16 at Sat Apr  5 22:58:37 2025.
