 Gaussian 16, Revision C.01,

 ----------------------------------------------------------------------
 #t hf aug-cc-pvdz symm=none int=(grid=ultrafine) guess=(read,tcheck) s
 table=(opt,rrhf)
 ----------------------------------------------------------------------
 -----
 title
 -----
 Symbolic Z-matrix:
 Charge =  0 Multiplicity = 1

 SCF Done:  E(RHF) =  -1309.69099014     A.U. after   14 cycles
 Normal termination of Gaussian 16 at Sat Apr  5 22:58:46 2025.
 Gaussian 16:  ES64L-G16RevC.01  3-Jul-2019

 ----------------------------------------------------------------------
 #t hf aug-cc-pvdz iop(5/13=1,5/36=2,99/5=2) pseudo=read geom=check gue
 ss=(read,tcheck) scf=(maxcycle=1)
 ----------------------------------------------------------------------
 -----
 title
 -----
 Structure from the checkpoint file:  "dimethyl_carbonotrithioate.chk"
 Charge =  0 Multiplicity = 1

                         Standard orientation:
 ---------------------------------------------------------------------
 Center     Atomic      Atomic             Coordinates (Angstroms)
 Number     Number       Type             X           Y           Z
 ---------------------------------------------------------------------
      1          6           0        0.000000   -0.000000    0.036614
      2         16           0        0.000000   -0.000000    1.679557
      3         16           0        0.000000    1.427910   -0.995436
      4         16           0       -0.000000   -1.427910   -0.995436
      5          6           0        0.000000    2.795841    0.193673
      6          6           0       -0.000000   -2.795841    0.193673
      7          1           0        0.889349    2.757958    0.816057
      8          1           0        0.889349   -2.757958    0.816057
      9          1           0        0.000000    3.699161   -0.413472
     10          1           0       -0.889349    2.757958    0.816057
     11          1           0       -0.889349   -2.757958    0.816057
     12          1           0       -0.000000   -3.699161   -0.413472
 ---------------------------------------------------------------------

 SCF Done:  E(RHF) =  -1309.99349694     A.U. after    2 cycles

 The electronic state is 1-A1.
 Alpha  occ. eigenvalues --  -93.98266 -93.98251 -93.92672 -11.37942 -11.27822
 Alpha  occ. eigenvalues --  -11.27821  -8.26431  -8.26416  -8.20946  -6.24254
 Alpha  occ. eigenvalues --   -6.24251  -6.24048  -6.24044  -6.23866  -6.23865
 Alpha  occ. eigenvalues --   -6.18796  -6.18527  -6.18371  -1.17352  -1.08482
 Alpha  occ. eigenvalues --   -1.02331  -0.94962  -0.88748  -0.71250  -0.64364
 Alpha  occ. eigenvalues --   -0.61721  -0.60945  -0.60212  -0.58647  -0.53366
 Alpha  occ. eigenvalues --   -0.49599  -0.49154  -0.46684  -0.36864  -0.35416
 Alpha  occ. eigenvalues --   -0.34853
 Alpha virt. eigenvalues --    0.03569   0.03701   0.04052   0.05244   0.06163
 Alpha virt. eigenvalues --    0.06260   0.06964   0.07264   0.09132   0.10336
 Alpha virt. eigenvalues --    0.11921   0.12335   0.13358   0.13848   0.14794

 Mulliken charges:
               1
     1  C   -1.160228
     2  S    0.128146
     3  S    0.623731
     4  S    0.623731
     5  C   -0.733306
     6  C   -0.733306
     7  H    0.250282
     8  H    0.250282
     9  H    0.125052
    10  H    0.250282
    11  H    0.250282
    12  H    0.125052
 Sum of Mulliken charges =   0.00000

 Dipole moment (field-independent basis, Debye):
    X=             -0.0000    Y=              0.0000    Z=             -0.3173  Tot=              0.3173

 Test job not archived.
 1\1\GINC-SE196\SP\RHF\Aug-CC-pVDZ\C3H6S3\OHZDE\05-Apr-2025\0\\#t hf au
 g-cc-pvdz iop(5/13=1,5/36=2,99/5=2) pseudo=read geom=check guess=(read
 ,tcheck) scf=(maxcycle=1)\\title\\0,1\C,0,0.,0.,0.036614\S,0,0.,0.,1.6
 79557\S,0,0.,1.42791,-0.995436\S,0,0.,-1.42791,-0.995436\C,0,0.,2.7958
 41,0.193673\C,0,0.,-2.795841,0.193673\H,0,0.889349,2.757958,0.816057\H
 ,0,0.889349,-2.757958,0.816057\H,0,0.,3.699161,-0.413472\H,0,-0.889349
 ,2.757958,0.816057\H,0,-0.889349,-2.757958,0.816057\H,0,0.,-3.699161,-
 0.413472\\Version=ES64L-G16RevC.01\State=1-A1\HF=-1309.9934969\RMSD=5.

 Normal termination of Gaussian 16 at Sat Apr  5 22:58:49 2025.
