 Gaussian 16, Revision C.01,

 ----------------------------------------------------------------------
 #t hf aug-cc-pvdz symm=none int=(grid=ultrafine) guess=(read,tcheck) s
 table=(opt,rrhf)
 ----------------------------------------------------------------------
 -----
 title
 -----
 Symbolic Z-matrix:
 Charge =  0 Multiplicity = 1

 SCF Done:  E(RHF) =  -874.302228089     A.U. after   13 cycles
 Normal termination of Gaussian 16 at Sat Apr  5 22:58:44 2025.
 Gaussian 16:  ES64L-G16RevC.01  3-Jul-2019

 ----------------------------------------------------------------------
 #t hf aug-cc-pvdz iop(5/13=1,5/36=2,99/5=2) pseudo=read geom=check gue
 ss=(read,tcheck) scf=(maxcycle=1)
 ----------------------------------------------------------------------
 -----
 title
 -----
 Structure from the checkpoint file:  "dimethyldisulfide.chk"
 Charge =  0 Multiplicity = 1

                         Standard orientation:
 ---------------------------------------------------------------------
 Center     Atomic      Atomic             Coordinates (Angstroms)
 Number     Number       Type             X           Y           Z
 ---------------------------------------------------------------------
      1          6           0       -0.975094    1.648785    0.791622
      2          6           0        0.975094   -1.648785    0.791622
      3         16           0       -0.975094    0.343346   -0.490829
      4         16           0        0.975094   -0.343346   -0.490829
      5          1           0       -0.781660    1.231798    1.776638
      6          1           0       -1.975350    2.081790    0.775132
      7          1           0       -0.243016    2.415025    0.551763
      8          1           0        0.781660   -1.231798    1.776638
      9          1           0        1.975350   -2.081790    0.775132
     10          1           0        0.243016   -2.415025    0.551763
 ---------------------------------------------------------------------

 SCF Done:  E(RHF) =  -874.515003045     A.U. after    2 cycles

 The electronic state is 1-A.
 Alpha  occ. eigenvalues --  -93.96822 -93.96815 -11.27041 -11.27040  -8.24782
 Alpha  occ. eigenvalues --   -8.24758  -6.22599  -6.22556  -6.22372  -6.22364
 Alpha  occ. eigenvalues --   -6.22143  -6.22143  -1.11142  -1.02445  -0.91877
 Alpha  occ. eigenvalues --   -0.81017  -0.61783  -0.60643  -0.60412  -0.58839
 Alpha  occ. eigenvalues --   -0.53831  -0.49878  -0.44635  -0.36430  -0.35820
 Alpha virt. eigenvalues --    0.03514   0.03971   0.05095   0.05312   0.06480
 Alpha virt. eigenvalues --    0.07802   0.08672   0.09516   0.12352   0.13723
 Alpha virt. eigenvalues --    0.14109   0.14582   0.15549   0.15706   0.16345

 Mulliken charges:
               1
     1  C   -0.687496
     2  C   -0.687496
     3  S    0.107340
     4  S    0.107340
     5  H    0.184705
     6  H    0.178033
     7  H    0.217416
     8  H    0.184705
     9  H    0.178033
    10  H    0.217416
 Sum of Mulliken charges =   0.00000

 Dipole moment (field-independent basis, Debye):
    X=              0.0000    Y=             -0.0000    Z=              2.3161  Tot=              2.3161

 Test job not archived.
 1\1\GINC-SE177\SP\RHF\Aug-CC-pVDZ\C2H6S2\OHZDE\05-Apr-2025\0\\#t hf au
 g-cc-pvdz iop(5/13=1,5/36=2,99/5=2) pseudo=read geom=check guess=(read
 ,tcheck) scf=(maxcycle=1)\\title\\0,1\C,0,-0.975094,1.648785,0.791622\
 C,0,0.975094,-1.648785,0.791622\S,0,-0.975094,0.343346,-0.490829\S,0,0
 .975094,-0.343346,-0.490829\H,0,-0.78166,1.231798,1.776638\H,0,-1.9753
 5,2.08179,0.775132\H,0,-0.243016,2.415025,0.551763\H,0,0.78166,-1.2317
 98,1.776638\H,0,1.97535,-2.08179,0.775132\H,0,0.243016,-2.415025,0.551
 763\\Version=ES64L-G16RevC.01\State=1-A\HF=-874.515003\RMSD=4.682e-03\

 Normal termination of Gaussian 16 at Sat Apr  5 22:58:48 2025.
