 Gaussian 16, Revision C.01,

 ----------------------------------------------------------------------
 #t hf aug-cc-pvdz symm=none int=(grid=ultrafine) guess=(read,tcheck) s
 table=(opt,rrhf)
 ----------------------------------------------------------------------
 -----
 title
 -----
 Symbolic Z-matrix:
 Charge =  0 Multiplicity = 1

 SCF Done:  E(RHF) =  -341.746610525     A.U. after   13 cycles
 Normal termination of Gaussian 16 at Sat Apr  5 22:58:44 2025.
 Gaussian 16:  ES64L-G16RevC.01  3-Jul-2019

 ----------------------------------------------------------------------
 #t hf aug-cc-pvdz iop(5/13=1,5/36=2,99/5=2) pseudo=read geom=check gue
 ss=(read,tcheck) scf=(maxcycle=1)
 ----------------------------------------------------------------------
 -----
 title
 -----
 Structure from the checkpoint file:  "dimethylcarbonate.chk"
 Charge =  0 Multiplicity = 1

                         Standard orientation:
 ---------------------------------------------------------------------
 Center     Atomic      Atomic             Coordinates (Angstroms)
 Number     Number       Type             X           Y           Z
 ---------------------------------------------------------------------
      1          6           0       -0.000000   -0.000000    0.075891
      2          6           0        0.000000    2.340391   -0.016158
      3          6           0       -0.000000   -2.340391   -0.016158
      4          8           0       -0.000000   -0.000000    1.281653
      5          8           0        0.000000    1.081938   -0.709482
      6          8           0       -0.000000   -1.081938   -0.709482
      7          1           0       -0.887790    2.432734    0.606454
      8          1           0        0.000000    3.096867   -0.794390
      9          1           0        0.887790    2.432734    0.606454
     10          1           0       -0.000000   -3.096867   -0.794390
     11          1           0       -0.887790   -2.432734    0.606454
     12          1           0        0.887790   -2.432734    0.606454
 ---------------------------------------------------------------------

 SCF Done:  E(RHF) =  -342.089741229     A.U. after    2 cycles

 The electronic state is 1-A1.
 Alpha  occ. eigenvalues --  -20.59724 -20.59723 -20.53530 -11.43888 -11.30122
 Alpha  occ. eigenvalues --  -11.30122  -1.58892  -1.49225  -1.45796  -1.01403
 Alpha  occ. eigenvalues --   -0.94497  -0.80264  -0.75765  -0.70940  -0.70577
 Alpha  occ. eigenvalues --   -0.64572  -0.63046  -0.60089  -0.56638  -0.55386
 Alpha  occ. eigenvalues --   -0.53207  -0.47048  -0.46408  -0.46221
 Alpha virt. eigenvalues --    0.03684   0.04159   0.05307   0.05377   0.06388
 Alpha virt. eigenvalues --    0.07042   0.08524   0.11329   0.13185   0.13884
 Alpha virt. eigenvalues --    0.14796   0.15436   0.15549   0.15666   0.17447

 Mulliken charges:
               1
     1  C    2.272721
     2  C    0.155471
     3  C    0.155471
     4  O   -0.908531
     5  O   -1.138235
     6  O   -1.138235
     7  H    0.154599
     8  H   -0.008528
     9  H    0.154599
    10  H   -0.008528
    11  H    0.154599
    12  H    0.154599
 Sum of Mulliken charges =   0.00000

 Dipole moment (field-independent basis, Debye):
    X=             -0.0000    Y=              0.0000    Z=             -0.4471  Tot=              0.4471

 Test job not archived.
 1\1\GINC-SE175\SP\RHF\Aug-CC-pVDZ\C3H6O3\OHZDE\05-Apr-2025\0\\#t hf au
 g-cc-pvdz iop(5/13=1,5/36=2,99/5=2) pseudo=read geom=check guess=(read
 ,tcheck) scf=(maxcycle=1)\\title\\0,1\C,0,0.,0.,0.075891\C,0,0.,2.3403
 91,-0.016158\C,0,0.,-2.340391,-0.016158\O,0,0.,0.,1.281653\O,0,0.,1.08
 1938,-0.709482\O,0,0.,-1.081938,-0.709482\H,0,-0.88779,2.432734,0.6064
 54\H,0,0.,3.096867,-0.79439\H,0,0.88779,2.432734,0.606454\H,0,0.,-3.09
 6867,-0.79439\H,0,-0.88779,-2.432734,0.606454\H,0,0.88779,-2.432734,0.
 606454\\Version=ES64L-G16RevC.01\State=1-A1\HF=-342.0897412\RMSD=7.251

 Normal termination of Gaussian 16 at Sat Apr  5 22:58:48 2025.
