 Gaussian 16, Revision C.01,

 ----------------------------------------------------------------------
 #t hf aug-cc-pvdz symm=none int=(grid=ultrafine) guess=(read,tcheck) s
 table=(opt,rrhf)
 ----------------------------------------------------------------------
 -----
 title
 -----
 Symbolic Z-matrix:
 Charge =  0 Multiplicity = 1

 SCF Done:  E(RHF) =  -267.991564280     A.U. after   11 cycles
 Normal termination of Gaussian 16 at Sat Apr  5 22:58:46 2025.
 Gaussian 16:  ES64L-G16RevC.01  3-Jul-2019

 ----------------------------------------------------------------------
 #t hf aug-cc-pvdz iop(5/13=1,5/36=2,99/5=2) pseudo=read geom=check gue
 ss=(read,tcheck) scf=(maxcycle=1)
 ----------------------------------------------------------------------
 -----
 title
 -----
 Structure from the checkpoint file:  "dimethoxymethane.chk"
 Charge =  0 Multiplicity = 1

                         Standard orientation:
 ---------------------------------------------------------------------
 Center     Atomic      Atomic             Coordinates (Angstroms)
 Number     Number       Type             X           Y           Z
 ---------------------------------------------------------------------
      1          6           0        0.000000    1.856169   -0.553318
      2          6           0       -0.000000   -1.856169   -0.553318
      3          6           0        0.000000    0.000000    0.918263
      4          8           0       -0.768127    0.891716    0.154870
      5          8           0        0.768127   -0.891716    0.154870
      6          1           0        0.611878    2.448681    0.135651
      7          1           0       -0.705463    2.511536   -1.058607
      8          1           0        0.653146    1.386863   -1.291849
      9          1           0       -0.653146   -1.386863   -1.291849
     10          1           0       -0.611878   -2.448681    0.135651
     11          1           0        0.705463   -2.511536   -1.058607
     12          1           0        0.718837    0.541142    1.540958
     13          1           0       -0.718837   -0.541142    1.540958
 ---------------------------------------------------------------------

 SCF Done:  E(RHF) =  -268.271546069     A.U. after    2 cycles

 The electronic state is 1-A.
 Alpha  occ. eigenvalues --  -20.54854 -20.54853 -11.33405 -11.28020 -11.28017
 Alpha  occ. eigenvalues --   -1.49792  -1.43387  -0.98392  -0.93786  -0.84618
 Alpha  occ. eigenvalues --   -0.69633  -0.69283  -0.67795  -0.61341  -0.60549
 Alpha  occ. eigenvalues --   -0.57827  -0.53786  -0.52434  -0.46272  -0.43597
 Alpha  occ. eigenvalues --   -0.43244
 Alpha virt. eigenvalues --    0.03948   0.04286   0.04562   0.04947   0.06810
 Alpha virt. eigenvalues --    0.07159   0.07178   0.08258   0.12295   0.12310
 Alpha virt. eigenvalues --    0.12986   0.15229   0.16000   0.16564   0.16703

 Mulliken charges:
               1
     1  C    0.231483
     2  C    0.231483
     3  C    1.171373
     4  O   -1.222176
     5  O   -1.222176
     6  H    0.163297
     7  H   -0.012201
     8  H    0.180171
     9  H    0.180171
    10  H    0.163297
    11  H   -0.012201
    12  H    0.073739
    13  H    0.073739
 Sum of Mulliken charges =  -0.00000

 Dipole moment (field-independent basis, Debye):
    X=              0.0000    Y=             -0.0000    Z=             -0.1550  Tot=              0.1550

 Test job not archived.
 1\1\GINC-SE194\SP\RHF\Aug-CC-pVDZ\C3H8O2\OHZDE\05-Apr-2025\0\\#t hf au
 g-cc-pvdz iop(5/13=1,5/36=2,99/5=2) pseudo=read geom=check guess=(read
 ,tcheck) scf=(maxcycle=1)\\title\\0,1\C,0,0.,1.856169,-0.553318\C,0,0.
 ,-1.856169,-0.553318\C,0,0.,0.,0.918263\O,0,-0.768127,0.891716,0.15487
 \O,0,0.768127,-0.891716,0.15487\H,0,0.611878,2.448681,0.135651\H,0,-0.
 705463,2.511536,-1.058607\H,0,0.653146,1.386863,-1.291849\H,0,-0.65314
 6,-1.386863,-1.291849\H,0,-0.611878,-2.448681,0.135651\H,0,0.705463,-2
 .511536,-1.058607\H,0,0.718837,0.541142,1.540958\H,0,-0.718837,-0.5411

 Normal termination of Gaussian 16 at Sat Apr  5 22:58:49 2025.
