 Gaussian 16, Revision C.01,

 ----------------------------------------------------------------------
 #t hf aug-cc-pvdz symm=none int=(grid=ultrafine) guess=(read,tcheck) s
 table=(opt,rrhf)
 ----------------------------------------------------------------------
 -----
 title
 -----
 Symbolic Z-matrix:
 Charge =  0 Multiplicity = 1

 SCF Done:  E(RHF) =  -626.436541549     A.U. after   12 cycles
 Normal termination of Gaussian 16 at Sat Apr  5 22:59:11 2025.
 Gaussian 16:  ES64L-G16RevC.01  3-Jul-2019

 ----------------------------------------------------------------------
 #t hf aug-cc-pvdz iop(5/13=1,5/36=2,99/5=2) pseudo=read geom=check gue
 ss=(read,tcheck) scf=(maxcycle=1)
 ----------------------------------------------------------------------
 -----
 title
 -----
 Structure from the checkpoint file:  "dimethylsulfone.chk"
 Charge =  0 Multiplicity = 1

                         Standard orientation:
 ---------------------------------------------------------------------
 Center     Atomic      Atomic             Coordinates (Angstroms)
 Number     Number       Type             X           Y           Z
 ---------------------------------------------------------------------
      1          6           0        0.000000    1.419305   -0.919648
      2          6           0       -0.000000   -1.419305   -0.919648
      3          8           0       -1.263521    0.000000    0.917477
      4          8           0        1.263521   -0.000000    0.917477
      5         16           0       -0.000000   -0.000000    0.188195
      6          1           0        0.000000    2.292780   -0.271559
      7          1           0        0.900388    1.399538   -1.527965
      8          1           0       -0.900388    1.399538   -1.527965
      9          1           0        0.900388   -1.399538   -1.527965
     10          1           0       -0.000000   -2.292780   -0.271559
     11          1           0       -0.900388   -1.399538   -1.527965
 ---------------------------------------------------------------------

 SCF Done:  E(RHF) =  -626.738764241     A.U. after    2 cycles

 The electronic state is 1-A1.
 Alpha  occ. eigenvalues --  -94.19012 -20.53116 -20.53112 -11.29166 -11.29138
 Alpha  occ. eigenvalues --   -8.44337  -6.42443  -6.42235  -6.42185  -1.54434
 Alpha  occ. eigenvalues --   -1.42635  -1.09187  -1.01810  -0.83590  -0.69518
 Alpha  occ. eigenvalues --   -0.68131  -0.67324  -0.62513  -0.62145  -0.60075
 Alpha  occ. eigenvalues --   -0.59033  -0.48672  -0.48450  -0.45388  -0.43675
 Alpha virt. eigenvalues --    0.02646   0.03914   0.04332   0.05389   0.06800
 Alpha virt. eigenvalues --    0.06829   0.09529   0.12057   0.12985   0.13773
 Alpha virt. eigenvalues --    0.14196   0.15580   0.15671   0.15938   0.17258

 Mulliken charges:
               1
     1  C   -0.669983
     2  C   -0.669983
     3  O   -1.495517
     4  O   -1.495517
     5  S    2.901549
     6  H    0.251004
     7  H    0.231861
     8  H    0.231861
     9  H    0.231861
    10  H    0.251004
    11  H    0.231861
 Sum of Mulliken charges =   0.00000

 Dipole moment (field-independent basis, Debye):
    X=             -0.0000    Y=              0.0000    Z=             -5.1700  Tot=              5.1700

 Test job not archived.
 1\1\GINC-SE050\SP\RHF\Aug-CC-pVDZ\C2H6O2S1\OHZDE\05-Apr-2025\0\\#t hf
 aug-cc-pvdz iop(5/13=1,5/36=2,99/5=2) pseudo=read geom=check guess=(re
 ad,tcheck) scf=(maxcycle=1)\\title\\0,1\C,0,0.,1.419305,-0.919648\C,0,
 0.,-1.419305,-0.919648\O,0,-1.263521,0.,0.917477\O,0,1.263521,0.,0.917
 477\S,0,0.,0.,0.188195\H,0,0.,2.29278,-0.271559\H,0,0.900388,1.399538,
 -1.527965\H,0,-0.900388,1.399538,-1.527965\H,0,0.900388,-1.399538,-1.5
 27965\H,0,0.,-2.29278,-0.271559\H,0,-0.900388,-1.399538,-1.527965\\Ver
 sion=ES64L-G16RevC.01\State=1-A1\HF=-626.7387642\RMSD=7.484e-03\Dipole

 Normal termination of Gaussian 16 at Sat Apr  5 23:00:01 2025.
