 Gaussian 16, Revision C.01,

 ----------------------------------------------------------------------
 #t hf aug-cc-pvdz symm=none int=(grid=ultrafine) guess=(read,tcheck) s
 table=(opt,rrhf)
 ----------------------------------------------------------------------
 -----
 title
 -----
 Symbolic Z-matrix:
 Charge =  0 Multiplicity = 1

 SCF Done:  E(RHF) =  -625.204127828     A.U. after   15 cycles
 Normal termination of Gaussian 16 at Sat Apr  5 23:00:05 2025.
 Gaussian 16:  ES64L-G16RevC.01  3-Jul-2019

 ----------------------------------------------------------------------
 #t hf aug-cc-pvdz iop(5/13=1,5/36=2,99/5=2) pseudo=read geom=check gue
 ss=(read,tcheck) scf=(maxcycle=1)
 ----------------------------------------------------------------------
 -----
 title
 -----
 Structure from the checkpoint file:  "dioxathiolane.chk"
 Charge =  0 Multiplicity = 1

                         Standard orientation:
 ---------------------------------------------------------------------
 Center     Atomic      Atomic             Coordinates (Angstroms)
 Number     Number       Type             X           Y           Z
 ---------------------------------------------------------------------
      1         16           0        1.236970    0.049907   -0.108638
      2          8           0        0.170344   -1.178406    0.365430
      3          8           0       -1.065349   -0.869992   -0.353876
      4          6           0       -0.081416    1.306104    0.072269
      5          6           0       -1.371008    0.445059    0.086653
      6          1           0       -0.029247    1.976188   -0.782424
      7          1           0        0.016390    1.873792    0.994257
      8          1           0       -2.117419    0.815604   -0.614952
      9          1           0       -1.786663    0.416113    1.095372
 ---------------------------------------------------------------------

 SCF Done:  E(RHF) =  -625.489200348     A.U. after    2 cycles

 The electronic state is 1-A.
 Alpha  occ. eigenvalues --  -94.00736 -20.63825 -20.62920 -11.31867 -11.29166
 Alpha  occ. eigenvalues --   -8.28300  -6.26116  -6.25910  -6.25612  -1.60033
 Alpha  occ. eigenvalues --   -1.31484  -1.09324  -0.92023  -0.85612  -0.71063
 Alpha  occ. eigenvalues --   -0.69342  -0.64806  -0.62683  -0.56480  -0.53597
 Alpha  occ. eigenvalues --   -0.52453  -0.48738  -0.45343  -0.36563
 Alpha virt. eigenvalues --    0.03271   0.04137   0.04388   0.06628   0.07363
 Alpha virt. eigenvalues --    0.08212   0.10607   0.12036   0.13077   0.14026
 Alpha virt. eigenvalues --    0.14764   0.16103   0.16451   0.16843   0.18923

 Mulliken charges:
               1
     1  S    0.993635
     2  O   -0.723986
     3  O   -0.756558
     4  C   -0.802749
     5  C    0.684208
     6  H    0.217857
     7  H    0.199685
     8  H    0.072971
     9  H    0.114937
 Sum of Mulliken charges =  -0.00000

 Dipole moment (field-independent basis, Debye):
    X=             -1.1790    Y=              3.3440    Z=              0.2835  Tot=              3.5571

 Test job not archived.
 1\1\GINC-SE165\SP\RHF\Aug-CC-pVDZ\C2H4O2S1\OHZDE\05-Apr-2025\0\\#t hf
 aug-cc-pvdz iop(5/13=1,5/36=2,99/5=2) pseudo=read geom=check guess=(re
 ad,tcheck) scf=(maxcycle=1)\\title\\0,1\S,0,1.23697,0.049907,-0.108638
 \O,0,0.170344,-1.178406,0.36543\O,0,-1.065349,-0.869992,-0.353876\C,0,
 -0.081416,1.306104,0.072269\C,0,-1.371008,0.445059,0.086653\H,0,-0.029
 247,1.976188,-0.782424\H,0,0.01639,1.873792,0.994257\H,0,-2.117419,0.8
 15604,-0.614952\H,0,-1.786663,0.416113,1.095372\\Version=ES64L-G16RevC
 .01\State=1-A\HF=-625.4892003\RMSD=8.199e-03\Dipole=-0.4638404,1.31564

 Normal termination of Gaussian 16 at Sat Apr  5 23:00:09 2025.
