 Gaussian 16, Revision C.01,

 ----------------------------------------------------------------------
 #t hf aug-cc-pvdz symm=none int=(grid=ultrafine) guess=(read,tcheck) s
 table=(opt,rrhf)
 ----------------------------------------------------------------------
 -----
 title
 -----
 Symbolic Z-matrix:
 Charge =  0 Multiplicity = 1

 SCF Done:  E(RHF) =  -188.633012641     A.U. after   12 cycles
 Normal termination of Gaussian 16 at Sat Apr  5 23:00:02 2025.
 Gaussian 16:  ES64L-G16RevC.01  3-Jul-2019

 ----------------------------------------------------------------------
 #t hf aug-cc-pvdz iop(5/13=1,5/36=2,99/5=2) pseudo=read geom=check gue
 ss=(read,tcheck) scf=(maxcycle=1)
 ----------------------------------------------------------------------
 -----
 title
 -----
 Structure from the checkpoint file:  "dioxirane.chk"
 Charge =  0 Multiplicity = 1

                         Standard orientation:
 ---------------------------------------------------------------------
 Center     Atomic      Atomic             Coordinates (Angstroms)
 Number     Number       Type             X           Y           Z
 ---------------------------------------------------------------------
      1          6           0        0.000000    0.000000    0.731328
      2          1           0        0.926417   -0.000000    1.301629
      3          1           0       -0.926417    0.000000    1.301629
      4          8           0        0.000000    0.749219   -0.436952
      5          8           0       -0.000000   -0.749219   -0.436952
 ---------------------------------------------------------------------

 SCF Done:  E(RHF) =  -188.814907446     A.U. after    2 cycles

 The electronic state is 1-A1.
 Alpha  occ. eigenvalues --  -20.64076 -20.64070 -11.37972  -1.65473  -1.26447
 Alpha  occ. eigenvalues --   -0.93935  -0.75343  -0.70065  -0.57470  -0.56525
 Alpha  occ. eigenvalues --   -0.52692  -0.47342
 Alpha virt. eigenvalues --    0.03278   0.04714   0.06894   0.09312   0.15421
 Alpha virt. eigenvalues --    0.15724   0.16144   0.19863   0.21173   0.23445
 Alpha virt. eigenvalues --    0.23471   0.23697   0.25377   0.31238   0.32493

 Mulliken charges:
               1
     1  C    1.185741
     2  H    0.110387
     3  H    0.110387
     4  O   -0.703257
     5  O   -0.703257
 Sum of Mulliken charges =   0.00000

 Dipole moment (field-independent basis, Debye):
    X=              0.0000    Y=              0.0000    Z=              2.8006  Tot=              2.8006

 Test job not archived.
 1\1\GINC-SE084\SP\RHF\Aug-CC-pVDZ\C1H2O2\OHZDE\05-Apr-2025\0\\#t hf au
 g-cc-pvdz iop(5/13=1,5/36=2,99/5=2) pseudo=read geom=check guess=(read
 ,tcheck) scf=(maxcycle=1)\\title\\0,1\C,0,0.,0.,0.731328\H,0,0.926417,
 0.,1.301629\H,0,-0.926417,0.,1.301629\O,0,0.,0.749219,-0.436952\O,0,0.
 ,-0.749219,-0.436952\\Version=ES64L-G16RevC.01\State=1-A1\HF=-188.8149
 074\RMSD=9.679e-03\Dipole=0.,0.,1.1018414\Quadrupole=0.1063441,-0.9537
 486,0.8474045,0.,0.,0.\PG=C02V [C2(C1),SGV(O2),SGV'(H2)]\\@

 Normal termination of Gaussian 16 at Sat Apr  5 23:00:04 2025.
