 Gaussian 16, Revision C.01,

 ----------------------------------------------------------------------
 #t hf aug-cc-pvdz symm=none int=(grid=ultrafine) guess=(read,tcheck) s
 table=(opt,rrhf)
 ----------------------------------------------------------------------
 -----
 title
 -----
 Symbolic Z-matrix:
 Charge =  0 Multiplicity = 1

 SCF Done:  E(RHF) =  -932.633679520     A.U. after   16 cycles
 Normal termination of Gaussian 16 at Sat Apr  5 23:06:22 2025.
 Gaussian 16:  ES64L-G16RevC.01  3-Jul-2019

 ----------------------------------------------------------------------
 #t hf aug-cc-pvdz iop(5/13=1,5/36=2,99/5=2) pseudo=read geom=check gue
 ss=(read,tcheck) scf=(maxcycle=1)
 ----------------------------------------------------------------------
 -----
 title
 -----
 Structure from the checkpoint file:  "diphenylsulfoxide.chk"
 Charge =  0 Multiplicity = 1

                         Standard orientation:
 ---------------------------------------------------------------------
 Center     Atomic      Atomic             Coordinates (Angstroms)
 Number     Number       Type             X           Y           Z
 ---------------------------------------------------------------------
      1         16           0       -0.000000    1.198969   -1.022088
      2          8           0       -0.000019    2.525292   -0.313898
      3          6           0       -1.379883    0.233902   -0.310543
      4          6           0       -1.827639   -0.916094   -0.948304
      5          6           0       -2.903944   -1.613131   -0.411977
      6          6           0       -3.530081   -1.148516    0.740491
      7          6           0       -3.084519    0.016906    1.355299
      8          6           0       -2.005880    0.718377    0.827890
      9          6           0        1.379888    0.233926   -0.310531
     10          6           0        2.005793    0.718340    0.827976
     11          6           0        3.084431    0.016873    1.355398
     12          6           0        3.530079   -1.148482    0.740528
     13          6           0        2.904037   -1.613032   -0.412019
     14          6           0        1.827738   -0.915998   -0.948359
     15          1           0       -1.351533   -1.264663   -1.855542
     16          1           0       -3.259487   -2.510929   -0.899140
     17          1           0       -4.371765   -1.688895    1.151883
     18          1           0       -3.580077    0.384290    2.243835
     19          1           0       -1.652216    1.637972    1.273661
     20          1           0        1.652066    1.637890    1.273792
     21          1           0        3.579920    0.384210    2.243992
     22          1           0        4.371760   -1.688857    1.151931
     23          1           0        3.259655   -2.510772   -0.899234
     24          1           0        1.351714   -1.264502   -1.855665
 ---------------------------------------------------------------------

 SCF Done:  E(RHF) =  -933.237611141     A.U. after    2 cycles

 The electronic state is 1-A.
 Alpha  occ. eigenvalues --  -94.07973 -20.50072 -11.27746 -11.27718 -11.26409
 Alpha  occ. eigenvalues --  -11.26398 -11.25776 -11.25771 -11.25690 -11.25686
 Alpha  occ. eigenvalues --  -11.25560 -11.25556 -11.25482 -11.25478  -8.34690
 Alpha  occ. eigenvalues --   -6.32540  -6.32402  -6.32211  -1.43443  -1.18112
 Alpha  occ. eigenvalues --   -1.17374  -1.07562  -1.03557  -1.03491  -1.03357
 Alpha  occ. eigenvalues --   -0.95026  -0.85736  -0.85189  -0.84489  -0.81145
 Alpha  occ. eigenvalues --   -0.73775  -0.72283  -0.66793  -0.66195  -0.65800
 Alpha  occ. eigenvalues --   -0.65002  -0.62338  -0.62118  -0.61467  -0.61185
 Alpha  occ. eigenvalues --   -0.55294  -0.54180  -0.53583  -0.52387  -0.52231
 Alpha  occ. eigenvalues --   -0.51862  -0.51787  -0.42383  -0.40460  -0.36373
 Alpha  occ. eigenvalues --   -0.35796  -0.35235  -0.35093
 Alpha virt. eigenvalues --    0.02756   0.03056   0.03316   0.04244   0.04258
 Alpha virt. eigenvalues --    0.05491   0.05492   0.06824   0.07364   0.07434
 Alpha virt. eigenvalues --    0.08502   0.08687   0.09341   0.09730   0.09844

 Mulliken charges:
               1
     1  S    1.949618
     2  O   -1.713374
     3  C    0.987590
     4  C   -0.178724
     5  C    0.312009
     6  C    0.077398
     7  C    0.518674
     8  C   -0.553567
     9  C    0.987616
    10  C   -0.553564
    11  C    0.518695
    12  C    0.077398
    13  C    0.311949
    14  C   -0.178705
    15  H   -0.267619
    16  H   -0.246043
    17  H   -0.217640
    18  H   -0.224793
    19  H   -0.325419
    20  H   -0.325412
    21  H   -0.224793
    22  H   -0.217639
    23  H   -0.246043
    24  H   -0.267613
 Sum of Mulliken charges =  -0.00000

 Dipole moment (field-independent basis, Debye):
    X=              0.0001    Y=             -4.3731    Z=              0.6123  Tot=              4.4157

 Test job not archived.
 1\1\GINC-SE183\SP\RHF\Aug-CC-pVDZ\C12H10O1S1\OHZDE\05-Apr-2025\0\\#t h
 f aug-cc-pvdz iop(5/13=1,5/36=2,99/5=2) pseudo=read geom=check guess=(
 read,tcheck) scf=(maxcycle=1)\\title\\0,1\S,0,0.,1.198969,-1.022088\O,
 0,-0.000019,2.525292,-0.313898\C,0,-1.379883,0.233902,-0.310543\C,0,-1
 .827639,-0.916094,-0.948304\C,0,-2.903944,-1.613131,-0.411977\C,0,-3.5
 30081,-1.148516,0.740491\C,0,-3.084519,0.016906,1.355299\C,0,-2.00588,
 0.718377,0.82789\C,0,1.379888,0.233926,-0.310531\C,0,2.005793,0.71834,
 0.827976\C,0,3.084431,0.016873,1.355398\C,0,3.530079,-1.148482,0.74052

 Normal termination of Gaussian 16 at Sat Apr  5 23:06:49 2025.
