 Gaussian 16, Revision C.01,

 ----------------------------------------------------------------------
 #t hf aug-cc-pvdz symm=none int=(grid=ultrafine) guess=(read,tcheck) s
 table=(opt,rrhf)
 ----------------------------------------------------------------------
 -----
 title
 -----
 Symbolic Z-matrix:
 Charge =  0 Multiplicity = 1

 SCF Done:  E(RHF) =  -707.729693106     A.U. after   14 cycles
 Normal termination of Gaussian 16 at Sat Apr  5 23:01:37 2025.
 Gaussian 16:  ES64L-G16RevC.01  3-Jul-2019

 ----------------------------------------------------------------------
 #t hf aug-cc-pvdz iop(5/13=1,5/36=2,99/5=2) pseudo=read geom=check gue
 ss=(read,tcheck) scf=(maxcycle=1)
 ----------------------------------------------------------------------
 -----
 title
 -----
 Structure from the checkpoint file:  "dipropyl_sulfoxide.chk"
 Charge =  0 Multiplicity = 1

                         Standard orientation:
 ---------------------------------------------------------------------
 Center     Atomic      Atomic             Coordinates (Angstroms)
 Number     Number       Type             X           Y           Z
 ---------------------------------------------------------------------
      1          6           0       -2.486191   -0.072064    0.552450
      2          6           0       -1.024223    0.142152    0.935317
      3         16           0       -0.047098    0.993348   -0.402402
      4          8           0        0.947086    1.893124    0.293391
      5          6           0       -2.714523   -1.122271   -0.534399
      6          6           0        0.925143   -0.441946   -1.093699
      7          6           0        2.275145   -0.662317   -0.419059
      8          6           0        2.229720   -1.279940    0.977069
      9          1           0       -2.917557    0.881786    0.239294
     10          1           0       -3.024646   -0.367002    1.456918
     11          1           0       -0.533523   -0.786746    1.217820
     12          1           0       -0.928225    0.849831    1.758194
     13          1           0       -2.255162   -0.831273   -1.480484
     14          1           0       -2.300045   -2.089896   -0.243556
     15          1           0       -3.779511   -1.261717   -0.720802
     16          1           0        1.067876   -0.172666   -2.140309
     17          1           0        0.277509   -1.317972   -1.055491
     18          1           0        2.793803    0.296174   -0.372767
     19          1           0        2.859562   -1.304564   -1.083624
     20          1           0        1.774757   -0.601276    1.697093
     21          1           0        1.672070   -2.219643    0.985066
     22          1           0        3.239545   -1.495279    1.327871
 ---------------------------------------------------------------------

 SCF Done:  E(RHF) =  -708.128411307     A.U. after    2 cycles

 The electronic state is 1-A.
 Alpha  occ. eigenvalues --  -94.05508 -20.48469 -11.27111 -11.26913 -11.25172
 Alpha  occ. eigenvalues --  -11.24085 -11.23859 -11.22677  -8.32358  -6.30197
 Alpha  occ. eigenvalues --   -6.30075  -6.29866  -1.41236  -1.10731  -1.07684
 Alpha  occ. eigenvalues --   -1.00203  -0.95573  -0.88033  -0.81966  -0.78910
 Alpha  occ. eigenvalues --   -0.66767  -0.64762  -0.64051  -0.63308  -0.59218
 Alpha  occ. eigenvalues --   -0.58729  -0.56945  -0.55252  -0.54156  -0.52017
 Alpha  occ. eigenvalues --   -0.51526  -0.50710  -0.49437  -0.48815  -0.48697
 Alpha  occ. eigenvalues --   -0.39642  -0.35083
 Alpha virt. eigenvalues --    0.02949   0.03014   0.03345   0.04304   0.04954
 Alpha virt. eigenvalues --    0.05556   0.05925   0.06755   0.07019   0.08041
 Alpha virt. eigenvalues --    0.08620   0.09282   0.09389   0.11111   0.12009

 Mulliken charges:
               1
     1  C   -0.289622
     2  C   -0.660274
     3  S    2.021512
     4  O   -1.626547
     5  C   -0.300906
     6  C   -0.641801
     7  C   -0.273278
     8  C   -0.274281
     9  H    0.158001
    10  H    0.163473
    11  H    0.097333
    12  H    0.182335
    13  H    0.225951
    14  H    0.153036
    15  H    0.050135
    16  H    0.164787
    17  H    0.100858
    18  H    0.185512
    19  H    0.124300
    20  H    0.256292
    21  H    0.161291
    22  H    0.021894
 Sum of Mulliken charges =  -0.00000

 Dipole moment (field-independent basis, Debye):
    X=             -1.9937    Y=             -3.9311    Z=             -0.6139  Tot=              4.4503

 Test job not archived.
 1\1\GINC-SE194\SP\RHF\Aug-CC-pVDZ\C6H14O1S1\OHZDE\05-Apr-2025\0\\#t hf
  aug-cc-pvdz iop(5/13=1,5/36=2,99/5=2) pseudo=read geom=check guess=(r
 ead,tcheck) scf=(maxcycle=1)\\title\\0,1\C,0,-2.486191,-0.072064,0.552
 45\C,0,-1.024223,0.142152,0.935317\S,0,-0.047098,0.993348,-0.402402\O,
 0,0.947086,1.893124,0.293391\C,0,-2.714523,-1.122271,-0.534399\C,0,0.9
 25143,-0.441946,-1.093699\C,0,2.275145,-0.662317,-0.419059\C,0,2.22972
 ,-1.27994,0.977069\H,0,-2.917557,0.881786,0.239294\H,0,-3.024646,-0.36
 7002,1.456918\H,0,-0.533523,-0.786746,1.21782\H,0,-0.928225,0.849831,1

 Normal termination of Gaussian 16 at Sat Apr  5 23:02:24 2025.
