 Gaussian 16, Revision C.01,

 ----------------------------------------------------------------------
 #t hf aug-cc-pvdz symm=none int=(grid=ultrafine) guess=(read,tcheck) s
 table=(opt,rrhf)
 ----------------------------------------------------------------------
 -----
 title
 -----
 Symbolic Z-matrix:
 Charge =  0 Multiplicity = 1

 SCF Done:  E(RHF) =  -414.279139636     A.U. after   17 cycles
 Normal termination of Gaussian 16 at Sat Apr  5 23:00:51 2025.
 Gaussian 16:  ES64L-G16RevC.01  3-Jul-2019

 ----------------------------------------------------------------------
 #t hf aug-cc-pvdz iop(5/13=1,5/36=2,99/5=2) pseudo=read geom=check gue
 ss=(read,tcheck) scf=(maxcycle=1)
 ----------------------------------------------------------------------
 -----
 title
 -----
 Structure from the checkpoint file:  "dipropargylnitrosamine.chk"
 Charge =  0 Multiplicity = 1

                         Standard orientation:
 ---------------------------------------------------------------------
 Center     Atomic      Atomic             Coordinates (Angstroms)
 Number     Number       Type             X           Y           Z
 ---------------------------------------------------------------------
      1          8           0        1.240989    2.316707   -0.287642
      2          7           0        0.074392    0.539266    0.153552
      3          7           0        0.338574    1.835872    0.364116
      4          6           0       -1.018081   -0.017513    0.938595
      5          6           0        0.805026   -0.270810   -0.823168
      6          6           0       -2.168330   -0.409668    0.125287
      7          6           0        1.525451   -1.378278   -0.205251
      8          6           0       -3.106676   -0.740595   -0.542391
      9          6           0        2.105048   -2.294984    0.304845
     10          1           0       -0.653615   -0.880360    1.501749
     11          1           0       -1.300451    0.756689    1.652149
     12          1           0        1.494721    0.413664   -1.317408
     13          1           0        0.099799   -0.648227   -1.567386
     14          1           0       -3.943385   -1.027237   -1.129310
     15          1           0        2.629621   -3.103060    0.750177
 ---------------------------------------------------------------------

 SCF Done:  E(RHF) =  -414.693566706     A.U. after    2 cycles

 The electronic state is 1-A.
 Alpha  occ. eigenvalues --  -20.57812 -15.67876 -15.58257 -11.32259 -11.31569
 Alpha  occ. eigenvalues --  -11.26253 -11.26112 -11.25673 -11.25405  -1.58904
 Alpha  occ. eigenvalues --   -1.31937  -1.10079  -1.09147  -1.02128  -1.00675
 Alpha  occ. eigenvalues --   -0.86654  -0.78810  -0.76965  -0.74196  -0.73986
 Alpha  occ. eigenvalues --   -0.72134  -0.66038  -0.63524  -0.63324  -0.62340
 Alpha  occ. eigenvalues --   -0.60607  -0.45131  -0.44464  -0.42524  -0.41957
 Alpha  occ. eigenvalues --   -0.41861  -0.41304
 Alpha virt. eigenvalues --    0.03065   0.03167   0.04198   0.04826   0.05712
 Alpha virt. eigenvalues --    0.06720   0.07695   0.08879   0.09509   0.09915
 Alpha virt. eigenvalues --    0.10964   0.11174   0.11612   0.11767   0.12821

 Mulliken charges:
               1
     1  O   -1.154370
     2  N    0.264704
     3  N    1.181556
     4  C   -0.957113
     5  C   -0.789338
     6  C    0.547734
     7  C    0.546175
     8  C    0.286409
     9  C    0.252899
    10  H    0.189020
    11  H    0.149997
    12  H    0.149375
    13  H    0.202452
    14  H   -0.430384
    15  H   -0.439115
 Sum of Mulliken charges =  -0.00000

 Dipole moment (field-independent basis, Debye):
    X=             -1.1611    Y=             -3.0077    Z=             -0.0805  Tot=              3.2250

 Test job not archived.
 1\1\GINC-SE183\SP\RHF\Aug-CC-pVDZ\C6H6N2O1\OHZDE\05-Apr-2025\0\\#t hf
 aug-cc-pvdz iop(5/13=1,5/36=2,99/5=2) pseudo=read geom=check guess=(re
 ad,tcheck) scf=(maxcycle=1)\\title\\0,1\O,0,1.240989,2.316707,-0.28764
 2\N,0,0.074392,0.539266,0.153552\N,0,0.338574,1.835872,0.364116\C,0,-1
 .018081,-0.017513,0.938595\C,0,0.805026,-0.27081,-0.823168\C,0,-2.1683
 3,-0.409668,0.125287\C,0,1.525451,-1.378278,-0.205251\C,0,-3.106676,-0
 .740595,-0.542391\C,0,2.105048,-2.294984,0.304845\H,0,-0.653615,-0.880
 36,1.501749\H,0,-1.300451,0.756689,1.652149\H,0,1.494721,0.413664,-1.3

 Normal termination of Gaussian 16 at Sat Apr  5 23:00:59 2025.
