 Gaussian 16, Revision C.01,

 ----------------------------------------------------------------------
 #t hf aug-cc-pvdz symm=none int=(grid=ultrafine) guess=(read,tcheck) s
 table=(opt,rrhf)
 ----------------------------------------------------------------------
 -----
 title
 -----
 Symbolic Z-matrix:
 Charge =  0 Multiplicity = 1

 SCF Done:  E(RHF) =  -290.420573642     A.U. after   11 cycles

 1\1\GINC-SE226\Stability\RHF\Aug-CC-pVDZ\C6H15N1\OHZDE\05-Apr-2025\0\\
 #t hf aug-cc-pvdz symm=none int=(grid=ultrafine) guess=(read,tcheck) s
 table=(opt,rrhf)\\title\\0,1\C,0,0.002905,-0.287931,3.765494\C,0,0.002
 905,-0.287931,-3.765494\C,0,0.002905,0.516132,2.466843\C,0,0.002905,0.
 516132,-2.466843\C,0,0.019045,-0.366124,1.223486\C,0,0.019045,-0.36612
 4,-1.223486\N,0,0.04109,0.425929,0.\H,0,-0.869191,-0.941707,3.829272\H
 ,0,0.892625,-0.916399,3.840202\H,0,-0.011524,0.368209,4.636319\H,0,0.8
 92625,-0.916399,-3.840202\H,0,-0.869191,-0.941707,-3.829272\H,0,-0.011

 Normal termination of Gaussian 16 at Sat Apr  5 23:00:07 2025.
 Gaussian 16:  ES64L-G16RevC.01  3-Jul-2019

 ----------------------------------------------------------------------
 #t hf aug-cc-pvdz iop(5/13=1,5/36=2,99/5=2) pseudo=read geom=check gue
 ss=(read,tcheck) scf=(maxcycle=1)
 ----------------------------------------------------------------------
 -----
 title
 -----
 Structure from the checkpoint file:  "dipropylamine.chk"
 Charge =  0 Multiplicity = 1

                         Standard orientation:
 ---------------------------------------------------------------------
 Center     Atomic      Atomic             Coordinates (Angstroms)
 Number     Number       Type             X           Y           Z
 ---------------------------------------------------------------------
      1          6           0        0.002905   -0.287931    3.765494
      2          6           0        0.002905   -0.287931   -3.765494
      3          6           0        0.002905    0.516132    2.466843
      4          6           0        0.002905    0.516132   -2.466843
      5          6           0        0.019045   -0.366124    1.223486
      6          6           0        0.019045   -0.366124   -1.223486
      7          7           0        0.041090    0.425929   -0.000000
      8          1           0       -0.869191   -0.941707    3.829272
      9          1           0        0.892625   -0.916399    3.840202
     10          1           0       -0.011524    0.368209    4.636319
     11          1           0        0.892625   -0.916399   -3.840202
     12          1           0       -0.869191   -0.941707   -3.829272
     13          1           0       -0.011524    0.368209   -4.636319
     14          1           0        0.868617    1.180978    2.434926
     15          1           0       -0.882182    1.160098    2.437277
     16          1           0       -0.882182    1.160098   -2.437277
     17          1           0        0.868617    1.180978   -2.434926
     18          1           0       -0.839000   -1.059882    1.257260
     19          1           0        0.917482   -0.990937    1.233278
     20          1           0        0.917482   -0.990937   -1.233278
     21          1           0       -0.839000   -1.059882   -1.257260
     22          1           0       -0.739557    1.072851   -0.000000
 ---------------------------------------------------------------------

 SCF Done:  E(RHF) =  -290.747876566     A.U. after    2 cycles

 The electronic state is 1-A'.
 Alpha  occ. eigenvalues --  -15.47592 -11.24757 -11.24751 -11.22349 -11.22340
 Alpha  occ. eigenvalues --  -11.22156 -11.22148  -1.20169  -1.05782  -1.03291
 Alpha  occ. eigenvalues --   -0.93053  -0.87588  -0.81838  -0.79689  -0.68233
 Alpha  occ. eigenvalues --   -0.64104  -0.63381  -0.62917  -0.58256  -0.57106
 Alpha  occ. eigenvalues --   -0.54292  -0.53591  -0.52952  -0.49708  -0.49206
 Alpha  occ. eigenvalues --   -0.48235  -0.47175  -0.46566  -0.39680
 Alpha virt. eigenvalues --    0.03830   0.03868   0.04045   0.04233   0.04709
 Alpha virt. eigenvalues --    0.04937   0.05249   0.06313   0.07893   0.08336
 Alpha virt. eigenvalues --    0.08918   0.08943   0.10106   0.10911   0.10922

 Mulliken charges:
               1
     1  C   -0.342886
     2  C   -0.342886
     3  C   -0.210454
     4  C   -0.210454
     5  C   -0.622726
     6  C   -0.622726
     7  N    0.518098
     8  H    0.160015
     9  H    0.161777
    10  H    0.108301
    11  H    0.161777
    12  H    0.160015
    13  H    0.108301
    14  H    0.161460
    15  H    0.116950
    16  H    0.116950
    17  H    0.161460
    18  H    0.051522
    19  H    0.025952
    20  H    0.025952
    21  H    0.051522
    22  H    0.262080
 Sum of Mulliken charges =   0.00000

 Dipole moment (field-independent basis, Debye):
    X=             -0.8682    Y=             -0.3870    Z=              0.0000  Tot=              0.9506

 Test job not archived.
 1\1\GINC-SE226\SP\RHF\Aug-CC-pVDZ\C6H15N1\OHZDE\05-Apr-2025\0\\#t hf a
 ug-cc-pvdz iop(5/13=1,5/36=2,99/5=2) pseudo=read geom=check guess=(rea
 d,tcheck) scf=(maxcycle=1)\\title\\0,1\C,0,0.002905,-0.287931,3.765494
 \C,0,0.002905,-0.287931,-3.765494\C,0,0.002905,0.516132,2.466843\C,0,0
 .002905,0.516132,-2.466843\C,0,0.019045,-0.366124,1.223486\C,0,0.01904
 5,-0.366124,-1.223486\N,0,0.04109,0.425929,0.\H,0,-0.869191,-0.941707,
 3.829272\H,0,0.892625,-0.916399,3.840202\H,0,-0.011524,0.368209,4.6363
 19\H,0,0.892625,-0.916399,-3.840202\H,0,-0.869191,-0.941707,-3.829272\

 Normal termination of Gaussian 16 at Sat Apr  5 23:00:12 2025.
