 Gaussian 16, Revision C.01,

 ----------------------------------------------------------------------
 #t hf aug-cc-pvdz symm=none int=(grid=ultrafine) guess=(read,tcheck) s
 table=(opt,rrhf)
 ----------------------------------------------------------------------
 -----
 title
 -----
 Symbolic Z-matrix:
 Charge =  0 Multiplicity = 1

 SCF Done:  E(RHF) =  -270.802021299     A.U. after   12 cycles
 Normal termination of Gaussian 16 at Sat Apr  5 23:00:37 2025.
 Gaussian 16:  ES64L-G16RevC.01  3-Jul-2019

 ----------------------------------------------------------------------
 #t hf aug-cc-pvdz iop(5/13=1,5/36=2,99/5=2) pseudo=read geom=check gue
 ss=(read,tcheck) scf=(maxcycle=1)
 ----------------------------------------------------------------------
 -----
 title
 -----
 Structure from the checkpoint file:  "dispiro2-0-2-1heptane.chk"
 Charge =  0 Multiplicity = 1

                         Standard orientation:
 ---------------------------------------------------------------------
 Center     Atomic      Atomic             Coordinates (Angstroms)
 Number     Number       Type             X           Y           Z
 ---------------------------------------------------------------------
      1          6           0        0.000000    0.728728    0.184208
      2          6           0       -0.763274    1.830763   -0.441725
      3          6           0        0.763274    1.830763   -0.441725
      4          6           0       -0.000000   -0.728728    0.184208
      5          6           0       -0.000000   -0.000000    1.493939
      6          6           0       -0.763274   -1.830763   -0.441725
      7          6           0        0.763274   -1.830763   -0.441725
      8          1           0       -1.265756    2.542902    0.199945
      9          1           0       -1.265398    1.641386   -1.381956
     10          1           0        1.265756    2.542902    0.199945
     11          1           0        1.265398    1.641386   -1.381956
     12          1           0       -0.913191    0.000000    2.077660
     13          1           0        0.913191   -0.000000    2.077660
     14          1           0       -1.265398   -1.641386   -1.381956
     15          1           0       -1.265756   -2.542902    0.199945
     16          1           0        1.265398   -1.641386   -1.381956
     17          1           0        1.265756   -2.542902    0.199945
 ---------------------------------------------------------------------

 SCF Done:  E(RHF) =  -271.096545490     A.U. after    2 cycles

 The electronic state is 1-A1.
 Alpha  occ. eigenvalues --  -11.23970 -11.23894 -11.23197 -11.23188 -11.23185
 Alpha  occ. eigenvalues --  -11.23174 -11.23148  -1.18924  -1.11837  -1.03362
 Alpha  occ. eigenvalues --   -0.83311  -0.81929  -0.79042  -0.72580  -0.67947
 Alpha  occ. eigenvalues --   -0.65284  -0.64203  -0.61155  -0.52324  -0.52004
 Alpha  occ. eigenvalues --   -0.51793  -0.46839  -0.45463  -0.40124  -0.39660
 Alpha  occ. eigenvalues --   -0.38843
 Alpha virt. eigenvalues --    0.03725   0.03895   0.03901   0.04102   0.05714
 Alpha virt. eigenvalues --    0.05957   0.06110   0.06272   0.08870   0.09285
 Alpha virt. eigenvalues --    0.10501   0.11450   0.12428   0.12789   0.13750

 Mulliken charges:
               1
     1  C    0.360663
     2  C    0.056987
     3  C    0.056987
     4  C    0.360663
     5  C   -0.309189
     6  C    0.056987
     7  C    0.056987
     8  H   -0.070372
     9  H   -0.081928
    10  H   -0.070372
    11  H   -0.081928
    12  H   -0.015443
    13  H   -0.015443
    14  H   -0.081928
    15  H   -0.070372
    16  H   -0.081928
    17  H   -0.070372
 Sum of Mulliken charges =  -0.00000

 Dipole moment (field-independent basis, Debye):
    X=             -0.0000    Y=              0.0000    Z=              0.0162  Tot=              0.0162

 Test job not archived.
 1\1\GINC-SE226\SP\RHF\Aug-CC-pVDZ\C7H10\OHZDE\05-Apr-2025\0\\#t hf aug
 -cc-pvdz iop(5/13=1,5/36=2,99/5=2) pseudo=read geom=check guess=(read,
 tcheck) scf=(maxcycle=1)\\title\\0,1\C,0,0.,0.728728,0.184208\C,0,-0.7
 63274,1.830763,-0.441725\C,0,0.763274,1.830763,-0.441725\C,0,0.,-0.728
 728,0.184208\C,0,0.,0.,1.493939\C,0,-0.763274,-1.830763,-0.441725\C,0,
 0.763274,-1.830763,-0.441725\H,0,-1.265756,2.542902,0.199945\H,0,-1.26
 5398,1.641386,-1.381956\H,0,1.265756,2.542902,0.199945\H,0,1.265398,1.
 641386,-1.381956\H,0,-0.913191,0.,2.07766\H,0,0.913191,0.,2.07766\H,0,

 Normal termination of Gaussian 16 at Sat Apr  5 23:00:58 2025.
