 Gaussian 16, Revision C.01,

 ----------------------------------------------------------------------
 #t hf aug-cc-pvdz symm=none int=(grid=ultrafine) guess=(read,tcheck) s
 table=(opt,rrhf)
 ----------------------------------------------------------------------
 -----
 title
 -----
 Symbolic Z-matrix:
 Charge =  0 Multiplicity = 1

 SCF Done:  E(RHF) =  -1022.90099271     A.U. after   14 cycles
 Normal termination of Gaussian 16 at Sat Apr  5 23:00:09 2025.
 Gaussian 16:  ES64L-G16RevC.01  3-Jul-2019

 ----------------------------------------------------------------------
 #t hf aug-cc-pvdz iop(5/13=1,5/36=2,99/5=2) pseudo=read geom=check gue
 ss=(read,tcheck) scf=(maxcycle=1)
 ----------------------------------------------------------------------
 -----
 title
 -----
 Structure from the checkpoint file:  "disulfanylacetic_acid.chk"
 Charge =  0 Multiplicity = 1

                         Standard orientation:
 ---------------------------------------------------------------------
 Center     Atomic      Atomic             Coordinates (Angstroms)
 Number     Number       Type             X           Y           Z
 ---------------------------------------------------------------------
      1         16           0       -0.802200    0.738403    0.006465
      2         16           0       -2.555014   -0.375391   -0.096171
      3          8           0        2.866754   -0.880415   -0.028233
      4          8           0        2.068290    1.188928    0.002883
      5          6           0        0.458292   -0.598704    0.045623
      6          6           0        1.844967    0.013992    0.003269
      7          1           0        0.311493   -1.260107   -0.808448
      8          1           0        0.346394   -1.185656    0.958254
      9          1           0        2.539718   -1.788027   -0.031196
     10          1           0       -2.782096   -0.534219    1.226126
 ---------------------------------------------------------------------

 SCF Done:  E(RHF) =  -1023.24643497     A.U. after    2 cycles

 The electronic state is 1-A.
 Alpha  occ. eigenvalues --  -93.99544 -93.99313 -20.61944 -20.55370 -11.41699
 Alpha  occ. eigenvalues --  -11.31374  -8.27390  -8.27257  -6.25174  -6.25076
 Alpha  occ. eigenvalues --   -6.24976  -6.24903  -6.24713  -6.24668  -1.56149
 Alpha  occ. eigenvalues --   -1.47489  -1.13278  -1.03882  -0.90135  -0.84156
 Alpha  occ. eigenvalues --   -0.74771  -0.68642  -0.67925  -0.62503  -0.60424
 Alpha  occ. eigenvalues --   -0.57978  -0.53821  -0.49104  -0.48306  -0.46600
 Alpha  occ. eigenvalues --   -0.39681  -0.38567
 Alpha virt. eigenvalues --    0.02191   0.03517   0.04518   0.06109   0.06947
 Alpha virt. eigenvalues --    0.08801   0.09591   0.11072   0.11455   0.11911
 Alpha virt. eigenvalues --    0.12747   0.14079   0.15045   0.15233   0.15737

 Mulliken charges:
               1
     1  S    0.153363
     2  S   -0.314880
     3  O   -1.279606
     4  O   -1.124599
     5  C   -0.861012
     6  C    2.072588
     7  H    0.279165
     8  H    0.268255
     9  H    0.424431
    10  H    0.382295
 Sum of Mulliken charges =   0.00000

 Dipole moment (field-independent basis, Debye):
    X=             -1.3094    Y=             -4.6805    Z=              1.0001  Tot=              4.9620

 Test job not archived.
 1\1\GINC-SE040\SP\RHF\Aug-CC-pVDZ\C2H4O2S2\OHZDE\05-Apr-2025\0\\#t hf
 aug-cc-pvdz iop(5/13=1,5/36=2,99/5=2) pseudo=read geom=check guess=(re
 ad,tcheck) scf=(maxcycle=1)\\title\\0,1\S,0,-0.8022,0.738403,0.006465\
 S,0,-2.555014,-0.375391,-0.096171\O,0,2.866754,-0.880415,-0.028233\O,0
 ,2.06829,1.188928,0.002883\C,0,0.458292,-0.598704,0.045623\C,0,1.84496
 7,0.013992,0.003269\H,0,0.311493,-1.260107,-0.808448\H,0,0.346394,-1.1
 85656,0.958254\H,0,2.539718,-1.788027,-0.031196\H,0,-2.782096,-0.53421
 9,1.226126\\Version=ES64L-G16RevC.01\State=1-A\HF=-1023.246435\RMSD=8.

 Normal termination of Gaussian 16 at Sat Apr  5 23:00:14 2025.
