 Gaussian 16, Revision C.01,

 ----------------------------------------------------------------------
 #t hf aug-cc-pvdz symm=none int=(grid=ultrafine) guess=(read,tcheck) s
 table=(opt,rrhf)
 ----------------------------------------------------------------------
 -----
 title
 -----
 Symbolic Z-matrix:
 Charge =  0 Multiplicity = 1

 SCF Done:  E(RHF) =  -1056.58304343     A.U. after   16 cycles
 Normal termination of Gaussian 16 at Sat Apr  5 22:59:22 2025.
 Gaussian 16:  ES64L-G16RevC.01  3-Jul-2019

 ----------------------------------------------------------------------
 #t hf aug-cc-pvdz iop(5/13=1,5/36=2,99/5=2) pseudo=read geom=check gue
 ss=(read,tcheck) scf=(maxcycle=1)
 ----------------------------------------------------------------------
 -----
 title
 -----
 Structure from the checkpoint file:  "disulfanylmethylenemalononitrile.chk"
 Charge =  0 Multiplicity = 1

                         Standard orientation:
 ---------------------------------------------------------------------
 Center     Atomic      Atomic             Coordinates (Angstroms)
 Number     Number       Type             X           Y           Z
 ---------------------------------------------------------------------
      1         16           0       -1.532661   -1.443389   -0.000144
      2         16           0       -1.532665    1.443385    0.000144
      3          7           0        2.115082    2.230322    0.000234
      4          7           0        2.115088   -2.230318   -0.000233
      5          6           0        0.830778    0.000001   -0.000000
      6          6           0       -0.544914    0.000000   -0.000000
      7          6           0        1.562091    1.217178    0.000129
      8          6           0        1.562093   -1.217174   -0.000128
      9          1           0       -0.513129   -2.326270   -0.000166
     10          1           0       -0.513134    2.326268    0.000166
 ---------------------------------------------------------------------

 SCF Done:  E(RHF) =  -1056.94831059     A.U. after    2 cycles

 The electronic state is 1-A.
 Alpha  occ. eigenvalues --  -94.02780 -94.02778 -15.54553 -15.54538 -11.40798
 Alpha  occ. eigenvalues --  -11.34147 -11.31672 -11.31668  -8.30935  -8.30930
 Alpha  occ. eigenvalues --   -6.28780  -6.28779  -6.28605  -6.28602  -6.28385
 Alpha  occ. eigenvalues --   -6.28384  -1.27691  -1.26119  -1.21751  -1.09311
 Alpha  occ. eigenvalues --   -1.07720  -0.88019  -0.83462  -0.75548  -0.64003
 Alpha  occ. eigenvalues --   -0.63748  -0.62394  -0.60806  -0.56999  -0.55720
 Alpha  occ. eigenvalues --   -0.54431  -0.54391  -0.53273  -0.52009  -0.43154
 Alpha  occ. eigenvalues --   -0.38722
 Alpha virt. eigenvalues --    0.01350   0.03314   0.04236   0.05703   0.06323
 Alpha virt. eigenvalues --    0.07928   0.09314   0.09371   0.10331   0.10422
 Alpha virt. eigenvalues --    0.10578   0.11856   0.11977   0.12905   0.14301

 Mulliken charges:
               1
     1  S    0.061428
     2  S    0.061428
     3  N    0.923040
     4  N    0.923038
     5  C    2.575866
     6  C   -0.756466
     7  C   -2.374356
     8  C   -2.374352
     9  H    0.480187
    10  H    0.480188
 Sum of Mulliken charges =  -0.00000

 Dipole moment (field-independent basis, Debye):
    X=             -5.0055    Y=              0.0000    Z=             -0.0000  Tot=              5.0055

 Test job not archived.
 1\1\GINC-SE041\SP\RHF\Aug-CC-pVDZ\C4H2N2S2\OHZDE\05-Apr-2025\0\\#t hf
 aug-cc-pvdz iop(5/13=1,5/36=2,99/5=2) pseudo=read geom=check guess=(re
 ad,tcheck) scf=(maxcycle=1)\\title\\0,1\S,0,-1.53266,-1.44339,-0.00014
 4\S,0,-1.532666,1.443384,0.000144\N,0,2.115081,2.230324,0.000234\N,0,2
 .11509,-2.230316,-0.000233\C,0,0.830778,0.000002,0.\C,0,-0.544914,0.,0
 .\C,0,1.56209,1.217179,0.000129\C,0,1.562094,-1.217173,-0.000128\H,0,-
 0.513127,-2.32627,-0.000166\H,0,-0.513135,2.326268,0.000166\\Version=E
 S64L-G16RevC.01\State=1-A\HF=-1056.9483106\RMSD=3.189e-02\Dipole=-1.96

 Normal termination of Gaussian 16 at Sat Apr  5 23:00:02 2025.
