 Gaussian 16, Revision C.01,

 ----------------------------------------------------------------------
 #t hf aug-cc-pvdz symm=none int=(grid=ultrafine) guess=(read,tcheck) s
 table=(opt,rrhf)
 ----------------------------------------------------------------------
 -----
 title
 -----
 Symbolic Z-matrix:
 Charge =  0 Multiplicity = 1

 SCF Done:  E(RHF) =  -982.066988235     A.U. after   13 cycles
 Normal termination of Gaussian 16 at Sat Apr  5 23:00:07 2025.
 Gaussian 16:  ES64L-G16RevC.01  3-Jul-2019

 ----------------------------------------------------------------------
 #t hf aug-cc-pvdz iop(5/13=1,5/36=2,99/5=2) pseudo=read geom=check gue
 ss=(read,tcheck) scf=(maxcycle=1)
 ----------------------------------------------------------------------
 -----
 title
 -----
 Structure from the checkpoint file:  "dithiooxamide.chk"
 Charge =  0 Multiplicity = 1

                         Standard orientation:
 ---------------------------------------------------------------------
 Center     Atomic      Atomic             Coordinates (Angstroms)
 Number     Number       Type             X           Y           Z
 ---------------------------------------------------------------------
      1         16           0        2.159288    0.225879   -0.000022
      2         16           0       -2.159288   -0.225879   -0.000022
      3          7           0        0.380905   -1.736090    0.000033
      4          7           0       -0.380905    1.736090    0.000033
      5          6           0        0.630428   -0.433440    0.000013
      6          6           0       -0.630428    0.433440    0.000008
      7          1           0        1.142640   -2.391307    0.000019
      8          1           0       -0.586716   -2.040345    0.000035
      9          1           0        0.586717    2.040345    0.000036
     10          1           0       -1.142640    2.391307    0.000026
 ---------------------------------------------------------------------

 SCF Done:  E(RHF) =  -982.374744557     A.U. after    2 cycles

 The electronic state is 1-A.
 Alpha  occ. eigenvalues --  -93.92421 -93.92420 -15.56983 -15.56948 -11.38704
 Alpha  occ. eigenvalues --  -11.38684  -8.20719  -8.20714  -6.18570  -6.18569
 Alpha  occ. eigenvalues --   -6.18267  -6.18267  -6.18166  -6.18165  -1.31588
 Alpha  occ. eigenvalues --   -1.27906  -1.06293  -1.04788  -0.90649  -0.85388
 Alpha  occ. eigenvalues --   -0.81716  -0.77523  -0.69604  -0.62074  -0.59124
 Alpha  occ. eigenvalues --   -0.56161  -0.52277  -0.39349  -0.37673  -0.37518
 Alpha  occ. eigenvalues --   -0.35005
 Alpha virt. eigenvalues --    0.00378   0.02986   0.03728   0.06103   0.06383
 Alpha virt. eigenvalues --    0.08409   0.10114   0.11041   0.12297   0.12983
 Alpha virt. eigenvalues --    0.13307   0.14165   0.14295   0.14334   0.15885

 Mulliken charges:
               1
     1  S    0.150339
     2  S    0.150339
     3  N    0.871969
     4  N    0.871969
     5  C   -1.185054
     6  C   -1.185055
     7  H    0.054719
     8  H    0.108026
     9  H    0.108028
    10  H    0.054719
 Sum of Mulliken charges =  -0.00000

 Dipole moment (field-independent basis, Debye):
    X=              0.0000    Y=             -0.0000    Z=              0.0001  Tot=              0.0001

 Test job not archived.
 1\1\GINC-SE046\SP\RHF\Aug-CC-pVDZ\C2H4N2S2\OHZDE\05-Apr-2025\0\\#t hf
 aug-cc-pvdz iop(5/13=1,5/36=2,99/5=2) pseudo=read geom=check guess=(re
 ad,tcheck) scf=(maxcycle=1)\\title\\0,1\S,0,2.159288,0.225879,-0.00002
 2\S,0,-2.159288,-0.225879,-0.000022\N,0,0.380905,-1.73609,0.000033\N,0
 ,-0.380905,1.73609,0.000033\C,0,0.630428,-0.43344,0.000013\C,0,-0.6304
 28,0.43344,0.000008\H,0,1.14264,-2.391307,0.000019\H,0,-0.586716,-2.04
 0345,0.000035\H,0,0.586717,2.040345,0.000036\H,0,-1.14264,2.391307,0.0
 00026\\Version=ES64L-G16RevC.01\State=1-A\HF=-982.3747446\RMSD=3.108e-

 Normal termination of Gaussian 16 at Sat Apr  5 23:00:11 2025.
