 Gaussian 16, Revision C.01,

 ----------------------------------------------------------------------
 #t hf aug-cc-pvdz symm=none int=(grid=ultrafine) guess=(read,tcheck) s
 table=(opt,rrhf)
 ----------------------------------------------------------------------
 -----
 title
 -----
 Symbolic Z-matrix:
 Charge =  0 Multiplicity = 1

 SCF Done:  E(RHF) =  -1019.89332315     A.U. after   15 cycles
 Normal termination of Gaussian 16 at Sat Apr  5 23:00:17 2025.
 Gaussian 16:  ES64L-G16RevC.01  3-Jul-2019

 ----------------------------------------------------------------------
 #t hf aug-cc-pvdz iop(5/13=1,5/36=2,99/5=2) pseudo=read geom=check gue
 ss=(read,tcheck) scf=(maxcycle=1)
 ----------------------------------------------------------------------
 -----
 title
 -----
 Structure from the checkpoint file:  "dithiolane-3-5-diimine.chk"
 Charge =  0 Multiplicity = 1

                         Standard orientation:
 ---------------------------------------------------------------------
 Center     Atomic      Atomic             Coordinates (Angstroms)
 Number     Number       Type             X           Y           Z
 ---------------------------------------------------------------------
      1         16           0       -1.060866   -1.182537    0.010069
      2         16           0        1.060865   -1.182537    0.010062
      3          7           0       -2.426341    1.041613   -0.216817
      4          7           0        2.426343    1.041611   -0.216812
      5          6           0       -0.000000    1.355502    0.314245
      6          6           0       -1.267395    0.594687   -0.001788
      7          6           0        1.267396    0.594686   -0.001787
      8          1           0       -0.000000    1.557660    1.390467
      9          1           0       -0.000000    2.314713   -0.204060
     10          1           0       -2.461028    2.058497   -0.168561
     11          1           0        2.461031    2.058496   -0.168554
 ---------------------------------------------------------------------

 SCF Done:  E(RHF) =  -1020.23966231     A.U. after    2 cycles

 The electronic state is 1-A.
 Alpha  occ. eigenvalues --  -93.99698 -93.99684 -15.51883 -15.51866 -11.35772
 Alpha  occ. eigenvalues --  -11.35772 -11.30145  -8.27791  -8.27776  -6.25559
 Alpha  occ. eigenvalues --   -6.25529  -6.25394  -6.25385  -6.25096  -6.25093
 Alpha  occ. eigenvalues --   -1.27421  -1.25288  -1.12968  -1.04555  -0.97845
 Alpha  occ. eigenvalues --   -0.81643  -0.79214  -0.73076  -0.71655  -0.67590
 Alpha  occ. eigenvalues --   -0.60385  -0.56641  -0.53593  -0.53060  -0.49774
 Alpha  occ. eigenvalues --   -0.47932  -0.45470  -0.44519  -0.34621
 Alpha virt. eigenvalues --    0.02452   0.03713   0.03961   0.06952   0.07017
 Alpha virt. eigenvalues --    0.07210   0.07878   0.08471   0.09959   0.11655
 Alpha virt. eigenvalues --    0.11778   0.12233   0.12360   0.13052   0.13600

 Mulliken charges:
               1
     1  S    0.337609
     2  S    0.337610
     3  N    0.779026
     4  N    0.779026
     5  C   -0.390092
     6  C   -1.271672
     7  C   -1.271675
     8  H    0.375336
     9  H    0.187930
    10  H    0.068451
    11  H    0.068452
 Sum of Mulliken charges =  -0.00000

 Dipole moment (field-independent basis, Debye):
    X=             -0.0000    Y=              3.1892    Z=              1.2136  Tot=              3.4123

 Test job not archived.
 1\1\GINC-SE042\SP\RHF\Aug-CC-pVDZ\C3H4N2S2\OHZDE\05-Apr-2025\0\\#t hf
 aug-cc-pvdz iop(5/13=1,5/36=2,99/5=2) pseudo=read geom=check guess=(re
 ad,tcheck) scf=(maxcycle=1)\\title\\0,1\S,0,-1.060866,-1.182537,0.0100
 69\S,0,1.060865,-1.182537,0.010062\N,0,-2.426341,1.041613,-0.216817\N,
 0,2.426343,1.041611,-0.216812\C,0,0.,1.355502,0.314245\C,0,-1.267395,0
 .594687,-0.001788\C,0,1.267396,0.594686,-0.001787\H,0,0.,1.55766,1.390
 467\H,0,0.,2.314713,-0.20406\H,0,-2.461028,2.058497,-0.168561\H,0,2.46
 1031,2.058496,-0.168554\\Version=ES64L-G16RevC.01\State=1-A\HF=-1020.2

 Normal termination of Gaussian 16 at Sat Apr  5 23:00:23 2025.
