 Gaussian 16, Revision C.01,

 ----------------------------------------------------------------------
 #t hf aug-cc-pvdz symm=none int=(grid=ultrafine) guess=(read,tcheck) s
 table=(opt,rrhf)
 ----------------------------------------------------------------------
 -----
 title
 -----
 Symbolic Z-matrix:
 Charge =  0 Multiplicity = 1

 SCF Done:  E(RHF) =  -552.458091541     A.U. after   13 cycles
 Normal termination of Gaussian 16 at Sat Apr  5 23:00:06 2025.
 Gaussian 16:  ES64L-G16RevC.01  3-Jul-2019

 ----------------------------------------------------------------------
 #t hf aug-cc-pvdz iop(5/13=1,5/36=2,99/5=2) pseudo=read geom=check gue
 ss=(read,tcheck) scf=(maxcycle=1)
 ----------------------------------------------------------------------
 -----
 title
 -----
 Structure from the checkpoint file:  "divinylsulfide.chk"
 Charge =  0 Multiplicity = 1

                         Standard orientation:
 ---------------------------------------------------------------------
 Center     Atomic      Atomic             Coordinates (Angstroms)
 Number     Number       Type             X           Y           Z
 ---------------------------------------------------------------------
      1         16           0       -0.000000    0.000000    0.622694
      2          6           0        0.000000    1.368102   -0.488687
      3          6           0       -0.000000   -1.368102   -0.488687
      4          6           0        0.070431    2.637301   -0.102333
      5          6           0       -0.070431   -2.637301   -0.102333
      6          1           0       -0.074147    1.103676   -1.536088
      7          1           0        0.074147   -1.103676   -1.536088
      8          1           0        0.052949    3.429596   -0.836759
      9          1           0        0.143817    2.926289    0.937418
     10          1           0       -0.052949   -3.429596   -0.836759
     11          1           0       -0.143817   -2.926289    0.937418
 ---------------------------------------------------------------------

 SCF Done:  E(RHF) =  -552.681298236     A.U. after    2 cycles

 The electronic state is 1-A.
 Alpha  occ. eigenvalues --  -93.96468 -11.28314 -11.28281 -11.24391 -11.24387
 Alpha  occ. eigenvalues --   -8.24698  -6.22521  -6.22368  -6.22144  -1.13112
 Alpha  occ. eigenvalues --   -1.05857  -0.96475  -0.79400  -0.77810  -0.67263
 Alpha  occ. eigenvalues --   -0.65294  -0.59207  -0.58991  -0.51866  -0.49286
 Alpha  occ. eigenvalues --   -0.46089  -0.40991  -0.31001
 Alpha virt. eigenvalues --    0.03540   0.03681   0.04437   0.05676   0.06120
 Alpha virt. eigenvalues --    0.08406   0.09119   0.09930   0.10836   0.11400
 Alpha virt. eigenvalues --    0.12942   0.13275   0.13883   0.14688   0.16270

 Mulliken charges:
               1
     1  S    0.542131
     2  C   -0.094531
     3  C   -0.094531
     4  C    0.217822
     5  C    0.217822
     6  H   -0.272297
     7  H   -0.272297
     8  H   -0.068535
     9  H   -0.053524
    10  H   -0.068535
    11  H   -0.053524
 Sum of Mulliken charges =   0.00000

 Dipole moment (field-independent basis, Debye):
    X=             -0.0000    Y=             -0.0000    Z=             -1.3209  Tot=              1.3209

 Test job not archived.
 1\1\GINC-SE045\SP\RHF\Aug-CC-pVDZ\C4H6S1\OHZDE\05-Apr-2025\0\\#t hf au
 g-cc-pvdz iop(5/13=1,5/36=2,99/5=2) pseudo=read geom=check guess=(read
 ,tcheck) scf=(maxcycle=1)\\title\\0,1\S,0,0.,0.,0.622694\C,0,0.,1.3681
 02,-0.488687\C,0,0.,-1.368102,-0.488687\C,0,0.070431,2.637301,-0.10233
 3\C,0,-0.070431,-2.637301,-0.102333\H,0,-0.074147,1.103676,-1.536088\H
 ,0,0.074147,-1.103676,-1.536088\H,0,0.052949,3.429596,-0.836759\H,0,0.
 143817,2.926289,0.937418\H,0,-0.052949,-3.429596,-0.836759\H,0,-0.1438
 17,-2.926289,0.937418\\Version=ES64L-G16RevC.01\State=1-A\HF=-552.6812

 Normal termination of Gaussian 16 at Sat Apr  5 23:00:09 2025.
