 Gaussian 16, Revision C.01,

 ----------------------------------------------------------------------
 #t hf aug-cc-pvdz symm=none int=(grid=ultrafine) guess=(read,tcheck) s
 table=(opt,rrhf)
 ----------------------------------------------------------------------
 -----
 title
 -----
 Symbolic Z-matrix:
 Charge =  0 Multiplicity = 1

 SCF Done:  E(RHF) =  -193.983257197     A.U. after   13 cycles
 Normal termination of Gaussian 16 at Sat Apr  5 22:50:42 2025.
 Gaussian 16:  ES64L-G16RevC.01  3-Jul-2019

 ----------------------------------------------------------------------
 #t hf aug-cc-pvdz iop(5/13=1,5/36=2,99/5=2) pseudo=read geom=check gue
 ss=(read,tcheck) scf=(maxcycle=1)
 ----------------------------------------------------------------------
 -----
 title
 -----
 Structure from the checkpoint file:  "E-1-3-pentadiene.chk"
 Charge =  0 Multiplicity = 1

                         Standard orientation:
 ---------------------------------------------------------------------
 Center     Atomic      Atomic             Coordinates (Angstroms)
 Number     Number       Type             X           Y           Z
 ---------------------------------------------------------------------
      1          6           0       -2.410690    0.780867    0.000000
      2          6           0       -1.408259   -0.101026    0.000000
      3          6           0        0.000000    0.249530    0.000000
      4          6           0        0.998002   -0.639690    0.000000
      5          6           0        2.453681   -0.304011    0.000000
      6          1           0       -2.224938    1.847996    0.000000
      7          1           0       -3.443962    0.464038    0.000000
      8          1           0       -1.639093   -1.162270    0.000000
      9          1           0        0.236275    1.310487    0.000000
     10          1           0        0.747223   -1.697270    0.000000
     11          1           0        2.617556    0.773489    0.000000
     12          1           0        2.955266   -0.725244    0.875717
     13          1           0        2.955266   -0.725244   -0.875717
 ---------------------------------------------------------------------

 SCF Done:  E(RHF) =  -194.194237756     A.U. after    2 cycles

 The electronic state is 1-A'.
 Alpha  occ. eigenvalues --  -11.24342 -11.24264 -11.23494 -11.23451 -11.23160
 Alpha  occ. eigenvalues --   -1.10083  -1.03206  -0.93662  -0.79916  -0.75928
 Alpha  occ. eigenvalues --   -0.65908  -0.63216  -0.57816  -0.57613  -0.54999
 Alpha  occ. eigenvalues --   -0.52159  -0.49604  -0.44292  -0.32014
 Alpha virt. eigenvalues --    0.03703   0.03867   0.04026   0.05558   0.05771
 Alpha virt. eigenvalues --    0.06156   0.08514   0.08598   0.09497   0.11069
 Alpha virt. eigenvalues --    0.12377   0.13515   0.14094   0.14585   0.15097

 Mulliken charges:
               1
     1  C   -0.085433
     2  C    0.471610
     3  C    0.804049
     4  C   -0.059423
     5  C   -0.795347
     6  H   -0.120149
     7  H   -0.151307
     8  H   -0.239022
     9  H   -0.225473
    10  H   -0.180296
    11  H    0.096415
    12  H    0.242189
    13  H    0.242189
 Sum of Mulliken charges =  -0.00000

 Dipole moment (field-independent basis, Debye):
    X=              0.6292    Y=             -0.2216    Z=              0.0000  Tot=              0.6671

 Test job not archived.
 1\1\GINC-SE108\SP\RHF\Aug-CC-pVDZ\C5H8\OHZDE\05-Apr-2025\0\\#t hf aug-
 cc-pvdz iop(5/13=1,5/36=2,99/5=2) pseudo=read geom=check guess=(read,t
 check) scf=(maxcycle=1)\\title\\0,1\C,0,-2.41069,0.780868,0.\C,0,-1.40
 8259,-0.101026,0.\C,0,0.,0.24953,0.\C,0,0.998002,-0.63969,0.\C,0,2.453
 681,-0.304012,0.\H,0,-2.224937,1.847997,0.\H,0,-3.443962,0.464039,0.\H
 ,0,-1.639093,-1.162269,0.\H,0,0.236275,1.310487,0.\H,0,0.747222,-1.697
 27,0.\H,0,2.617556,0.773488,0.\H,0,2.955266,-0.725245,0.875717\H,0,2.9
 55266,-0.725245,-0.875717\\Version=ES64L-G16RevC.01\State=1-A'\HF=-194

 Normal termination of Gaussian 16 at Sat Apr  5 22:50:51 2025.
