 Gaussian 16, Revision C.01,

 ----------------------------------------------------------------------
 #t hf aug-cc-pvdz symm=none int=(grid=ultrafine) guess=(read,tcheck) s
 table=(opt,rrhf)
 ----------------------------------------------------------------------
 -----
 title
 -----
 Symbolic Z-matrix:
 Charge =  0 Multiplicity = 1

 SCF Done:  E(RHF) =  -231.837791882     A.U. after   12 cycles
 Normal termination of Gaussian 16 at Sat Apr  5 22:50:45 2025.
 Gaussian 16:  ES64L-G16RevC.01  3-Jul-2019

 ----------------------------------------------------------------------
 #t hf aug-cc-pvdz iop(5/13=1,5/36=2,99/5=2) pseudo=read geom=check gue
 ss=(read,tcheck) scf=(maxcycle=1)
 ----------------------------------------------------------------------
 -----
 title
 -----
 Structure from the checkpoint file:  "E-1-3-5-hexatriene.chk"
 Charge =  0 Multiplicity = 1

                         Standard orientation:
 ---------------------------------------------------------------------
 Center     Atomic      Atomic             Coordinates (Angstroms)
 Number     Number       Type             X           Y           Z
 ---------------------------------------------------------------------
      1          6           0        1.188032    2.829092    0.000000
      2          6           0       -1.188032   -2.829092    0.000000
      3          6           0        1.188032    1.492100    0.000000
      4          6           0       -1.188032   -1.492100    0.000000
      5          6           0       -0.002470    0.672860    0.000000
      6          6           0        0.002470   -0.672860    0.000000
      7          1           0        2.108575    3.395117    0.000000
      8          1           0        0.264255    3.394397    0.000000
      9          1           0       -2.108575   -3.395117    0.000000
     10          1           0       -0.264255   -3.394397    0.000000
     11          1           0        2.137085    0.964589    0.000000
     12          1           0       -2.137085   -0.964589    0.000000
     13          1           0       -0.955353    1.194813    0.000000
     14          1           0        0.955353   -1.194813    0.000000
 ---------------------------------------------------------------------

 SCF Done:  E(RHF) =  -232.084579824     A.U. after    2 cycles

 The electronic state is 1-AG.
 Alpha  occ. eigenvalues --  -11.24827 -11.24824 -11.24736 -11.24624 -11.23952
 Alpha  occ. eigenvalues --  -11.23951  -1.11564  -1.06231  -0.98901  -0.85623
 Alpha  occ. eigenvalues --   -0.76980  -0.76947  -0.68011  -0.65000  -0.61380
 Alpha  occ. eigenvalues --   -0.58367  -0.55505  -0.52340  -0.50326  -0.47747
 Alpha  occ. eigenvalues --   -0.40635  -0.30371
 Alpha virt. eigenvalues --    0.03451   0.03598   0.03919   0.05138   0.05455
 Alpha virt. eigenvalues --    0.06628   0.07593   0.08349   0.09997   0.10797
 Alpha virt. eigenvalues --    0.10841   0.12617   0.12897   0.13221   0.13423

 Mulliken charges:
               1
     1  C   -0.224539
     2  C   -0.224539
     3  C    0.503722
     4  C    0.503722
     5  C    0.488175
     6  C    0.488175
     7  H   -0.153852
     8  H   -0.116163
     9  H   -0.153852
    10  H   -0.116163
    11  H   -0.249392
    12  H   -0.249392
    13  H   -0.247951
    14  H   -0.247951
 Sum of Mulliken charges =  -0.00000

 Dipole moment (field-independent basis, Debye):
    X=             -0.0000    Y=              0.0000    Z=              0.0000  Tot=              0.0000

 Test job not archived.
 1\1\GINC-SE045\SP\RHF\Aug-CC-pVDZ\C6H8\OHZDE\05-Apr-2025\0\\#t hf aug-
 cc-pvdz iop(5/13=1,5/36=2,99/5=2) pseudo=read geom=check guess=(read,t
 check) scf=(maxcycle=1)\\title\\0,1\C,0,1.188032,2.829092,0.\C,0,-1.18
 8032,-2.829092,0.\C,0,1.188032,1.4921,0.\C,0,-1.188032,-1.4921,0.\C,0,
 -0.00247,0.67286,0.\C,0,0.00247,-0.67286,0.\H,0,2.108575,3.395117,0.\H
 ,0,0.264255,3.394397,0.\H,0,-2.108575,-3.395117,0.\H,0,-0.264255,-3.39
 4397,0.\H,0,2.137085,0.964589,0.\H,0,-2.137085,-0.964589,0.\H,0,-0.955
 353,1.194813,0.\H,0,0.955353,-1.194813,0.\\Version=ES64L-G16RevC.01\St

 Normal termination of Gaussian 16 at Sat Apr  5 22:50:50 2025.
