 Gaussian 16, Revision C.01,

 ----------------------------------------------------------------------
 #t hf aug-cc-pvdz symm=none int=(grid=ultrafine) guess=(read,tcheck) s
 table=(opt,rrhf)
 ----------------------------------------------------------------------
 -----
 title
 -----
 Symbolic Z-matrix:
 Charge =  0 Multiplicity = 1

 SCF Done:  E(RHF) =  -233.020936786     A.U. after   14 cycles
 Normal termination of Gaussian 16 at Sat Apr  5 22:50:54 2025.
 Gaussian 16:  ES64L-G16RevC.01  3-Jul-2019

 ----------------------------------------------------------------------
 #t hf aug-cc-pvdz iop(5/13=1,5/36=2,99/5=2) pseudo=read geom=check gue
 ss=(read,tcheck) scf=(maxcycle=1)
 ----------------------------------------------------------------------
 -----
 title
 -----
 Structure from the checkpoint file:  "E-1-3-hexadiene.chk"
 Charge =  0 Multiplicity = 1

                         Standard orientation:
 ---------------------------------------------------------------------
 Center     Atomic      Atomic             Coordinates (Angstroms)
 Number     Number       Type             X           Y           Z
 ---------------------------------------------------------------------
      1          1           0       -0.081998    3.962781    0.000000
      2          1           0        1.401922    2.867737    0.000000
      3          6           0        0.322716    2.960628    0.000000
      4          1           0       -1.546765    2.025344    0.000000
      5          6           0       -0.469613    1.886059    0.000000
      6          1           0        1.076131    0.373269    0.000000
      7          6           0        0.000000    0.512043    0.000000
      8          1           0       -1.883157   -0.373116    0.000000
      9          6           0       -0.810602   -0.551298    0.000000
     10          1           0       -0.872163   -2.479687    0.867089
     11          1           0       -0.872163   -2.479687   -0.867089
     12          6           0       -0.407996   -1.995454    0.000000
     13          1           0        1.273015   -3.356046    0.000000
     14          1           0        1.577427   -1.862279   -0.881724
     15          1           0        1.577427   -1.862279    0.881724
     16          6           0        1.090549   -2.281317    0.000000
 ---------------------------------------------------------------------

 SCF Done:  E(RHF) =  -233.275547793     A.U. after    2 cycles

 The electronic state is 1-A'.
 Alpha  occ. eigenvalues --  -11.24176 -11.24087 -11.23833 -11.23290 -11.23028
 Alpha  occ. eigenvalues --  -11.22612  -1.10546  -1.05022  -0.97625  -0.88091
 Alpha  occ. eigenvalues --   -0.78949  -0.74861  -0.65376  -0.63936  -0.62041
 Alpha  occ. eigenvalues --   -0.57874  -0.57234  -0.51633  -0.50840  -0.50299
 Alpha  occ. eigenvalues --   -0.48807  -0.44121  -0.31901
 Alpha virt. eigenvalues --    0.03408   0.03644   0.03936   0.04687   0.05297
 Alpha virt. eigenvalues --    0.05779   0.07529   0.07622   0.08401   0.09719
 Alpha virt. eigenvalues --    0.10728   0.11551   0.12678   0.13560   0.13865

 Mulliken charges:
               1
     1  H   -0.160822
     2  H   -0.119867
     3  C   -0.063294
     4  H   -0.251153
     5  C    0.388172
     6  H   -0.355829
     7  C    0.676330
     8  H   -0.253675
     9  C    0.298764
    10  H    0.260095
    11  H    0.260095
    12  C   -0.940521
    13  H    0.043212
    14  H    0.219402
    15  H    0.219402
    16  C   -0.220310
 Sum of Mulliken charges =  -0.00000

 Dipole moment (field-independent basis, Debye):
    X=             -0.1647    Y=             -0.7744    Z=             -0.0000  Tot=              0.7918

 Test job not archived.
 1\1\GINC-SE047\SP\RHF\Aug-CC-pVDZ\C6H10\OHZDE\05-Apr-2025\0\\#t hf aug
 -cc-pvdz iop(5/13=1,5/36=2,99/5=2) pseudo=read geom=check guess=(read,
 tcheck) scf=(maxcycle=1)\\title\\0,1\H,0,-0.081998,3.962781,0.\H,0,1.4
 01922,2.867737,0.\C,0,0.322716,2.960628,0.\H,0,-1.546765,2.025344,0.\C
 ,0,-0.469613,1.886059,0.\H,0,1.076131,0.373269,0.\C,0,0.,0.512043,0.\H
 ,0,-1.883157,-0.373116,0.\C,0,-0.810602,-0.551298,0.\H,0,-0.872163,-2.
 479687,0.867089\H,0,-0.872163,-2.479687,-0.867089\C,0,-0.407996,-1.995
 454,0.\H,0,1.273015,-3.356046,0.\H,0,1.577427,-1.862279,-0.881724\H,0,

 Normal termination of Gaussian 16 at Sat Apr  5 22:51:30 2025.
