 Gaussian 16, Revision C.01,

 ----------------------------------------------------------------------
 #t hf aug-cc-pvdz symm=none int=(grid=ultrafine) guess=(read,tcheck) s
 table=(opt,rrhf)
 ----------------------------------------------------------------------
 -----
 title
 -----
 Symbolic Z-matrix:
 Charge =  0 Multiplicity = 1

 SCF Done:  E(RHF) =  -576.010752575     A.U. after   13 cycles

 1\1\GINC-SE223\Stability\RHF\Aug-CC-pVDZ\C3H5Cl1\OHZDE\05-Apr-2025\0\\
 #t hf aug-cc-pvdz symm=none int=(grid=ultrafine) guess=(read,tcheck) s
 table=(opt,rrhf)\\title\\0,1\C,0,0.,0.452712,0.\C,0,0.928558,-0.489343
 ,0.\C,0,2.397943,-0.202796,0.\Cl,0,-1.714743,0.109952,0.\H,0,0.209814,
 1.512034,0.\H,0,0.622206,-1.529082,0.\H,0,2.601687,0.867563,0.\H,0,2.8
 78957,-0.641565,0.877384\H,0,2.878957,-0.641565,-0.877384\\Version=ES6
 4L-G16RevC.01\HF=-576.0107526\RMSD=4.016e-09\Dipole=0.9104663,0.010809
 2,0.\Quadrupole=0.0365179,1.4672785,-1.5037965,-0.1124753,0.,0.\PG=Unk

 Normal termination of Gaussian 16 at Sat Apr  5 22:50:32 2025.
 Gaussian 16:  ES64L-G16RevC.01  3-Jul-2019

 ----------------------------------------------------------------------
 #t hf aug-cc-pvdz iop(5/13=1,5/36=2,99/5=2) pseudo=read geom=check gue
 ss=(read,tcheck) scf=(maxcycle=1)
 ----------------------------------------------------------------------
 -----
 title
 -----
 Structure from the checkpoint file:  "E-1-chloro-1-propene.chk"
 Charge =  0 Multiplicity = 1

                         Standard orientation:
 ---------------------------------------------------------------------
 Center     Atomic      Atomic             Coordinates (Angstroms)
 Number     Number       Type             X           Y           Z
 ---------------------------------------------------------------------
      1          6           0        0.000000    0.452712    0.000000
      2          6           0        0.928558   -0.489343    0.000000
      3          6           0        2.397943   -0.202796    0.000000
      4         17           0       -1.714743    0.109951    0.000000
      5          1           0        0.209814    1.512034    0.000000
      6          1           0        0.622206   -1.529082    0.000000
      7          1           0        2.601687    0.867563    0.000000
      8          1           0        2.878957   -0.641565    0.877384
      9          1           0        2.878957   -0.641565   -0.877384
 ---------------------------------------------------------------------

 SCF Done:  E(RHF) =  -576.214264683     A.U. after    2 cycles

 The electronic state is 1-A'.
 Alpha  occ. eigenvalues -- -105.56631 -11.29895 -11.25993 -11.24817 -10.61443
 Alpha  occ. eigenvalues --   -7.78402  -7.78007  -7.77997  -1.13283  -1.04323
 Alpha  occ. eigenvalues --   -0.92537  -0.78244  -0.64742  -0.63494  -0.59112
 Alpha  occ. eigenvalues --   -0.54825  -0.52489  -0.50898  -0.45831  -0.36695
 Alpha virt. eigenvalues --    0.03499   0.04234   0.04932   0.05214   0.07261
 Alpha virt. eigenvalues --    0.09216   0.10161   0.11904   0.13496   0.14051
 Alpha virt. eigenvalues --    0.15775   0.16217   0.16636   0.16776   0.17620

 Mulliken charges:
               1
     1  C   -0.368119
     2  C    0.884610
     3  C   -0.649316
     4  Cl  -0.226739
     5  H   -0.114191
     6  H   -0.056830
     7  H    0.105913
     8  H    0.212336
     9  H    0.212336
 Sum of Mulliken charges =  -0.00000

 Dipole moment (field-independent basis, Debye):
    X=              2.3128    Y=              0.0269    Z=              0.0000  Tot=              2.3130

 Test job not archived.
 1\1\GINC-SE223\SP\RHF\Aug-CC-pVDZ\C3H5Cl1\OHZDE\05-Apr-2025\0\\#t hf a
 ug-cc-pvdz iop(5/13=1,5/36=2,99/5=2) pseudo=read geom=check guess=(rea
 d,tcheck) scf=(maxcycle=1)\\title\\0,1\C,0,0.,0.452712,0.\C,0,0.928558
 ,-0.489343,0.\C,0,2.397943,-0.202796,0.\Cl,0,-1.714743,0.109952,0.\H,0
 ,0.209814,1.512034,0.\H,0,0.622206,-1.529082,0.\H,0,2.601687,0.867563,
 0.\H,0,2.878957,-0.641565,0.877384\H,0,2.878957,-0.641565,-0.877384\\V
 ersion=ES64L-G16RevC.01\State=1-A'\HF=-576.2142647\RMSD=1.139e-02\Dipo
 le=0.9099343,0.0105952,0.\Quadrupole=0.1398834,1.4646176,-1.6045011,-0

 Normal termination of Gaussian 16 at Sat Apr  5 22:50:35 2025.
