 Gaussian 16, Revision C.01,

 ----------------------------------------------------------------------
 #t hf aug-cc-pvdz symm=none int=(grid=ultrafine) guess=(read,tcheck) s
 table=(opt,rrhf)
 ----------------------------------------------------------------------
 -----
 title
 -----
 Symbolic Z-matrix:
 Charge =  0 Multiplicity = 1

 SCF Done:  E(RHF) =  -413.662774481     A.U. after   13 cycles
 Normal termination of Gaussian 16 at Sat Apr  5 22:50:33 2025.
 Gaussian 16:  ES64L-G16RevC.01  3-Jul-2019

 ----------------------------------------------------------------------
 #t hf aug-cc-pvdz iop(5/13=1,5/36=2,99/5=2) pseudo=read geom=check gue
 ss=(read,tcheck) scf=(maxcycle=1)
 ----------------------------------------------------------------------
 -----
 title
 -----
 Structure from the checkpoint file:  "E-1-2-3-trifluoropropene.chk"
 Charge =  0 Multiplicity = 1

                         Standard orientation:
 ---------------------------------------------------------------------
 Center     Atomic      Atomic             Coordinates (Angstroms)
 Number     Number       Type             X           Y           Z
 ---------------------------------------------------------------------
      1          6           0        0.146733   -1.257992   -0.001003
      2          9           0        1.486653   -1.231504    0.002109
      3          1           0       -0.279002   -2.250688   -0.004801
      4          6           0       -0.595977   -0.163277    0.000497
      5          9           0       -1.944445   -0.328241   -0.001783
      6          6           0       -0.254497    1.291824    0.004837
      7          9           0        1.109405    1.503366   -0.004948
      8          1           0       -0.674432    1.763788    0.897350
      9          1           0       -0.688636    1.770980   -0.876947
 ---------------------------------------------------------------------

 SCF Done:  E(RHF) =  -414.053418338     A.U. after    2 cycles

 The electronic state is 1-A.
 Alpha  occ. eigenvalues --  -26.49812 -26.48831 -26.46850 -11.35572 -11.35531
 Alpha  occ. eigenvalues --  -11.34781  -1.62722  -1.61733  -1.59171  -1.09014
 Alpha  occ. eigenvalues --   -0.99189  -0.83324  -0.77045  -0.75544  -0.73181
 Alpha  occ. eigenvalues --   -0.69659  -0.68713  -0.67944  -0.67216  -0.63537
 Alpha  occ. eigenvalues --   -0.60719  -0.55184  -0.53875  -0.39219
 Alpha virt. eigenvalues --    0.03649   0.04219   0.04993   0.07920   0.09993
 Alpha virt. eigenvalues --    0.10691   0.10906   0.13405   0.13791   0.14905
 Alpha virt. eigenvalues --    0.15510   0.15663   0.15991   0.17514   0.20064

 Mulliken charges:
               1
     1  C    0.951386
     2  F   -0.793177
     3  H    0.013088
     4  C    0.418492
     5  F   -0.902407
     6  C    0.666904
     7  F   -0.704405
     8  H    0.175454
     9  H    0.174665
 Sum of Mulliken charges =  -0.00000

 Dipole moment (field-independent basis, Debye):
    X=             -1.5750    Y=              0.0881    Z=              0.0127  Tot=              1.5775

 Test job not archived.
 1\1\GINC-SE199\SP\RHF\Aug-CC-pVDZ\C3H3F3\OHZDE\05-Apr-2025\0\\#t hf au
 g-cc-pvdz iop(5/13=1,5/36=2,99/5=2) pseudo=read geom=check guess=(read
 ,tcheck) scf=(maxcycle=1)\\title\\0,1\C,0,0.146734,-1.257992,-0.001003
 \F,0,1.486654,-1.231502,0.002109\H,0,-0.279,-2.250688,-0.004801\C,0,-0
 .595977,-0.163277,0.000497\F,0,-1.944444,-0.328243,-0.001783\C,0,-0.25
 4498,1.291824,0.004837\F,0,1.109404,1.503367,-0.004948\H,0,-0.674434,1
 .763787,0.89735\H,0,-0.688638,1.770979,-0.876947\\Version=ES64L-G16Rev
 C.01\State=1-A\HF=-414.0534183\RMSD=1.041e-02\Dipole=-0.6196535,0.0346

 Normal termination of Gaussian 16 at Sat Apr  5 22:50:37 2025.
