 Gaussian 16, Revision C.01,

 ----------------------------------------------------------------------
 #t hf aug-cc-pvdz symm=none int=(grid=ultrafine) guess=(read,tcheck) s
 table=(opt,rrhf)
 ----------------------------------------------------------------------
 -----
 title
 -----
 Symbolic Z-matrix:
 Charge =  0 Multiplicity = 1

 SCF Done:  E(RHF) =  -275.761049958     A.U. after   11 cycles
 Normal termination of Gaussian 16 at Sat Apr  5 22:50:28 2025.
 Gaussian 16:  ES64L-G16RevC.01  3-Jul-2019

 ----------------------------------------------------------------------
 #t hf aug-cc-pvdz iop(5/13=1,5/36=2,99/5=2) pseudo=read geom=check gue
 ss=(read,tcheck) scf=(maxcycle=1)
 ----------------------------------------------------------------------
 -----
 title
 -----
 Structure from the checkpoint file:  "E-1-2-difluoroethene.chk"
 Charge =  0 Multiplicity = 1

                         Standard orientation:
 ---------------------------------------------------------------------
 Center     Atomic      Atomic             Coordinates (Angstroms)
 Number     Number       Type             X           Y           Z
 ---------------------------------------------------------------------
      1          6           0       -0.332378    0.570025    0.000000
      2          6           0        0.332378   -0.570025    0.000000
      3          9           0        0.332378    1.740937    0.000000
      4          9           0       -0.332378   -1.740937    0.000000
      5          1           0       -1.407427    0.668528    0.000000
      6          1           0        1.407427   -0.668528    0.000000
 ---------------------------------------------------------------------

 SCF Done:  E(RHF) =  -276.021310610     A.U. after    2 cycles

 The electronic state is 1-AG.
 Alpha  occ. eigenvalues --  -26.49043 -26.49043 -11.34700 -11.34561  -1.62188
 Alpha  occ. eigenvalues --   -1.61527  -1.06415  -0.85748  -0.76272  -0.75720
 Alpha  occ. eigenvalues --   -0.69543  -0.67816  -0.66980  -0.61902  -0.56873
 Alpha  occ. eigenvalues --   -0.39505
 Alpha virt. eigenvalues --    0.04175   0.04184   0.07998   0.10390   0.10491
 Alpha virt. eigenvalues --    0.11891   0.12393   0.15254   0.16450   0.18131
 Alpha virt. eigenvalues --    0.20430   0.24861   0.27285   0.28468   0.29391

 Mulliken charges:
               1
     1  C    0.659023
     2  C    0.659023
     3  F   -0.728594
     4  F   -0.728594
     5  H    0.069570
     6  H    0.069570
 Sum of Mulliken charges =  -0.00000

 Dipole moment (field-independent basis, Debye):
    X=              0.0000    Y=             -0.0000    Z=              0.0000  Tot=              0.0000

 Test job not archived.
 1\1\GINC-SE226\SP\RHF\Aug-CC-pVDZ\C2H2F2\OHZDE\05-Apr-2025\0\\#t hf au
 g-cc-pvdz iop(5/13=1,5/36=2,99/5=2) pseudo=read geom=check guess=(read
 ,tcheck) scf=(maxcycle=1)\\title\\0,1\C,0,-0.332378,0.570025,0.\C,0,0.
 332378,-0.570025,0.\F,0,0.332378,1.740937,0.\F,0,-0.332378,-1.740937,0
 .\H,0,-1.407427,0.668528,0.\H,0,1.407427,-0.668528,0.\\Version=ES64L-G
 16RevC.01\State=1-AG\HF=-276.0213106\RMSD=9.755e-03\Dipole=0.,0.,0.\Qu
 adrupole=2.7641268,-2.6341196,-0.1300072,-2.1585708,0.,0.\PG=C02H [SGH
 (C2H2F2)]\\@

 Normal termination of Gaussian 16 at Sat Apr  5 22:50:29 2025.
