 Gaussian 16, Revision C.01,

 ----------------------------------------------------------------------
 #t hf aug-cc-pvdz symm=none int=(grid=ultrafine) guess=(read,tcheck) s
 table=(opt,rrhf)
 ----------------------------------------------------------------------
 -----
 title
 -----
 Symbolic Z-matrix:
 Charge =  0 Multiplicity = 1

 SCF Done:  E(RHF) =  -995.886984275     A.U. after   11 cycles

 1\1\GINC-SE226\Stability\RHF\Aug-CC-pVDZ\C2H2Cl2\OHZDE\05-Apr-2025\0\\
 #t hf aug-cc-pvdz symm=none int=(grid=ultrafine) guess=(read,tcheck) s
 table=(opt,rrhf)\\title\\0,1\C,0,-0.364902,0.550673,0.\C,0,0.364902,-0
 .550673,0.\Cl,0,0.364902,2.127712,0.\Cl,0,-0.364902,-2.127712,0.\H,0,-
 1.443008,0.559873,0.\H,0,1.443008,-0.559873,0.\\Version=ES64L-G16RevC.
 01\HF=-995.8869843\RMSD=4.166e-09\Dipole=0.,0.,0.\Quadrupole=2.691679,
 -1.9138708,-0.7778082,-0.9625174,0.,0.\PG=Unknown\\@
 The archive entry for this job was punched.

 Normal termination of Gaussian 16 at Sat Apr  5 22:50:29 2025.
 Gaussian 16:  ES64L-G16RevC.01  3-Jul-2019

 ----------------------------------------------------------------------
 #t hf aug-cc-pvdz iop(5/13=1,5/36=2,99/5=2) pseudo=read geom=check gue
 ss=(read,tcheck) scf=(maxcycle=1)
 ----------------------------------------------------------------------
 -----
 title
 -----
 Structure from the checkpoint file:  "E-1-2-dichloroethene.chk"
 Charge =  0 Multiplicity = 1

                         Standard orientation:
 ---------------------------------------------------------------------
 Center     Atomic      Atomic             Coordinates (Angstroms)
 Number     Number       Type             X           Y           Z
 ---------------------------------------------------------------------
      1          6           0       -0.364902    0.550673    0.000000
      2          6           0        0.364902   -0.550673    0.000000
      3         17           0        0.364902    2.127712    0.000000
      4         17           0       -0.364902   -2.127712    0.000000
      5          1           0       -1.443008    0.559873    0.000000
      6          1           0        1.443008   -0.559873    0.000000
 ---------------------------------------------------------------------

 SCF Done:  E(RHF) =  -996.118339817     A.U. after    2 cycles

 The electronic state is 1-AG.
 Alpha  occ. eigenvalues -- -105.58996-105.58996 -11.32873 -11.32733 -10.63800
 Alpha  occ. eigenvalues --  -10.63799  -7.80766  -7.80761  -7.80349  -7.80347
 Alpha  occ. eigenvalues --   -7.80339  -7.80338  -1.17524  -1.10409  -0.97887
 Alpha  occ. eigenvalues --   -0.81336  -0.67563  -0.66055  -0.56084  -0.55862
 Alpha  occ. eigenvalues --   -0.50782  -0.48362  -0.47791  -0.38055
 Alpha virt. eigenvalues --    0.04091   0.04481   0.07024   0.08599   0.09441
 Alpha virt. eigenvalues --    0.11774   0.12824   0.13755   0.14472   0.15194
 Alpha virt. eigenvalues --    0.15883   0.17008   0.17294   0.18217   0.18529

 Mulliken charges:
               1
     1  C    0.147146
     2  C    0.147146
     3  Cl  -0.181798
     4  Cl  -0.181798
     5  H    0.034652
     6  H    0.034652
 Sum of Mulliken charges =  -0.00000

 Dipole moment (field-independent basis, Debye):
    X=              0.0000    Y=              0.0000    Z=              0.0000  Tot=              0.0000

 Test job not archived.
 1\1\GINC-SE226\SP\RHF\Aug-CC-pVDZ\C2H2Cl2\OHZDE\05-Apr-2025\0\\#t hf a
 ug-cc-pvdz iop(5/13=1,5/36=2,99/5=2) pseudo=read geom=check guess=(rea
 d,tcheck) scf=(maxcycle=1)\\title\\0,1\C,0,-0.364902,0.550673,0.\C,0,0
 .364902,-0.550673,0.\Cl,0,0.364902,2.127712,0.\Cl,0,-0.364902,-2.12771
 2,0.\H,0,-1.443008,0.559873,0.\H,0,1.443008,-0.559873,0.\\Version=ES64
 L-G16RevC.01\State=1-AG\HF=-996.1183398\RMSD=9.518e-03\Dipole=0.,0.,0.
 \Quadrupole=2.6918845,-1.8068219,-0.8850626,-0.9462727,0.,0.\PG=C02H [
 SGH(C2H2Cl2)]\\@

 Normal termination of Gaussian 16 at Sat Apr  5 22:50:31 2025.
