 Gaussian 16, Revision C.01,

 ----------------------------------------------------------------------
 #t hf aug-cc-pvdz symm=none int=(grid=ultrafine) guess=(read,tcheck) s
 table=(opt,rrhf)
 ----------------------------------------------------------------------
 -----
 title
 -----
 Symbolic Z-matrix:
 Charge =  0 Multiplicity = 1

 SCF Done:  E(RHF) =  -615.049564580     A.U. after   13 cycles

 1\1\GINC-SE221\Stability\RHF\Aug-CC-pVDZ\C4H7Cl1\OHZDE\05-Apr-2025\0\\
 #t hf aug-cc-pvdz symm=none int=(grid=ultrafine) guess=(read,tcheck) s
 table=(opt,rrhf)\\title\\0,1\H,0,0.284273,-0.845671,1.087487\C,0,0.403
 159,-0.010172,0.40581\H,0,-0.632701,1.282616,-0.927159\Cl,0,-2.268012,
 -0.194803,-0.026317\C,0,-0.658,0.458163,-0.230058\H,0,1.762492,1.39408
 2,-0.449259\H,0,2.138737,0.922123,1.195638\C,0,1.787551,0.540851,0.231
 531\H,0,3.784823,-0.084931,-0.358058\H,0,2.833963,-1.363785,0.395683\H
 ,0,2.491345,-0.877346,-1.263208\C,0,2.782835,-0.508081,-0.279571\\Vers

 Normal termination of Gaussian 16 at Sat Apr  5 22:50:36 2025.
 Gaussian 16:  ES64L-G16RevC.01  3-Jul-2019

 ----------------------------------------------------------------------
 #t hf aug-cc-pvdz iop(5/13=1,5/36=2,99/5=2) pseudo=read geom=check gue
 ss=(read,tcheck) scf=(maxcycle=1)
 ----------------------------------------------------------------------
 -----
 title
 -----
 Structure from the checkpoint file:  "E-1-chloro-1-butene.chk"
 Charge =  0 Multiplicity = 1

                         Standard orientation:
 ---------------------------------------------------------------------
 Center     Atomic      Atomic             Coordinates (Angstroms)
 Number     Number       Type             X           Y           Z
 ---------------------------------------------------------------------
      1          1           0        0.284273   -0.845671    1.087487
      2          6           0        0.403159   -0.010172    0.405810
      3          1           0       -0.632701    1.282616   -0.927159
      4         17           0       -2.268012   -0.194803   -0.026317
      5          6           0       -0.658000    0.458163   -0.230058
      6          1           0        1.762492    1.394082   -0.449259
      7          1           0        2.138737    0.922123    1.195638
      8          6           0        1.787551    0.540851    0.231531
      9          1           0        3.784823   -0.084931   -0.358058
     10          1           0        2.833963   -1.363785    0.395683
     11          1           0        2.491345   -0.877346   -1.263208
     12          6           0        2.782835   -0.508081   -0.279571
 ---------------------------------------------------------------------

 SCF Done:  E(RHF) =  -615.296838639     A.U. after    2 cycles

 The electronic state is 1-A.
 Alpha  occ. eigenvalues -- -105.56576 -11.29853 -11.25624 -11.24968 -11.23566
 Alpha  occ. eigenvalues --  -10.61385  -7.78344  -7.77950  -7.77940  -1.13458
 Alpha  occ. eigenvalues --   -1.06569  -0.97657  -0.85881  -0.78157  -0.65683
 Alpha  occ. eigenvalues --   -0.64623  -0.60066  -0.56783  -0.54289  -0.50976
 Alpha  occ. eigenvalues --   -0.50397  -0.50337  -0.45725  -0.36628
 Alpha virt. eigenvalues --    0.03519   0.03857   0.04294   0.04523   0.06781
 Alpha virt. eigenvalues --    0.07063   0.07469   0.09722   0.10799   0.12158
 Alpha virt. eigenvalues --    0.13501   0.14404   0.15320   0.15806   0.16141

 Mulliken charges:
               1
     1  H   -0.082912
     2  C    1.260187
     3  H   -0.144586
     4  Cl  -0.233651
     5  C   -0.471817
     6  H    0.126150
     7  H    0.219142
     8  C   -0.726291
     9  H    0.112535
    10  H    0.161630
    11  H    0.156809
    12  C   -0.377196
 Sum of Mulliken charges =  -0.00000

 Dipole moment (field-independent basis, Debye):
    X=              2.3162    Y=              0.5534    Z=             -0.0294  Tot=              2.3815

 Test job not archived.
 1\1\GINC-SE221\SP\RHF\Aug-CC-pVDZ\C4H7Cl1\OHZDE\05-Apr-2025\0\\#t hf a
 ug-cc-pvdz iop(5/13=1,5/36=2,99/5=2) pseudo=read geom=check guess=(rea
 d,tcheck) scf=(maxcycle=1)\\title\\0,1\H,0,0.284273,-0.845671,1.087487
 \C,0,0.403159,-0.010172,0.40581\H,0,-0.632701,1.282616,-0.927159\Cl,0,
 -2.268012,-0.194803,-0.026317\C,0,-0.658,0.458163,-0.230058\H,0,1.7624
 92,1.394082,-0.449259\H,0,2.138737,0.922123,1.195638\C,0,1.787551,0.54
 0851,0.231531\H,0,3.784823,-0.084931,-0.358058\H,0,2.833963,-1.363785,
 0.395683\H,0,2.491345,-0.877346,-1.263208\C,0,2.782835,-0.508081,-0.27

 Normal termination of Gaussian 16 at Sat Apr  5 22:50:40 2025.
