 Gaussian 16, Revision C.01,

 ----------------------------------------------------------------------
 #t hf aug-cc-pvdz symm=none int=(grid=ultrafine) guess=(read,tcheck) s
 table=(opt,rrhf)
 ----------------------------------------------------------------------
 -----
 title
 -----
 Symbolic Z-matrix:
 Charge =  0 Multiplicity = 1

 SCF Done:  E(RHF) =  -1164.73542815     A.U. after   14 cycles
 Normal termination of Gaussian 16 at Sat Apr  5 22:51:57 2025.
 Gaussian 16:  ES64L-G16RevC.01  3-Jul-2019

 ----------------------------------------------------------------------
 #t hf aug-cc-pvdz iop(5/13=1,5/36=2,99/5=2) pseudo=read geom=check gue
 ss=(read,tcheck) scf=(maxcycle=1)
 ----------------------------------------------------------------------
 -----
 title
 -----
 Structure from the checkpoint file:  "E-1-chloro-3-chloroaminooxyprop-1-ene.chk"
 Charge =  0 Multiplicity = 1

                         Standard orientation:
 ---------------------------------------------------------------------
 Center     Atomic      Atomic             Coordinates (Angstroms)
 Number     Number       Type             X           Y           Z
 ---------------------------------------------------------------------
      1         17           0       -3.711306   -0.250025   -0.222443
      2         17           0        3.245768   -0.766998   -0.070147
      3          8           0        1.080001    0.724444   -0.457102
      4          7           0        2.390823    0.873305   -0.035920
      5          6           0        0.233303    0.411497    0.671316
      6          6           0       -1.182193    0.586458    0.237594
      7          6           0       -2.040512   -0.420694    0.228155
      8          1           0        0.492240    1.094323    1.483319
      9          1           0        0.434639   -0.612867    0.990518
     10          1           0       -1.495582    1.578817   -0.060378
     11          1           0       -1.781946   -1.432223    0.504925
     12          1           0        2.825450    1.289086   -0.858485
 ---------------------------------------------------------------------

 SCF Done:  E(RHF) =  -1165.13600887     A.U. after    2 cycles

 The electronic state is 1-A.
 Alpha  occ. eigenvalues -- -105.58418-105.58141 -20.61926 -15.64939 -11.32138
 Alpha  occ. eigenvalues --  -11.31920 -11.27086 -10.63004 -10.62960  -7.79923
 Alpha  occ. eigenvalues --   -7.79921  -7.79514  -7.79510  -7.79504  -7.79473
 Alpha  occ. eigenvalues --   -1.54760  -1.18284  -1.14458  -1.05291  -0.99410
 Alpha  occ. eigenvalues --   -0.91340  -0.80842  -0.75652  -0.70577  -0.69769
 Alpha  occ. eigenvalues --   -0.65199  -0.63730  -0.57649  -0.55344  -0.53824
 Alpha  occ. eigenvalues --   -0.52669  -0.47601  -0.47229  -0.46143  -0.44228
 Alpha  occ. eigenvalues --   -0.38878
 Alpha virt. eigenvalues --    0.03486   0.04107   0.04737   0.05269   0.05980
 Alpha virt. eigenvalues --    0.07993   0.08802   0.09269   0.10889   0.12192
 Alpha virt. eigenvalues --    0.13137   0.13227   0.14639   0.14861   0.15210

 Mulliken charges:
               1
     1  Cl  -0.199271
     2  Cl   0.083363
     3  O   -1.164723
     4  N    0.393761
     5  C   -0.045633
     6  C    1.200085
     7  C   -0.426899
     8  H    0.161941
     9  H    0.059091
    10  H   -0.053640
    11  H   -0.125155
    12  H    0.117080
 Sum of Mulliken charges =  -0.00000

 Dipole moment (field-independent basis, Debye):
    X=              0.2452    Y=              0.7001    Z=              0.3850  Tot=              0.8358

 Test job not archived.
 1\1\GINC-SE028\SP\RHF\Aug-CC-pVDZ\C3H5Cl2N1O1\OHZDE\05-Apr-2025\0\\#t
 hf aug-cc-pvdz iop(5/13=1,5/36=2,99/5=2) pseudo=read geom=check guess=
 (read,tcheck) scf=(maxcycle=1)\\title\\0,1\Cl,0,-3.711306,-0.250025,-0
 .222443\Cl,0,3.245768,-0.766998,-0.070147\O,0,1.080001,0.724444,-0.457
 102\N,0,2.390823,0.873305,-0.03592\C,0,0.233303,0.411497,0.671316\C,0,
 -1.182193,0.586458,0.237594\C,0,-2.040512,-0.420694,0.228155\H,0,0.492
 24,1.094323,1.483319\H,0,0.434639,-0.612867,0.990518\H,0,-1.495582,1.5
 78817,-0.060378\H,0,-1.781946,-1.432223,0.504925\H,0,2.82545,1.289086,

 Normal termination of Gaussian 16 at Sat Apr  5 22:52:49 2025.
