 Gaussian 16, Revision C.01,

 ----------------------------------------------------------------------
 #t hf aug-cc-pvdz symm=none int=(grid=ultrafine) guess=(read,tcheck) s
 table=(opt,rrhf)
 ----------------------------------------------------------------------
 -----
 title
 -----
 Symbolic Z-matrix:
 Charge =  0 Multiplicity = 1

 SCF Done:  E(RHF) =  -413.687007386     A.U. after   13 cycles
 Normal termination of Gaussian 16 at Sat Apr  5 22:50:33 2025.
 Gaussian 16:  ES64L-G16RevC.01  3-Jul-2019

 ----------------------------------------------------------------------
 #t hf aug-cc-pvdz iop(5/13=1,5/36=2,99/5=2) pseudo=read geom=check gue
 ss=(read,tcheck) scf=(maxcycle=1)
 ----------------------------------------------------------------------
 -----
 title
 -----
 Structure from the checkpoint file:  "E-1-3-3-trifluoropropene.chk"
 Charge =  0 Multiplicity = 1

                         Standard orientation:
 ---------------------------------------------------------------------
 Center     Atomic      Atomic             Coordinates (Angstroms)
 Number     Number       Type             X           Y           Z
 ---------------------------------------------------------------------
      1          6           0       -0.154478    1.510212    0.000000
      2          1           0       -1.217229    1.713662   -0.000000
      3          9           0        0.576176    2.632653    0.000000
      4          6           0        0.400564    0.312634    0.000000
      5          1           0        1.474625    0.185038    0.000000
      6          6           0       -0.438047   -0.911202   -0.000000
      7          1           0       -1.510614   -0.713266   -0.000000
      8          9           0       -0.154478   -1.686065    1.097573
      9          9           0       -0.154478   -1.686065   -1.097573
 ---------------------------------------------------------------------

 SCF Done:  E(RHF) =  -414.077102799     A.U. after    2 cycles

 The electronic state is 1-A'.
 Alpha  occ. eigenvalues --  -26.50142 -26.48038 -26.48036 -11.43571 -11.36949
 Alpha  occ. eigenvalues --  -11.27352  -1.64425  -1.63277  -1.57543  -1.11556
 Alpha  occ. eigenvalues --   -0.95640  -0.85971  -0.78341  -0.77461  -0.74353
 Alpha  occ. eigenvalues --   -0.72460  -0.69287  -0.66986  -0.64215  -0.60811
 Alpha  occ. eigenvalues --   -0.60351  -0.58646  -0.53762  -0.42015
 Alpha virt. eigenvalues --    0.03175   0.04408   0.05063   0.08914   0.09899
 Alpha virt. eigenvalues --    0.10123   0.10367   0.12790   0.13482   0.15134
 Alpha virt. eigenvalues --    0.15471   0.15892   0.16873   0.16954   0.21284

 Mulliken charges:
               1
     1  C    0.928540
     2  H    0.009556
     3  F   -0.749096
     4  C    0.045168
     5  H   -0.127029
     6  C    1.318407
     7  H   -0.017745
     8  F   -0.703900
     9  F   -0.703900
 Sum of Mulliken charges =  -0.00000

 Dipole moment (field-independent basis, Debye):
    X=             -1.3941    Y=              1.3435    Z=             -0.0000  Tot=              1.9361

 Test job not archived.
 1\1\GINC-SE045\SP\RHF\Aug-CC-pVDZ\C3H3F3\OHZDE\05-Apr-2025\0\\#t hf au
 g-cc-pvdz iop(5/13=1,5/36=2,99/5=2) pseudo=read geom=check guess=(read
 ,tcheck) scf=(maxcycle=1)\\title\\0,1\C,0,-0.154478,1.510212,0.\H,0,-1
 .217229,1.713662,0.\F,0,0.576176,2.632653,0.\C,0,0.400564,0.312634,0.\
 H,0,1.474625,0.185038,0.\C,0,-0.438047,-0.911202,0.\H,0,-1.510614,-0.7
 13266,0.\F,0,-0.154478,-1.686065,1.097573\F,0,-0.154478,-1.686065,-1.0
 97573\\Version=ES64L-G16RevC.01\State=1-A'\HF=-414.0771028\RMSD=1.258e
 -02\Dipole=-0.5484806,0.5285775,0.\Quadrupole=4.5560795,-3.3742226,-1.

 Normal termination of Gaussian 16 at Sat Apr  5 22:50:36 2025.
