 Gaussian 16, Revision C.01,

 ----------------------------------------------------------------------
 #t hf aug-cc-pvdz symm=none int=(grid=ultrafine) guess=(read,tcheck) s
 table=(opt,rrhf)
 ----------------------------------------------------------------------
 -----
 title
 -----
 Symbolic Z-matrix:
 Charge =  0 Multiplicity = 1

 SCF Done:  E(RHF) =  -208.833989950     A.U. after   14 cycles
 Normal termination of Gaussian 16 at Sat Apr  5 22:51:35 2025.
 Gaussian 16:  ES64L-G16RevC.01  3-Jul-2019

 ----------------------------------------------------------------------
 #t hf aug-cc-pvdz iop(5/13=1,5/36=2,99/5=2) pseudo=read geom=check gue
 ss=(read,tcheck) scf=(maxcycle=1)
 ----------------------------------------------------------------------
 -----
 title
 -----
 Structure from the checkpoint file:  "E-2-butenenitrile.chk"
 Charge =  0 Multiplicity = 1

                         Standard orientation:
 ---------------------------------------------------------------------
 Center     Atomic      Atomic             Coordinates (Angstroms)
 Number     Number       Type             X           Y           Z
 ---------------------------------------------------------------------
      1          1           0        2.655683    0.401193    0.000000
      2          1           0        2.622682   -1.138527    0.875361
      3          1           0        2.622682   -1.138527   -0.875361
      4          6           0        2.242257   -0.606309    0.000000
      5          1           0        0.256482   -1.562903    0.000000
      6          6           0        0.752473   -0.598413    0.000000
      7          1           0        0.451575    1.489847    0.000000
      8          6           0        0.000000    0.504802    0.000000
      9          7           0       -2.576635    0.473241    0.000000
     10          6           0       -1.423506    0.472625    0.000000
 ---------------------------------------------------------------------

 SCF Done:  E(RHF) =  -209.048332509     A.U. after    2 cycles

 The electronic state is 1-A'.
 Alpha  occ. eigenvalues --  -15.51034 -11.29393 -11.28501 -11.28052 -11.26334
 Alpha  occ. eigenvalues --   -1.23182  -1.12235  -0.99904  -0.84244  -0.74576
 Alpha  occ. eigenvalues --   -0.65418  -0.61235  -0.60713  -0.57780  -0.55291
 Alpha  occ. eigenvalues --   -0.53710  -0.49821  -0.39874
 Alpha virt. eigenvalues --    0.02792   0.03593   0.04410   0.04525   0.07007
 Alpha virt. eigenvalues --    0.07129   0.09140   0.10940   0.12257   0.12624
 Alpha virt. eigenvalues --    0.12629   0.13585   0.14964   0.15490   0.16569

 Mulliken charges:
               1
     1  H    0.118496
     2  H    0.243649
     3  H    0.243649
     4  C   -0.572952
     5  H   -0.119227
     6  C    0.298778
     7  H   -0.180524
     8  C    1.462562
     9  N    0.913808
    10  C   -2.408238
 Sum of Mulliken charges =  -0.00000

 Dipole moment (field-independent basis, Debye):
    X=              5.7032    Y=             -0.8610    Z=              0.0000  Tot=              5.7678

 Test job not archived.
 1\1\GINC-SE129\SP\RHF\Aug-CC-pVDZ\C4H5N1\OHZDE\05-Apr-2025\0\\#t hf au
 g-cc-pvdz iop(5/13=1,5/36=2,99/5=2) pseudo=read geom=check guess=(read
 ,tcheck) scf=(maxcycle=1)\\title\\0,1\H,0,2.655683,0.401193,0.\H,0,2.6
 22682,-1.138527,0.875361\H,0,2.622682,-1.138527,-0.875361\C,0,2.242257
 ,-0.606309,0.\H,0,0.256482,-1.562903,0.\C,0,0.752473,-0.598413,0.\H,0,
 0.451575,1.489847,0.\C,0,0.,0.504802,0.\N,0,-2.576635,0.473241,0.\C,0,
 -1.423506,0.472625,0.\\Version=ES64L-G16RevC.01\State=1-A'\HF=-209.048
 3325\RMSD=2.585e-02\Dipole=2.2438098,-0.3387622,0.\Quadrupole=-5.81675

 Normal termination of Gaussian 16 at Sat Apr  5 22:51:41 2025.
