 Gaussian 16, Revision C.01,

 ----------------------------------------------------------------------
 #t hf aug-cc-pvdz symm=none int=(grid=ultrafine) guess=(read,tcheck) s
 table=(opt,rrhf)
 ----------------------------------------------------------------------
 -----
 title
 -----
 Symbolic Z-matrix:
 Charge =  0 Multiplicity = 1

 SCF Done:  E(RHF) =  -195.167345772     A.U. after   12 cycles
 Normal termination of Gaussian 16 at Sat Apr  5 22:53:02 2025.
 Gaussian 16:  ES64L-G16RevC.01  3-Jul-2019

 ----------------------------------------------------------------------
 #t hf aug-cc-pvdz iop(5/13=1,5/36=2,99/5=2) pseudo=read geom=check gue
 ss=(read,tcheck) scf=(maxcycle=1)
 ----------------------------------------------------------------------
 -----
 title
 -----
 Structure from the checkpoint file:  "E-2-pentene.chk"
 Charge =  0 Multiplicity = 1

                         Standard orientation:
 ---------------------------------------------------------------------
 Center     Atomic      Atomic             Coordinates (Angstroms)
 Number     Number       Type             X           Y           Z
 ---------------------------------------------------------------------
      1          6           0        1.170211    0.338779    0.232071
      2          6           0        0.066000   -0.045993   -0.399570
      3          6           0        2.527893   -0.268148    0.055662
      4          6           0       -2.338851   -0.455053    0.271000
      5          6           0       -1.295746    0.556611   -0.220194
      6          1           0        1.103462    1.163582    0.937874
      7          1           0        0.129624   -0.873234   -1.104350
      8          1           0        3.251170    0.475143   -0.290413
      9          1           0        2.510259   -1.084591   -0.666589
     10          1           0        2.912006   -0.659771    1.001395
     11          1           0       -3.323952    0.006212    0.354652
     12          1           0       -2.066008   -0.853268    1.249121
     13          1           0       -2.423715   -1.297719   -0.417841
     14          1           0       -1.635193    0.971610   -1.175306
     15          1           0       -1.234696    1.394857    0.477641
 ---------------------------------------------------------------------

 SCF Done:  E(RHF) =  -195.386232949     A.U. after    2 cycles

 The electronic state is 1-A.
 Alpha  occ. eigenvalues --  -11.22974 -11.22963 -11.22722 -11.22615 -11.22215
 Alpha  occ. eigenvalues --   -1.08850  -1.01973  -0.92827  -0.83484  -0.75072
 Alpha  occ. eigenvalues --   -0.63068  -0.62840  -0.57969  -0.56766  -0.55791
 Alpha  occ. eigenvalues --   -0.52154  -0.51244  -0.48874  -0.47705  -0.35095
 Alpha virt. eigenvalues --    0.03816   0.03975   0.04071   0.04334   0.05752
 Alpha virt. eigenvalues --    0.06374   0.06494   0.07475   0.08892   0.09447
 Alpha virt. eigenvalues --    0.11264   0.13248   0.13777   0.14797   0.15057

 Mulliken charges:
               1
     1  C    0.168577
     2  C    0.772873
     3  C   -0.744915
     4  C   -0.387086
     5  C   -0.663296
     6  H   -0.207608
     7  H   -0.227711
     8  H    0.227479
     9  H    0.101664
    10  H    0.230036
    11  H    0.102732
    12  H    0.147625
    13  H    0.162983
    14  H    0.204692
    15  H    0.111955
 Sum of Mulliken charges =  -0.00000

 Dipole moment (field-independent basis, Debye):
    X=              0.0153    Y=              0.0412    Z=              0.0197  Tot=              0.0482

 Test job not archived.
 1\1\GINC-SE040\SP\RHF\Aug-CC-pVDZ\C5H10\OHZDE\05-Apr-2025\0\\#t hf aug
 -cc-pvdz iop(5/13=1,5/36=2,99/5=2) pseudo=read geom=check guess=(read,
 tcheck) scf=(maxcycle=1)\\title\\0,1\C,0,1.170211,0.338779,0.232071\C,
 0,0.066,-0.045993,-0.39957\C,0,2.527893,-0.268148,0.055662\C,0,-2.3388
 51,-0.455053,0.271\C,0,-1.295746,0.556611,-0.220194\H,0,1.103462,1.163
 582,0.937874\H,0,0.129624,-0.873234,-1.10435\H,0,3.25117,0.475143,-0.2
 90413\H,0,2.510259,-1.084591,-0.666589\H,0,2.912006,-0.659771,1.001395
 \H,0,-3.323952,0.006212,0.354652\H,0,-2.066008,-0.853268,1.249121\H,0,

 Normal termination of Gaussian 16 at Sat Apr  5 22:53:11 2025.
