 Gaussian 16, Revision C.01,

 ----------------------------------------------------------------------
 #t hf aug-cc-pvdz symm=none int=(grid=ultrafine) guess=(read,tcheck) s
 table=(opt,rrhf)
 ----------------------------------------------------------------------
 -----
 title
 -----
 Symbolic Z-matrix:
 Charge =  0 Multiplicity = 1

 SCF Done:  E(RHF) =  -156.128704289     A.U. after   10 cycles
 Normal termination of Gaussian 16 at Sat Apr  5 22:51:34 2025.
 Gaussian 16:  ES64L-G16RevC.01  3-Jul-2019

 ----------------------------------------------------------------------
 #t hf aug-cc-pvdz iop(5/13=1,5/36=2,99/5=2) pseudo=read geom=check gue
 ss=(read,tcheck) scf=(maxcycle=1)
 ----------------------------------------------------------------------
 -----
 title
 -----
 Structure from the checkpoint file:  "E-2-butene.chk"
 Charge =  0 Multiplicity = 1

                         Standard orientation:
 ---------------------------------------------------------------------
 Center     Atomic      Atomic             Coordinates (Angstroms)
 Number     Number       Type             X           Y           Z
 ---------------------------------------------------------------------
      1          6           0       -0.323065    0.580595    0.000000
      2          6           0        0.323065   -0.580595    0.000000
      3          6           0        0.323065    1.931514    0.000000
      4          6           0       -0.323065   -1.931514    0.000000
      5          1           0       -1.410554    0.569817    0.000000
      6          1           0        1.410554   -0.569817    0.000000
      7          1           0        0.024557    2.513142    0.876335
      8          1           0        1.410604    1.854162    0.000000
      9          1           0        0.024557    2.513142   -0.876335
     10          1           0       -0.024557   -2.513142    0.876335
     11          1           0       -1.410604   -1.854162    0.000000
     12          1           0       -0.024557   -2.513142   -0.876335
 ---------------------------------------------------------------------

 SCF Done:  E(RHF) =  -156.303847751     A.U. after    2 cycles

 The electronic state is 1-AG.
 Alpha  occ. eigenvalues --  -11.22990 -11.22861 -11.22720 -11.22720  -1.08001
 Alpha  occ. eigenvalues --   -0.98570  -0.88313  -0.74978  -0.61767  -0.61655
 Alpha  occ. eigenvalues --   -0.57661  -0.55939  -0.52969  -0.51896  -0.48911
 Alpha  occ. eigenvalues --   -0.35096
 Alpha virt. eigenvalues --    0.04048   0.04052   0.04295   0.05014   0.06298
 Alpha virt. eigenvalues --    0.06731   0.06763   0.09627   0.11221   0.12305
 Alpha virt. eigenvalues --    0.12907   0.14716   0.16571   0.16863   0.17255

 Mulliken charges:
               1
     1  C    0.345456
     2  C    0.345456
     3  C   -0.704283
     4  C   -0.704283
     5  H   -0.187052
     6  H   -0.187052
     7  H    0.221209
     8  H    0.103462
     9  H    0.221209
    10  H    0.221209
    11  H    0.103462
    12  H    0.221209
 Sum of Mulliken charges =  -0.00000

 Dipole moment (field-independent basis, Debye):
    X=              0.0000    Y=             -0.0000    Z=             -0.0000  Tot=              0.0000

 Test job not archived.
 1\1\GINC-SE055\SP\RHF\Aug-CC-pVDZ\C4H8\OHZDE\05-Apr-2025\0\\#t hf aug-
 cc-pvdz iop(5/13=1,5/36=2,99/5=2) pseudo=read geom=check guess=(read,t
 check) scf=(maxcycle=1)\\title\\0,1\C,0,-0.323065,0.580595,0.\C,0,0.32
 3065,-0.580595,0.\C,0,0.323065,1.931514,0.\C,0,-0.323065,-1.931514,0.\
 H,0,-1.410554,0.569817,0.\H,0,1.410554,-0.569817,0.\H,0,0.024557,2.513
 142,0.876335\H,0,1.410604,1.854162,0.\H,0,0.024557,2.513142,-0.876335\
 H,0,-0.024557,-2.513142,0.876335\H,0,-1.410604,-1.854162,0.\H,0,-0.024
 557,-2.513142,-0.876335\\Version=ES64L-G16RevC.01\State=1-AG\HF=-156.3

 Normal termination of Gaussian 16 at Sat Apr  5 22:51:40 2025.
