 Gaussian 16, Revision C.01,

 ----------------------------------------------------------------------
 #t hf aug-cc-pvdz symm=none int=(grid=ultrafine) guess=(read,tcheck) s
 table=(opt,rrhf)
 ----------------------------------------------------------------------
 -----
 title
 -----
 Symbolic Z-matrix:
 Charge =  0 Multiplicity = 1

 SCF Done:  E(RHF) =  -247.872109080     A.U. after   14 cycles
 Normal termination of Gaussian 16 at Sat Apr  5 22:51:48 2025.
 Gaussian 16:  ES64L-G16RevC.01  3-Jul-2019

 ----------------------------------------------------------------------
 #t hf aug-cc-pvdz iop(5/13=1,5/36=2,99/5=2) pseudo=read geom=check gue
 ss=(read,tcheck) scf=(maxcycle=1)
 ----------------------------------------------------------------------
 -----
 title
 -----
 Structure from the checkpoint file:  "E-2-pentenenitrile.chk"
 Charge =  0 Multiplicity = 1

                         Standard orientation:
 ---------------------------------------------------------------------
 Center     Atomic      Atomic             Coordinates (Angstroms)
 Number     Number       Type             X           Y           Z
 ---------------------------------------------------------------------
      1          7           0       -1.442941    2.799964    0.000000
      2          6           0       -0.809520    1.836292    0.000000
      3          1           0        1.068858    0.833466    0.000000
      4          6           0        0.000000    0.664830    0.000000
      5          1           0       -1.596381   -0.669835    0.000000
      6          6           0       -0.516510   -0.567384    0.000000
      7          1           0       -0.069250   -2.431965    0.866379
      8          1           0       -0.069250   -2.431965   -0.866379
      9          6           0        0.258117   -1.846322    0.000000
     10          1           0        2.237470   -2.709684    0.000000
     11          1           0        2.135946   -1.190903   -0.882660
     12          1           0        2.135946   -1.190903    0.882660
     13          6           0        1.777455   -1.722075    0.000000
 ---------------------------------------------------------------------

 SCF Done:  E(RHF) =  -248.130090669     A.U. after    2 cycles

 The electronic state is 1-A'.
 Alpha  occ. eigenvalues --  -15.50824 -11.29006 -11.28195 -11.27881 -11.26559
 Alpha  occ. eigenvalues --  -11.24759  -1.22996  -1.12960  -1.03879  -0.92381
 Alpha  occ. eigenvalues --   -0.81919  -0.73962  -0.65171  -0.64640  -0.61943
 Alpha  occ. eigenvalues --   -0.59172  -0.54257  -0.53648  -0.53050  -0.52574
 Alpha  occ. eigenvalues --   -0.49448  -0.39641
 Alpha virt. eigenvalues --    0.02758   0.03138   0.03770   0.04096   0.06493
 Alpha virt. eigenvalues --    0.06515   0.07190   0.07885   0.09805   0.11636
 Alpha virt. eigenvalues --    0.12143   0.12355   0.13586   0.13876   0.15384

 Mulliken charges:
               1
     1  N    0.977833
     2  C   -2.835727
     3  H   -0.269049
     4  C    1.614559
     5  H   -0.204647
     6  C    0.559880
     7  H    0.251217
     8  H    0.251217
     9  C   -0.679956
    10  H    0.061908
    11  H    0.209304
    12  H    0.209304
    13  C   -0.145843
 Sum of Mulliken charges =   0.00000

 Dipole moment (field-independent basis, Debye):
    X=              2.5591    Y=             -5.4005    Z=             -0.0000  Tot=              5.9762

 Test job not archived.
 1\1\GINC-SE041\SP\RHF\Aug-CC-pVDZ\C5H7N1\OHZDE\05-Apr-2025\0\\#t hf au
 g-cc-pvdz iop(5/13=1,5/36=2,99/5=2) pseudo=read geom=check guess=(read
 ,tcheck) scf=(maxcycle=1)\\title\\0,1\N,0,-1.442941,2.799964,0.\C,0,-0
 .80952,1.836292,0.\H,0,1.068858,0.833466,0.\C,0,0.,0.66483,0.\H,0,-1.5
 96381,-0.669835,0.\C,0,-0.51651,-0.567384,0.\H,0,-0.06925,-2.431965,0.
 866379\H,0,-0.06925,-2.431965,-0.866379\C,0,0.258117,-1.846322,0.\H,0,
 2.23747,-2.709684,0.\H,0,2.135946,-1.190903,-0.88266\H,0,2.135946,-1.1
 90903,0.88266\C,0,1.777455,-1.722075,0.\\Version=ES64L-G16RevC.01\Stat

 Normal termination of Gaussian 16 at Sat Apr  5 22:52:47 2025.
