 Gaussian 16, Revision C.01,

 ----------------------------------------------------------------------
 #t hf aug-cc-pvdz symm=none int=(grid=ultrafine) guess=(read,tcheck) s
 table=(opt,rrhf)
 ----------------------------------------------------------------------
 -----
 title
 -----
 Symbolic Z-matrix:
 Charge =  0 Multiplicity = 1

 SCF Done:  E(RHF) =  -615.052620356     A.U. after   13 cycles

 1\1\GINC-SE146\Stability\RHF\Aug-CC-pVDZ\C4H7Cl1\OHZDE\05-Apr-2025\0\\
 #t hf aug-cc-pvdz symm=none int=(grid=ultrafine) guess=(read,tcheck) s
 table=(opt,rrhf)\\title\\0,1\C,0,-2.219388,-1.031508,0.\H,0,-2.709797,
 -0.060794,0.\H,0,-2.56757,-1.583635,0.87654\H,0,-2.56757,-1.583635,-0.
 87654\C,0,0.,0.174336,0.\H,0,-0.192077,-1.881945,0.\C,0,-0.724178,-0.9
 38568,0.\H,0,-0.067567,2.12055,0.878325\H,0,-0.067567,2.12055,-0.87832
 5\C,0,-0.449589,1.597487,0.\Cl,0,1.768594,0.022859,0.\H,0,-1.535021,1.
 669819,0.\\Version=ES64L-G16RevC.01\HF=-615.0526204\RMSD=4.218e-09\Dip

 Normal termination of Gaussian 16 at Sat Apr  5 22:51:37 2025.
 Gaussian 16:  ES64L-G16RevC.01  3-Jul-2019

 ----------------------------------------------------------------------
 #t hf aug-cc-pvdz iop(5/13=1,5/36=2,99/5=2) pseudo=read geom=check gue
 ss=(read,tcheck) scf=(maxcycle=1)
 ----------------------------------------------------------------------
 -----
 title
 -----
 Structure from the checkpoint file:  "E-2-chloro-2-butene.chk"
 Charge =  0 Multiplicity = 1

                         Standard orientation:
 ---------------------------------------------------------------------
 Center     Atomic      Atomic             Coordinates (Angstroms)
 Number     Number       Type             X           Y           Z
 ---------------------------------------------------------------------
      1          6           0       -2.219388   -1.031508    0.000000
      2          1           0       -2.709797   -0.060794    0.000000
      3          1           0       -2.567570   -1.583635    0.876540
      4          1           0       -2.567570   -1.583635   -0.876540
      5          6           0        0.000000    0.174336    0.000000
      6          1           0       -0.192077   -1.881945    0.000000
      7          6           0       -0.724178   -0.938568    0.000000
      8          1           0       -0.067567    2.120550    0.878325
      9          1           0       -0.067567    2.120550   -0.878325
     10          6           0       -0.449589    1.597487    0.000000
     11         17           0        1.768594    0.022859    0.000000
     12          1           0       -1.535021    1.669819    0.000000
 ---------------------------------------------------------------------

 SCF Done:  E(RHF) =  -615.299852485     A.U. after    2 cycles

 The electronic state is 1-A'.
 Alpha  occ. eigenvalues -- -105.55819 -11.30292 -11.25009 -11.24717 -11.24444
 Alpha  occ. eigenvalues --  -10.60641  -7.77590  -7.77215  -7.77198  -1.14175
 Alpha  occ. eigenvalues --   -1.03595  -0.98555  -0.91045  -0.73012  -0.66136
 Alpha  occ. eigenvalues --   -0.61559  -0.60551  -0.57758  -0.56350  -0.54176
 Alpha  occ. eigenvalues --   -0.50537  -0.48717  -0.45231  -0.35676
 Alpha virt. eigenvalues --    0.03446   0.04029   0.04689   0.04976   0.06469
 Alpha virt. eigenvalues --    0.06701   0.07978   0.10531   0.10841   0.11996
 Alpha virt. eigenvalues --    0.13980   0.14461   0.14840   0.15785   0.16248

 Mulliken charges:
               1
     1  C   -0.633224
     2  H    0.090692
     3  H    0.255612
     4  H    0.255612
     5  C   -0.203899
     6  H   -0.112973
     7  C    0.514997
     8  H    0.281639
     9  H    0.281639
    10  C   -0.596892
    11  Cl  -0.278466
    12  H    0.145263
 Sum of Mulliken charges =  -0.00000

 Dipole moment (field-independent basis, Debye):
    X=             -2.3886    Y=              0.1768    Z=              0.0000  Tot=              2.3951

 Test job not archived.
 1\1\GINC-SE146\SP\RHF\Aug-CC-pVDZ\C4H7Cl1\OHZDE\05-Apr-2025\0\\#t hf a
 ug-cc-pvdz iop(5/13=1,5/36=2,99/5=2) pseudo=read geom=check guess=(rea
 d,tcheck) scf=(maxcycle=1)\\title\\0,1\C,0,-2.219388,-1.031508,0.\H,0,
 -2.709797,-0.060794,0.\H,0,-2.56757,-1.583635,0.87654\H,0,-2.56757,-1.
 583635,-0.87654\C,0,0.,0.174336,0.\H,0,-0.192077,-1.881945,0.\C,0,-0.7
 24178,-0.938568,0.\H,0,-0.067567,2.12055,0.878325\H,0,-0.067567,2.1205
 5,-0.878325\C,0,-0.449589,1.597487,0.\Cl,0,1.768594,0.022859,0.\H,0,-1
 .535021,1.669819,0.\\Version=ES64L-G16RevC.01\State=1-A'\HF=-615.29985

 Normal termination of Gaussian 16 at Sat Apr  5 22:51:42 2025.
