 Gaussian 16, Revision C.01,

 ----------------------------------------------------------------------
 #t hf aug-cc-pvdz symm=none int=(grid=ultrafine) guess=(read,tcheck) s
 table=(opt,rrhf)
 ----------------------------------------------------------------------
 -----
 title
 -----
 Symbolic Z-matrix:
 Charge =  0 Multiplicity = 1

 SCF Done:  E(RHF) =  -490.470752553     A.U. after   16 cycles
 Normal termination of Gaussian 16 at Sat Apr  5 22:52:44 2025.
 Gaussian 16:  ES64L-G16RevC.01  3-Jul-2019

 ----------------------------------------------------------------------
 #t hf aug-cc-pvdz iop(5/13=1,5/36=2,99/5=2) pseudo=read geom=check gue
 ss=(read,tcheck) scf=(maxcycle=1)
 ----------------------------------------------------------------------
 -----
 title
 -----
 Structure from the checkpoint file:  "E-2-diazino-1-2-methylprop-2-enoxy-ethenolate.chk"
 Charge =  0 Multiplicity = 1

                         Standard orientation:
 ---------------------------------------------------------------------
 Center     Atomic      Atomic             Coordinates (Angstroms)
 Number     Number       Type             X           Y           Z
 ---------------------------------------------------------------------
      1          8           0       -0.050156    0.740035    0.079572
      2          8           0        1.936027    1.687629   -0.182327
      3          7           0        3.213504   -0.696582   -0.044778
      4          7           0        4.330864   -0.709304   -0.134489
      5          6           0        1.298833    0.673982   -0.023993
      6          6           0        1.909663   -0.650513    0.057625
      7          6           0       -0.856529   -0.436953    0.311416
      8          6           0       -2.276948   -0.004647    0.447772
      9          6           0       -3.260722   -0.448114   -0.326484
     10          6           0       -4.699726   -0.063453   -0.200434
     11          1           0        1.420216   -1.598861    0.184598
     12          1           0       -0.512068   -0.920689    1.230337
     13          1           0       -0.746910   -1.133819   -0.522395
     14          1           0       -2.482030    0.705676    1.242038
     15          1           0       -3.020014   -1.148491   -1.122413
     16          1           0       -5.062145    0.389855   -1.126289
     17          1           0       -4.856995    0.645101    0.612065
     18          1           0       -5.325023   -0.940694   -0.016433
 ---------------------------------------------------------------------

 SCF Done:  E(RHF) =  -490.959777950     A.U. after    2 cycles

 The electronic state is 1-A.
 Alpha  occ. eigenvalues --  -20.58763 -20.51757 -15.71108 -15.64672 -11.39802
 Alpha  occ. eigenvalues --  -11.31733 -11.29626 -11.25680 -11.24683 -11.24262
 Alpha  occ. eigenvalues --   -1.53591  -1.52304  -1.44333  -1.19298  -1.10451
 Alpha  occ. eigenvalues --   -1.01175  -0.91744  -0.89963  -0.78848  -0.77740
 Alpha  occ. eigenvalues --   -0.76479  -0.75189  -0.73400  -0.68525  -0.67603
 Alpha  occ. eigenvalues --   -0.65395  -0.62263  -0.61162  -0.58512  -0.56230
 Alpha  occ. eigenvalues --   -0.55213  -0.53076  -0.51023  -0.45347  -0.44295
 Alpha  occ. eigenvalues --   -0.38238  -0.37779
 Alpha virt. eigenvalues --    0.02602   0.03332   0.03568   0.04782   0.05056
 Alpha virt. eigenvalues --    0.05540   0.05669   0.06980   0.07222   0.08527
 Alpha virt. eigenvalues --    0.09012   0.10279   0.10400   0.10687   0.12471

 Mulliken charges:
               1
     1  O   -1.274639
     2  O   -1.383230
     3  N   -0.680012
     4  N    0.992838
     5  C    2.054401
     6  C   -0.257059
     7  C   -0.323821
     8  C    1.152912
     9  C    0.178550
    10  C   -0.671302
    11  H   -0.121750
    12  H    0.152332
    13  H   -0.003786
    14  H   -0.224096
    15  H   -0.178942
    16  H    0.245484
    17  H    0.097059
    18  H    0.245063
 Sum of Mulliken charges =   0.00000

 Dipole moment (field-independent basis, Debye):
    X=             -3.2647    Y=             -4.6617    Z=              0.5718  Tot=              5.7198

 Test job not archived.
 1\1\GINC-SE194\SP\RHF\Aug-CC-pVDZ\C6H8N2O2\OHZDE\05-Apr-2025\0\\#t hf
 aug-cc-pvdz iop(5/13=1,5/36=2,99/5=2) pseudo=read geom=check guess=(re
 ad,tcheck) scf=(maxcycle=1)\\title\\0,1\O,0,-0.050156,0.740035,0.07957
 2\O,0,1.936027,1.687629,-0.182327\N,0,3.213504,-0.696582,-0.044778\N,0
 ,4.330864,-0.709304,-0.134489\C,0,1.298833,0.673982,-0.023993\C,0,1.90
 9663,-0.650513,0.057625\C,0,-0.856529,-0.436953,0.311416\C,0,-2.276948
 ,-0.004647,0.447772\C,0,-3.260722,-0.448114,-0.326484\C,0,-4.699726,-0
 .063453,-0.200434\H,0,1.420216,-1.598861,0.184598\H,0,-0.512068,-0.920

 Normal termination of Gaussian 16 at Sat Apr  5 22:52:52 2025.
