 Gaussian 16, Revision C.01,

 ----------------------------------------------------------------------
 #t hf aug-cc-pvdz symm=none int=(grid=ultrafine) guess=(read,tcheck) s
 table=(opt,rrhf)
 ----------------------------------------------------------------------
 -----
 title
 -----
 Symbolic Z-matrix:
 Charge =  0 Multiplicity = 1

 SCF Done:  E(RHF) =  -247.871823681     A.U. after   14 cycles
 Normal termination of Gaussian 16 at Sat Apr  5 22:52:01 2025.
 Gaussian 16:  ES64L-G16RevC.01  3-Jul-2019

 ----------------------------------------------------------------------
 #t hf aug-cc-pvdz iop(5/13=1,5/36=2,99/5=2) pseudo=read geom=check gue
 ss=(read,tcheck) scf=(maxcycle=1)
 ----------------------------------------------------------------------
 -----
 title
 -----
 Structure from the checkpoint file:  "E-3-pentenenitrile.chk"
 Charge =  0 Multiplicity = 1

                         Standard orientation:
 ---------------------------------------------------------------------
 Center     Atomic      Atomic             Coordinates (Angstroms)
 Number     Number       Type             X           Y           Z
 ---------------------------------------------------------------------
      1          1           0        3.609044    0.273076    0.113372
      2          1           0        3.098636   -1.103376   -0.844452
      3          1           0        2.741762   -1.060175    0.886842
      4          6           0        2.803885   -0.454173   -0.016457
      5          1           0        1.487319    0.854078   -1.202776
      6          6           0        1.507467    0.229794   -0.313018
      7          1           0        0.395283   -0.497491    1.305299
      8          6           0        0.405132    0.126989    0.418299
      9          6           0       -0.883366    0.846575    0.103693
     10          7           0       -2.901787   -0.791599   -0.168867
     11          6           0       -2.016649   -0.066647   -0.054156
     12          1           0       -0.780939    1.432476   -0.811185
     13          1           0       -1.137406    1.547375    0.904805
 ---------------------------------------------------------------------

 SCF Done:  E(RHF) =  -248.130058952     A.U. after    2 cycles

 The electronic state is 1-A.
 Alpha  occ. eigenvalues --  -15.50873 -11.29649 -11.27899 -11.26099 -11.25930
 Alpha  occ. eigenvalues --  -11.24625  -1.23298  -1.12018  -1.03958  -0.93167
 Alpha  occ. eigenvalues --   -0.78578  -0.71352  -0.66035  -0.65837  -0.60322
 Alpha  occ. eigenvalues --   -0.58726  -0.58597  -0.55710  -0.52772  -0.49227
 Alpha  occ. eigenvalues --   -0.48945  -0.38530
 Alpha virt. eigenvalues --    0.03116   0.03429   0.03682   0.04666   0.05809
 Alpha virt. eigenvalues --    0.06303   0.07625   0.09548   0.09811   0.10673
 Alpha virt. eigenvalues --    0.12365   0.13725   0.14117   0.14309   0.14865

 Mulliken charges:
               1
     1  H    0.235354
     2  H    0.237265
     3  H    0.106959
     4  C   -0.712291
     5  H   -0.200123
     6  C    0.309621
     7  H   -0.151401
     8  C    0.541409
     9  C   -0.255951
    10  N    0.852836
    11  C   -1.487726
    12  H    0.209684
    13  H    0.314365
 Sum of Mulliken charges =  -0.00000

 Dipole moment (field-independent basis, Debye):
    X=              4.3488    Y=              2.7582    Z=              0.3718  Tot=              5.1632

 Test job not archived.
 1\1\GINC-SE190\SP\RHF\Aug-CC-pVDZ\C5H7N1\OHZDE\05-Apr-2025\0\\#t hf au
 g-cc-pvdz iop(5/13=1,5/36=2,99/5=2) pseudo=read geom=check guess=(read
 ,tcheck) scf=(maxcycle=1)\\title\\0,1\H,0,3.609044,0.273076,0.113372\H
 ,0,3.098636,-1.103376,-0.844452\H,0,2.741762,-1.060175,0.886842\C,0,2.
 803885,-0.454173,-0.016457\H,0,1.487319,0.854078,-1.202776\C,0,1.50746
 7,0.229794,-0.313018\H,0,0.395283,-0.497491,1.305299\C,0,0.405132,0.12
 6989,0.418299\C,0,-0.883366,0.846575,0.103693\N,0,-2.901787,-0.791599,
 -0.168867\C,0,-2.016649,-0.066647,-0.054156\H,0,-0.780939,1.432476,-0.

 Normal termination of Gaussian 16 at Sat Apr  5 22:52:47 2025.
