 Gaussian 16, Revision C.01,

 ----------------------------------------------------------------------
 #t hf aug-cc-pvdz symm=none int=(grid=ultrafine) guess=(read,tcheck) s
 table=(opt,rrhf)
 ----------------------------------------------------------------------
 -----
 title
 -----
 Symbolic Z-matrix:
 Charge =  0 Multiplicity = 1

 SCF Done:  E(RHF) =  -1108.64501208     A.U. after   14 cycles
 Normal termination of Gaussian 16 at Sat Apr  5 22:51:48 2025.
 Gaussian 16:  ES64L-G16RevC.01  3-Jul-2019

 ----------------------------------------------------------------------
 #t hf aug-cc-pvdz iop(5/13=1,5/36=2,99/5=2) pseudo=read geom=check gue
 ss=(read,tcheck) scf=(maxcycle=1)
 ----------------------------------------------------------------------
 -----
 title
 -----
 Structure from the checkpoint file:  "E-3-chloroacryloyl_chloride.chk"
 Charge =  0 Multiplicity = 1

                         Standard orientation:
 ---------------------------------------------------------------------
 Center     Atomic      Atomic             Coordinates (Angstroms)
 Number     Number       Type             X           Y           Z
 ---------------------------------------------------------------------
      1         17           0        2.462394   -0.834112    0.000000
      2         17           0       -2.210865    1.860330    0.000000
      3          8           0        0.141352   -2.060501    0.000000
      4          6           0        0.651704   -0.988993    0.000000
      5          6           0        0.000000    0.327350    0.000000
      6          6           0       -1.330710    0.383125    0.000000
      7          1           0        0.617498    1.210825    0.000000
      8          1           0       -1.950271   -0.501414    0.000000
 ---------------------------------------------------------------------

 SCF Done:  E(RHF) =  -1108.98160766     A.U. after    2 cycles

 The electronic state is 1-A'.
 Alpha  occ. eigenvalues -- -105.61168-105.58512 -20.58930 -11.43398 -11.36308
 Alpha  occ. eigenvalues --  -11.29583 -10.65992 -10.63371  -7.82960  -7.82536
 Alpha  occ. eigenvalues --   -7.82524  -7.80292  -7.79922  -7.79907  -1.53824
 Alpha  occ. eigenvalues --   -1.18440  -1.11028  -1.05331  -0.88232  -0.79490
 Alpha  occ. eigenvalues --   -0.72338  -0.70072  -0.63838  -0.62150  -0.60664
 Alpha  occ. eigenvalues --   -0.55295  -0.50498  -0.48443  -0.48018  -0.46094
 Alpha  occ. eigenvalues --   -0.41567
 Alpha virt. eigenvalues --    0.03266   0.03733   0.04492   0.07044   0.08704
 Alpha virt. eigenvalues --    0.10259   0.10271   0.11906   0.12012   0.13370
 Alpha virt. eigenvalues --    0.14024   0.14227   0.14863   0.16243   0.16867

 Mulliken charges:
               1
     1  Cl  -0.102465
     2  Cl  -0.173191
     3  O   -1.132047
     4  C    0.418255
     5  C    1.476257
     6  C   -0.488684
     7  H    0.027225
     8  H   -0.025349
 Sum of Mulliken charges =  -0.00000

 Dipole moment (field-independent basis, Debye):
    X=             -1.2718    Y=              1.8068    Z=              0.0000  Tot=              2.2095

 Test job not archived.
 1\1\GINC-SE108\SP\RHF\Aug-CC-pVDZ\C3H2Cl2O1\OHZDE\05-Apr-2025\0\\#t hf
  aug-cc-pvdz iop(5/13=1,5/36=2,99/5=2) pseudo=read geom=check guess=(r
 ead,tcheck) scf=(maxcycle=1)\\title\\0,1\Cl,0,2.462394,-0.834112,0.\Cl
 ,0,-2.210865,1.86033,0.\O,0,0.141352,-2.060501,0.\C,0,0.651704,-0.9889
 93,0.\C,0,0.,0.32735,0.\C,0,-1.33071,0.383125,0.\H,0,0.617498,1.210825
 ,0.\H,0,-1.950271,-0.501414,0.\\Version=ES64L-G16RevC.01\State=1-A'\HF
 =-1108.9816077\RMSD=1.457e-02\Dipole=-0.5003744,0.7108418,0.\Quadrupol
 e=1.4347225,-2.3069241,0.8722015,1.8455809,0.,0.\PG=CS [SG(C3H2Cl2O1)]

 Normal termination of Gaussian 16 at Sat Apr  5 22:52:47 2025.
