 Gaussian 16, Revision C.01,

 ----------------------------------------------------------------------
 #t hf aug-cc-pvdz symm=none int=(grid=ultrafine) guess=(read,tcheck) s
 table=(opt,rrhf)
 ----------------------------------------------------------------------
 -----
 title
 -----
 Symbolic Z-matrix:
 Charge =  0 Multiplicity = 1

 SCF Done:  E(RHF) =  -628.708254822     A.U. after   15 cycles
 Normal termination of Gaussian 16 at Sat Apr  5 22:51:33 2025.
 Gaussian 16:  ES64L-G16RevC.01  3-Jul-2019

 ----------------------------------------------------------------------
 #t hf aug-cc-pvdz iop(5/13=1,5/36=2,99/5=2) pseudo=read geom=check gue
 ss=(read,tcheck) scf=(maxcycle=1)
 ----------------------------------------------------------------------
 -----
 title
 -----
 Structure from the checkpoint file:  "E-3-chloroprop-2-enenitrile.chk"
 Charge =  0 Multiplicity = 1

                         Standard orientation:
 ---------------------------------------------------------------------
 Center     Atomic      Atomic             Coordinates (Angstroms)
 Number     Number       Type             X           Y           Z
 ---------------------------------------------------------------------
      1         17           0       -2.048706    0.016035   -0.000004
      2          7           0        3.079563   -0.194242    0.000006
      3          6           0        0.597673    0.488341    0.000004
      4          6           0       -0.380235   -0.415943   -0.000003
      5          6           0        1.964239    0.097426    0.000005
      6          1           0        0.384661    1.548887    0.000008
      7          1           0       -0.203660   -1.480729   -0.000008
 ---------------------------------------------------------------------

 SCF Done:  E(RHF) =  -628.950580944     A.U. after    2 cycles

 The electronic state is 1-A.
 Alpha  occ. eigenvalues -- -105.61019 -15.53051 -11.36193 -11.31446 -11.29937
 Alpha  occ. eigenvalues --  -10.65844  -7.82811  -7.82385  -7.82381  -1.25115
 Alpha  occ. eigenvalues --   -1.18122  -1.06884  -0.87694  -0.77514  -0.68648
 Alpha  occ. eigenvalues --   -0.63045  -0.59836  -0.57771  -0.53422  -0.51856
 Alpha  occ. eigenvalues --   -0.49858  -0.41047
 Alpha virt. eigenvalues --    0.03329   0.04015   0.04634   0.06500   0.08986
 Alpha virt. eigenvalues --    0.10239   0.11782   0.12314   0.12582   0.12807
 Alpha virt. eigenvalues --    0.13820   0.14235   0.15504   0.16249   0.17431

 Mulliken charges:
               1
     1  Cl  -0.161226
     2  N    0.803650
     3  C    1.662795
     4  C   -0.242052
     5  C   -2.002723
     6  H   -0.039345
     7  H   -0.021099
 Sum of Mulliken charges =  -0.00000

 Dipole moment (field-independent basis, Debye):
    X=             -3.6099    Y=              0.4665    Z=             -0.0000  Tot=              3.6400

 Test job not archived.
 1\1\GINC-SE115\SP\RHF\Aug-CC-pVDZ\C3H2Cl1N1\OHZDE\05-Apr-2025\0\\#t hf
  aug-cc-pvdz iop(5/13=1,5/36=2,99/5=2) pseudo=read geom=check guess=(r
 ead,tcheck) scf=(maxcycle=1)\\title\\0,1\Cl,0,-2.048706,0.016035,-0.00
 0004\N,0,3.079563,-0.194242,0.000006\C,0,0.597673,0.488341,0.000004\C,
 0,-0.380235,-0.415943,-0.000003\C,0,1.964239,0.097426,0.000005\H,0,0.3
 84661,1.548887,0.000008\H,0,-0.20366,-1.480729,-0.000008\\Version=ES64
 L-G16RevC.01\State=1-A\HF=-628.9505809\RMSD=2.101e-02\Dipole=-1.420263
 4,0.1835316,-0.0000026\Quadrupole=-9.037411,6.3376137,2.6997973,1.7083

 Normal termination of Gaussian 16 at Sat Apr  5 22:51:40 2025.
