 Gaussian 16, Revision C.01,

 ----------------------------------------------------------------------
 #t hf aug-cc-pvdz symm=none int=(grid=ultrafine) guess=(read,tcheck) s
 table=(opt,rrhf)
 ----------------------------------------------------------------------
 -----
 title
 -----
 Symbolic Z-matrix:
 Charge =  0 Multiplicity = 1

 SCF Done:  E(RHF) =  -192.770300043     A.U. after   14 cycles
 Normal termination of Gaussian 16 at Sat Apr  5 22:51:36 2025.
 Gaussian 16:  ES64L-G16RevC.01  3-Jul-2019

 ----------------------------------------------------------------------
 #t hf aug-cc-pvdz iop(5/13=1,5/36=2,99/5=2) pseudo=read geom=check gue
 ss=(read,tcheck) scf=(maxcycle=1)
 ----------------------------------------------------------------------
 -----
 title
 -----
 Structure from the checkpoint file:  "E-3-penten-1-yne.chk"
 Charge =  0 Multiplicity = 1

                         Standard orientation:
 ---------------------------------------------------------------------
 Center     Atomic      Atomic             Coordinates (Angstroms)
 Number     Number       Type             X           Y           Z
 ---------------------------------------------------------------------
      1          6           0       -2.320917   -0.461628    0.000000
      2          1           0       -2.746079   -0.959757    0.875622
      3          1           0       -2.746079   -0.959757   -0.875622
      4          1           0       -2.655927    0.575371    0.000000
      5          6           0       -0.831837   -0.562138    0.000000
      6          1           0       -0.407944   -1.560710    0.000000
      7          6           0        0.000000    0.484435    0.000000
      8          1           0       -0.409236    1.490531    0.000000
      9          6           0        1.415974    0.385941    0.000000
     10          6           0        2.618043    0.340629    0.000000
     11          1           0        3.677687    0.290883    0.000000
 ---------------------------------------------------------------------

 SCF Done:  E(RHF) =  -192.975251533     A.U. after    2 cycles

 The electronic state is 1-A'.
 Alpha  occ. eigenvalues --  -11.26087 -11.25688 -11.24390 -11.24326 -11.23433
 Alpha  occ. eigenvalues --   -1.10509  -1.02860  -0.95335  -0.80895  -0.73126
 Alpha  occ. eigenvalues --   -0.68681  -0.62320  -0.58541  -0.55894  -0.52645
 Alpha  occ. eigenvalues --   -0.46465  -0.40137  -0.34093
 Alpha virt. eigenvalues --    0.03602   0.03901   0.04276   0.05268   0.05484
 Alpha virt. eigenvalues --    0.07282   0.08894   0.10962   0.11330   0.11604
 Alpha virt. eigenvalues --    0.11897   0.14204   0.14575   0.15110   0.15878

 Mulliken charges:
               1
     1  C   -0.721219
     2  H    0.243982
     3  H    0.243982
     4  H    0.111166
     5  C    0.245823
     6  H   -0.146427
     7  C    0.270517
     8  H   -0.187691
     9  C    0.239231
    10  C    0.075509
    11  H   -0.374872
 Sum of Mulliken charges =  -0.00000

 Dipole moment (field-independent basis, Debye):
    X=             -1.1587    Y=             -0.4078    Z=              0.0000  Tot=              1.2284

 Test job not archived.
 1\1\GINC-SE185\SP\RHF\Aug-CC-pVDZ\C5H6\OHZDE\05-Apr-2025\0\\#t hf aug-
 cc-pvdz iop(5/13=1,5/36=2,99/5=2) pseudo=read geom=check guess=(read,t
 check) scf=(maxcycle=1)\\title\\0,1\C,0,-2.320917,-0.461628,0.\H,0,-2.
 746079,-0.959757,0.875622\H,0,-2.746079,-0.959757,-0.875622\H,0,-2.655
 927,0.575371,0.\C,0,-0.831837,-0.562138,0.\H,0,-0.407944,-1.56071,0.\C
 ,0,0.,0.484435,0.\H,0,-0.409236,1.490531,0.\C,0,1.415974,0.385941,0.\C
 ,0,2.618043,0.340629,0.\H,0,3.677687,0.290883,0.\\Version=ES64L-G16Rev
 C.01\State=1-A'\HF=-192.9752515\RMSD=2.424e-02\Dipole=-0.4558721,-0.16

 Normal termination of Gaussian 16 at Sat Apr  5 22:51:41 2025.
