 Gaussian 16, Revision C.01,

 ----------------------------------------------------------------------
 #t hf aug-cc-pvdz symm=none int=(grid=ultrafine) guess=(read,tcheck) s
 table=(opt,rrhf)
 ----------------------------------------------------------------------
 -----
 title
 -----
 Symbolic Z-matrix:
 Charge =  0 Multiplicity = 1

 SCF Done:  E(RHF) =  -735.115343284     A.U. after   16 cycles
 Normal termination of Gaussian 16 at Sat Apr  5 22:51:51 2025.
 Gaussian 16:  ES64L-G16RevC.01  3-Jul-2019

 ----------------------------------------------------------------------
 #t hf aug-cc-pvdz iop(5/13=1,5/36=2,99/5=2) pseudo=read geom=check gue
 ss=(read,tcheck) scf=(maxcycle=1)
 ----------------------------------------------------------------------
 -----
 title
 -----
 Structure from the checkpoint file:  "E-3-amino-3-oxo-1-propen-1-yl_thiocyanate.chk"
 Charge =  0 Multiplicity = 1

                         Standard orientation:
 ---------------------------------------------------------------------
 Center     Atomic      Atomic             Coordinates (Angstroms)
 Number     Number       Type             X           Y           Z
 ---------------------------------------------------------------------
      1         16           0       -1.676534   -0.926064    0.051194
      2          8           0        3.331516   -0.631562   -0.252865
      3          7           0        2.397628    1.405048    0.103813
      4          7           0       -3.577023    1.191000   -0.109127
      5          6           0        1.020168   -0.608219    0.179875
      6          6           0        2.350109    0.042718    0.002223
      7          6           0       -0.149655   -0.019457   -0.048702
      8          6           0       -2.785853    0.351530   -0.044843
      9          1           0        1.086429   -1.657050    0.439278
     10          1           0       -0.254458    1.009404   -0.361619
     11          1           0        1.678256    1.917370    0.581658
     12          1           0        3.309355    1.828033    0.050389
 ---------------------------------------------------------------------

 SCF Done:  E(RHF) =  -735.504436310     A.U. after    2 cycles

 The electronic state is 1-A.
 Alpha  occ. eigenvalues --  -94.04302 -20.53209 -15.54696 -15.54565 -11.38760
 Alpha  occ. eigenvalues --  -11.33628 -11.32391 -11.29277  -8.32330  -6.30172
 Alpha  occ. eigenvalues --   -6.29961  -6.29725  -1.47993  -1.26557  -1.24533
 Alpha  occ. eigenvalues --   -1.17157  -1.07177  -0.90570  -0.83323  -0.79122
 Alpha  occ. eigenvalues --   -0.73695  -0.71599  -0.64953  -0.63670  -0.62197
 Alpha  occ. eigenvalues --   -0.60655  -0.58270  -0.56908  -0.51237  -0.49601
 Alpha  occ. eigenvalues --   -0.46060  -0.44935  -0.38761
 Alpha virt. eigenvalues --    0.02295   0.03938   0.04775   0.04983   0.05818
 Alpha virt. eigenvalues --    0.06448   0.08330   0.08937   0.10571   0.10963
 Alpha virt. eigenvalues --    0.11223   0.11525   0.11994   0.12482   0.13470

 Mulliken charges:
               1
     1  S    0.864581
     2  O   -1.251928
     3  N    0.608969
     4  N    0.792184
     5  C    0.903123
     6  C    0.082959
     7  C   -0.086867
     8  C   -1.733487
     9  H   -0.101215
    10  H   -0.240979
    11  H    0.038678
    12  H    0.123982
 Sum of Mulliken charges =   0.00000

 Dipole moment (field-independent basis, Debye):
    X=              1.2590    Y=              0.3469    Z=              1.3179  Tot=              1.8554

 Test job not archived.
 1\1\GINC-SE045\SP\RHF\Aug-CC-pVDZ\C4H4N2O1S1\OHZDE\05-Apr-2025\0\\#t h
 f aug-cc-pvdz iop(5/13=1,5/36=2,99/5=2) pseudo=read geom=check guess=(
 read,tcheck) scf=(maxcycle=1)\\title\\0,1\S,0,-1.676534,-0.926064,0.05
 1194\O,0,3.331516,-0.631562,-0.252865\N,0,2.397628,1.405048,0.103813\N
 ,0,-3.577023,1.191,-0.109127\C,0,1.020168,-0.608219,0.179875\C,0,2.350
 109,0.042718,0.002223\C,0,-0.149655,-0.019457,-0.048702\C,0,-2.785853,
 0.35153,-0.044843\H,0,1.086429,-1.65705,0.439278\H,0,-0.254458,1.00940
 4,-0.361619\H,0,1.678256,1.91737,0.581658\H,0,3.309355,1.828033,0.0503

 Normal termination of Gaussian 16 at Sat Apr  5 22:52:49 2025.
