 Gaussian 16, Revision C.01,

 ----------------------------------------------------------------------
 #t hf aug-cc-pvdz symm=none int=(grid=ultrafine) guess=(read,tcheck) s
 table=(opt,rrhf)
 ----------------------------------------------------------------------
 -----
 title
 -----
 Symbolic Z-matrix:
 Charge =  0 Multiplicity = 1

 SCF Done:  E(RHF) =  -234.204373682     A.U. after   13 cycles
 Normal termination of Gaussian 16 at Sat Apr  5 22:52:05 2025.
 Gaussian 16:  ES64L-G16RevC.01  3-Jul-2019

 ----------------------------------------------------------------------
 #t hf aug-cc-pvdz iop(5/13=1,5/36=2,99/5=2) pseudo=read geom=check gue
 ss=(read,tcheck) scf=(maxcycle=1)
 ----------------------------------------------------------------------
 -----
 title
 -----
 Structure from the checkpoint file:  "E-3-methyl-2-pentene.chk"
 Charge =  0 Multiplicity = 1

                         Standard orientation:
 ---------------------------------------------------------------------
 Center     Atomic      Atomic             Coordinates (Angstroms)
 Number     Number       Type             X           Y           Z
 ---------------------------------------------------------------------
      1          6           0       -2.527968   -0.340410    0.248367
      2          1           0       -2.845198   -0.840786    1.167646
      3          1           0       -3.212398   -0.673991   -0.536560
      4          1           0       -2.678013    0.728124    0.387385
      5          6           0       -0.091832    1.594432   -0.057239
      6          1           0       -1.098162    1.981097    0.081533
      7          1           0        0.337517    2.085539   -0.935154
      8          1           0        0.504466    1.914750    0.800675
      9          6           0        2.353687   -0.333741    0.539518
     10          1           0        2.021622   -0.818646    1.458831
     11          1           0        2.559701    0.712205    0.768285
     12          6           0        1.300293   -0.481395   -0.567402
     13          1           0        1.676589    0.006126   -1.473854
     14          1           0        1.184446   -1.539282   -0.809716
     15          6           0       -1.113898   -0.703078   -0.090968
     16          1           0       -0.948822   -1.766018   -0.246586
     17          6           0       -0.053177    0.098298   -0.222235
     18          1           0        3.295617   -0.793751    0.237267
 ---------------------------------------------------------------------

 SCF Done:  E(RHF) =  -234.466661398     A.U. after    2 cycles

 The electronic state is 1-A.
 Alpha  occ. eigenvalues --  -11.23098 -11.22673 -11.22458 -11.22415 -11.22147
 Alpha  occ. eigenvalues --  -11.22102  -1.10248  -1.01669  -0.96777  -0.90565
 Alpha  occ. eigenvalues --   -0.83259  -0.70856  -0.64788  -0.62281  -0.58545
 Alpha  occ. eigenvalues --   -0.56919  -0.56186  -0.55264  -0.53444  -0.51444
 Alpha  occ. eigenvalues --   -0.50713  -0.48352  -0.46370  -0.33875
 Alpha virt. eigenvalues --    0.03629   0.03905   0.03968   0.04125   0.05483
 Alpha virt. eigenvalues --    0.06007   0.06304   0.07071   0.07698   0.09077
 Alpha virt. eigenvalues --    0.09281   0.11114   0.12304   0.12981   0.14111

 Mulliken charges:
               1
     1  C   -0.705446
     2  H    0.266849
     3  H    0.261274
     4  H    0.077573
     5  C   -0.755206
     6  H    0.092576
     7  H    0.278174
     8  H    0.263770
     9  C   -0.341075
    10  H    0.140050
    11  H    0.136885
    12  C   -0.479569
    13  H    0.131791
    14  H    0.078374
    15  C   -0.022005
    16  H   -0.286215
    17  C    0.754619
    18  H    0.107580
 Sum of Mulliken charges =   0.00000

 Dipole moment (field-independent basis, Debye):
    X=              0.0532    Y=              0.1728    Z=              0.0052  Tot=              0.1808

 Test job not archived.
 1\1\GINC-SE176\SP\RHF\Aug-CC-pVDZ\C6H12\OHZDE\05-Apr-2025\0\\#t hf aug
 -cc-pvdz iop(5/13=1,5/36=2,99/5=2) pseudo=read geom=check guess=(read,
 tcheck) scf=(maxcycle=1)\\title\\0,1\C,0,-2.527968,-0.34041,0.248367\H
 ,0,-2.845198,-0.840786,1.167646\H,0,-3.212398,-0.673991,-0.53656\H,0,-
 2.678013,0.728124,0.387385\C,0,-0.091832,1.594432,-0.057239\H,0,-1.098
 162,1.981097,0.081533\H,0,0.337517,2.085539,-0.935154\H,0,0.504466,1.9
 1475,0.800675\C,0,2.353687,-0.333741,0.539518\H,0,2.021622,-0.818646,1
 .458831\H,0,2.559701,0.712205,0.768285\C,0,1.300293,-0.481395,-0.56740

 Normal termination of Gaussian 16 at Sat Apr  5 22:52:50 2025.
