 Gaussian 16, Revision C.01,

 ----------------------------------------------------------------------
 #t hf aug-cc-pvdz symm=none int=(grid=ultrafine) guess=(read,tcheck) s
 table=(opt,rrhf)
 ----------------------------------------------------------------------
 -----
 title
 -----
 Symbolic Z-matrix:
 Charge =  0 Multiplicity = 1

 SCF Done:  E(RHF) =  -814.390456029     A.U. after   17 cycles
 Normal termination of Gaussian 16 at Sat Apr  5 22:52:20 2025.
 Gaussian 16:  ES64L-G16RevC.01  3-Jul-2019

 ----------------------------------------------------------------------
 #t hf aug-cc-pvdz iop(5/13=1,5/36=2,99/5=2) pseudo=read geom=check gue
 ss=(read,tcheck) scf=(maxcycle=1)
 ----------------------------------------------------------------------
 -----
 title
 -----
 Structure from the checkpoint file:  "E-5-azido-1-chloro-1-penten-3-yne.chk"
 Charge =  0 Multiplicity = 1

                         Standard orientation:
 ---------------------------------------------------------------------
 Center     Atomic      Atomic             Coordinates (Angstroms)
 Number     Number       Type             X           Y           Z
 ---------------------------------------------------------------------
      1         17           0        4.447941   -0.116167    0.000012
      2          7           0       -3.025270   -0.496796   -0.000055
      3          7           0       -4.225241   -0.238014   -0.000076
      4          7           0       -5.349023   -0.121568   -0.000107
      5          6           0       -2.135877    0.693862    0.000077
      6          6           0       -0.744389    0.279137    0.000046
      7          6           0        0.418235   -0.030637    0.000023
      8          6           0        1.770768   -0.449000   -0.000006
      9          6           0        2.794415    0.405041    0.000048
     10          1           0       -2.339149    1.308733   -0.883213
     11          1           0       -2.339163    1.308547    0.883494
     12          1           0        1.960606   -1.516013   -0.000076
     13          1           0        2.680539    1.477792    0.000117
 ---------------------------------------------------------------------

 SCF Done:  E(RHF) =  -814.820789785     A.U. after    2 cycles

 The electronic state is 1-A.
 Alpha  occ. eigenvalues -- -105.58517 -15.73200 -15.61796 -15.55995 -11.32905
 Alpha  occ. eigenvalues --  -11.32641 -11.28725 -11.26245 -11.25878 -10.63325
 Alpha  occ. eigenvalues --   -7.80293  -7.79879  -7.79875  -1.52597  -1.34216
 Alpha  occ. eigenvalues --   -1.15694  -1.10175  -1.05269  -0.98417  -0.83951
 Alpha  occ. eigenvalues --   -0.80187  -0.77817  -0.77463  -0.73423  -0.72955
 Alpha  occ. eigenvalues --   -0.66615  -0.65408  -0.64871  -0.57405  -0.54034
 Alpha  occ. eigenvalues --   -0.50828  -0.47600  -0.47015  -0.44126  -0.42049
 Alpha  occ. eigenvalues --   -0.35211
 Alpha virt. eigenvalues --    0.03030   0.04078   0.04351   0.04947   0.06451
 Alpha virt. eigenvalues --    0.07389   0.07503   0.08149   0.09348   0.09696
 Alpha virt. eigenvalues --    0.11428   0.11469   0.11785   0.12791   0.13515

 Mulliken charges:
               1
     1  Cl  -0.249284
     2  N    0.403731
     3  N   -1.442188
     4  N    0.970057
     5  C   -0.686930
     6  C    0.215668
     7  C   -0.073836
     8  C    0.893046
     9  C   -0.374480
    10  H    0.268894
    11  H    0.268897
    12  H   -0.113566
    13  H   -0.080008
 Sum of Mulliken charges =   0.00000

 Dipole moment (field-independent basis, Debye):
    X=             -0.1041    Y=              2.0662    Z=              0.0002  Tot=              2.0688

 Test job not archived.
 1\1\GINC-SE196\SP\RHF\Aug-CC-pVDZ\C5H4Cl1N3\OHZDE\05-Apr-2025\0\\#t hf
  aug-cc-pvdz iop(5/13=1,5/36=2,99/5=2) pseudo=read geom=check guess=(r
 ead,tcheck) scf=(maxcycle=1)\\title\\0,1\Cl,0,4.447941,-0.116167,0.000
 012\N,0,-3.02527,-0.496796,-0.000055\N,0,-4.225241,-0.238014,-0.000076
 \N,0,-5.349023,-0.121568,-0.000107\C,0,-2.135877,0.693862,0.000077\C,0
 ,-0.744389,0.279137,0.000046\C,0,0.418235,-0.030637,0.000023\C,0,1.770
 768,-0.449,-0.000006\C,0,2.794415,0.405041,0.000048\H,0,-2.339149,1.30
 8733,-0.883213\H,0,-2.339163,1.308547,0.883494\H,0,1.960606,-1.516013,

 Normal termination of Gaussian 16 at Sat Apr  5 22:52:49 2025.
