 Gaussian 16, Revision C.01,

 ----------------------------------------------------------------------
 #t hf aug-cc-pvdz symm=none int=(grid=ultrafine) guess=(read,tcheck) s
 table=(opt,rrhf)
 ----------------------------------------------------------------------
 -----
 title
 -----
 Symbolic Z-matrix:
 Charge =  0 Multiplicity = 1

 SCF Done:  E(RHF) =  -337.706451117     A.U. after   13 cycles
 Normal termination of Gaussian 16 at Sat Apr  5 22:51:51 2025.
 Gaussian 16:  ES64L-G16RevC.01  3-Jul-2019

 ----------------------------------------------------------------------
 #t hf aug-cc-pvdz iop(5/13=1,5/36=2,99/5=2) pseudo=read geom=check gue
 ss=(read,tcheck) scf=(maxcycle=1)
 ----------------------------------------------------------------------
 -----
 title
 -----
 Structure from the checkpoint file:  "E-azodioxymethane.chk"
 Charge =  0 Multiplicity = 1

                         Standard orientation:
 ---------------------------------------------------------------------
 Center     Atomic      Atomic             Coordinates (Angstroms)
 Number     Number       Type             X           Y           Z
 ---------------------------------------------------------------------
      1          7           0       -0.059500    0.647189    0.000000
      2          7           0        0.059500   -0.647189    0.000000
      3          8           0       -1.192188    1.211304    0.000000
      4          8           0        1.192188   -1.211304    0.000000
      5          6           0        1.192188    1.415406    0.000000
      6          6           0       -1.192188   -1.415406    0.000000
      7          1           0        0.895007    2.456379    0.000000
      8          1           0        1.774488    1.156491    0.882046
      9          1           0        1.774488    1.156491   -0.882046
     10          1           0       -0.895007   -2.456379    0.000000
     11          1           0       -1.774488   -1.156491    0.882046
     12          1           0       -1.774488   -1.156491   -0.882046
 ---------------------------------------------------------------------

 SCF Done:  E(RHF) =  -338.045893719     A.U. after    2 cycles

 The electronic state is 1-AG.
 Alpha  occ. eigenvalues --  -20.54065 -20.54060 -15.72043 -15.71042 -11.30379
 Alpha  occ. eigenvalues --  -11.30376  -1.58591  -1.51657  -1.27816  -1.14075
 Alpha  occ. eigenvalues --   -1.02271  -0.83116  -0.79235  -0.78067  -0.74451
 Alpha  occ. eigenvalues --   -0.64993  -0.63936  -0.62053  -0.60723  -0.57480
 Alpha  occ. eigenvalues --   -0.54721  -0.48739  -0.44115  -0.34161
 Alpha virt. eigenvalues --    0.03261   0.04261   0.04868   0.05514   0.05689
 Alpha virt. eigenvalues --    0.06171   0.06297   0.07612   0.12480   0.12950
 Alpha virt. eigenvalues --    0.13306   0.14647   0.16188   0.16223   0.17214

 Mulliken charges:
               1
     1  N    1.095397
     2  N    1.095397
     3  O   -1.502087
     4  O   -1.502087
     5  C   -0.062913
     6  C   -0.062913
     7  H    0.087196
     8  H    0.191204
     9  H    0.191204
    10  H    0.087196
    11  H    0.191204
    12  H    0.191204
 Sum of Mulliken charges =   0.00000

 Dipole moment (field-independent basis, Debye):
    X=              0.0000    Y=              0.0000    Z=              0.0000  Tot=              0.0000

 Test job not archived.
 1\1\GINC-SE085\SP\RHF\Aug-CC-pVDZ\C2H6N2O2\OHZDE\05-Apr-2025\0\\#t hf
 aug-cc-pvdz iop(5/13=1,5/36=2,99/5=2) pseudo=read geom=check guess=(re
 ad,tcheck) scf=(maxcycle=1)\\title\\0,1\N,0,-0.0595,0.647189,0.\N,0,0.
 0595,-0.647189,0.\O,0,-1.192188,1.211304,0.\O,0,1.192188,-1.211304,0.\
 C,0,1.192188,1.415406,0.\C,0,-1.192188,-1.415406,0.\H,0,0.895007,2.456
 379,0.\H,0,1.774488,1.156491,0.882046\H,0,1.774488,1.156491,-0.882046\
 H,0,-0.895007,-2.456379,0.\H,0,-1.774488,-1.156491,0.882046\H,0,-1.774
 488,-1.156491,-0.882046\\Version=ES64L-G16RevC.01\State=1-AG\HF=-338.0

 Normal termination of Gaussian 16 at Sat Apr  5 22:52:47 2025.
