 Gaussian 16, Revision C.01,

 ----------------------------------------------------------------------
 #t hf aug-cc-pvdz symm=none int=(grid=ultrafine) guess=(read,tcheck) s
 table=(opt,rrhf)
 ----------------------------------------------------------------------
 -----
 title
 -----
 Symbolic Z-matrix:
 Charge =  0 Multiplicity = 1

 SCF Done:  E(RHF) =  -188.097351543     A.U. after   11 cycles
 Normal termination of Gaussian 16 at Sat Apr  5 22:51:32 2025.
 Gaussian 16:  ES64L-G16RevC.01  3-Jul-2019

 ----------------------------------------------------------------------
 #t hf aug-cc-pvdz iop(5/13=1,5/36=2,99/5=2) pseudo=read geom=check gue
 ss=(read,tcheck) scf=(maxcycle=1)
 ----------------------------------------------------------------------
 -----
 title
 -----
 Structure from the checkpoint file:  "E-dimethyldiazine.chk"
 Charge =  0 Multiplicity = 1

                         Standard orientation:
 ---------------------------------------------------------------------
 Center     Atomic      Atomic             Coordinates (Angstroms)
 Number     Number       Type             X           Y           Z
 ---------------------------------------------------------------------
      1          6           0       -1.792925    0.132342   -0.066839
      2          7           0       -0.414567   -0.229123   -0.392738
      3          7           0        0.414567    0.229123    0.392738
      4          6           0        1.792925   -0.132342    0.066839
      5          1           0       -2.215579    0.652316   -0.927812
      6          1           0       -1.855580    0.753706    0.827894
      7          1           0       -2.359533   -0.790722    0.064186
      8          1           0        2.215579   -0.652316    0.927812
      9          1           0        1.855580   -0.753706   -0.827894
     10          1           0        2.359533    0.790722   -0.064186
 ---------------------------------------------------------------------

 SCF Done:  E(RHF) =  -188.296718718     A.U. after    2 cycles

 The electronic state is 1-AG.
 Alpha  occ. eigenvalues --  -15.56014 -15.55479 -11.25750 -11.25746  -1.36673
 Alpha  occ. eigenvalues --   -1.07664  -0.96053  -0.79789  -0.68822  -0.68642
 Alpha  occ. eigenvalues --   -0.64733  -0.58722  -0.56330  -0.53717  -0.48284
 Alpha  occ. eigenvalues --   -0.42377
 Alpha virt. eigenvalues --    0.03754   0.05137   0.05553   0.05930   0.06025
 Alpha virt. eigenvalues --    0.06453   0.08313   0.08826   0.12378   0.13451
 Alpha virt. eigenvalues --    0.15263   0.16331   0.16429   0.16851   0.18198

 Mulliken charges:
               1
     1  C   -0.294253
     2  N   -0.111014
     3  N   -0.111014
     4  C   -0.294253
     5  H    0.162591
     6  H    0.080220
     7  H    0.162456
     8  H    0.162591
     9  H    0.080220
    10  H    0.162456
 Sum of Mulliken charges =   0.00000

 Dipole moment (field-independent basis, Debye):
    X=              0.0000    Y=             -0.0000    Z=              0.0000  Tot=              0.0000

 Test job not archived.
 1\1\GINC-SE085\SP\RHF\Aug-CC-pVDZ\C2H6N2\OHZDE\05-Apr-2025\0\\#t hf au
 g-cc-pvdz iop(5/13=1,5/36=2,99/5=2) pseudo=read geom=check guess=(read
 ,tcheck) scf=(maxcycle=1)\\title\\0,1\C,0,-1.792925,0.132342,-0.066839
 \N,0,-0.414567,-0.229123,-0.392738\N,0,0.414567,0.229123,0.392738\C,0,
 1.792925,-0.132342,0.066839\H,0,-2.215579,0.652316,-0.927812\H,0,-1.85
 558,0.753706,0.827894\H,0,-2.359533,-0.790722,0.064186\H,0,2.215579,-0
 .652316,0.927812\H,0,1.85558,-0.753706,-0.827894\H,0,2.359533,0.790722
 ,-0.064186\\Version=ES64L-G16RevC.01\State=1-AG\HF=-188.2967187\RMSD=4

 Normal termination of Gaussian 16 at Sat Apr  5 22:51:40 2025.
