 Gaussian 16, Revision C.01,

 ----------------------------------------------------------------------
 #t hf aug-cc-pvdz symm=none int=(grid=ultrafine) guess=(read,tcheck) s
 table=(opt,rrhf)
 ----------------------------------------------------------------------
 -----
 title
 -----
 Symbolic Z-matrix:
 Charge =  0 Multiplicity = 1

 SCF Done:  E(RHF) =  -233.025481207     A.U. after   13 cycles
 Normal termination of Gaussian 16 at Sat Apr  5 22:51:54 2025.
 Gaussian 16:  ES64L-G16RevC.01  3-Jul-2019

 ----------------------------------------------------------------------
 #t hf aug-cc-pvdz iop(5/13=1,5/36=2,99/5=2) pseudo=read geom=check gue
 ss=(read,tcheck) scf=(maxcycle=1)
 ----------------------------------------------------------------------
 -----
 title
 -----
 Structure from the checkpoint file:  "E-E-2-4-hexadiene.chk"
 Charge =  0 Multiplicity = 1

                         Standard orientation:
 ---------------------------------------------------------------------
 Center     Atomic      Atomic             Coordinates (Angstroms)
 Number     Number       Type             X           Y           Z
 ---------------------------------------------------------------------
      1          6           0       -0.321563   -3.165600    0.000000
      2          6           0        0.321563    3.165600    0.000000
      3          6           0        0.321563    0.650169    0.000000
      4          6           0       -0.321563   -0.650169    0.000000
      5          6           0       -0.327188    1.819192    0.000000
      6          6           0        0.327188   -1.819192    0.000000
      7          1           0       -1.408837   -3.086565    0.000000
      8          1           0        1.408837    3.086565    0.000000
      9          1           0       -0.023595   -3.749001    0.875844
     10          1           0       -0.023595   -3.749001   -0.875844
     11          1           0        0.023595    3.749001    0.875844
     12          1           0        0.023595    3.749001   -0.875844
     13          1           0        1.408805    0.652661    0.000000
     14          1           0       -1.408805   -0.652661    0.000000
     15          1           0       -1.414062    1.807646    0.000000
     16          1           0        1.414062   -1.807646    0.000000
 ---------------------------------------------------------------------

 SCF Done:  E(RHF) =  -233.280378294     A.U. after    2 cycles

 The electronic state is 1-AG.
 Alpha  occ. eigenvalues --  -11.23614 -11.23606 -11.23144 -11.23093 -11.23036
 Alpha  occ. eigenvalues --  -11.23035  -1.10166  -1.04959  -0.97036  -0.90040
 Alpha  occ. eigenvalues --   -0.77047  -0.75698  -0.65921  -0.62470  -0.57317
 Alpha  occ. eigenvalues --   -0.57020  -0.56760  -0.55948  -0.52344  -0.51012
 Alpha  occ. eigenvalues --   -0.49043  -0.43240  -0.30870
 Alpha virt. eigenvalues --    0.03609   0.03645   0.03975   0.05470   0.05553
 Alpha virt. eigenvalues --    0.05864   0.05943   0.08164   0.08612   0.08816
 Alpha virt. eigenvalues --    0.11034   0.11275   0.13185   0.13530   0.13976

 Mulliken charges:
               1
     1  C   -0.798408
     2  C   -0.798408
     3  C    0.846372
     4  C    0.846372
     5  C   -0.191204
     6  C   -0.191204
     7  H    0.081857
     8  H    0.081857
     9  H    0.243935
    10  H    0.243935
    11  H    0.243935
    12  H    0.243935
    13  H   -0.223076
    14  H   -0.223076
    15  H   -0.203412
    16  H   -0.203412
 Sum of Mulliken charges =   0.00000

 Dipole moment (field-independent basis, Debye):
    X=              0.0000    Y=             -0.0000    Z=              0.0000  Tot=              0.0000

 Test job not archived.
 1\1\GINC-SE084\SP\RHF\Aug-CC-pVDZ\C6H10\OHZDE\05-Apr-2025\0\\#t hf aug
 -cc-pvdz iop(5/13=1,5/36=2,99/5=2) pseudo=read geom=check guess=(read,
 tcheck) scf=(maxcycle=1)\\title\\0,1\C,0,-0.321563,-3.1656,0.\C,0,0.32
 1563,3.1656,0.\C,0,0.321563,0.650169,0.\C,0,-0.321563,-0.650169,0.\C,0
 ,-0.327188,1.819192,0.\C,0,0.327188,-1.819192,0.\H,0,-1.408837,-3.0865
 65,0.\H,0,1.408837,3.086565,0.\H,0,-0.023595,-3.749001,0.875844\H,0,-0
 .023595,-3.749001,-0.875844\H,0,0.023595,3.749001,0.875844\H,0,0.02359
 5,3.749001,-0.875844\H,0,1.408805,0.652661,0.\H,0,-1.408805,-0.652661,

 Normal termination of Gaussian 16 at Sat Apr  5 22:52:48 2025.
