 Gaussian 16, Revision C.01,

 ----------------------------------------------------------------------
 #t hf aug-cc-pvdz symm=none int=(grid=ultrafine) guess=(read,tcheck) s
 table=(opt,rrhf)
 ----------------------------------------------------------------------
 -----
 title
 -----
 Symbolic Z-matrix:
 Charge =  0 Multiplicity = 1

 SCF Done:  E(RHF) =  -229.408487596     A.U. after   13 cycles
 Normal termination of Gaussian 16 at Sat Apr  5 22:51:37 2025.
 Gaussian 16:  ES64L-G16RevC.01  3-Jul-2019

 ----------------------------------------------------------------------
 #t hf aug-cc-pvdz iop(5/13=1,5/36=2,99/5=2) pseudo=read geom=check gue
 ss=(read,tcheck) scf=(maxcycle=1)
 ----------------------------------------------------------------------
 -----
 title
 -----
 Structure from the checkpoint file:  "E-hexa-1-5-diyne-3-ene.chk"
 Charge =  0 Multiplicity = 1

                         Standard orientation:
 ---------------------------------------------------------------------
 Center     Atomic      Atomic             Coordinates (Angstroms)
 Number     Number       Type             X           Y           Z
 ---------------------------------------------------------------------
      1          6           0       -0.324304    0.589828    0.000000
      2          6           0        0.324304   -0.589828    0.000000
      3          6           0        0.324304    1.845570    0.000000
      4          6           0       -0.324304   -1.845570    0.000000
      5          1           0       -1.408272    0.599713    0.000000
      6          1           0        1.408272   -0.599713    0.000000
      7          6           0        0.841122    2.932151    0.000000
      8          6           0       -0.841122   -2.932151    0.000000
      9          1           0        1.305614    3.886246    0.000000
     10          1           0       -1.305614   -3.886246    0.000000
 ---------------------------------------------------------------------

 SCF Done:  E(RHF) =  -229.643015855     A.U. after    2 cycles

 The electronic state is 1-AG.
 Alpha  occ. eigenvalues --  -11.28562 -11.28439 -11.25757 -11.25752 -11.25189
 Alpha  occ. eigenvalues --  -11.25182  -1.12655  -1.05531  -1.00882  -0.89165
 Alpha  occ. eigenvalues --   -0.74953  -0.74352  -0.70719  -0.68044  -0.58922
 Alpha  occ. eigenvalues --   -0.50845  -0.44157  -0.42029  -0.41286  -0.33842
 Alpha virt. eigenvalues --    0.03404   0.03576   0.04484   0.04869   0.05156
 Alpha virt. eigenvalues --    0.09222   0.09641   0.10148   0.11394   0.11500
 Alpha virt. eigenvalues --    0.11683   0.13957   0.14045   0.14240   0.14276

 Mulliken charges:
               1
     1  C    0.227913
     2  C    0.227913
     3  C    0.115218
     4  C    0.115218
     5  H   -0.167448
     6  H   -0.167448
     7  C    0.221568
     8  C    0.221568
     9  H   -0.397251
    10  H   -0.397251
 Sum of Mulliken charges =  -0.00000

 Dipole moment (field-independent basis, Debye):
    X=              0.0000    Y=              0.0000    Z=              0.0000  Tot=              0.0000

 Test job not archived.
 1\1\GINC-SE225\SP\RHF\Aug-CC-pVDZ\C6H4\OHZDE\05-Apr-2025\0\\#t hf aug-
 cc-pvdz iop(5/13=1,5/36=2,99/5=2) pseudo=read geom=check guess=(read,t
 check) scf=(maxcycle=1)\\title\\0,1\C,0,-0.324304,0.589828,0.\C,0,0.32
 4304,-0.589828,0.\C,0,0.324304,1.84557,0.\C,0,-0.324304,-1.84557,0.\H,
 0,-1.408272,0.599713,0.\H,0,1.408272,-0.599713,0.\C,0,0.841122,2.93215
 1,0.\C,0,-0.841122,-2.932151,0.\H,0,1.305614,3.886246,0.\H,0,-1.305614
 ,-3.886246,0.\\Version=ES64L-G16RevC.01\State=1-AG\HF=-229.6430159\RMS
 D=5.052e-02\Dipole=0.,0.,0.\Quadrupole=-0.1789989,5.06671,-4.8877111,3

 Normal termination of Gaussian 16 at Sat Apr  5 22:51:41 2025.
