 Gaussian 16, Revision C.01,

 ----------------------------------------------------------------------
 #t hf aug-cc-pvdz symm=none int=(grid=ultrafine) guess=(read,tcheck) s
 table=(opt,rrhf)
 ----------------------------------------------------------------------
 -----
 title
 -----
 Symbolic Z-matrix:
 Charge =  0 Multiplicity = 1

 SCF Done:  E(RHF) =  -234.206314974     A.U. after   13 cycles
 Normal termination of Gaussian 16 at Sat Apr  5 22:52:13 2025.
 Gaussian 16:  ES64L-G16RevC.01  3-Jul-2019

 ----------------------------------------------------------------------
 #t hf aug-cc-pvdz iop(5/13=1,5/36=2,99/5=2) pseudo=read geom=check gue
 ss=(read,tcheck) scf=(maxcycle=1)
 ----------------------------------------------------------------------
 -----
 title
 -----
 Structure from the checkpoint file:  "E-hex-2-ene.chk"
 Charge =  0 Multiplicity = 1

                         Standard orientation:
 ---------------------------------------------------------------------
 Center     Atomic      Atomic             Coordinates (Angstroms)
 Number     Number       Type             X           Y           Z
 ---------------------------------------------------------------------
      1          6           0        3.184312    0.214662   -0.156388
      2          6           0        1.804466   -0.364204   -0.216238
      3          6           0        0.743151    0.105154    0.431736
      4          6           0       -0.640500   -0.468565    0.368176
      5          6           0       -1.685118    0.519417   -0.171606
      6          6           0       -3.099443   -0.056883   -0.186480
      7          1           0        3.223229    1.089985    0.492451
      8          1           0        3.904316   -0.517661    0.218689
      9          1           0        3.531684    0.512657   -1.149293
     10          1           0        1.681810   -1.243047   -0.845147
     11          1           0        0.864249    0.985574    1.060220
     12          1           0       -0.950299   -0.782190    1.372044
     13          1           0       -0.636597   -1.370501   -0.250054
     14          1           0       -1.397617    0.823029   -1.181416
     15          1           0       -1.666289    1.428500    0.436494
     16          1           0       -3.819163    0.665084   -0.574592
     17          1           0       -3.155216   -0.949735   -0.812711
     18          1           0       -3.421316   -0.339183    0.818118
 ---------------------------------------------------------------------

 SCF Done:  E(RHF) =  -234.468774450     A.U. after    2 cycles

 The electronic state is 1-A.
 Alpha  occ. eigenvalues --  -11.22947 -11.22705 -11.22688 -11.22587 -11.22535
 Alpha  occ. eigenvalues --  -11.22049  -1.09360  -1.04204  -0.96464  -0.88771
 Alpha  occ. eigenvalues --   -0.80477  -0.75106  -0.64193  -0.63036  -0.59650
 Alpha  occ. eigenvalues --   -0.57394  -0.56635  -0.54514  -0.52943  -0.50565
 Alpha  occ. eigenvalues --   -0.48690  -0.47479  -0.47329  -0.35006
 Alpha virt. eigenvalues --    0.03678   0.03730   0.04021   0.04179   0.05383
 Alpha virt. eigenvalues --    0.05950   0.06059   0.06942   0.08214   0.08279
 Alpha virt. eigenvalues --    0.08774   0.10750   0.11461   0.13484   0.13917

 Mulliken charges:
               1
     1  C   -0.723587
     2  C    0.087185
     3  C    1.005455
     4  C   -0.658993
     5  C   -0.368414
     6  C   -0.391864
     7  H    0.096108
     8  H    0.232466
     9  H    0.232591
    10  H   -0.207161
    11  H   -0.241783
    12  H    0.186486
    13  H    0.071122
    14  H    0.132948
    15  H    0.122518
    16  H    0.115231
    17  H    0.154571
    18  H    0.155121
 Sum of Mulliken charges =  -0.00000

 Dipole moment (field-independent basis, Debye):
    X=              0.0087    Y=              0.0374    Z=             -0.0499  Tot=              0.0630

 Test job not archived.
 1\1\GINC-SE225\SP\RHF\Aug-CC-pVDZ\C6H12\OHZDE\05-Apr-2025\0\\#t hf aug
 -cc-pvdz iop(5/13=1,5/36=2,99/5=2) pseudo=read geom=check guess=(read,
 tcheck) scf=(maxcycle=1)\\title\\0,1\C,0,3.184312,0.214662,-0.156388\C
 ,0,1.804466,-0.364204,-0.216238\C,0,0.743151,0.105154,0.431736\C,0,-0.
 6405,-0.468565,0.368176\C,0,-1.685118,0.519417,-0.171606\C,0,-3.099443
 ,-0.056883,-0.18648\H,0,3.223229,1.089985,0.492451\H,0,3.904316,-0.517
 661,0.218689\H,0,3.531684,0.512657,-1.149293\H,0,1.68181,-1.243047,-0.
 845147\H,0,0.864249,0.985574,1.06022\H,0,-0.950299,-0.78219,1.372044\H

 Normal termination of Gaussian 16 at Sat Apr  5 22:52:49 2025.
