 Gaussian 16, Revision C.01,

 ----------------------------------------------------------------------
 #t hf aug-cc-pvdz symm=none int=(grid=ultrafine) guess=(read,tcheck) s
 table=(opt,rrhf)
 ----------------------------------------------------------------------
 -----
 title
 -----
 Symbolic Z-matrix:
 Charge =  0 Multiplicity = 1

 SCF Done:  E(RHF) =  -273.245131594     A.U. after   13 cycles
 Normal termination of Gaussian 16 at Sat Apr  5 22:52:25 2025.
 Gaussian 16:  ES64L-G16RevC.01  3-Jul-2019

 ----------------------------------------------------------------------
 #t hf aug-cc-pvdz iop(5/13=1,5/36=2,99/5=2) pseudo=read geom=check gue
 ss=(read,tcheck) scf=(maxcycle=1)
 ----------------------------------------------------------------------
 -----
 title
 -----
 Structure from the checkpoint file:  "E-hept-2-ene.chk"
 Charge =  0 Multiplicity = 1

                         Standard orientation:
 ---------------------------------------------------------------------
 Center     Atomic      Atomic             Coordinates (Angstroms)
 Number     Number       Type             X           Y           Z
 ---------------------------------------------------------------------
      1          6           0        2.441663    0.162598   -0.365182
      2          6           0        1.385172    0.126631    0.440416
      3          6           0        3.766263   -0.479321   -0.089056
      4          6           0       -3.620200   -0.583267   -0.136932
      5          6           0        0.056507    0.764266    0.164386
      6          6           0       -2.466044    0.416907   -0.102935
      7          6           0       -1.104645   -0.239625    0.126643
      8          1           0        2.358643    0.700966   -1.306573
      9          1           0        1.466900   -0.412762    1.382304
     10          1           0        4.569757    0.262058   -0.075544
     11          1           0        4.024236   -1.204082   -0.865896
     12          1           0        3.767683   -0.996869    0.870489
     13          1           0       -3.485464   -1.314681   -0.936498
     14          1           0       -3.692335   -1.134107    0.803175
     15          1           0       -4.576083   -0.084249   -0.302393
     16          1           0       -0.155903    1.508409    0.940995
     17          1           0        0.100952    1.309497   -0.782195
     18          1           0       -2.646373    1.155223    0.684348
     19          1           0       -2.441268    0.977092   -1.042548
     20          1           0       -1.127620   -0.800201    1.066921
     21          1           0       -0.915420   -0.975427   -0.660622
 ---------------------------------------------------------------------

 SCF Done:  E(RHF) =  -273.551169712     A.U. after    2 cycles

 The electronic state is 1-A.
 Alpha  occ. eigenvalues --  -11.22919 -11.22688 -11.22676 -11.22578 -11.22386
 Alpha  occ. eigenvalues --  -11.22268 -11.21972  -1.09685  -1.05683  -0.99393
 Alpha  occ. eigenvalues --   -0.92374  -0.85101  -0.79358  -0.75001  -0.65030
 Alpha  occ. eigenvalues --   -0.62461  -0.60929  -0.59225  -0.56826  -0.55835
 Alpha  occ. eigenvalues --   -0.54589  -0.52305  -0.50610  -0.49099  -0.47999
 Alpha  occ. eigenvalues --   -0.46804  -0.46463  -0.34970
 Alpha virt. eigenvalues --    0.03510   0.03577   0.03943   0.04152   0.04966
 Alpha virt. eigenvalues --    0.05559   0.05721   0.06582   0.07484   0.07901
 Alpha virt. eigenvalues --    0.08456   0.09246   0.09900   0.11148   0.11578

 Mulliken charges:
               1
     1  C    0.052488
     2  C    1.111617
     3  C   -0.707192
     4  C   -0.362752
     5  C   -0.590547
     6  C   -0.249811
     7  C   -0.469290
     8  H   -0.218647
     9  H   -0.244967
    10  H    0.235682
    11  H    0.232961
    12  H    0.093365
    13  H    0.161235
    14  H    0.156527
    15  H    0.116099
    16  H    0.180088
    17  H    0.067529
    18  H    0.111558
    19  H    0.106068
    20  H    0.108890
    21  H    0.109100
 Sum of Mulliken charges =  -0.00000

 Dipole moment (field-independent basis, Debye):
    X=             -0.0195    Y=              0.0254    Z=             -0.0393  Tot=              0.0507

 Test job not archived.
 1\1\GINC-SE180\SP\RHF\Aug-CC-pVDZ\C7H14\OHZDE\05-Apr-2025\0\\#t hf aug
 -cc-pvdz iop(5/13=1,5/36=2,99/5=2) pseudo=read geom=check guess=(read,
 tcheck) scf=(maxcycle=1)\\title\\0,1\C,0,2.441663,0.162598,-0.365182\C
 ,0,1.385172,0.126631,0.440416\C,0,3.766263,-0.479321,-0.089056\C,0,-3.
 6202,-0.583267,-0.136932\C,0,0.056507,0.764266,0.164386\C,0,-2.466044,
 0.416907,-0.102935\C,0,-1.104645,-0.239625,0.126643\H,0,2.358643,0.700
 966,-1.306573\H,0,1.4669,-0.412762,1.382304\H,0,4.569757,0.262058,-0.0
 75544\H,0,4.024236,-1.204082,-0.865896\H,0,3.767683,-0.996869,0.870489

 Normal termination of Gaussian 16 at Sat Apr  5 22:52:52 2025.
