 Gaussian 16, Revision C.01,

 ----------------------------------------------------------------------
 #t hf aug-cc-pvdz symm=none int=(grid=ultrafine) guess=(read,tcheck) s
 table=(opt,rrhf)
 ----------------------------------------------------------------------
 -----
 title
 -----
 Symbolic Z-matrix:
 Charge =  0 Multiplicity = 1

 SCF Done:  E(RHF) =  -307.912958862     A.U. after   14 cycles

 1\1\GINC-SE187\Stability\RHF\Aug-CC-pVDZ\C6H10O1\OHZDE\05-Apr-2025\0\\
 #t hf aug-cc-pvdz symm=none int=(grid=ultrafine) guess=(read,tcheck) s
 table=(opt,rrhf)\\title\\0,1\C,0,1.353737,-0.368467,0.037834\C,0,0.245
 113,0.262988,0.434823\C,0,2.645333,0.319343,-0.004122\C,0,-3.55661,-0.
 151254,-0.231842\C,0,-1.12368,-0.325197,0.512772\C,0,-2.146913,0.42138
 2,-0.360045\O,0,3.687325,-0.191449,-0.351651\H,0,1.345138,-1.409243,-0
 .265925\H,0,0.332449,1.309202,0.722433\H,0,2.616706,1.382207,0.314022\
 H,0,-3.585524,-1.20076,-0.530463\H,0,-3.915768,-0.089864,0.797239\H,0,

 Normal termination of Gaussian 16 at Sat Apr  5 22:52:08 2025.
 Gaussian 16:  ES64L-G16RevC.01  3-Jul-2019

 ----------------------------------------------------------------------
 #t hf aug-cc-pvdz iop(5/13=1,5/36=2,99/5=2) pseudo=read geom=check gue
 ss=(read,tcheck) scf=(maxcycle=1)
 ----------------------------------------------------------------------
 -----
 title
 -----
 Structure from the checkpoint file:  "E-hex-2-enal.chk"
 Charge =  0 Multiplicity = 1

                         Standard orientation:
 ---------------------------------------------------------------------
 Center     Atomic      Atomic             Coordinates (Angstroms)
 Number     Number       Type             X           Y           Z
 ---------------------------------------------------------------------
      1          6           0        1.353737   -0.368467    0.037834
      2          6           0        0.245113    0.262988    0.434823
      3          6           0        2.645333    0.319343   -0.004122
      4          6           0       -3.556610   -0.151254   -0.231842
      5          6           0       -1.123680   -0.325197    0.512772
      6          6           0       -2.146913    0.421382   -0.360045
      7          8           0        3.687325   -0.191449   -0.351651
      8          1           0        1.345138   -1.409243   -0.265925
      9          1           0        0.332449    1.309202    0.722433
     10          1           0        2.616706    1.382207    0.314022
     11          1           0       -3.585524   -1.200760   -0.530463
     12          1           0       -3.915768   -0.089864    0.797239
     13          1           0       -4.260573    0.392160   -0.862658
     14          1           0       -1.094232   -1.380186    0.232496
     15          1           0       -1.463655   -0.283003    1.554077
     16          1           0       -2.152324    1.478782   -0.082114
     17          1           0       -1.822698    0.379526   -1.402423
 ---------------------------------------------------------------------

 SCF Done:  E(RHF) =  -308.237841219     A.U. after    2 cycles

 The electronic state is 1-A.
 Alpha  occ. eigenvalues --  -20.53684 -11.33714 -11.27829 -11.25392 -11.24885
 Alpha  occ. eigenvalues --  -11.24735 -11.23619  -1.46529  -1.12367  -1.06030
 Alpha  occ. eigenvalues --   -0.96756  -0.86213  -0.81486  -0.78878  -0.69191
 Alpha  occ. eigenvalues --   -0.65992  -0.64385  -0.61054  -0.59310  -0.57419
 Alpha  occ. eigenvalues --   -0.54087  -0.53715  -0.51606  -0.50660  -0.49604
 Alpha  occ. eigenvalues --   -0.41687  -0.38668
 Alpha virt. eigenvalues --    0.02943   0.03214   0.03496   0.04076   0.05496
 Alpha virt. eigenvalues --    0.06322   0.06380   0.06931   0.07607   0.08463
 Alpha virt. eigenvalues --    0.09563   0.10281   0.12190   0.12746   0.13294

 Mulliken charges:
               1
     1  C    0.448195
     2  C    0.855161
     3  C    0.863160
     4  C   -0.386545
     5  C   -0.756285
     6  C   -0.363518
     7  O   -1.243180
     8  H   -0.240652
     9  H   -0.237397
    10  H    0.066302
    11  H    0.157142
    12  H    0.159226
    13  H    0.119935
    14  H    0.077953
    15  H    0.218063
    16  H    0.124515
    17  H    0.137925
 Sum of Mulliken charges =   0.00000

 Dipole moment (field-independent basis, Debye):
    X=             -4.3586    Y=              1.0298    Z=              0.9452  Tot=              4.5773

 Test job not archived.
 1\1\GINC-SE187\SP\RHF\Aug-CC-pVDZ\C6H10O1\OHZDE\05-Apr-2025\0\\#t hf a
 ug-cc-pvdz iop(5/13=1,5/36=2,99/5=2) pseudo=read geom=check guess=(rea
 d,tcheck) scf=(maxcycle=1)\\title\\0,1\C,0,1.353737,-0.368467,0.037834
 \C,0,0.245113,0.262988,0.434823\C,0,2.645333,0.319343,-0.004122\C,0,-3
 .55661,-0.151254,-0.231842\C,0,-1.12368,-0.325197,0.512772\C,0,-2.1469
 13,0.421382,-0.360045\O,0,3.687325,-0.191449,-0.351651\H,0,1.345138,-1
 .409243,-0.265925\H,0,0.332449,1.309202,0.722433\H,0,2.616706,1.382207
 ,0.314022\H,0,-3.585524,-1.20076,-0.530463\H,0,-3.915768,-0.089864,0.7

 Normal termination of Gaussian 16 at Sat Apr  5 22:52:50 2025.
