 Gaussian 16, Revision C.01,

 ----------------------------------------------------------------------
 #t hf aug-cc-pvdz symm=none int=(grid=ultrafine) guess=(read,tcheck) s
 table=(opt,rrhf)
 ----------------------------------------------------------------------
 -----
 title
 -----
 Symbolic Z-matrix:
 Charge =  0 Multiplicity = 1

 SCF Done:  E(RHF) =  -385.990668807     A.U. after   14 cycles

 1\1\GINC-SE226\Stability\RHF\Aug-CC-pVDZ\C8H14O1\OHZDE\05-Apr-2025\0\\
 #t hf aug-cc-pvdz symm=none int=(grid=ultrafine) guess=(read,tcheck) s
 table=(opt,rrhf)\\title\\0,1\C,0,2.611997,0.223827,-0.300825\C,0,1.549
 505,0.338129,0.501487\C,0,3.878275,-0.323343,0.18862\C,0,-4.786972,-0.
 124165,-0.302575\C,0,0.207729,0.863036,0.114332\C,0,-3.411591,-0.66654
 5,0.08194\C,0,-0.908819,-0.183212,0.275038\C,0,-2.290909,0.359831,-0.0
 87143\O,0,4.87791,-0.455105,-0.482993\H,0,2.582459,0.530856,-1.340266\
 H,0,1.654351,0.007675,1.533289\H,0,3.872769,-0.625229,1.256593\H,0,-5.

 Normal termination of Gaussian 16 at Sat Apr  5 22:53:15 2025.
 Gaussian 16:  ES64L-G16RevC.01  3-Jul-2019

 ----------------------------------------------------------------------
 #t hf aug-cc-pvdz iop(5/13=1,5/36=2,99/5=2) pseudo=read geom=check gue
 ss=(read,tcheck) scf=(maxcycle=1)
 ----------------------------------------------------------------------
 -----
 title
 -----
 Structure from the checkpoint file:  "E-oct-2-enal.chk"
 Charge =  0 Multiplicity = 1

                         Standard orientation:
 ---------------------------------------------------------------------
 Center     Atomic      Atomic             Coordinates (Angstroms)
 Number     Number       Type             X           Y           Z
 ---------------------------------------------------------------------
      1          6           0        2.611997    0.223827   -0.300825
      2          6           0        1.549505    0.338129    0.501487
      3          6           0        3.878275   -0.323343    0.188620
      4          6           0       -4.786972   -0.124165   -0.302575
      5          6           0        0.207729    0.863036    0.114332
      6          6           0       -3.411591   -0.666545    0.081940
      7          6           0       -0.908819   -0.183212    0.275038
      8          6           0       -2.290909    0.359831   -0.087143
      9          8           0        4.877910   -0.455105   -0.482993
     10          1           0        2.582459    0.530856   -1.340266
     11          1           0        1.654351    0.007675    1.533289
     12          1           0        3.872769   -0.625229    1.256593
     13          1           0       -5.051986    0.745375    0.302406
     14          1           0       -5.564751   -0.875434   -0.160722
     15          1           0       -4.810822    0.183879   -1.349781
     16          1           0       -0.030363    1.722364    0.751305
     17          1           0        0.231964    1.227423   -0.914648
     18          1           0       -3.185367   -1.549033   -0.523759
     19          1           0       -3.431941   -1.009179    1.120746
     20          1           0       -0.917566   -0.545349    1.307622
     21          1           0       -0.678207   -1.048957   -0.351592
     22          1           0       -2.280124    0.713817   -1.123199
     23          1           0       -2.508987    1.237280    0.530712
 ---------------------------------------------------------------------

 SCF Done:  E(RHF) =  -386.402677943     A.U. after    2 cycles

 The electronic state is 1-A.
 Alpha  occ. eigenvalues --  -20.53634 -11.33667 -11.27782 -11.25319 -11.24817
 Alpha  occ. eigenvalues --  -11.24389 -11.23603 -11.23423 -11.22801  -1.46476
 Alpha  occ. eigenvalues --   -1.12596  -1.08499  -1.02832  -0.95374  -0.87175
 Alpha  occ. eigenvalues --   -0.82018  -0.80601  -0.78712  -0.69295  -0.66285
 Alpha  occ. eigenvalues --   -0.65551  -0.61531  -0.61340  -0.58809  -0.58283
 Alpha  occ. eigenvalues --   -0.55984  -0.54206  -0.53540  -0.51983  -0.50039
 Alpha  occ. eigenvalues --   -0.48692  -0.48113  -0.47931  -0.41628  -0.38573
 Alpha virt. eigenvalues --    0.02687   0.03001   0.03333   0.03745   0.04712
 Alpha virt. eigenvalues --    0.05381   0.05620   0.06064   0.07078   0.07995
 Alpha virt. eigenvalues --    0.08047   0.08586   0.08766   0.09118   0.10783

 Mulliken charges:
               1
     1  C    0.410317
     2  C    0.974027
     3  C    0.864120
     4  C   -0.388549
     5  C   -0.609813
     6  C   -0.181431
     7  C   -0.435112
     8  C   -0.300080
     9  O   -1.247081
    10  H   -0.258302
    11  H   -0.252142
    12  H    0.061892
    13  H    0.159749
    14  H    0.113030
    15  H    0.156776
    16  H    0.204496
    17  H    0.081454
    18  H    0.117502
    19  H    0.109635
    20  H    0.109297
    21  H    0.116443
    22  H    0.091054
    23  H    0.102719
 Sum of Mulliken charges =  -0.00000

 Dipole moment (field-independent basis, Debye):
    X=             -4.3398    Y=              0.6728    Z=              1.5834  Tot=              4.6683

 Test job not archived.
 1\1\GINC-SE226\SP\RHF\Aug-CC-pVDZ\C8H14O1\OHZDE\05-Apr-2025\0\\#t hf a
 ug-cc-pvdz iop(5/13=1,5/36=2,99/5=2) pseudo=read geom=check guess=(rea
 d,tcheck) scf=(maxcycle=1)\\title\\0,1\C,0,2.611997,0.223827,-0.300825
 \C,0,1.549505,0.338129,0.501487\C,0,3.878275,-0.323343,0.18862\C,0,-4.
 786972,-0.124165,-0.302575\C,0,0.207729,0.863036,0.114332\C,0,-3.41159
 1,-0.666545,0.08194\C,0,-0.908819,-0.183212,0.275038\C,0,-2.290909,0.3
 59831,-0.087143\O,0,4.87791,-0.455105,-0.482993\H,0,2.582459,0.530856,
 -1.340266\H,0,1.654351,0.007675,1.533289\H,0,3.872769,-0.625229,1.2565

 Normal termination of Gaussian 16 at Sat Apr  5 22:53:27 2025.
