 Gaussian 16, Revision C.01,

 ----------------------------------------------------------------------
 #t hf aug-cc-pvdz symm=none int=(grid=ultrafine) guess=(read,tcheck) s
 table=(opt,rrhf)
 ----------------------------------------------------------------------
 -----
 title
 -----
 Symbolic Z-matrix:
 Charge =  0 Multiplicity = 1

 SCF Done:  E(RHF) =  -268.881745925     A.U. after   14 cycles
 Normal termination of Gaussian 16 at Sat Apr  5 22:51:49 2025.
 Gaussian 16:  ES64L-G16RevC.01  3-Jul-2019

 ----------------------------------------------------------------------
 #t hf aug-cc-pvdz iop(5/13=1,5/36=2,99/5=2) pseudo=read geom=check gue
 ss=(read,tcheck) scf=(maxcycle=1)
 ----------------------------------------------------------------------
 -----
 title
 -----
 Structure from the checkpoint file:  "E-pent-3-en-2-one.chk"
 Charge =  0 Multiplicity = 1

                         Standard orientation:
 ---------------------------------------------------------------------
 Center     Atomic      Atomic             Coordinates (Angstroms)
 Number     Number       Type             X           Y           Z
 ---------------------------------------------------------------------
      1          6           0        0.000000    0.531086    0.000000
      2          6           0       -1.331860    0.464679    0.000000
      3          6           0        0.850788   -0.688356    0.000000
      4          6           0       -2.260297    1.629509    0.000000
      5          6           0        2.345543   -0.454617    0.000000
      6          8           0        0.383363   -1.811009    0.000000
      7          1           0        0.503575    1.491936    0.000000
      8          1           0       -1.777905   -0.525425    0.000000
      9          1           0       -1.728950    2.580430    0.000000
     10          1           0       -2.916004    1.597196    0.874296
     11          1           0       -2.916004    1.597196   -0.874296
     12          1           0        2.872893   -1.404393    0.000000
     13          1           0        2.635225    0.128660    0.877308
     14          1           0        2.635225    0.128660   -0.877308
 ---------------------------------------------------------------------

 SCF Done:  E(RHF) =  -269.163341475     A.U. after    2 cycles

 The electronic state is 1-A'.
 Alpha  occ. eigenvalues --  -20.52258 -11.33477 -11.26742 -11.24754 -11.24013
 Alpha  occ. eigenvalues --  -11.23766  -1.45667  -1.09772  -1.02353  -0.96010
 Alpha  occ. eigenvalues --   -0.81781  -0.73954  -0.67471  -0.64424  -0.60508
 Alpha  occ. eigenvalues --   -0.58745  -0.58553  -0.58206  -0.54445  -0.52407
 Alpha  occ. eigenvalues --   -0.50199  -0.40739  -0.37750
 Alpha virt. eigenvalues --    0.03266   0.03606   0.04524   0.04785   0.05890
 Alpha virt. eigenvalues --    0.05949   0.06867   0.08182   0.08992   0.10033
 Alpha virt. eigenvalues --    0.11748   0.12486   0.13569   0.14750   0.15010

 Mulliken charges:
               1
     1  C    0.742848
     2  C    0.323744
     3  C    0.840541
     4  C   -0.762080
     5  C   -0.581826
     6  O   -1.440455
     7  H   -0.228307
     8  H   -0.157846
     9  H    0.108318
    10  H    0.255419
    11  H    0.255419
    12  H    0.119314
    13  H    0.262455
    14  H    0.262455
 Sum of Mulliken charges =  -0.00000

 Dipole moment (field-independent basis, Debye):
    X=             -0.0374    Y=              3.2381    Z=              0.0000  Tot=              3.2383

 Test job not archived.
 1\1\GINC-SE010\SP\RHF\Aug-CC-pVDZ\C5H8O1\OHZDE\05-Apr-2025\0\\#t hf au
 g-cc-pvdz iop(5/13=1,5/36=2,99/5=2) pseudo=read geom=check guess=(read
 ,tcheck) scf=(maxcycle=1)\\title\\0,1\C,0,0.,0.531086,0.\C,0,-1.33186,
 0.464679,0.\C,0,0.850788,-0.688356,0.\C,0,-2.260297,1.629509,0.\C,0,2.
 345543,-0.454617,0.\O,0,0.383363,-1.811009,0.\H,0,0.503575,1.491936,0.
 \H,0,-1.777905,-0.525425,0.\H,0,-1.72895,2.58043,0.\H,0,-2.916004,1.59
 7195,0.874296\H,0,-2.916004,1.597195,-0.874296\H,0,2.872893,-1.404393,
 0.\H,0,2.635225,0.12866,0.877308\H,0,2.635225,0.12866,-0.877308\\Versi

 Normal termination of Gaussian 16 at Sat Apr  5 22:52:47 2025.
