 Gaussian 16, Revision C.01,

 ----------------------------------------------------------------------
 #t hf aug-cc-pvdz symm=none int=(grid=ultrafine) guess=(read,tcheck) s
 table=(opt,rrhf)
 ----------------------------------------------------------------------
 -----
 title
 -----
 Symbolic Z-matrix:
 Charge =  0 Multiplicity = 1

 SCF Done:  E(RHF) =  -530.654435041     A.U. after   13 cycles
 Normal termination of Gaussian 16 at Sat Apr  5 23:00:04 2025.
 Gaussian 16:  ES64L-G16RevC.01  3-Jul-2019

 ----------------------------------------------------------------------
 #t hf aug-cc-pvdz iop(5/13=1,5/36=2,99/5=2) pseudo=read geom=check gue
 ss=(read,tcheck) scf=(maxcycle=1)
 ----------------------------------------------------------------------
 -----
 title
 -----
 Structure from the checkpoint file:  "ethanethioamide.chk"
 Charge =  0 Multiplicity = 1

                         Standard orientation:
 ---------------------------------------------------------------------
 Center     Atomic      Atomic             Coordinates (Angstroms)
 Number     Number       Type             X           Y           Z
 ---------------------------------------------------------------------
      1          6           0       -1.237894   -1.104197   -0.000349
      2          6           0       -0.280575    0.059414   -0.004593
      3          7           0       -0.872923    1.267541    0.000200
      4         16           0        1.365722   -0.118344    0.000090
      5          1           0       -1.971419   -1.006290   -0.804504
      6          1           0       -0.698836   -2.036611   -0.119837
      7          1           0       -1.784470   -1.132530    0.945767
      8          1           0       -1.873504    1.369103   -0.005404
      9          1           0       -0.302047    2.095742    0.010785
 ---------------------------------------------------------------------

 SCF Done:  E(RHF) =  -530.855271211     A.U. after    2 cycles

 The electronic state is 1-A.
 Alpha  occ. eigenvalues --  -93.89479 -15.55380 -11.35951 -11.25935  -8.17780
 Alpha  occ. eigenvalues --   -6.15644  -6.15348  -6.15218  -1.27396  -1.05850
 Alpha  occ. eigenvalues --   -0.97528  -0.83402  -0.77217  -0.65063  -0.62505
 Alpha  occ. eigenvalues --   -0.58296  -0.53817  -0.51316  -0.35346  -0.33378
 Alpha virt. eigenvalues --    0.02232   0.04377   0.04750   0.05446   0.07183
 Alpha virt. eigenvalues --    0.09004   0.09071   0.10004   0.13825   0.14123
 Alpha virt. eigenvalues --    0.14621   0.15156   0.16642   0.17583   0.17881

 Mulliken charges:
               1
     1  C   -0.340675
     2  C   -1.089674
     3  N    0.658630
     4  S    0.076414
     5  H    0.191363
     6  H    0.196367
     7  H    0.242250
     8  H   -0.016415
     9  H    0.081739
 Sum of Mulliken charges =  -0.00000

 Dipole moment (field-independent basis, Debye):
    X=             -4.6768    Y=              1.1297    Z=              0.0184  Tot=              4.8113

 Test job not archived.
 1\1\GINC-SE179\SP\RHF\Aug-CC-pVDZ\C2H5N1S1\OHZDE\05-Apr-2025\0\\#t hf
 aug-cc-pvdz iop(5/13=1,5/36=2,99/5=2) pseudo=read geom=check guess=(re
 ad,tcheck) scf=(maxcycle=1)\\title\\0,1\C,0,-1.237894,-1.104197,-0.000
 349\C,0,-0.280575,0.059414,-0.004593\N,0,-0.872923,1.267541,0.0002\S,0
 ,1.365722,-0.118344,0.00009\H,0,-1.971419,-1.00629,-0.804504\H,0,-0.69
 8836,-2.036611,-0.119837\H,0,-1.78447,-1.13253,0.945767\H,0,-1.873504,
 1.369103,-0.005404\H,0,-0.302047,2.095742,0.010785\\Version=ES64L-G16R
 evC.01\State=1-A\HF=-530.8552712\RMSD=1.463e-02\Dipole=-1.8399864,0.44

 Normal termination of Gaussian 16 at Sat Apr  5 23:00:08 2025.
