 Gaussian 16, Revision C.01,

 ----------------------------------------------------------------------
 #t hf aug-cc-pvdz symm=none int=(grid=ultrafine) guess=(read,tcheck) s
 table=(opt,rrhf)
 ----------------------------------------------------------------------
 -----
 title
 -----
 Symbolic Z-matrix:
 Charge =  0 Multiplicity = 1

 SCF Done:  E(RHF) =  -133.096516680     A.U. after   12 cycles
 Normal termination of Gaussian 16 at Sat Apr  5 23:00:00 2025.
 Gaussian 16:  ES64L-G16RevC.01  3-Jul-2019

 ----------------------------------------------------------------------
 #t hf aug-cc-pvdz iop(5/13=1,5/36=2,99/5=2) pseudo=read geom=check gue
 ss=(read,tcheck) scf=(maxcycle=1)
 ----------------------------------------------------------------------
 -----
 title
 -----
 Structure from the checkpoint file:  "ethanimine.chk"
 Charge =  0 Multiplicity = 1

                         Standard orientation:
 ---------------------------------------------------------------------
 Center     Atomic      Atomic             Coordinates (Angstroms)
 Number     Number       Type             X           Y           Z
 ---------------------------------------------------------------------
      1          6           0       -1.030686   -0.636526    0.000000
      2          6           0        0.000000    0.445344    0.000000
      3          7           0        1.241167    0.190751    0.000000
      4          1           0       -0.556818   -1.615743    0.000000
      5          1           0       -1.676866   -0.544559    0.876683
      6          1           0       -1.676866   -0.544559   -0.876683
      7          1           0       -0.389088    1.470939    0.000000
      8          1           0        1.795584    1.045760    0.000000
 ---------------------------------------------------------------------

 SCF Done:  E(RHF) =  -133.239433308     A.U. after    2 cycles

 The electronic state is 1-A'.
 Alpha  occ. eigenvalues --  -15.49214 -11.29195 -11.23723  -1.21428  -0.99930
 Alpha  occ. eigenvalues --   -0.79316  -0.72326  -0.59472  -0.59048  -0.55563
 Alpha  occ. eigenvalues --   -0.45934  -0.45345
 Alpha virt. eigenvalues --    0.03430   0.04638   0.05370   0.05380   0.07375
 Alpha virt. eigenvalues --    0.10548   0.11295   0.13282   0.14734   0.15176
 Alpha virt. eigenvalues --    0.15671   0.16462   0.16924   0.19428   0.21487

 Mulliken charges:
               1
     1  C   -0.498584
     2  C   -0.621154
     3  N    0.475647
     4  H    0.169635
     5  H    0.210491
     6  H    0.210491
     7  H   -0.080863
     8  H    0.134335
 Sum of Mulliken charges =  -0.00000

 Dipole moment (field-independent basis, Debye):
    X=             -2.0511    Y=              1.5550    Z=              0.0000  Tot=              2.5739

 Test job not archived.
 1\1\GINC-SE198\SP\RHF\Aug-CC-pVDZ\C2H5N1\OHZDE\05-Apr-2025\0\\#t hf au
 g-cc-pvdz iop(5/13=1,5/36=2,99/5=2) pseudo=read geom=check guess=(read
 ,tcheck) scf=(maxcycle=1)\\title\\0,1\C,0,-1.030686,-0.636526,0.\C,0,0
 .,0.445344,0.\N,0,1.241167,0.190751,0.\H,0,-0.556818,-1.615743,0.\H,0,
 -1.676866,-0.544559,0.876683\H,0,-1.676866,-0.544559,-0.876683\H,0,-0.
 389088,1.470939,0.\H,0,1.795584,1.04576,0.\\Version=ES64L-G16RevC.01\S
 tate=1-A'\HF=-133.2394333\RMSD=1.539e-02\Dipole=-0.806976,0.6117673,0.
 \Quadrupole=-0.6465877,1.321235,-0.6746473,1.9104516,0.,0.\PG=CS [SG(C

 Normal termination of Gaussian 16 at Sat Apr  5 23:00:02 2025.
