 Gaussian 16, Revision C.01,

 ----------------------------------------------------------------------
 #t hf aug-cc-pvdz symm=none int=(grid=ultrafine) guess=(read,tcheck) s
 table=(opt,rrhf)
 ----------------------------------------------------------------------
 -----
 title
 -----
 Symbolic Z-matrix:
 Charge =  0 Multiplicity = 1

 SCF Done:  E(RHF) =  -476.770148527     A.U. after   12 cycles
 Normal termination of Gaussian 16 at Sat Apr  5 23:00:03 2025.
 Gaussian 16:  ES64L-G16RevC.01  3-Jul-2019

 ----------------------------------------------------------------------
 #t hf aug-cc-pvdz iop(5/13=1,5/36=2,99/5=2) pseudo=read geom=check gue
 ss=(read,tcheck) scf=(maxcycle=1)
 ----------------------------------------------------------------------
 -----
 title
 -----
 Structure from the checkpoint file:  "ethanethiol.chk"
 Charge =  0 Multiplicity = 1

                         Standard orientation:
 ---------------------------------------------------------------------
 Center     Atomic      Atomic             Coordinates (Angstroms)
 Number     Number       Type             X           Y           Z
 ---------------------------------------------------------------------
      1          6           0        1.516650    0.705578    0.000000
      2          6           0        0.000000    0.834467    0.000000
      3         16           0       -0.755427   -0.847361    0.000000
      4          1           0        1.868133    0.170753    0.882762
      5          1           0        1.868133    0.170753   -0.882762
      6          1           0        1.975965    1.695046    0.000000
      7          1           0       -0.341365    1.368763   -0.884290
      8          1           0       -0.341365    1.368763    0.884290
      9          1           0       -2.042577   -0.456567    0.000000
 ---------------------------------------------------------------------

 SCF Done:  E(RHF) =  -476.921425499     A.U. after    2 cycles

 The electronic state is 1-A'.
 Alpha  occ. eigenvalues --  -93.94455 -11.27278 -11.23835  -8.22539  -6.20392
 Alpha  occ. eigenvalues --   -6.20246  -6.20018  -1.08419  -0.96407  -0.82847
 Alpha  occ. eigenvalues --   -0.63974  -0.62473  -0.55163  -0.52197  -0.51063
 Alpha  occ. eigenvalues --   -0.45525  -0.36187
 Alpha virt. eigenvalues --    0.03588   0.04181   0.04724   0.05006   0.07006
 Alpha virt. eigenvalues --    0.07749   0.10129   0.12329   0.13315   0.13778
 Alpha virt. eigenvalues --    0.14719   0.16439   0.16990   0.17621   0.18277

 Mulliken charges:
               1
     1  C   -0.333715
     2  C   -0.663325
     3  S   -0.053540
     4  H    0.165064
     5  H    0.165064
     6  H    0.141243
     7  H    0.131375
     8  H    0.131375
     9  H    0.316460
 Sum of Mulliken charges =  -0.00000

 Dipole moment (field-independent basis, Debye):
    X=              0.0429    Y=              1.8548    Z=             -0.0000  Tot=              1.8552

 Test job not archived.
 1\1\GINC-SE180\SP\RHF\Aug-CC-pVDZ\C2H6S1\OHZDE\05-Apr-2025\0\\#t hf au
 g-cc-pvdz iop(5/13=1,5/36=2,99/5=2) pseudo=read geom=check guess=(read
 ,tcheck) scf=(maxcycle=1)\\title\\0,1\C,0,1.51665,0.705578,0.\C,0,0.,0
 .834467,0.\S,0,-0.755427,-0.847361,0.\H,0,1.868133,0.170753,0.882762\H
 ,0,1.868133,0.170753,-0.882762\H,0,1.975965,1.695046,0.\H,0,-0.341365,
 1.368763,-0.88429\H,0,-0.341365,1.368763,0.88429\H,0,-2.042577,-0.4565
 66,0.\\Version=ES64L-G16RevC.01\State=1-A'\HF=-476.9214255\RMSD=7.110e
 -03\Dipole=0.0168645,0.7297165,0.\Quadrupole=1.9965004,-0.6740756,-1.3

 Normal termination of Gaussian 16 at Sat Apr  5 23:00:07 2025.
