 Gaussian 16, Revision C.01,

 ----------------------------------------------------------------------
 #t hf aug-cc-pvdz symm=none int=(grid=ultrafine) guess=(read,tcheck) s
 table=(opt,rrhf)
 ----------------------------------------------------------------------
 -----
 title
 -----
 Symbolic Z-matrix:
 Charge =  0 Multiplicity = 1

 SCF Done:  E(RHF) =  -226.626707615     A.U. after   11 cycles
 Normal termination of Gaussian 16 at Sat Apr  5 22:59:06 2025.
 Gaussian 16:  ES64L-G16RevC.01  3-Jul-2019

 ----------------------------------------------------------------------
 #t hf aug-cc-pvdz iop(5/13=1,5/36=2,99/5=2) pseudo=read geom=check gue
 ss=(read,tcheck) scf=(maxcycle=1)
 ----------------------------------------------------------------------
 -----
 title
 -----
 Structure from the checkpoint file:  "ethanedial.chk"
 Charge =  0 Multiplicity = 1

                         Standard orientation:
 ---------------------------------------------------------------------
 Center     Atomic      Atomic             Coordinates (Angstroms)
 Number     Number       Type             X           Y           Z
 ---------------------------------------------------------------------
      1          6           0       -0.327410    0.688228    0.000000
      2          6           0        0.327410   -0.688228    0.000000
      3          1           0       -1.432549    0.678671    0.000000
      4          1           0        1.432549   -0.678671    0.000000
      5          8           0        0.327410    1.696141    0.000000
      6          8           0       -0.327410   -1.696141    0.000000
 ---------------------------------------------------------------------

 SCF Done:  E(RHF) =  -226.845849128     A.U. after    2 cycles

 The electronic state is 1-AG.
 Alpha  occ. eigenvalues --  -20.59648 -20.59645 -11.37587 -11.37551  -1.52789
 Alpha  occ. eigenvalues --   -1.51597  -0.97898  -0.83475  -0.71605  -0.71592
 Alpha  occ. eigenvalues --   -0.66384  -0.60022  -0.53473  -0.51863  -0.43474
 Alpha virt. eigenvalues --    0.03539   0.03999   0.04212   0.08471   0.10110
 Alpha virt. eigenvalues --    0.10730   0.11345   0.12008   0.14662   0.15337
 Alpha virt. eigenvalues --    0.17397   0.19886   0.22056   0.23897   0.27079

 Mulliken charges:
               1
     1  C    0.849824
     2  C    0.849824
     3  H    0.171328
     4  H    0.171328
     5  O   -1.021152
     6  O   -1.021152
 Sum of Mulliken charges =   0.00000

 Dipole moment (field-independent basis, Debye):
    X=             -0.0000    Y=             -0.0000    Z=              0.0000  Tot=              0.0000

 Test job not archived.
 1\1\GINC-SE176\SP\RHF\Aug-CC-pVDZ\C2H2O2\OHZDE\05-Apr-2025\0\\#t hf au
 g-cc-pvdz iop(5/13=1,5/36=2,99/5=2) pseudo=read geom=check guess=(read
 ,tcheck) scf=(maxcycle=1)\\title\\0,1\C,0,-0.32741,0.688228,0.\C,0,0.3
 2741,-0.688228,0.\H,0,-1.432549,0.678671,0.\H,0,1.432549,-0.678671,0.\
 O,0,0.32741,1.696141,0.\O,0,-0.32741,-1.696141,0.\\Version=ES64L-G16Re
 vC.01\State=1-AG\HF=-226.8458491\RMSD=1.142e-02\Dipole=0.,0.,0.\Quadru
 pole=2.8181185,-5.0980416,2.2799231,-2.7487666,0.,0.\PG=C02H [SGH(C2H2
 O2)]\\@

 Normal termination of Gaussian 16 at Sat Apr  5 22:59:59 2025.
