 Gaussian 16, Revision C.01,

 ----------------------------------------------------------------------
 #t hf aug-cc-pvdz symm=none int=(grid=ultrafine) guess=(read,tcheck) s
 table=(opt,rrhf)
 ----------------------------------------------------------------------
 -----
 title
 -----
 Symbolic Z-matrix:
 Charge =  0 Multiplicity = 1

 SCF Done:  E(RHF) =  -154.105469054     A.U. after   12 cycles
 Normal termination of Gaussian 16 at Sat Apr  5 23:00:01 2025.
 Gaussian 16:  ES64L-G16RevC.01  3-Jul-2019

 ----------------------------------------------------------------------
 #t hf aug-cc-pvdz iop(5/13=1,5/36=2,99/5=2) pseudo=read geom=check gue
 ss=(read,tcheck) scf=(maxcycle=1)
 ----------------------------------------------------------------------
 -----
 title
 -----
 Structure from the checkpoint file:  "ethanol.chk"
 Charge =  0 Multiplicity = 1

                         Standard orientation:
 ---------------------------------------------------------------------
 Center     Atomic      Atomic             Coordinates (Angstroms)
 Number     Number       Type             X           Y           Z
 ---------------------------------------------------------------------
      1          6           0       -1.215127   -0.241882   -0.021159
      2          6           0        0.077656    0.555024    0.046899
      3          8           0        1.241995   -0.256233   -0.108913
      4          1           0       -2.078754    0.421353    0.059053
      5          1           0       -1.283191   -0.786082   -0.963270
      6          1           0       -1.275073   -0.964301    0.796308
      7          1           0        0.129489    1.119523    0.984758
      8          1           0        0.123134    1.276394   -0.768848
      9          1           0        1.273257   -0.895871    0.608864
 ---------------------------------------------------------------------

 SCF Done:  E(RHF) =  -154.272071711     A.U. after    2 cycles

 The electronic state is 1-A.
 Alpha  occ. eigenvalues --  -20.54432 -11.28377 -11.22935  -1.44122  -1.01769
 Alpha  occ. eigenvalues --   -0.85110  -0.68779  -0.62669  -0.61008  -0.54883
 Alpha  occ. eigenvalues --   -0.52836  -0.48499  -0.43963
 Alpha virt. eigenvalues --    0.03662   0.04306   0.04579   0.05164   0.07634
 Alpha virt. eigenvalues --    0.07803   0.12203   0.12474   0.14331   0.15448
 Alpha virt. eigenvalues --    0.16286   0.16794   0.17518   0.19952   0.23500

 Mulliken charges:
               1
     1  C   -0.407065
     2  C    0.571835
     3  O   -1.095030
     4  H    0.168581
     5  H    0.178858
     6  H    0.103818
     7  H    0.116669
     8  H    0.055461
     9  H    0.306874
 Sum of Mulliken charges =  -0.00000

 Dipole moment (field-independent basis, Debye):
    X=             -1.2984    Y=             -0.1121    Z=              1.2039  Tot=              1.7743

 Test job not archived.
 1\1\GINC-SE199\SP\RHF\Aug-CC-pVDZ\C2H6O1\OHZDE\05-Apr-2025\0\\#t hf au
 g-cc-pvdz iop(5/13=1,5/36=2,99/5=2) pseudo=read geom=check guess=(read
 ,tcheck) scf=(maxcycle=1)\\title\\0,1\C,0,-1.215127,-0.241882,-0.02115
 9\C,0,0.077656,0.555024,0.046899\O,0,1.241995,-0.256233,-0.108913\H,0,
 -2.078754,0.421353,0.059053\H,0,-1.283191,-0.786082,-0.96327\H,0,-1.27
 5073,-0.964301,0.796308\H,0,0.129488,1.119523,0.984758\H,0,0.123133,1.
 276394,-0.768848\H,0,1.273257,-0.89587,0.608864\\Version=ES64L-G16RevC
 .01\State=1-A\HF=-154.2720717\RMSD=8.289e-03\Dipole=-0.5108489,-0.0441

 Normal termination of Gaussian 16 at Sat Apr  5 23:00:04 2025.
