 Gaussian 16, Revision C.01,

 ----------------------------------------------------------------------
 #t hf aug-cc-pvdz symm=none int=(grid=ultrafine) guess=(read,tcheck) s
 table=(opt,rrhf)
 ----------------------------------------------------------------------
 -----
 title
 -----
 Symbolic Z-matrix:
 Charge =  0 Multiplicity = 1

 SCF Done:  E(RHF) =  -79.2372636681     A.U. after    9 cycles
 Normal termination of Gaussian 16 at Sat Apr  5 23:00:00 2025.
 Gaussian 16:  ES64L-G16RevC.01  3-Jul-2019

 ----------------------------------------------------------------------
 #t hf aug-cc-pvdz iop(5/13=1,5/36=2,99/5=2) pseudo=read geom=check gue
 ss=(read,tcheck) scf=(maxcycle=1)
 ----------------------------------------------------------------------
 -----
 title
 -----
 Structure from the checkpoint file:  "ethane.chk"
 Charge =  0 Multiplicity = 1

                         Standard orientation:
 ---------------------------------------------------------------------
 Center     Atomic      Atomic             Coordinates (Angstroms)
 Number     Number       Type             X           Y           Z
 ---------------------------------------------------------------------
      1          6           0        0.000000    0.763540    0.000000
      2          6           0       -0.000000   -0.763540   -0.000000
      3          1           0       -1.016074    1.160929    0.000000
      4          1           0        1.016074   -1.160929   -0.000000
      5          1           0        0.508037    1.160929    0.879946
      6          1           0       -0.508037   -1.160929   -0.879946
      7          1           0        0.508037    1.160929   -0.879946
      8          1           0       -0.508037   -1.160929    0.879946
 ---------------------------------------------------------------------

 SCF Done:  E(RHF) =  -79.3321812169     A.U. after    2 cycles

 The electronic state is 1-AG.
 Alpha  occ. eigenvalues --  -11.22188 -11.22162  -1.02062  -0.84387  -0.60228
 Alpha  occ. eigenvalues --   -0.60228  -0.52058  -0.49241  -0.49241
 Alpha virt. eigenvalues --    0.04013   0.04564   0.04845   0.04845   0.08174
 Alpha virt. eigenvalues --    0.08174   0.12528   0.14312   0.14312   0.15214
 Alpha virt. eigenvalues --    0.16973   0.17776   0.17776   0.20399   0.29364

 Mulliken charges:
               1
     1  C   -0.410364
     2  C   -0.410364
     3  H    0.136788
     4  H    0.136788
     5  H    0.136788
     6  H    0.136788
     7  H    0.136788
     8  H    0.136788
 Sum of Mulliken charges =  -0.00000

 Dipole moment (field-independent basis, Debye):
    X=             -0.0000    Y=              0.0000    Z=             -0.0000  Tot=              0.0000

 Test job not archived.
 1\1\GINC-SE045\SP\RHF\Aug-CC-pVDZ\C2H6\OHZDE\05-Apr-2025\0\\#t hf aug-
 cc-pvdz iop(5/13=1,5/36=2,99/5=2) pseudo=read geom=check guess=(read,t
 check) scf=(maxcycle=1)\\title\\0,1\C,0,0.,0.,0.76354\C,0,0.,0.,-0.763
 54\H,0,0.,1.016074,1.160929\H,0,0.,-1.016074,-1.160929\H,0,-0.879946,-
 0.508037,1.160929\H,0,0.879946,0.508037,-1.160929\H,0,0.879946,-0.5080
 37,1.160929\H,0,-0.879946,0.508037,-1.160929\\Version=ES64L-G16RevC.01
 \State=1-AG\HF=-79.3321812\RMSD=7.778e-03\Dipole=0.,0.,0.\Quadrupole=0
 .1595586,0.1595581,-0.3191168,0.,0.,0.0000002\PG=C02H [SGH(C2H2),X(H4)

 Normal termination of Gaussian 16 at Sat Apr  5 23:00:01 2025.
