 Gaussian 16, Revision C.01,

 ----------------------------------------------------------------------
 #t hf aug-cc-pvdz symm=none int=(grid=ultrafine) guess=(read,tcheck) s
 table=(opt,rrhf)
 ----------------------------------------------------------------------
 -----
 title
 -----
 Symbolic Z-matrix:
 Charge =  0 Multiplicity = 1

 SCF Done:  E(RHF) =  -152.919682448     A.U. after   13 cycles
 Normal termination of Gaussian 16 at Sat Apr  5 23:00:01 2025.
 Gaussian 16:  ES64L-G16RevC.01  3-Jul-2019

 ----------------------------------------------------------------------
 #t hf aug-cc-pvdz iop(5/13=1,5/36=2,99/5=2) pseudo=read geom=check gue
 ss=(read,tcheck) scf=(maxcycle=1)
 ----------------------------------------------------------------------
 -----
 title
 -----
 Structure from the checkpoint file:  "ethenol.chk"
 Charge =  0 Multiplicity = 1

                         Standard orientation:
 ---------------------------------------------------------------------
 Center     Atomic      Atomic             Coordinates (Angstroms)
 Number     Number       Type             X           Y           Z
 ---------------------------------------------------------------------
      1          6           0        1.211962   -0.100418    0.000000
      2          6           0        0.000000    0.441434    0.000000
      3          8           0       -1.190822   -0.218573    0.000000
      4          1           0        1.366451   -1.172202    0.000000
      5          1           0        2.084447    0.533775    0.000000
      6          1           0       -0.160334    1.511121    0.000000
      7          1           0       -1.035759   -1.170209    0.000000
 ---------------------------------------------------------------------

 SCF Done:  E(RHF) =  -153.078241778     A.U. after    2 cycles

 The electronic state is 1-A'.
 Alpha  occ. eigenvalues --  -20.58182 -11.30902 -11.22640  -1.49302  -1.03083
 Alpha  occ. eigenvalues --   -0.83621  -0.68726  -0.67765  -0.57471  -0.55028
 Alpha  occ. eigenvalues --   -0.54878  -0.35687
 Alpha virt. eigenvalues --    0.03746   0.04321   0.04945   0.06916   0.11096
 Alpha virt. eigenvalues --    0.11743   0.12125   0.14133   0.14916   0.17312
 Alpha virt. eigenvalues --    0.17995   0.20333   0.21545   0.22049   0.25171

 Mulliken charges:
               1
     1  C   -0.112800
     2  C    1.213602
     3  O   -1.264553
     4  H   -0.102609
     5  H   -0.078705
     6  H   -0.016147
     7  H    0.361211
 Sum of Mulliken charges =  -0.00000

 Dipole moment (field-independent basis, Debye):
    X=              0.6131    Y=             -0.7844    Z=              0.0000  Tot=              0.9955

 Test job not archived.
 1\1\GINC-SE187\SP\RHF\Aug-CC-pVDZ\C2H4O1\OHZDE\05-Apr-2025\0\\#t hf au
 g-cc-pvdz iop(5/13=1,5/36=2,99/5=2) pseudo=read geom=check guess=(read
 ,tcheck) scf=(maxcycle=1)\\title\\0,1\C,0,1.211962,-0.100418,0.\C,0,0.
 ,0.441434,0.\O,0,-1.190822,-0.218573,0.\H,0,1.366451,-1.172202,0.\H,0,
 2.084447,0.533775,0.\H,0,-0.160334,1.511121,0.\H,0,-1.035759,-1.170209
 ,0.\\Version=ES64L-G16RevC.01\State=1-A'\HF=-153.0782418\RMSD=1.464e-0
 2\Dipole=0.2412084,-0.308589,0.\Quadrupole=-1.234039,3.2703233,-2.0362
 843,0.8033544,0.,0.\PG=CS [SG(C2H4O1)]\\@

 Normal termination of Gaussian 16 at Sat Apr  5 23:00:03 2025.
