 Gaussian 16, Revision C.01,

 ----------------------------------------------------------------------
 #t hf aug-cc-pvdz symm=none int=(grid=ultrafine) guess=(read,tcheck) s
 table=(opt,rrhf)
 ----------------------------------------------------------------------
 -----
 title
 -----
 Symbolic Z-matrix:
 Charge =  0 Multiplicity = 1

 SCF Done:  E(RHF) =  -78.0437022052     A.U. after    9 cycles
 Normal termination of Gaussian 16 at Sat Apr  5 22:59:59 2025.
 Gaussian 16:  ES64L-G16RevC.01  3-Jul-2019

 ----------------------------------------------------------------------
 #t hf aug-cc-pvdz iop(5/13=1,5/36=2,99/5=2) pseudo=read geom=check gue
 ss=(read,tcheck) scf=(maxcycle=1)
 ----------------------------------------------------------------------
 -----
 title
 -----
 Structure from the checkpoint file:  "ethene.chk"
 Charge =  0 Multiplicity = 1

                         Standard orientation:
 ---------------------------------------------------------------------
 Center     Atomic      Atomic             Coordinates (Angstroms)
 Number     Number       Type             X           Y           Z
 ---------------------------------------------------------------------
      1          6           0        0.000000    0.000000    0.662415
      2          6           0        0.000000    0.000000   -0.662415
      3          1           0        0.000000    0.920717    1.231649
      4          1           0       -0.000000   -0.920717    1.231649
      5          1           0       -0.000000   -0.920717   -1.231649
      6          1           0        0.000000    0.920717   -1.231649
 ---------------------------------------------------------------------

 SCF Done:  E(RHF) =  -78.1306301819     A.U. after    2 cycles

 The electronic state is 1-AG.
 Alpha  occ. eigenvalues --  -11.24078 -11.23935  -1.03890  -0.79590  -0.65219
 Alpha  occ. eigenvalues --   -0.60333  -0.51244  -0.38618
 Alpha virt. eigenvalues --    0.04142   0.04657   0.04774   0.06935   0.10068
 Alpha virt. eigenvalues --    0.12015   0.12777   0.14724   0.17502   0.17732
 Alpha virt. eigenvalues --    0.20544   0.20631   0.22265   0.24980   0.29165

 Mulliken charges:
               1
     1  C    0.097464
     2  C    0.097464
     3  H   -0.048732
     4  H   -0.048732
     5  H   -0.048732
     6  H   -0.048732
 Sum of Mulliken charges =  -0.00000

 Dipole moment (field-independent basis, Debye):
    X=              0.0000    Y=             -0.0000    Z=             -0.0000  Tot=              0.0000

 Test job not archived.
 1\1\GINC-SE214\SP\RHF\Aug-CC-pVDZ\C2H4\OHZDE\05-Apr-2025\0\\#t hf aug-
 cc-pvdz iop(5/13=1,5/36=2,99/5=2) pseudo=read geom=check guess=(read,t
 check) scf=(maxcycle=1)\\title\\0,1\C,0,0.,0.,0.662415\C,0,0.,0.,-0.66
 2415\H,0,0.,0.920717,1.231649\H,0,0.,-0.920717,1.231649\H,0,0.,-0.9207
 17,-1.231649\H,0,0.,0.920717,-1.231649\\Version=ES64L-G16RevC.01\State
 =1-AG\HF=-78.1306302\RMSD=1.238e-02\Dipole=0.,0.,0.\Quadrupole=-1.9396
 62,0.8588526,1.0808094,0.,0.,0.\PG=D02H [C2"(C1.C1),SG(H4)]\\@

 Normal termination of Gaussian 16 at Sat Apr  5 23:00:02 2025.
