 Gaussian 16, Revision C.01,

 ----------------------------------------------------------------------
 #t hf aug-cc-pvdz symm=none int=(grid=ultrafine) guess=(read,tcheck) s
 table=(opt,rrhf)
 ----------------------------------------------------------------------
 -----
 title
 -----
 Symbolic Z-matrix:
 Charge =  0 Multiplicity = 1

 SCF Done:  E(RHF) =  -474.386604464     A.U. after   13 cycles
 Normal termination of Gaussian 16 at Sat Apr  5 23:00:01 2025.
 Gaussian 16:  ES64L-G16RevC.01  3-Jul-2019

 ----------------------------------------------------------------------
 #t hf aug-cc-pvdz iop(5/13=1,5/36=2,99/5=2) pseudo=read geom=check gue
 ss=(read,tcheck) scf=(maxcycle=1)
 ----------------------------------------------------------------------
 -----
 title
 -----
 Structure from the checkpoint file:  "ethenethione.chk"
 Charge =  0 Multiplicity = 1

                         Standard orientation:
 ---------------------------------------------------------------------
 Center     Atomic      Atomic             Coordinates (Angstroms)
 Number     Number       Type             X           Y           Z
 ---------------------------------------------------------------------
      1         16           0       -0.000127   -1.112931    0.000000
      2          6           0        0.000196    1.751740   -0.000000
      3          6           0       -0.000000    0.447878   -0.000000
      4          1           0        0.000427    2.304594    0.929946
      5          1           0        0.000427    2.304594   -0.929946
 ---------------------------------------------------------------------

 SCF Done:  E(RHF) =  -474.521433322     A.U. after    2 cycles

 The electronic state is 1-A'.
 Alpha  occ. eigenvalues --  -93.96941 -11.35395 -11.26236  -8.25204  -6.23053
 Alpha  occ. eigenvalues --   -6.22773  -6.22585  -1.13245  -1.01590  -0.72824
 Alpha  occ. eigenvalues --   -0.63980  -0.60308  -0.51311  -0.43671  -0.33874
 Alpha virt. eigenvalues --    0.03535   0.03984   0.05496   0.06831   0.08625
 Alpha virt. eigenvalues --    0.08881   0.13229   0.14025   0.15355   0.15724
 Alpha virt. eigenvalues --    0.16675   0.17526   0.19130   0.20286   0.24065

 Mulliken charges:
               1
     1  S    0.126765
     2  C   -0.008350
     3  C   -0.195493
     4  H    0.038539
     5  H    0.038539
 Sum of Mulliken charges =  -0.00000

 Dipole moment (field-independent basis, Debye):
    X=              0.0005    Y=              1.6253    Z=              0.0000  Tot=              1.6253

 Test job not archived.
 1\1\GINC-SE232\SP\RHF\Aug-CC-pVDZ\C2H2S1\OHZDE\05-Apr-2025\0\\#t hf au
 g-cc-pvdz iop(5/13=1,5/36=2,99/5=2) pseudo=read geom=check guess=(read
 ,tcheck) scf=(maxcycle=1)\\title\\0,1\S,0,-0.000127,-1.112931,0.\C,0,0
 .000196,1.75174,0.\C,0,0.,0.447878,0.\H,0,0.000427,2.304594,0.929946\H
 ,0,0.000427,2.304594,-0.929946\\Version=ES64L-G16RevC.01\State=1-A'\HF
 =-474.5214333\RMSD=1.301e-02\Dipole=0.0002115,0.6394304,0.\Quadrupole=
 -2.8266037,2.386779,0.4398247,0.0011884,0.,0.\PG=CS [SG(C2S1),X(H2)]\\
 @

 Normal termination of Gaussian 16 at Sat Apr  5 23:00:03 2025.
