 Gaussian 16, Revision C.01,

 ----------------------------------------------------------------------
 #t hf aug-cc-pvdz symm=none int=(grid=ultrafine) guess=(read,tcheck) s
 table=(opt,rrhf)
 ----------------------------------------------------------------------
 -----
 title
 -----
 Symbolic Z-matrix:
 Charge =  0 Multiplicity = 1

 SCF Done:  E(RHF) =  -193.962756857     A.U. after   13 cycles
 Normal termination of Gaussian 16 at Sat Apr  5 23:00:14 2025.
 Gaussian 16:  ES64L-G16RevC.01  3-Jul-2019

 ----------------------------------------------------------------------
 #t hf aug-cc-pvdz iop(5/13=1,5/36=2,99/5=2) pseudo=read geom=check gue
 ss=(read,tcheck) scf=(maxcycle=1)
 ----------------------------------------------------------------------
 -----
 title
 -----
 Structure from the checkpoint file:  "ethenylcyclopropane.chk"
 Charge =  0 Multiplicity = 1

                         Standard orientation:
 ---------------------------------------------------------------------
 Center     Atomic      Atomic             Coordinates (Angstroms)
 Number     Number       Type             X           Y           Z
 ---------------------------------------------------------------------
      1          6           0       -0.252597    1.434985    0.748313
      2          6           0       -0.252597    1.434985   -0.748313
      3          6           0        0.389449    0.284544   -0.000000
      4          6           0       -0.252597   -1.039865    0.000000
      5          6           0        0.387394   -2.205488    0.000000
      6          1           0        0.401712    2.122298    1.265403
      7          1           0       -1.185014    1.236819    1.258413
      8          1           0       -1.185014    1.236819   -1.258413
      9          1           0        0.401712    2.122298   -1.265403
     10          1           0        1.471951    0.266496    0.000000
     11          1           0       -1.339751   -1.036337    0.000000
     12          1           0        1.469284   -2.259461    0.000000
     13          1           0       -0.149199   -3.143904    0.000000
 ---------------------------------------------------------------------

 SCF Done:  E(RHF) =  -194.175126314     A.U. after    2 cycles

 The electronic state is 1-A'.
 Alpha  occ. eigenvalues --  -11.24215 -11.24160 -11.23694 -11.23640 -11.22475
 Alpha  occ. eigenvalues --   -1.15549  -1.03595  -0.85126  -0.82821  -0.76530
 Alpha  occ. eigenvalues --   -0.67468  -0.65892  -0.59962  -0.56472  -0.52613
 Alpha  occ. eigenvalues --   -0.49688  -0.47099  -0.43721  -0.34600
 Alpha virt. eigenvalues --    0.03712   0.04006   0.04143   0.04543   0.06111
 Alpha virt. eigenvalues --    0.06479   0.06976   0.09102   0.10490   0.10817
 Alpha virt. eigenvalues --    0.13015   0.13447   0.14706   0.15129   0.15882

 Mulliken charges:
               1
     1  C    0.204712
     2  C    0.204712
     3  C    0.470101
     4  C    0.429974
     5  C   -0.116661
     6  H   -0.134150
     7  H   -0.141123
     8  H   -0.141123
     9  H   -0.134150
    10  H   -0.207869
    11  H   -0.225543
    12  H   -0.090218
    13  H   -0.118660
 Sum of Mulliken charges =  -0.00000

 Dipole moment (field-independent basis, Debye):
    X=             -0.0292    Y=              0.5762    Z=             -0.0000  Tot=              0.5770

 Test job not archived.
 1\1\GINC-SE188\SP\RHF\Aug-CC-pVDZ\C5H8\OHZDE\05-Apr-2025\0\\#t hf aug-
 cc-pvdz iop(5/13=1,5/36=2,99/5=2) pseudo=read geom=check guess=(read,t
 check) scf=(maxcycle=1)\\title\\0,1\C,0,-0.252597,1.434985,0.748313\C,
 0,-0.252597,1.434985,-0.748313\C,0,0.389449,0.284544,0.\C,0,-0.252597,
 -1.039865,0.\C,0,0.387394,-2.205488,0.\H,0,0.401712,2.122298,1.265403\
 H,0,-1.185014,1.236819,1.258413\H,0,-1.185014,1.236819,-1.258413\H,0,0
 .401712,2.122298,-1.265403\H,0,1.471951,0.266496,0.\H,0,-1.339751,-1.0
 36337,0.\H,0,1.469284,-2.259461,0.\H,0,-0.149199,-3.143904,0.\\Version

 Normal termination of Gaussian 16 at Sat Apr  5 23:00:16 2025.
