 Gaussian 16, Revision C.01,

 ----------------------------------------------------------------------
 #t hf aug-cc-pvdz symm=none int=(grid=ultrafine) guess=(read,tcheck) s
 table=(opt,rrhf)
 ----------------------------------------------------------------------
 -----
 title
 -----
 Symbolic Z-matrix:
 Charge =  0 Multiplicity = 1

 SCF Done:  E(RHF) =  -133.089085392     A.U. after   13 cycles
 Normal termination of Gaussian 16 at Sat Apr  5 23:00:00 2025.
 Gaussian 16:  ES64L-G16RevC.01  3-Jul-2019

 ----------------------------------------------------------------------
 #t hf aug-cc-pvdz iop(5/13=1,5/36=2,99/5=2) pseudo=read geom=check gue
 ss=(read,tcheck) scf=(maxcycle=1)
 ----------------------------------------------------------------------
 -----
 title
 -----
 Structure from the checkpoint file:  "ethenamine.chk"
 Charge =  0 Multiplicity = 1

                         Standard orientation:
 ---------------------------------------------------------------------
 Center     Atomic      Atomic             Coordinates (Angstroms)
 Number     Number       Type             X           Y           Z
 ---------------------------------------------------------------------
      1          6           0        1.249205   -0.196057    0.013814
      2          6           0        0.069711    0.426754   -0.000397
      3          7           0       -1.181689   -0.169404   -0.079242
      4          1           0        1.330242   -1.275684    0.016682
      5          1           0        2.164905    0.373573    0.006405
      6          1           0        0.029960    1.509834   -0.008170
      7          1           0       -1.221005   -1.153102    0.136560
      8          1           0       -1.945772    0.347030    0.322711
 ---------------------------------------------------------------------

 SCF Done:  E(RHF) =  -133.233529907     A.U. after    2 cycles

 The electronic state is 1-A.
 Alpha  occ. eigenvalues --  -15.50663 -11.27575 -11.20838  -1.21142  -1.00085
 Alpha  occ. eigenvalues --   -0.80909  -0.73345  -0.66366  -0.59186  -0.53361
 Alpha  occ. eigenvalues --   -0.52360  -0.33483
 Alpha virt. eigenvalues --    0.03274   0.04763   0.05086   0.06600   0.06975
 Alpha virt. eigenvalues --    0.11398   0.12070   0.13024   0.14484   0.15214
 Alpha virt. eigenvalues --    0.17322   0.17696   0.18552   0.20094   0.21865

 Mulliken charges:
               1
     1  C    0.098614
     2  C   -0.206943
     3  N    0.337691
     4  H   -0.111054
     5  H   -0.104744
     6  H   -0.153009
     7  H    0.049408
     8  H    0.090036
 Sum of Mulliken charges =  -0.00000

 Dipole moment (field-independent basis, Debye):
    X=             -1.0609    Y=              0.0398    Z=              0.9484  Tot=              1.4236

 Test job not archived.
 1\1\GINC-SE214\SP\RHF\Aug-CC-pVDZ\C2H5N1\OHZDE\05-Apr-2025\0\\#t hf au
 g-cc-pvdz iop(5/13=1,5/36=2,99/5=2) pseudo=read geom=check guess=(read
 ,tcheck) scf=(maxcycle=1)\\title\\0,1\C,0,1.249205,-0.196057,0.013814\
 C,0,0.069711,0.426754,-0.000397\N,0,-1.181689,-0.169404,-0.079242\H,0,
 1.330242,-1.275684,0.016682\H,0,2.164905,0.373573,0.006405\H,0,0.02996
 ,1.509834,-0.00817\H,0,-1.221005,-1.153102,0.13656\H,0,-1.945772,0.347
 03,0.322711\\Version=ES64L-G16RevC.01\State=1-A\HF=-133.2335299\RMSD=1
 .536e-02\Dipole=-0.4174024,0.0156642,0.3731237\Quadrupole=1.1690743,2.

 Normal termination of Gaussian 16 at Sat Apr  5 23:00:02 2025.
