 Gaussian 16, Revision C.01,

 ----------------------------------------------------------------------
 #t hf aug-cc-pvdz symm=none int=(grid=ultrafine) guess=(read,tcheck) s
 table=(opt,rrhf)
 ----------------------------------------------------------------------
 -----
 title
 -----
 Symbolic Z-matrix:
 Charge =  0 Multiplicity = 1

 SCF Done:  E(RHF) =  -230.985490656     A.U. after   13 cycles
 Normal termination of Gaussian 16 at Sat Apr  5 23:00:15 2025.
 Gaussian 16:  ES64L-G16RevC.01  3-Jul-2019

 ----------------------------------------------------------------------
 #t hf aug-cc-pvdz iop(5/13=1,5/36=2,99/5=2) pseudo=read geom=check gue
 ss=(read,tcheck) scf=(maxcycle=1)
 ----------------------------------------------------------------------
 -----
 title
 -----
 Structure from the checkpoint file:  "ethoxyethene.chk"
 Charge =  0 Multiplicity = 1

                         Standard orientation:
 ---------------------------------------------------------------------
 Center     Atomic      Atomic             Coordinates (Angstroms)
 Number     Number       Type             X           Y           Z
 ---------------------------------------------------------------------
      1          6           0        2.445855   -0.294356   -0.000008
      2          1           0        2.499430   -1.373583    0.000358
      3          1           0        3.364930    0.269880   -0.000226
      4          6           0        1.282938    0.346338   -0.000141
      5          1           0        1.226582    1.430931   -0.000503
      6          8           0        0.088531   -0.298764    0.000118
      7          6           0       -1.073605    0.536374    0.000222
      8          1           0       -1.057562    1.179175   -0.885919
      9          1           0       -1.057825    1.178653    0.886755
     10          6           0       -2.298114   -0.351311   -0.000172
     11          1           0       -2.312414   -0.988238   -0.884210
     12          1           0       -2.312552   -0.988828    0.883437
     13          1           0       -3.201281    0.259848   -0.000035
 ---------------------------------------------------------------------

 SCF Done:  E(RHF) =  -231.231206818     A.U. after    2 cycles

 The electronic state is 1-A.
 Alpha  occ. eigenvalues --  -20.56337 -11.29693 -11.29637 -11.23243 -11.21650
 Alpha  occ. eigenvalues --   -1.48905  -1.05974  -0.99779  -0.85693  -0.79874
 Alpha  occ. eigenvalues --   -0.69669  -0.67153  -0.64313  -0.57351  -0.55666
 Alpha  occ. eigenvalues --   -0.54383  -0.53826  -0.49173  -0.48799  -0.34017
 Alpha virt. eigenvalues --    0.03564   0.04049   0.04538   0.04623   0.05965
 Alpha virt. eigenvalues --    0.06342   0.07723   0.08388   0.11688   0.11811
 Alpha virt. eigenvalues --    0.12928   0.13885   0.14835   0.15509   0.16183

 Mulliken charges:
               1
     1  C   -0.103668
     2  H   -0.143267
     3  H   -0.071979
     4  C    1.240562
     5  H   -0.103433
     6  O   -1.462580
     7  C    0.464365
     8  H    0.095153
     9  H    0.095242
    10  C   -0.526895
    11  H    0.174425
    12  H    0.174439
    13  H    0.167635
 Sum of Mulliken charges =  -0.00000

 Dipole moment (field-independent basis, Debye):
    X=             -1.2213    Y=              1.3732    Z=             -0.0001  Tot=              1.8377

 Test job not archived.
 1\1\GINC-SE220\SP\RHF\Aug-CC-pVDZ\C4H8O1\OHZDE\05-Apr-2025\0\\#t hf au
 g-cc-pvdz iop(5/13=1,5/36=2,99/5=2) pseudo=read geom=check guess=(read
 ,tcheck) scf=(maxcycle=1)\\title\\0,1\C,0,2.445855,-0.294356,-0.000008
 \H,0,2.49943,-1.373583,0.000358\H,0,3.36493,0.26988,-0.000226\C,0,1.28
 2938,0.346338,-0.000141\H,0,1.226582,1.430931,-0.000503\O,0,0.088531,-
 0.298764,0.000118\C,0,-1.073605,0.536374,0.000222\H,0,-1.057562,1.1791
 75,-0.885919\H,0,-1.057825,1.178653,0.886755\C,0,-2.298114,-0.351311,-
 0.000172\H,0,-2.312414,-0.988238,-0.88421\H,0,-2.312552,-0.988828,0.88

 Normal termination of Gaussian 16 at Sat Apr  5 23:00:18 2025.
