 Gaussian 16, Revision C.01,

 ----------------------------------------------------------------------
 #t hf aug-cc-pvdz symm=none int=(grid=ultrafine) guess=(read,tcheck) s
 table=(opt,rrhf)
 ----------------------------------------------------------------------
 -----
 title
 -----
 Symbolic Z-matrix:
 Charge =  0 Multiplicity = 1

 SCF Done:  E(RHF) =  -383.667848038     A.U. after   15 cycles

 1\1\GINC-SE106\Stability\RHF\Aug-CC-pVDZ\C8H10O1\OHZDE\05-Apr-2025\0\\
 #t hf aug-cc-pvdz symm=none int=(grid=ultrafine) guess=(read,tcheck) s
 table=(opt,rrhf)\\title\\0,1\C,0,2.782896,0.485045,0.\C,0,2.194136,-0.
 770352,0.\C,0,1.968374,1.616338,0.\C,0,0.807719,-0.912627,0.\C,0,0.589
 648,1.491986,0.\C,0,0.,0.224518,0.\C,0,-3.525326,-0.78267,0.\C,0,-2.03
 6225,-1.053818,0.\O,0,-1.362668,0.203627,0.\H,0,3.859197,0.585368,0.\H
 ,0,2.812468,-1.658314,0.\H,0,2.412071,2.603099,0.\H,0,0.376293,-1.9016
 43,0.\H,0,-0.052598,2.36169,0.\H,0,-4.074153,-1.725007,0.\H,0,-3.81476

 Normal termination of Gaussian 16 at Sat Apr  5 23:01:15 2025.
 Gaussian 16:  ES64L-G16RevC.01  3-Jul-2019

 ----------------------------------------------------------------------
 #t hf aug-cc-pvdz iop(5/13=1,5/36=2,99/5=2) pseudo=read geom=check gue
 ss=(read,tcheck) scf=(maxcycle=1)
 ----------------------------------------------------------------------
 -----
 title
 -----
 Structure from the checkpoint file:  "ethoxybenzene.chk"
 Charge =  0 Multiplicity = 1

                         Standard orientation:
 ---------------------------------------------------------------------
 Center     Atomic      Atomic             Coordinates (Angstroms)
 Number     Number       Type             X           Y           Z
 ---------------------------------------------------------------------
      1          6           0        2.782896    0.485044    0.000000
      2          6           0        2.194136   -0.770353    0.000000
      3          6           0        1.968374    1.616337    0.000000
      4          6           0        0.807719   -0.912627    0.000000
      5          6           0        0.589648    1.491986    0.000000
      6          6           0        0.000000    0.224518    0.000000
      7          6           0       -3.525326   -0.782669    0.000000
      8          6           0       -2.036225   -1.053817    0.000000
      9          8           0       -1.362668    0.203627    0.000000
     10          1           0        3.859197    0.585367    0.000000
     11          1           0        2.812467   -1.658315    0.000000
     12          1           0        2.412072    2.603098    0.000000
     13          1           0        0.376292   -1.901643    0.000000
     14          1           0       -0.052597    2.361690    0.000000
     15          1           0       -4.074154   -1.725006    0.000000
     16          1           0       -3.814766   -0.215004    0.883932
     17          1           0       -3.814766   -0.215004   -0.883932
     18          1           0       -1.744865   -1.627360   -0.885629
     19          1           0       -1.744865   -1.627360    0.885629
 ---------------------------------------------------------------------

 SCF Done:  E(RHF) =  -384.068053879     A.U. after    2 cycles

 The electronic state is 1-A'.
 Alpha  occ. eigenvalues --  -20.56676 -11.30374 -11.29565 -11.24403 -11.24272
 Alpha  occ. eigenvalues --  -11.23502 -11.23216 -11.23109 -11.23024  -1.49269
 Alpha  occ. eigenvalues --   -1.15033  -1.04964  -1.01809  -0.99078  -0.87676
 Alpha  occ. eigenvalues --   -0.83417  -0.80968  -0.73458  -0.67543  -0.67390
 Alpha  occ. eigenvalues --   -0.66352  -0.62549  -0.59948  -0.56919  -0.56565
 Alpha  occ. eigenvalues --   -0.55457  -0.52514  -0.51609  -0.51100  -0.48243
 Alpha  occ. eigenvalues --   -0.46372  -0.34785  -0.31631
 Alpha virt. eigenvalues --    0.03375   0.03501   0.03899   0.04583   0.04835
 Alpha virt. eigenvalues --    0.04950   0.06839   0.07609   0.07800   0.09118
 Alpha virt. eigenvalues --    0.10678   0.10991   0.11910   0.12837   0.13397

 Mulliken charges:
               1
     1  C    0.006412
     2  C    0.844106
     3  C    0.652764
     4  C   -0.530527
     5  C   -0.098339
     6  C    2.158689
     7  C   -0.498281
     8  C    0.076327
     9  O   -1.940549
    10  H   -0.230847
    11  H   -0.240724
    12  H   -0.219434
    13  H   -0.442636
    14  H   -0.311048
    15  H    0.148869
    16  H    0.194508
    17  H    0.194508
    18  H    0.118101
    19  H    0.118101
 Sum of Mulliken charges =  -0.00000

 Dipole moment (field-independent basis, Debye):
    X=             -0.5466    Y=             -1.2486    Z=              0.0000  Tot=              1.3630

 Test job not archived.
 1\1\GINC-SE106\SP\RHF\Aug-CC-pVDZ\C8H10O1\OHZDE\05-Apr-2025\0\\#t hf a
 ug-cc-pvdz iop(5/13=1,5/36=2,99/5=2) pseudo=read geom=check guess=(rea
 d,tcheck) scf=(maxcycle=1)\\title\\0,1\C,0,2.782896,0.485045,0.\C,0,2.
 194136,-0.770352,0.\C,0,1.968374,1.616338,0.\C,0,0.807719,-0.912627,0.
 \C,0,0.589648,1.491986,0.\C,0,0.,0.224518,0.\C,0,-3.525326,-0.78267,0.
 \C,0,-2.036225,-1.053818,0.\O,0,-1.362668,0.203627,0.\H,0,3.859197,0.5
 85368,0.\H,0,2.812468,-1.658314,0.\H,0,2.412071,2.603099,0.\H,0,0.3762
 93,-1.901643,0.\H,0,-0.052598,2.36169,0.\H,0,-4.074153,-1.725007,0.\H,

 Normal termination of Gaussian 16 at Sat Apr  5 23:02:20 2025.
