 Gaussian 16, Revision C.01,

 ----------------------------------------------------------------------
 #t hf aug-cc-pvdz symm=none int=(grid=ultrafine) guess=(read,tcheck) s
 table=(opt,rrhf)
 ----------------------------------------------------------------------
 -----
 title
 -----
 Symbolic Z-matrix:
 Charge =  0 Multiplicity = 1

 SCF Done:  E(RHF) =  -284.870551470     A.U. after   13 cycles
 Normal termination of Gaussian 16 at Sat Apr  5 23:00:18 2025.
 Gaussian 16:  ES64L-G16RevC.01  3-Jul-2019

 ----------------------------------------------------------------------
 #t hf aug-cc-pvdz iop(5/13=1,5/36=2,99/5=2) pseudo=read geom=check gue
 ss=(read,tcheck) scf=(maxcycle=1)
 ----------------------------------------------------------------------
 -----
 title
 -----
 Structure from the checkpoint file:  "ethoxyacetonitrile.chk"
 Charge =  0 Multiplicity = 1

                         Standard orientation:
 ---------------------------------------------------------------------
 Center     Atomic      Atomic             Coordinates (Angstroms)
 Number     Number       Type             X           Y           Z
 ---------------------------------------------------------------------
      1          8           0        0.000000    0.357505    0.000000
      2          1           0        0.720822   -1.378199    0.885457
      3          1           0        0.720822   -1.378199   -0.885457
      4          6           0        0.166851   -1.039701    0.000000
      5          1           0        1.824588    0.770256    0.885970
      6          1           0        1.824588    0.770256   -0.885970
      7          6           0        1.244020    1.056931    0.000000
      8          1           0        0.387072    2.824218   -0.883974
      9          1           0        1.894072    3.101368    0.000000
     10          1           0        0.387072    2.824218    0.883974
     11          6           0        0.957978    2.542132    0.000000
     12          7           0       -2.157412   -2.231285    0.000000
     13          6           0       -1.145042   -1.688522    0.000000
 ---------------------------------------------------------------------

 SCF Done:  E(RHF) =  -285.162798000     A.U. after    2 cycles

 The electronic state is 1-A'.
 Alpha  occ. eigenvalues --  -20.57733 -15.51844 -11.34914 -11.30796 -11.28371
 Alpha  occ. eigenvalues --  -11.24083  -1.49596  -1.23896  -1.06731  -0.99311
 Alpha  occ. eigenvalues --   -0.86449  -0.73674  -0.71590  -0.70271  -0.63710
 Alpha  occ. eigenvalues --   -0.61440  -0.57242  -0.55918  -0.54187  -0.51676
 Alpha  occ. eigenvalues --   -0.50391  -0.50262  -0.44887
 Alpha virt. eigenvalues --    0.02870   0.03639   0.03676   0.04472   0.06398
 Alpha virt. eigenvalues --    0.06648   0.07948   0.08429   0.11246   0.12154
 Alpha virt. eigenvalues --    0.12823   0.13971   0.14361   0.14466   0.14920

 Mulliken charges:
               1
     1  O   -1.297357
     2  H    0.221203
     3  H    0.221203
     4  C    0.944748
     5  H    0.133504
     6  H    0.133504
     7  C    0.363835
     8  H    0.170468
     9  H    0.164240
    10  H    0.170468
    11  C   -0.393200
    12  N    0.874803
    13  C   -1.707418
 Sum of Mulliken charges =  -0.00000

 Dipole moment (field-independent basis, Debye):
    X=              5.3567    Y=              2.0519    Z=              0.0000  Tot=              5.7363

 Test job not archived.
 1\1\GINC-SE108\SP\RHF\Aug-CC-pVDZ\C4H7N1O1\OHZDE\05-Apr-2025\0\\#t hf
 aug-cc-pvdz iop(5/13=1,5/36=2,99/5=2) pseudo=read geom=check guess=(re
 ad,tcheck) scf=(maxcycle=1)\\title\\0,1\O,0,0.,0.357505,0.\H,0,0.72082
 3,-1.378199,0.885457\H,0,0.720823,-1.378199,-0.885457\C,0,0.166852,-1.
 039701,0.\H,0,1.824588,0.770257,0.88597\H,0,1.824588,0.770257,-0.88597
 \C,0,1.24402,1.056932,0.\H,0,0.387071,2.824218,-0.883974\H,0,1.894071,
 3.101369,0.\H,0,0.387071,2.824218,0.883974\C,0,0.957977,2.542132,0.\N,
 0,-2.157411,-2.231286,0.\C,0,-1.145041,-1.688522,0.\\Version=ES64L-G16

 Normal termination of Gaussian 16 at Sat Apr  5 23:00:21 2025.
