 Gaussian 16, Revision C.01,

 ----------------------------------------------------------------------
 #t hf aug-cc-pvdz symm=none int=(grid=ultrafine) guess=(read,tcheck) s
 table=(opt,rrhf)
 ----------------------------------------------------------------------
 -----
 title
 -----
 Symbolic Z-matrix:
 Charge =  0 Multiplicity = 1

 SCF Done:  E(RHF) =  -232.175030578     A.U. after   11 cycles

 1\1\GINC-SE107\Stability\RHF\Aug-CC-pVDZ\C4H10O1\OHZDE\05-Apr-2025\0\\
 #t hf aug-cc-pvdz symm=none int=(grid=ultrafine) guess=(read,tcheck) s
 table=(opt,rrhf)\\title\\0,1\C,0,0.,2.382161,0.411002\C,0,0.,-2.382161
 ,0.411002\C,0,0.,1.185118,-0.517097\C,0,0.,-1.185118,-0.517097\O,0,0.,
 0.,0.260427\H,0,0.,3.307756,-0.166158\H,0,-0.883458,2.373885,1.04936\H
 ,0,0.883458,2.373885,1.04936\H,0,0.,-3.307756,-0.166158\H,0,0.883458,-
 2.373885,1.04936\H,0,-0.883458,-2.373885,1.04936\H,0,0.884361,1.20187,
 -1.16885\H,0,-0.884361,1.20187,-1.16885\H,0,-0.884361,-1.20187,-1.1688

 Normal termination of Gaussian 16 at Sat Apr  5 23:00:16 2025.
 Gaussian 16:  ES64L-G16RevC.01  3-Jul-2019

 ----------------------------------------------------------------------
 #t hf aug-cc-pvdz iop(5/13=1,5/36=2,99/5=2) pseudo=read geom=check gue
 ss=(read,tcheck) scf=(maxcycle=1)
 ----------------------------------------------------------------------
 -----
 title
 -----
 Structure from the checkpoint file:  "ethoxyethane.chk"
 Charge =  0 Multiplicity = 1

                         Standard orientation:
 ---------------------------------------------------------------------
 Center     Atomic      Atomic             Coordinates (Angstroms)
 Number     Number       Type             X           Y           Z
 ---------------------------------------------------------------------
      1          6           0        0.000000    2.382161    0.411002
      2          6           0       -0.000000   -2.382161    0.411002
      3          6           0        0.000000    1.185118   -0.517097
      4          6           0       -0.000000   -1.185118   -0.517097
      5          8           0       -0.000000   -0.000000    0.260427
      6          1           0        0.000000    3.307756   -0.166158
      7          1           0       -0.883458    2.373885    1.049360
      8          1           0        0.883458    2.373885    1.049360
      9          1           0       -0.000000   -3.307756   -0.166158
     10          1           0        0.883458   -2.373885    1.049360
     11          1           0       -0.883458   -2.373885    1.049360
     12          1           0        0.884361    1.201870   -1.168850
     13          1           0       -0.884361    1.201870   -1.168850
     14          1           0       -0.884361   -1.201870   -1.168850
     15          1           0        0.884361   -1.201870   -1.168850
 ---------------------------------------------------------------------

 SCF Done:  E(RHF) =  -232.428386608     A.U. after    2 cycles

 The electronic state is 1-A1.
 Alpha  occ. eigenvalues --  -20.53581 -11.27951 -11.27882 -11.22168 -11.22157
 Alpha  occ. eigenvalues --   -1.45359  -1.04480  -0.98669  -0.84401  -0.83147
 Alpha  occ. eigenvalues --   -0.67803  -0.66671  -0.61076  -0.60161  -0.55548
 Alpha  occ. eigenvalues --   -0.53379  -0.52683  -0.50300  -0.49351  -0.46968
 Alpha  occ. eigenvalues --   -0.41022
 Alpha virt. eigenvalues --    0.03908   0.04083   0.04284   0.04373   0.06142
 Alpha virt. eigenvalues --    0.06329   0.06650   0.07566   0.08947   0.10027
 Alpha virt. eigenvalues --    0.12119   0.13256   0.14657   0.15812   0.16105

 Mulliken charges:
               1
     1  C   -0.511212
     2  C   -0.511212
     3  C    0.413722
     4  C    0.413722
     5  O   -1.319176
     6  H    0.144991
     7  H    0.169145
     8  H    0.169145
     9  H    0.144991
    10  H    0.169145
    11  H    0.169145
    12  H    0.136899
    13  H    0.136899
    14  H    0.136899
    15  H    0.136899
 Sum of Mulliken charges =  -0.00000

 Dipole moment (field-independent basis, Debye):
    X=              0.0000    Y=             -0.0000    Z=             -1.2066  Tot=              1.2066

 Test job not archived.
 1\1\GINC-SE107\SP\RHF\Aug-CC-pVDZ\C4H10O1\OHZDE\05-Apr-2025\0\\#t hf a
 ug-cc-pvdz iop(5/13=1,5/36=2,99/5=2) pseudo=read geom=check guess=(rea
 d,tcheck) scf=(maxcycle=1)\\title\\0,1\C,0,0.,2.382161,0.411002\C,0,0.
 ,-2.382161,0.411002\C,0,0.,1.185118,-0.517097\C,0,0.,-1.185118,-0.5170
 97\O,0,0.,0.,0.260427\H,0,0.,3.307756,-0.166158\H,0,-0.883458,2.373885
 ,1.04936\H,0,0.883458,2.373885,1.04936\H,0,0.,-3.307756,-0.166158\H,0,
 0.883458,-2.373885,1.04936\H,0,-0.883458,-2.373885,1.04936\H,0,0.88436
 1,1.20187,-1.16885\H,0,-0.884361,1.20187,-1.16885\H,0,-0.884361,-1.201

 Normal termination of Gaussian 16 at Sat Apr  5 23:00:19 2025.
