 Gaussian 16, Revision C.01,

 ----------------------------------------------------------------------
 #t hf aug-cc-pvdz symm=none int=(grid=ultrafine) guess=(read,tcheck) s
 table=(opt,rrhf)
 ----------------------------------------------------------------------
 -----
 title
 -----
 Symbolic Z-matrix:
 Charge =  0 Multiplicity = 1

 SCF Done:  E(RHF) =  -305.916849755     A.U. after   13 cycles
 Normal termination of Gaussian 16 at Sat Apr  5 23:00:19 2025.
 Gaussian 16:  ES64L-G16RevC.01  3-Jul-2019

 ----------------------------------------------------------------------
 #t hf aug-cc-pvdz iop(5/13=1,5/36=2,99/5=2) pseudo=read geom=check gue
 ss=(read,tcheck) scf=(maxcycle=1)
 ----------------------------------------------------------------------
 -----
 title
 -----
 Structure from the checkpoint file:  "ethylacetate.chk"
 Charge =  0 Multiplicity = 1

                         Standard orientation:
 ---------------------------------------------------------------------
 Center     Atomic      Atomic             Coordinates (Angstroms)
 Number     Number       Type             X           Y           Z
 ---------------------------------------------------------------------
      1          6           0        0.909826   -0.524796    0.000000
      2          6           0        2.312486    0.022275    0.000000
      3          6           0       -2.229581    1.332555    0.000000
      4          6           0       -1.391432    0.074275    0.000000
      5          8           0        0.616627   -1.694503    0.000000
      6          8           0        0.000000    0.471377    0.000000
      7          1           0        2.468339    0.648836    0.878091
      8          1           0        2.468339    0.648836   -0.878091
      9          1           0        3.022001   -0.799004    0.000000
     10          1           0       -3.287649    1.068276    0.000000
     11          1           0       -2.028233    1.937197    0.884062
     12          1           0       -2.028233    1.937197   -0.884062
     13          1           0       -1.577685   -0.541093   -0.880090
     14          1           0       -1.577685   -0.541093    0.880090
 ---------------------------------------------------------------------

 SCF Done:  E(RHF) =  -306.232985536     A.U. after    2 cycles

 The electronic state is 1-A'.
 Alpha  occ. eigenvalues --  -20.58421 -20.53003 -11.38622 -11.29640 -11.24924
 Alpha  occ. eigenvalues --  -11.23550  -1.53759  -1.44563  -1.06098  -1.00427
 Alpha  occ. eigenvalues --   -0.86841  -0.78663  -0.69642  -0.68695  -0.66943
 Alpha  occ. eigenvalues --   -0.61541  -0.58513  -0.57019  -0.55520  -0.54612
 Alpha  occ. eigenvalues --   -0.51395  -0.50680  -0.45053  -0.43793
 Alpha virt. eigenvalues --    0.03549   0.03979   0.04398   0.04759   0.06287
 Alpha virt. eigenvalues --    0.06586   0.06959   0.07940   0.10483   0.12399
 Alpha virt. eigenvalues --    0.12603   0.14255   0.14445   0.15578   0.15985

 Mulliken charges:
               1
     1  C    1.817974
     2  C   -0.692709
     3  C   -0.461173
     4  C    0.456066
     5  O   -1.187223
     6  O   -1.313282
     7  H    0.228448
     8  H    0.228448
     9  H    0.177078
    10  H    0.158159
    11  H    0.174506
    12  H    0.174506
    13  H    0.119601
    14  H    0.119601
 Sum of Mulliken charges =  -0.00000

 Dipole moment (field-independent basis, Debye):
    X=             -0.2194    Y=              2.1588    Z=              0.0000  Tot=              2.1699

 Test job not archived.
 1\1\GINC-SE211\SP\RHF\Aug-CC-pVDZ\C4H8O2\OHZDE\05-Apr-2025\0\\#t hf au
 g-cc-pvdz iop(5/13=1,5/36=2,99/5=2) pseudo=read geom=check guess=(read
 ,tcheck) scf=(maxcycle=1)\\title\\0,1\C,0,0.909826,-0.524796,0.\C,0,2.
 312486,0.022275,0.\C,0,-2.229581,1.332555,0.\C,0,-1.391432,0.074275,0.
 \O,0,0.616627,-1.694503,0.\O,0,0.,0.471377,0.\H,0,2.468339,0.648836,0.
 878091\H,0,2.468339,0.648836,-0.878091\H,0,3.022001,-0.799004,0.\H,0,-
 3.287649,1.068275,0.\H,0,-2.028233,1.937197,0.884062\H,0,-2.028233,1.9
 37197,-0.884062\H,0,-1.577685,-0.541093,-0.88009\H,0,-1.577685,-0.5410

 Normal termination of Gaussian 16 at Sat Apr  5 23:00:23 2025.
