 Gaussian 16, Revision C.01,

 ----------------------------------------------------------------------
 #t hf aug-cc-pvdz symm=none int=(grid=ultrafine) guess=(read,tcheck) s
 table=(opt,rrhf)
 ----------------------------------------------------------------------
 -----
 title
 -----
 Symbolic Z-matrix:
 Charge =  0 Multiplicity = 1

 SCF Done:  E(RHF) =  -462.072499587     A.U. after   13 cycles

 1\1\GINC-SE222\Stability\RHF\Aug-CC-pVDZ\C8H16O2\OHZDE\05-Apr-2025\0\\
 #t hf aug-cc-pvdz symm=none int=(grid=ultrafine) guess=(read,tcheck) s
 table=(opt,rrhf)\\title\\0,1\C,0,0.023324,-0.446803,-0.001938\C,0,-1.2
 48311,0.370867,-0.000992\O,0,-1.311122,1.575337,-0.000848\C,0,1.295426
 ,0.393952,0.000986\H,0,-0.011251,-1.111297,0.865725\H,0,-0.010002,-1.1
 06796,-0.873123\O,0,-2.335846,-0.428912,-0.000518\C,0,-3.622317,0.2322
 51,-0.000074\H,0,-3.685904,0.871725,-0.880589\H,0,-3.684388,0.873508,0
 .879239\C,0,-4.691361,-0.836651,0.001907\H,0,-5.676911,-0.369592,0.002

 Normal termination of Gaussian 16 at Sat Apr  5 23:03:13 2025.
 Gaussian 16:  ES64L-G16RevC.01  3-Jul-2019

 ----------------------------------------------------------------------
 #t hf aug-cc-pvdz iop(5/13=1,5/36=2,99/5=2) pseudo=read geom=check gue
 ss=(read,tcheck) scf=(maxcycle=1)
 ----------------------------------------------------------------------
 -----
 title
 -----
 Structure from the checkpoint file:  "ethyl_hexanoate.chk"
 Charge =  0 Multiplicity = 1

                         Standard orientation:
 ---------------------------------------------------------------------
 Center     Atomic      Atomic             Coordinates (Angstroms)
 Number     Number       Type             X           Y           Z
 ---------------------------------------------------------------------
      1          6           0        0.023324   -0.446803   -0.001938
      2          6           0       -1.248311    0.370867   -0.000992
      3          8           0       -1.311122    1.575337   -0.000848
      4          6           0        1.295426    0.393952    0.000986
      5          1           0       -0.011251   -1.111297    0.865725
      6          1           0       -0.010002   -1.106796   -0.873123
      7          8           0       -2.335846   -0.428912   -0.000518
      8          6           0       -3.622317    0.232251   -0.000074
      9          1           0       -3.685904    0.871725   -0.880589
     10          1           0       -3.684388    0.873508    0.879239
     11          6           0       -4.691361   -0.836651    0.001907
     12          1           0       -5.676911   -0.369592    0.002210
     13          1           0       -4.612492   -1.468437    0.886478
     14          1           0       -4.613940   -1.470332   -0.881440
     15          1           0        1.291757    1.055257   -0.868109
     16          6           0        2.564097   -0.458735   -0.000991
     17          1           0        1.291137    1.050182    0.873940
     18          1           0        2.560871   -1.120937    0.871655
     19          6           0        3.850414    0.368061    0.002127
     20          1           0        2.561668   -1.115615   -0.877655
     21          1           0        3.854143    1.028939   -0.869607
     22          6           0        5.116582   -0.486575   -0.000026
     23          1           0        3.853418    1.023461    0.877993
     24          1           0        5.157271   -1.133612    0.878700
     25          1           0        6.015118    0.131837    0.002416
     26          1           0        5.158130   -1.127901   -0.882890
 ---------------------------------------------------------------------

 SCF Done:  E(RHF) =  -462.563166047     A.U. after    2 cycles

 The electronic state is 1-A.
 Alpha  occ. eigenvalues --  -20.58156 -20.52805 -11.38129 -11.29479 -11.24692
 Alpha  occ. eigenvalues --  -11.23426 -11.22834 -11.22697 -11.22580 -11.22149
 Alpha  occ. eigenvalues --   -1.53517  -1.44339  -1.09829  -1.05667  -1.02641
 Alpha  occ. eigenvalues --   -0.95251  -0.87719  -0.83574  -0.79745  -0.77491
 Alpha  occ. eigenvalues --   -0.69795  -0.68850  -0.66708  -0.65970  -0.62037
 Alpha  occ. eigenvalues --   -0.59420  -0.57820  -0.57728  -0.56723  -0.55164
 Alpha  occ. eigenvalues --   -0.54167  -0.51619  -0.51258  -0.50799  -0.48799
 Alpha  occ. eigenvalues --   -0.47820  -0.47163  -0.47008  -0.44789  -0.43302
 Alpha virt. eigenvalues --    0.03386   0.03673   0.03693   0.04014   0.04675
 Alpha virt. eigenvalues --    0.04912   0.05000   0.06479   0.06607   0.07171
 Alpha virt. eigenvalues --    0.07455   0.08302   0.08963   0.10296   0.10722

 Mulliken charges:
               1
     1  C   -0.796975
     2  C    2.420621
     3  O   -1.267566
     4  C   -0.060616
     5  H    0.177519
     6  H    0.178689
     7  O   -1.420924
     8  C    0.273541
     9  H    0.147605
    10  H    0.147698
    11  C   -0.472320
    12  H    0.146798
    13  H    0.189838
    14  H    0.189983
    15  H    0.110188
    16  C   -0.363958
    17  H    0.109909
    18  H    0.099229
    19  C   -0.179680
    20  H    0.099272
    21  H    0.112879
    22  C   -0.375725
    23  H    0.112765
    24  H    0.156141
    25  H    0.108957
    26  H    0.156130
 Sum of Mulliken charges =  -0.00000

 Dipole moment (field-independent basis, Debye):
    X=             -0.4186    Y=             -1.8030    Z=             -0.0000  Tot=              1.8510

 Test job not archived.
 1\1\GINC-SE222\SP\RHF\Aug-CC-pVDZ\C8H16O2\OHZDE\05-Apr-2025\0\\#t hf a
 ug-cc-pvdz iop(5/13=1,5/36=2,99/5=2) pseudo=read geom=check guess=(rea
 d,tcheck) scf=(maxcycle=1)\\title\\0,1\C,0,0.023324,-0.446803,-0.00193
 8\C,0,-1.248311,0.370867,-0.000992\O,0,-1.311122,1.575337,-0.000848\C,
 0,1.295426,0.393952,0.000986\H,0,-0.011251,-1.111297,0.865725\H,0,-0.0
 10002,-1.106796,-0.873123\O,0,-2.335846,-0.428912,-0.000518\C,0,-3.622
 317,0.232251,-0.000074\H,0,-3.685904,0.871725,-0.880589\H,0,-3.684388,
 0.873508,0.879239\C,0,-4.691361,-0.836651,0.001907\H,0,-5.676911,-0.36

 Normal termination of Gaussian 16 at Sat Apr  5 23:03:31 2025.
