 Gaussian 16, Revision C.01,

 ----------------------------------------------------------------------
 #t hf aug-cc-pvdz symm=none int=(grid=ultrafine) guess=(read,tcheck) s
 table=(opt,rrhf)
 ----------------------------------------------------------------------
 -----
 title
 -----
 Symbolic Z-matrix:
 Charge =  0 Multiplicity = 1

 SCF Done:  E(RHF) =  -986.594038711     A.U. after   15 cycles
 Normal termination of Gaussian 16 at Sat Apr  5 23:01:05 2025.
 Gaussian 16:  ES64L-G16RevC.01  3-Jul-2019

 ----------------------------------------------------------------------
 #t hf aug-cc-pvdz iop(5/13=1,5/36=2,99/5=2) pseudo=read geom=check gue
 ss=(read,tcheck) scf=(maxcycle=1)
 ----------------------------------------------------------------------
 -----
 title
 -----
 Structure from the checkpoint file:  "ethynylsulfanylmethylsulfanylethyne.chk"
 Charge =  0 Multiplicity = 1

                         Standard orientation:
 ---------------------------------------------------------------------
 Center     Atomic      Atomic             Coordinates (Angstroms)
 Number     Number       Type             X           Y           Z
 ---------------------------------------------------------------------
      1         16           0       -1.085714    0.117394    0.777209
      2         16           0        1.616055   -1.007193    0.004656
      3          6           0       -0.092200   -0.704472   -0.547441
      4          6           0       -2.551811    0.291449   -0.041856
      5          6           0        2.295903    0.534104   -0.121587
      6          6           0       -3.614199    0.432090   -0.592782
      7          6           0        2.852247    1.598818   -0.193854
      8          1           0       -0.096062   -0.091324   -1.442322
      9          1           0       -0.512041   -1.685333   -0.754731
     10          1           0       -4.551006    0.558816   -1.074999
     11          1           0        3.334006    2.542688   -0.252663
 ---------------------------------------------------------------------

 SCF Done:  E(RHF) =  -986.905849035     A.U. after    2 cycles

 The electronic state is 1-A.
 Alpha  occ. eigenvalues --  -94.00195 -93.99265 -11.32862 -11.27529 -11.27398
 Alpha  occ. eigenvalues --  -11.25858 -11.25621  -8.28149  -8.27222  -6.26005
 Alpha  occ. eigenvalues --   -6.25800  -6.25581  -6.25065  -6.24869  -6.24634
 Alpha  occ. eigenvalues --   -1.15707  -1.10142  -1.03649  -0.99592  -0.89917
 Alpha  occ. eigenvalues --   -0.74386  -0.74181  -0.67659  -0.65772  -0.61752
 Alpha  occ. eigenvalues --   -0.53611  -0.52599  -0.48862  -0.47973  -0.42469
 Alpha  occ. eigenvalues --   -0.40752  -0.35796  -0.35204
 Alpha virt. eigenvalues --    0.03416   0.03633   0.04244   0.05521   0.07614
 Alpha virt. eigenvalues --    0.07877   0.08380   0.09828   0.10251   0.10449
 Alpha virt. eigenvalues --    0.11174   0.11899   0.12393   0.13702   0.14240

 Mulliken charges:
               1
     1  S    0.442662
     2  S    0.483640
     3  C   -0.857315
     4  C    0.102129
     5  C    0.067462
     6  C   -0.071063
     7  C    0.021122
     8  H    0.210107
     9  H    0.176264
    10  H   -0.280996
    11  H   -0.294014
 Sum of Mulliken charges =  -0.00000

 Dipole moment (field-independent basis, Debye):
    X=             -0.5249    Y=              0.1870    Z=             -1.7243  Tot=              1.8121

 Test job not archived.
 1\1\GINC-SE179\SP\RHF\Aug-CC-pVDZ\C5H4S2\OHZDE\05-Apr-2025\0\\#t hf au
 g-cc-pvdz iop(5/13=1,5/36=2,99/5=2) pseudo=read geom=check guess=(read
 ,tcheck) scf=(maxcycle=1)\\title\\0,1\S,0,-1.085714,0.117394,0.777209\
 S,0,1.616055,-1.007193,0.004656\C,0,-0.0922,-0.704472,-0.547441\C,0,-2
 .551811,0.291449,-0.041856\C,0,2.295903,0.534104,-0.121587\C,0,-3.6141
 99,0.43209,-0.592782\C,0,2.852247,1.598818,-0.193854\H,0,-0.096062,-0.
 091324,-1.442322\H,0,-0.512041,-1.685333,-0.754731\H,0,-4.551006,0.558
 816,-1.074999\H,0,3.334006,2.542688,-0.252663\\Version=ES64L-G16RevC.0

 Normal termination of Gaussian 16 at Sat Apr  5 23:02:19 2025.
