 Gaussian 16, Revision C.01,

 ----------------------------------------------------------------------
 #t hf aug-cc-pvdz symm=none int=(grid=ultrafine) guess=(read,tcheck) s
 table=(opt,rrhf)
 ----------------------------------------------------------------------
 -----
 title
 -----
 Symbolic Z-matrix:
 Charge =  0 Multiplicity = 1

 SCF Done:  E(RHF) =  -871.895028279     A.U. after   15 cycles
 Normal termination of Gaussian 16 at Sat Apr  5 23:00:38 2025.
 Gaussian 16:  ES64L-G16RevC.01  3-Jul-2019

 ----------------------------------------------------------------------
 #t hf aug-cc-pvdz iop(5/13=1,5/36=2,99/5=2) pseudo=read geom=check gue
 ss=(read,tcheck) scf=(maxcycle=1)
 ----------------------------------------------------------------------
 -----
 title
 -----
 Structure from the checkpoint file:  "ethynyl_hydrodisulfide.chk"
 Charge =  0 Multiplicity = 1

                         Standard orientation:
 ---------------------------------------------------------------------
 Center     Atomic      Atomic             Coordinates (Angstroms)
 Number     Number       Type             X           Y           Z
 ---------------------------------------------------------------------
      1         16           0        0.004284    0.891567    0.012200
      2         16           0       -1.557225   -0.508946   -0.087104
      3          6           0        1.406295   -0.051449   -0.001347
      4          6           0        2.452012   -0.649297   -0.003520
      5          1           0       -1.672295   -0.734996    1.238559
      6          1           0        3.369516   -1.182461   -0.010889
 ---------------------------------------------------------------------

 SCF Done:  E(RHF) =  -872.091944258     A.U. after    2 cycles

 The electronic state is 1-A.
 Alpha  occ. eigenvalues --  -94.01802 -93.99783 -11.27674 -11.26127  -8.29591
 Alpha  occ. eigenvalues --   -8.27707  -6.27403  -6.27205  -6.26940  -6.25522
 Alpha  occ. eigenvalues --   -6.25343  -6.25091  -1.13805  -1.04164  -0.94885
 Alpha  occ. eigenvalues --   -0.74483  -0.65098  -0.58278  -0.52839  -0.48361
 Alpha  occ. eigenvalues --   -0.41489  -0.40389  -0.36305
 Alpha virt. eigenvalues --    0.03570   0.03793   0.05525   0.07633   0.09141
 Alpha virt. eigenvalues --    0.09985   0.10939   0.11885   0.12095   0.14229
 Alpha virt. eigenvalues --    0.14515   0.15521   0.15894   0.16652   0.17045

 Mulliken charges:
               1
     1  S   -0.074742
     2  S   -0.300393
     3  C    0.310088
     4  C   -0.084869
     5  H    0.415698
     6  H   -0.265782
 Sum of Mulliken charges =  -0.00000

 Dipole moment (field-independent basis, Debye):
    X=              0.3305    Y=             -0.8690    Z=              0.9318  Tot=              1.3163

 Test job not archived.
 1\1\GINC-SE165\SP\RHF\Aug-CC-pVDZ\C2H2S2\OHZDE\05-Apr-2025\0\\#t hf au
 g-cc-pvdz iop(5/13=1,5/36=2,99/5=2) pseudo=read geom=check guess=(read
 ,tcheck) scf=(maxcycle=1)\\title\\0,1\S,0,0.004284,0.891567,0.0122\S,0
 ,-1.557225,-0.508946,-0.087104\C,0,1.406295,-0.051449,-0.001347\C,0,2.
 452012,-0.649297,-0.00352\H,0,-1.672295,-0.734996,1.238559\H,0,3.36951
 6,-1.182461,-0.010889\\Version=ES64L-G16RevC.01\State=1-A\HF=-872.0919
 443\RMSD=2.052e-02\Dipole=0.1300479,-0.3419044,0.3666046\Quadrupole=3.
 0706055,-1.2713028,-1.7993027,-1.0226271,-1.4094873,-0.7924909\PG=C01

 Normal termination of Gaussian 16 at Sat Apr  5 23:00:54 2025.
