 Gaussian 16, Revision C.01,

 ----------------------------------------------------------------------
 #t hf aug-cc-pvdz symm=none int=(grid=ultrafine) guess=(read,tcheck) s
 table=(opt,rrhf)
 ----------------------------------------------------------------------
 -----
 title
 -----
 Symbolic Z-matrix:
 Charge =  0 Multiplicity = 1

 SCF Done:  E(RHF) =  -308.807391111     A.U. after   14 cycles
 Normal termination of Gaussian 16 at Sat Apr  5 23:01:13 2025.
 Gaussian 16:  ES64L-G16RevC.01  3-Jul-2019

 ----------------------------------------------------------------------
 #t hf aug-cc-pvdz iop(5/13=1,5/36=2,99/5=2) pseudo=read geom=check gue
 ss=(read,tcheck) scf=(maxcycle=1)
 ----------------------------------------------------------------------
 -----
 title
 -----
 Structure from the checkpoint file:  "ethylbenzene.chk"
 Charge =  0 Multiplicity = 1

                         Standard orientation:
 ---------------------------------------------------------------------
 Center     Atomic      Atomic             Coordinates (Angstroms)
 Number     Number       Type             X           Y           Z
 ---------------------------------------------------------------------
      1          6           0        0.232915   -2.318566   -0.000000
      2          6           0        0.234056   -1.617939    1.200385
      3          6           0        0.234056   -1.617939   -1.200385
      4          6           0        0.234056   -0.228276    1.197195
      5          6           0        0.234056   -0.228276   -1.197195
      6          6           0        0.231803    0.488886    0.000000
      7          6           0       -1.235575    2.562053   -0.000000
      8          6           0        0.192517    1.998175    0.000000
      9          1           0        0.236268   -3.400335   -0.000000
     10          1           0        0.239777   -2.153732    2.140626
     11          1           0        0.239777   -2.153732   -2.140626
     12          1           0        0.241085    0.308775    2.138169
     13          1           0        0.241085    0.308775   -2.138169
     14          1           0       -1.787127    2.229520   -0.880348
     15          1           0       -1.223850    3.653141   -0.000000
     16          1           0       -1.787127    2.229520    0.880348
     17          1           0        0.726399    2.374684    0.875281
     18          1           0        0.726399    2.374684   -0.875281
 ---------------------------------------------------------------------

 SCF Done:  E(RHF) =  -309.136460362     A.U. after    2 cycles

 The electronic state is 1-A'.
 Alpha  occ. eigenvalues --  -11.24201 -11.23885 -11.23862 -11.23547 -11.23510
 Alpha  occ. eigenvalues --  -11.23423 -11.23423 -11.22600  -1.15649  -1.06415
 Alpha  occ. eigenvalues --   -1.01305  -0.98396  -0.86834  -0.83311  -0.79694
 Alpha  occ. eigenvalues --   -0.70508  -0.65561  -0.64193  -0.60311  -0.59842
 Alpha  occ. eigenvalues --   -0.58849  -0.55704  -0.52975  -0.50852  -0.49369
 Alpha  occ. eigenvalues --   -0.48599  -0.48387  -0.34297  -0.33334
 Alpha virt. eigenvalues --    0.03487   0.03542   0.03743   0.04503   0.04902
 Alpha virt. eigenvalues --    0.05198   0.07198   0.07230   0.08253   0.08767
 Alpha virt. eigenvalues --    0.10659   0.10910   0.11066   0.12203   0.13837

 Mulliken charges:
               1
     1  C    0.078798
     2  C    0.028121
     3  C    0.028121
     4  C    0.230378
     5  C    0.230378
     6  C    1.367378
     7  C   -0.397500
     8  C   -0.782243
     9  H   -0.225971
    10  H   -0.232793
    11  H   -0.232793
    12  H   -0.327312
    13  H   -0.327312
    14  H    0.152139
    15  H    0.110971
    16  H    0.152139
    17  H    0.073751
    18  H    0.073751
 Sum of Mulliken charges =   0.00000

 Dipole moment (field-independent basis, Debye):
    X=             -0.0457    Y=              0.3951    Z=             -0.0000  Tot=              0.3978

 Test job not archived.
 1\1\GINC-SE045\SP\RHF\Aug-CC-pVDZ\C8H10\OHZDE\05-Apr-2025\0\\#t hf aug
 -cc-pvdz iop(5/13=1,5/36=2,99/5=2) pseudo=read geom=check guess=(read,
 tcheck) scf=(maxcycle=1)\\title\\0,1\C,0,0.232915,-2.318566,0.\C,0,0.2
 34056,-1.617939,1.200385\C,0,0.234056,-1.617939,-1.200385\C,0,0.234056
 ,-0.228276,1.197195\C,0,0.234056,-0.228276,-1.197195\C,0,0.231803,0.48
 8886,0.\C,0,-1.235575,2.562053,0.\C,0,0.192517,1.998175,0.\H,0,0.23626
 8,-3.400335,0.\H,0,0.239777,-2.153732,2.140626\H,0,0.239777,-2.153732,
 -2.140626\H,0,0.241085,0.308775,2.138169\H,0,0.241085,0.308775,-2.1381

 Normal termination of Gaussian 16 at Sat Apr  5 23:02:17 2025.
