 Gaussian 16, Revision C.01,

 ----------------------------------------------------------------------
 #t hf aug-cc-pvdz symm=none int=(grid=ultrafine) guess=(read,tcheck) s
 table=(opt,rrhf)
 ----------------------------------------------------------------------
 -----
 title
 -----
 Symbolic Z-matrix:
 Charge =  0 Multiplicity = 1

 SCF Done:  E(RHF) =  -532.593026438     A.U. after   13 cycles

 1\1\GINC-SE198\Stability\RHF\Aug-CC-pVDZ\C6H10O4\OHZDE\05-Apr-2025\0\\
 #t hf aug-cc-pvdz symm=none int=(grid=ultrafine) guess=(read,tcheck) s
 table=(opt,rrhf)\\title\\0,1\C,0,-0.035271,2.693968,0.165692\C,0,0.035
 271,-2.693968,0.165692\C,0,-0.708324,3.282365,1.375353\C,0,0.708324,-3
 .282365,1.375353\C,0,0.235431,0.714142,-1.108083\C,0,-0.235431,-0.7141
 42,-1.108083\O,0,0.708324,3.280261,-0.579645\O,0,-0.708324,-3.280261,-
 0.579645\O,0,-0.367648,1.393029,0.009128\O,0,0.367648,-1.393029,0.0091
 28\H,0,-0.362315,2.770947,2.273853\H,0,-1.78658,3.138698,1.314018\H,0,

 Normal termination of Gaussian 16 at Sat Apr  5 23:01:42 2025.
 Gaussian 16:  ES64L-G16RevC.01  3-Jul-2019

 ----------------------------------------------------------------------
 #t hf aug-cc-pvdz iop(5/13=1,5/36=2,99/5=2) pseudo=read geom=check gue
 ss=(read,tcheck) scf=(maxcycle=1)
 ----------------------------------------------------------------------
 -----
 title
 -----
 Structure from the checkpoint file:  "ethylene_diacetate.chk"
 Charge =  0 Multiplicity = 1

                         Standard orientation:
 ---------------------------------------------------------------------
 Center     Atomic      Atomic             Coordinates (Angstroms)
 Number     Number       Type             X           Y           Z
 ---------------------------------------------------------------------
      1          6           0       -0.035271    2.693968    0.165692
      2          6           0        0.035271   -2.693968    0.165692
      3          6           0       -0.708324    3.282365    1.375353
      4          6           0        0.708324   -3.282365    1.375353
      5          6           0        0.235431    0.714142   -1.108083
      6          6           0       -0.235431   -0.714142   -1.108083
      7          8           0        0.708324    3.280261   -0.579645
      8          8           0       -0.708324   -3.280261   -0.579645
      9          8           0       -0.367648    1.393029    0.009128
     10          8           0        0.367648   -1.393029    0.009128
     11          1           0       -0.362315    2.770947    2.273853
     12          1           0       -1.786580    3.138698    1.314018
     13          1           0       -0.474667    4.340124    1.441134
     14          1           0        0.362315   -2.770947    2.273853
     15          1           0        1.786580   -3.138698    1.314018
     16          1           0        0.474667   -4.340124    1.441134
     17          1           0       -0.066747    1.203955   -2.034470
     18          1           0        1.320178    0.776496   -1.028180
     19          1           0        0.066747   -1.203955   -2.034470
     20          1           0       -1.320178   -0.776496   -1.028180
 ---------------------------------------------------------------------

 SCF Done:  E(RHF) =  -533.129711273     A.U. after    2 cycles

 The electronic state is 1-A.
 Alpha  occ. eigenvalues --  -20.59355 -20.59355 -20.53758 -20.53757 -11.39375
 Alpha  occ. eigenvalues --  -11.39375 -11.30814 -11.30807 -11.25452 -11.25452
 Alpha  occ. eigenvalues --   -1.55121  -1.54345  -1.45720  -1.45104  -1.08214
 Alpha  occ. eigenvalues --   -1.03494  -1.00070  -0.88531  -0.80734  -0.79280
 Alpha  occ. eigenvalues --   -0.71233  -0.70825  -0.69463  -0.68238  -0.67300
 Alpha  occ. eigenvalues --   -0.66202  -0.61187  -0.60149  -0.59507  -0.58104
 Alpha  occ. eigenvalues --   -0.56687  -0.54462  -0.53519  -0.52758  -0.51834
 Alpha  occ. eigenvalues --   -0.46402  -0.45798  -0.44598  -0.44505
 Alpha virt. eigenvalues --    0.03171   0.03729   0.04045   0.04341   0.05315
 Alpha virt. eigenvalues --    0.05932   0.06381   0.07127   0.07326   0.07528
 Alpha virt. eigenvalues --    0.09826   0.10708   0.12826   0.12991   0.13519

 Mulliken charges:
               1
     1  C    1.776821
     2  C    1.776821
     3  C   -0.695453
     4  C   -0.695453
     5  C    0.473073
     6  C    0.473073
     7  O   -1.191681
     8  O   -1.191681
     9  O   -1.280436
    10  O   -1.280436
    11  H    0.240358
    12  H    0.226524
    13  H    0.180465
    14  H    0.240358
    15  H    0.226524
    16  H    0.180465
    17  H    0.137847
    18  H    0.132483
    19  H    0.137847
    20  H    0.132483
 Sum of Mulliken charges =  -0.00000

 Dipole moment (field-independent basis, Debye):
    X=             -0.0000    Y=              0.0000    Z=              1.9820  Tot=              1.9820

 Test job not archived.
 1\1\GINC-SE198\SP\RHF\Aug-CC-pVDZ\C6H10O4\OHZDE\05-Apr-2025\0\\#t hf a
 ug-cc-pvdz iop(5/13=1,5/36=2,99/5=2) pseudo=read geom=check guess=(rea
 d,tcheck) scf=(maxcycle=1)\\title\\0,1\C,0,-0.035271,2.693968,0.165692
 \C,0,0.035271,-2.693968,0.165692\C,0,-0.708324,3.282365,1.375353\C,0,0
 .708324,-3.282365,1.375353\C,0,0.235431,0.714142,-1.108083\C,0,-0.2354
 31,-0.714142,-1.108083\O,0,0.708324,3.280261,-0.579645\O,0,-0.708324,-
 3.280261,-0.579645\O,0,-0.367648,1.393029,0.009128\O,0,0.367648,-1.393
 029,0.009128\H,0,-0.362315,2.770947,2.273853\H,0,-1.78658,3.138698,1.3

 Normal termination of Gaussian 16 at Sat Apr  5 23:02:18 2025.
