 Gaussian 16, Revision C.01,

 ----------------------------------------------------------------------
 #t hf aug-cc-pvdz symm=none int=(grid=ultrafine) guess=(read,tcheck) s
 table=(opt,rrhf)
 ----------------------------------------------------------------------
 -----
 title
 -----
 Symbolic Z-matrix:
 Charge =  0 Multiplicity = 1

 SCF Done:  E(RHF) =  -593.882683852     A.U. after   12 cycles

 1\1\GINC-SE158\Stability\RHF\Aug-CC-pVDZ\C5H12S1\OHZDE\05-Apr-2025\0\\
 #t hf aug-cc-pvdz symm=none int=(grid=ultrafine) guess=(read,tcheck) s
 table=(opt,rrhf)\\title\\0,1\C,0,2.375076,2.291871,0.\H,0,3.465991,2.2
 77864,0.\H,0,2.044631,2.840367,0.882327\H,0,2.044631,2.840367,-0.88232
 7\C,0,1.831458,0.869153,0.\H,0,2.172537,0.327306,-0.883073\H,0,2.17253
 7,0.327306,0.883073\S,0,0.,0.889482,0.\C,0,-0.338622,-0.909728,0.\H,0,
 0.126062,-1.351508,-0.883539\H,0,0.126062,-1.351508,0.883539\C,0,-1.84
 0977,-1.176175,0.\H,0,-2.290661,-0.701679,0.875094\H,0,-2.290661,-0.70

 Normal termination of Gaussian 16 at Sat Apr  5 23:01:10 2025.
 Gaussian 16:  ES64L-G16RevC.01  3-Jul-2019

 ----------------------------------------------------------------------
 #t hf aug-cc-pvdz iop(5/13=1,5/36=2,99/5=2) pseudo=read geom=check gue
 ss=(read,tcheck) scf=(maxcycle=1)
 ----------------------------------------------------------------------
 -----
 title
 -----
 Structure from the checkpoint file:  "ethylpropylsulfide.chk"
 Charge =  0 Multiplicity = 1

                         Standard orientation:
 ---------------------------------------------------------------------
 Center     Atomic      Atomic             Coordinates (Angstroms)
 Number     Number       Type             X           Y           Z
 ---------------------------------------------------------------------
      1          6           0        2.375076    2.291871    0.000000
      2          1           0        3.465991    2.277864    0.000000
      3          1           0        2.044631    2.840367    0.882327
      4          1           0        2.044631    2.840367   -0.882327
      5          6           0        1.831458    0.869153    0.000000
      6          1           0        2.172537    0.327306   -0.883073
      7          1           0        2.172537    0.327306    0.883073
      8         16           0        0.000000    0.889482    0.000000
      9          6           0       -0.338622   -0.909728    0.000000
     10          1           0        0.126062   -1.351508   -0.883539
     11          1           0        0.126062   -1.351508    0.883539
     12          6           0       -1.840977   -1.176175    0.000000
     13          1           0       -2.290661   -0.701679    0.875094
     14          1           0       -2.290661   -0.701679   -0.875094
     15          6           0       -2.164305   -2.670386    0.000000
     16          1           0       -1.752397   -3.165193   -0.881569
     17          1           0       -1.752397   -3.165193    0.881569
     18          1           0       -3.242119   -2.836574    0.000000
 ---------------------------------------------------------------------

 SCF Done:  E(RHF) =  -594.165721574     A.U. after    2 cycles

 The electronic state is 1-A'.
 Alpha  occ. eigenvalues --  -93.92915 -11.26255 -11.25958 -11.23476 -11.23191
 Alpha  occ. eigenvalues --  -11.22754  -8.21022  -6.18844  -6.18696  -6.18473
 Alpha  occ. eigenvalues --   -1.10319  -1.05636  -0.97938  -0.89164  -0.81725
 Alpha  occ. eigenvalues --   -0.79697  -0.65366  -0.62878  -0.61238  -0.58957
 Alpha  occ. eigenvalues --   -0.56105  -0.55282  -0.53912  -0.51278  -0.49911
 Alpha  occ. eigenvalues --   -0.48574  -0.45980  -0.42850  -0.33799
 Alpha virt. eigenvalues --    0.03493   0.03595   0.03977   0.04284   0.05536
 Alpha virt. eigenvalues --    0.05740   0.06042   0.07102   0.07760   0.08899
 Alpha virt. eigenvalues --    0.09559   0.10302   0.11271   0.12574   0.13260

 Mulliken charges:
               1
     1  C   -0.363870
     2  H    0.148130
     3  H    0.174441
     4  H    0.174441
     5  C   -0.579917
     6  H    0.142982
     7  H    0.142982
     8  S    0.519301
     9  C   -0.673681
    10  H    0.133088
    11  H    0.133088
    12  C   -0.245507
    13  H    0.152420
    14  H    0.152420
    15  C   -0.432553
    16  H    0.154791
    17  H    0.154791
    18  H    0.112656
 Sum of Mulliken charges =  -0.00000

 Dipole moment (field-independent basis, Debye):
    X=              1.0694    Y=             -1.4268    Z=              0.0000  Tot=              1.7831

 Test job not archived.
 1\1\GINC-SE158\SP\RHF\Aug-CC-pVDZ\C5H12S1\OHZDE\05-Apr-2025\0\\#t hf a
 ug-cc-pvdz iop(5/13=1,5/36=2,99/5=2) pseudo=read geom=check guess=(rea
 d,tcheck) scf=(maxcycle=1)\\title\\0,1\C,0,2.375076,2.291871,0.\H,0,3.
 465991,2.277864,0.\H,0,2.044631,2.840367,0.882327\H,0,2.044631,2.84036
 7,-0.882327\C,0,1.831458,0.869153,0.\H,0,2.172537,0.327306,-0.883073\H
 ,0,2.172537,0.327306,0.883073\S,0,0.,0.889482,0.\C,0,-0.338622,-0.9097
 28,0.\H,0,0.126062,-1.351508,-0.883539\H,0,0.126062,-1.351508,0.883539
 \C,0,-1.840977,-1.176175,0.\H,0,-2.290661,-0.701679,0.875094\H,0,-2.29

 Normal termination of Gaussian 16 at Sat Apr  5 23:02:16 2025.
