 Gaussian 16, Revision C.01,

 ----------------------------------------------------------------------
 #t hf aug-cc-pvdz symm=none int=(grid=ultrafine) guess=(read,tcheck) s
 table=(opt,rrhf)
 ----------------------------------------------------------------------
 -----
 title
 -----
 Symbolic Z-matrix:
 Charge =  0 Multiplicity = 1

 SCF Done:  E(RHF) =  -344.956162633     A.U. after   13 cycles

 1\1\GINC-SE210\Stability\RHF\Aug-CC-pVDZ\C5H10O2\OHZDE\05-Apr-2025\0\\
 #t hf aug-cc-pvdz symm=none int=(grid=ultrafine) guess=(read,tcheck) s
 table=(opt,rrhf)\\title\\0,1\C,0,0.,0.540816,0.\C,0,1.243175,2.7516,0.
 \C,0,-0.679664,-3.043361,0.\C,0,1.345131,1.232352,0.\C,0,-1.070032,-1.
 582821,0.\O,0,-1.072742,1.091993,0.\O,0,0.146706,-0.800498,0.\H,0,0.70
 6894,3.109292,0.877772\H,0,2.237781,3.19741,0.\H,0,0.706894,3.109292,-
 0.877772\H,0,-1.57723,-3.662892,0.\H,0,-0.09276,-3.292082,-0.884003\H,
 0,-0.09276,-3.292082,0.884003\H,0,1.899563,0.870429,0.869102\H,0,1.899

 Normal termination of Gaussian 16 at Sat Apr  5 23:00:36 2025.
 Gaussian 16:  ES64L-G16RevC.01  3-Jul-2019

 ----------------------------------------------------------------------
 #t hf aug-cc-pvdz iop(5/13=1,5/36=2,99/5=2) pseudo=read geom=check gue
 ss=(read,tcheck) scf=(maxcycle=1)
 ----------------------------------------------------------------------
 -----
 title
 -----
 Structure from the checkpoint file:  "ethyl_propanoate.chk"
 Charge =  0 Multiplicity = 1

                         Standard orientation:
 ---------------------------------------------------------------------
 Center     Atomic      Atomic             Coordinates (Angstroms)
 Number     Number       Type             X           Y           Z
 ---------------------------------------------------------------------
      1          6           0        0.000000    0.540816    0.000000
      2          6           0        1.243175    2.751600    0.000000
      3          6           0       -0.679664   -3.043361    0.000000
      4          6           0        1.345131    1.232352    0.000000
      5          6           0       -1.070032   -1.582821    0.000000
      6          8           0       -1.072742    1.091993    0.000000
      7          8           0        0.146706   -0.800498    0.000000
      8          1           0        0.706894    3.109292    0.877772
      9          1           0        2.237781    3.197410    0.000000
     10          1           0        0.706894    3.109292   -0.877772
     11          1           0       -1.577230   -3.662892    0.000000
     12          1           0       -0.092760   -3.292082   -0.884003
     13          1           0       -0.092760   -3.292082    0.884003
     14          1           0        1.899563    0.870429    0.869102
     15          1           0        1.899563    0.870429   -0.869102
     16          1           0       -1.655657   -1.316641    0.880006
     17          1           0       -1.655657   -1.316641   -0.880006
 ---------------------------------------------------------------------

 SCF Done:  E(RHF) =  -345.316070725     A.U. after    2 cycles

 The electronic state is 1-A'.
 Alpha  occ. eigenvalues --  -20.58242 -20.52896 -11.38189 -11.29550 -11.25050
 Alpha  occ. eigenvalues --  -11.23478 -11.22871  -1.53614  -1.44446  -1.07471
 Alpha  occ. eigenvalues --   -1.03240  -0.91182  -0.84825  -0.77668  -0.70304
 Alpha  occ. eigenvalues --   -0.68783  -0.66711  -0.63485  -0.58512  -0.57322
 Alpha  occ. eigenvalues --   -0.56499  -0.53201  -0.52924  -0.51914  -0.50935
 Alpha  occ. eigenvalues --   -0.49610  -0.44923  -0.43510
 Alpha virt. eigenvalues --    0.03552   0.03756   0.04170   0.04424   0.05552
 Alpha virt. eigenvalues --    0.05910   0.06115   0.07300   0.08091   0.09144
 Alpha virt. eigenvalues --    0.11200   0.12119   0.13712   0.13984   0.14179

 Mulliken charges:
               1
     1  C    1.887361
     2  C   -0.267960
     3  C   -0.477975
     4  C   -0.571211
     5  C    0.340363
     6  O   -1.198508
     7  O   -1.329281
     8  H    0.166388
     9  H    0.126535
    10  H    0.166388
    11  H    0.154578
    12  H    0.181400
    13  H    0.181400
    14  H    0.192199
    15  H    0.192199
    16  H    0.128062
    17  H    0.128062
 Sum of Mulliken charges =   0.00000

 Dipole moment (field-independent basis, Debye):
    X=              1.4002    Y=             -1.4377    Z=              0.0000  Tot=              2.0068

 Test job not archived.
 1\1\GINC-SE210\SP\RHF\Aug-CC-pVDZ\C5H10O2\OHZDE\05-Apr-2025\0\\#t hf a
 ug-cc-pvdz iop(5/13=1,5/36=2,99/5=2) pseudo=read geom=check guess=(rea
 d,tcheck) scf=(maxcycle=1)\\title\\0,1\C,0,0.,0.540816,0.\C,0,1.243175
 ,2.7516,0.\C,0,-0.679664,-3.043361,0.\C,0,1.345131,1.232352,0.\C,0,-1.
 070032,-1.582821,0.\O,0,-1.072742,1.091993,0.\O,0,0.146706,-0.800498,0
 .\H,0,0.706894,3.109292,0.877772\H,0,2.237781,3.19741,0.\H,0,0.706894,
 3.109292,-0.877772\H,0,-1.57723,-3.662892,0.\H,0,-0.09276,-3.292082,-0
 .884003\H,0,-0.09276,-3.292082,0.884003\H,0,1.899563,0.870429,0.869102

 Normal termination of Gaussian 16 at Sat Apr  5 23:01:06 2025.
