 Gaussian 16, Revision C.01,

 ----------------------------------------------------------------------
 #t hf aug-cc-pvdz symm=none int=(grid=ultrafine) guess=(read,tcheck) s
 table=(opt,rrhf)
 ----------------------------------------------------------------------
 -----
 title
 -----
 Symbolic Z-matrix:
 Charge =  0 Multiplicity = 1

 SCF Done:  E(RHF) =  -740.339577059     A.U. after   14 cycles
 Normal termination of Gaussian 16 at Sat Apr  5 23:01:07 2025.
 Gaussian 16:  ES64L-G16RevC.01  3-Jul-2019

 ----------------------------------------------------------------------
 #t hf aug-cc-pvdz iop(5/13=1,5/36=2,99/5=2) pseudo=read geom=check gue
 ss=(read,tcheck) scf=(maxcycle=1)
 ----------------------------------------------------------------------
 -----
 title
 -----
 Structure from the checkpoint file:  "ethylmethylestersulfurous_acid.chk"
 Charge =  0 Multiplicity = 1

                         Standard orientation:
 ---------------------------------------------------------------------
 Center     Atomic      Atomic             Coordinates (Angstroms)
 Number     Number       Type             X           Y           Z
 ---------------------------------------------------------------------
      1          6           0        3.202611   -0.606388   -0.196480
      2          6           0        2.057940    0.309114    0.175790
      3          8           0        0.826178   -0.417197   -0.065662
      4         16           0       -0.533353    0.384629    0.403904
      5          8           0       -0.730154    1.533535   -0.482721
      6          8           0       -1.448610   -0.871512   -0.158233
      7          6           0       -2.865846   -0.639006   -0.072695
      8          1           0        3.194710   -1.508286    0.414470
      9          1           0        3.137485   -0.896520   -1.244359
     10          1           0        4.150175   -0.089481   -0.039400
     11          1           0        2.057795    1.214467   -0.432283
     12          1           0        2.110019    0.595329    1.230062
     13          1           0       -3.159148    0.196081   -0.707639
     14          1           0       -3.330310   -1.554113   -0.428240
     15          1           0       -3.174611   -0.452460    0.958160
 ---------------------------------------------------------------------

 SCF Done:  E(RHF) =  -740.749806147     A.U. after    2 cycles

 The electronic state is 1-A.
 Alpha  occ. eigenvalues --  -94.16829 -20.59064 -20.58853 -20.53497 -11.30804
 Alpha  occ. eigenvalues --  -11.30516 -11.23957  -8.42289  -6.40123  -6.40019
 Alpha  occ. eigenvalues --   -6.39663  -1.56344  -1.46890  -1.44360  -1.05495
 Alpha  occ. eigenvalues --   -0.98080  -0.89247  -0.85442  -0.72427  -0.70197
 Alpha  occ. eigenvalues --   -0.68686  -0.66331  -0.62757  -0.60071  -0.59576
 Alpha  occ. eigenvalues --   -0.55595  -0.54951  -0.54037  -0.53085  -0.48236
 Alpha  occ. eigenvalues --   -0.47005  -0.45615  -0.40237
 Alpha virt. eigenvalues --    0.03641   0.03853   0.04446   0.04922   0.05834
 Alpha virt. eigenvalues --    0.06410   0.06686   0.08050   0.10032   0.10945
 Alpha virt. eigenvalues --    0.12212   0.12850   0.13690   0.14034   0.14963

 Mulliken charges:
               1
     1  C   -0.478965
     2  C    0.368514
     3  O   -1.436629
     4  S    3.001322
     5  O   -1.405349
     6  O   -1.427437
     7  C    0.237648
     8  H    0.164556
     9  H    0.170610
    10  H    0.152008
    11  H    0.134436
    12  H    0.176228
    13  H    0.163977
    14  H   -0.002635
    15  H    0.181715
 Sum of Mulliken charges =  -0.00000

 Dipole moment (field-independent basis, Debye):
    X=              0.4142    Y=             -1.0524    Z=              1.6678  Tot=              2.0151

 Test job not archived.
 1\1\GINC-SE232\SP\RHF\Aug-CC-pVDZ\C3H8O3S1\OHZDE\05-Apr-2025\0\\#t hf
 aug-cc-pvdz iop(5/13=1,5/36=2,99/5=2) pseudo=read geom=check guess=(re
 ad,tcheck) scf=(maxcycle=1)\\title\\0,1\C,0,3.202611,-0.606388,-0.1964
 8\C,0,2.05794,0.309114,0.17579\O,0,0.826178,-0.417197,-0.065662\S,0,-0
 .533353,0.384629,0.403904\O,0,-0.730154,1.533535,-0.482721\O,0,-1.4486
 1,-0.871512,-0.158233\C,0,-2.865846,-0.639006,-0.072695\H,0,3.19471,-1
 .508286,0.41447\H,0,3.137485,-0.89652,-1.244359\H,0,4.150175,-0.089481
 ,-0.0394\H,0,2.057795,1.214467,-0.432283\H,0,2.110019,0.595329,1.23006

 Normal termination of Gaussian 16 at Sat Apr  5 23:02:18 2025.
