 Gaussian 16, Revision C.01,

 ----------------------------------------------------------------------
 #t hf aug-cc-pvdz symm=none int=(grid=ultrafine) guess=(read,tcheck) s
 table=(opt,rrhf)
 ----------------------------------------------------------------------
 -----
 title
 -----
 Symbolic Z-matrix:
 Charge =  0 Multiplicity = 1

 SCF Done:  E(RHF) =  -1057.75361237     A.U. after   14 cycles
 Normal termination of Gaussian 16 at Sat Apr  5 23:00:26 2025.
 Gaussian 16:  ES64L-G16RevC.01  3-Jul-2019

 ----------------------------------------------------------------------
 #t hf aug-cc-pvdz iop(5/13=1,5/36=2,99/5=2) pseudo=read geom=check gue
 ss=(read,tcheck) scf=(maxcycle=1)
 ----------------------------------------------------------------------
 -----
 title
 -----
 Structure from the checkpoint file:  "ethylenedithiocyanate.chk"
 Charge =  0 Multiplicity = 1

                         Standard orientation:
 ---------------------------------------------------------------------
 Center     Atomic      Atomic             Coordinates (Angstroms)
 Number     Number       Type             X           Y           Z
 ---------------------------------------------------------------------
      1         16           0       -0.485479    1.616939   -0.499622
      2         16           0        0.485479   -1.616939   -0.499622
      3          7           0        0.485479    4.238358    0.048550
      4          7           0       -0.485479   -4.238358    0.048550
      5          6           0        0.219813    0.726015    0.967138
      6          6           0       -0.219813   -0.726015    0.967138
      7          6           0        0.100064    3.168473   -0.157999
      8          6           0       -0.100064   -3.168473   -0.157999
      9          1           0       -0.158457    1.213127    1.862783
     10          1           0        1.302444    0.822259    0.936478
     11          1           0       -1.302444   -0.822259    0.936478
     12          1           0        0.158457   -1.213127    1.862783
 ---------------------------------------------------------------------

 SCF Done:  E(RHF) =  -1058.12653582     A.U. after    2 cycles

 The electronic state is 1-A.
 Alpha  occ. eigenvalues --  -94.03157 -94.03156 -15.54039 -15.54035 -11.33962
 Alpha  occ. eigenvalues --  -11.33938 -11.31922 -11.31920  -8.31177  -8.31174
 Alpha  occ. eigenvalues --   -6.29024  -6.29023  -6.28799  -6.28799  -6.28571
 Alpha  occ. eigenvalues --   -6.28571  -1.26040  -1.25979  -1.18323  -1.11964
 Alpha  occ. eigenvalues --   -1.02966  -0.89007  -0.74789  -0.73159  -0.67222
 Alpha  occ. eigenvalues --   -0.64684  -0.63617  -0.61580  -0.60741  -0.57292
 Alpha  occ. eigenvalues --   -0.57150  -0.56158  -0.55817  -0.49981  -0.48921
 Alpha  occ. eigenvalues --   -0.42606  -0.41266
 Alpha virt. eigenvalues --    0.01985   0.03317   0.04422   0.04508   0.05648
 Alpha virt. eigenvalues --    0.06878   0.08248   0.08497   0.09095   0.10123
 Alpha virt. eigenvalues --    0.10996   0.11931   0.12408   0.12723   0.12847

 Mulliken charges:
               1
     1  S    0.902227
     2  S    0.902227
     3  N    0.751321
     4  N    0.751321
     5  C   -0.383461
     6  C   -0.383461
     7  C   -1.656686
     8  C   -1.656686
     9  H    0.216658
    10  H    0.169941
    11  H    0.169941
    12  H    0.216658
 Sum of Mulliken charges =  -0.00000

 Dipole moment (field-independent basis, Debye):
    X=             -0.0000    Y=             -0.0000    Z=              1.7000  Tot=              1.7000

 Test job not archived.
 1\1\GINC-SE153\SP\RHF\Aug-CC-pVDZ\C4H4N2S2\OHZDE\05-Apr-2025\0\\#t hf
 aug-cc-pvdz iop(5/13=1,5/36=2,99/5=2) pseudo=read geom=check guess=(re
 ad,tcheck) scf=(maxcycle=1)\\title\\0,1\S,0,-0.485479,1.616939,-0.4996
 22\S,0,0.485479,-1.616939,-0.499622\N,0,0.485479,4.238358,0.04855\N,0,
 -0.485479,-4.238358,0.04855\C,0,0.219813,0.726015,0.967138\C,0,-0.2198
 13,-0.726015,0.967138\C,0,0.100064,3.168473,-0.157999\C,0,-0.100064,-3
 .168473,-0.157999\H,0,-0.158457,1.213127,1.862783\H,0,1.302444,0.82225
 9,0.936478\H,0,-1.302444,-0.822259,0.936478\H,0,0.158457,-1.213127,1.8

 Normal termination of Gaussian 16 at Sat Apr  5 23:00:32 2025.
