 Gaussian 16, Revision C.01,

 ----------------------------------------------------------------------
 #t hf aug-cc-pvdz symm=none int=(grid=ultrafine) guess=(read,tcheck) s
 table=(opt,rrhf)
 ----------------------------------------------------------------------
 -----
 title
 -----
 Symbolic Z-matrix:
 Charge =  0 Multiplicity = 1

 SCF Done:  E(RHF) =  -282.748384479     A.U. after   14 cycles
 Normal termination of Gaussian 16 at Sat Apr  5 23:00:41 2025.
 Gaussian 16:  ES64L-G16RevC.01  3-Jul-2019

 ----------------------------------------------------------------------
 #t hf aug-cc-pvdz iop(5/13=1,5/36=2,99/5=2) pseudo=read geom=check gue
 ss=(read,tcheck) scf=(maxcycle=1)
 ----------------------------------------------------------------------
 -----
 title
 -----
 Structure from the checkpoint file:  "ethylnitrite.chk"
 Charge =  0 Multiplicity = 1

                         Standard orientation:
 ---------------------------------------------------------------------
 Center     Atomic      Atomic             Coordinates (Angstroms)
 Number     Number       Type             X           Y           Z
 ---------------------------------------------------------------------
      1          6           0       -0.721786    0.465243    0.000043
      2          8           0        0.102893   -0.724419   -0.000006
      3          6           0       -2.163450    0.006048    0.000234
      4          1           0       -0.479504    1.060827    0.881644
      5          1           0       -0.479710    1.060747   -0.881667
      6          7           0        1.487781   -0.524975   -0.000126
      7          8           0        1.827924    0.603525   -0.000194
      8          1           0       -2.384003   -0.591203   -0.883644
      9          1           0       -2.822542    0.874902    0.000221
     10          1           0       -2.383821   -0.591040    0.884268
 ---------------------------------------------------------------------

 SCF Done:  E(RHF) =  -283.030323179     A.U. after    2 cycles

 The electronic state is 1-A.
 Alpha  occ. eigenvalues --  -20.63510 -20.61401 -15.72261 -11.30602 -11.24385
 Alpha  occ. eigenvalues --   -1.67146  -1.49365  -1.07180  -0.95807  -0.85281
 Alpha  occ. eigenvalues --   -0.77981  -0.73634  -0.71778  -0.63887  -0.58946
 Alpha  occ. eigenvalues --   -0.57247  -0.54198  -0.53197  -0.47295  -0.45884
 Alpha virt. eigenvalues --    0.03653   0.04578   0.04671   0.05639   0.07212
 Alpha virt. eigenvalues --    0.07604   0.10672   0.12200   0.13599   0.14580
 Alpha virt. eigenvalues --    0.15679   0.16029   0.16708   0.16785   0.16966

 Mulliken charges:
               1
     1  C    0.438420
     2  O   -1.382068
     3  C   -0.531999
     4  H    0.127931
     5  H    0.127913
     6  N    1.671264
     7  O   -0.968039
     8  H    0.172384
     9  H    0.171800
    10  H    0.172393
 Sum of Mulliken charges =  -0.00000

 Dipole moment (field-independent basis, Debye):
    X=             -2.2049    Y=              1.3708    Z=              0.0002  Tot=              2.5963

 Test job not archived.
 1\1\GINC-SE104\SP\RHF\Aug-CC-pVDZ\C2H5N1O2\OHZDE\05-Apr-2025\0\\#t hf
 aug-cc-pvdz iop(5/13=1,5/36=2,99/5=2) pseudo=read geom=check guess=(re
 ad,tcheck) scf=(maxcycle=1)\\title\\0,1\C,0,-0.721786,0.465243,0.00004
 3\O,0,0.102893,-0.724419,-0.000006\C,0,-2.16345,0.006048,0.000234\H,0,
 -0.479504,1.060827,0.881644\H,0,-0.47971,1.060747,-0.881667\N,0,1.4877
 81,-0.524975,-0.000126\O,0,1.827924,0.603525,-0.000194\H,0,-2.384003,-
 0.591203,-0.883644\H,0,-2.822542,0.874902,0.000221\H,0,-2.383821,-0.59
 104,0.884268\\Version=ES64L-G16RevC.01\State=1-A\HF=-283.0303232\RMSD=

 Normal termination of Gaussian 16 at Sat Apr  5 23:00:56 2025.
