 Gaussian 16, Revision C.01,

 ----------------------------------------------------------------------
 #t hf aug-cc-pvdz symm=none int=(grid=ultrafine) guess=(read,tcheck) s
 table=(opt,rrhf)
 ----------------------------------------------------------------------
 -----
 title
 -----
 Symbolic Z-matrix:
 Charge =  0 Multiplicity = 1

 SCF Done:  E(RHF) =  -341.237339025     A.U. after   14 cycles
 Normal termination of Gaussian 16 at Sat Apr  5 23:00:48 2025.
 Gaussian 16:  ES64L-G16RevC.01  3-Jul-2019

 ----------------------------------------------------------------------
 #t hf aug-cc-pvdz iop(5/13=1,5/36=2,99/5=2) pseudo=read geom=check gue
 ss=(read,tcheck) scf=(maxcycle=1)
 ----------------------------------------------------------------------
 -----
 title
 -----
 Structure from the checkpoint file:  "ethynoxymethoxyacetylene.chk"
 Charge =  0 Multiplicity = 1

                         Standard orientation:
 ---------------------------------------------------------------------
 Center     Atomic      Atomic             Coordinates (Angstroms)
 Number     Number       Type             X           Y           Z
 ---------------------------------------------------------------------
      1          8           0        1.114134   -0.637896    0.000386
      2          8           0       -1.114134   -0.637904   -0.000379
      3          6           0       -0.000004    0.243836    0.000033
      4          6           0        2.273010   -0.042046    0.000077
      5          6           0       -2.273014   -0.042063   -0.000138
      6          6           0        3.353062    0.474479   -0.000141
      7          6           0       -3.353053    0.474491    0.000162
      8          1           0       -0.000326    0.856536    0.903526
      9          1           0        0.000313    0.856601   -0.903415
     10          1           0        4.314214    0.920528   -0.000423
     11          1           0       -4.314202    0.920549    0.000292
 ---------------------------------------------------------------------

 SCF Done:  E(RHF) =  -341.575448760     A.U. after    2 cycles

 The electronic state is 1-A.
 Alpha  occ. eigenvalues --  -20.63507 -20.63507 -11.40247 -11.31742 -11.31730
 Alpha  occ. eigenvalues --  -11.24685 -11.24680  -1.59519  -1.53832  -1.06420
 Alpha  occ. eigenvalues --   -1.03654  -0.98717  -0.83275  -0.77766  -0.75339
 Alpha  occ. eigenvalues --   -0.72361  -0.72334  -0.67589  -0.62854  -0.60958
 Alpha  occ. eigenvalues --   -0.54278  -0.42083  -0.41132  -0.39352  -0.39277
 Alpha virt. eigenvalues --    0.03277   0.03489   0.04946   0.05281   0.07803
 Alpha virt. eigenvalues --    0.09056   0.10502   0.11201   0.11388   0.11547
 Alpha virt. eigenvalues --    0.12818   0.14093   0.14369   0.14443   0.15039

 Mulliken charges:
               1
     1  O   -1.305327
     2  O   -1.305307
     3  C    1.085043
     4  C    0.460493
     5  C    0.460459
     6  C    0.575870
     7  C    0.575869
     8  H    0.095394
     9  H    0.095394
    10  H   -0.368954
    11  H   -0.368935
 Sum of Mulliken charges =   0.00000

 Dipole moment (field-independent basis, Debye):
    X=             -0.0000    Y=              2.2479    Z=             -0.0001  Tot=              2.2479

 Test job not archived.
 1\1\GINC-SE115\SP\RHF\Aug-CC-pVDZ\C5H4O2\OHZDE\05-Apr-2025\0\\#t hf au
 g-cc-pvdz iop(5/13=1,5/36=2,99/5=2) pseudo=read geom=check guess=(read
 ,tcheck) scf=(maxcycle=1)\\title\\0,1\O,0,1.114134,-0.637896,0.000386\
 O,0,-1.114134,-0.637904,-0.000379\C,0,-0.000004,0.243836,0.000033\C,0,
 2.27301,-0.042046,0.000077\C,0,-2.273014,-0.042063,-0.000138\C,0,3.353
 062,0.474479,-0.000141\C,0,-3.353053,0.474491,0.000162\H,0,-0.000326,0
 .856536,0.903526\H,0,0.000313,0.856601,-0.903415\H,0,4.314214,0.920528
 ,-0.000423\H,0,-4.314202,0.920549,0.000292\\Version=ES64L-G16RevC.01\S

 Normal termination of Gaussian 16 at Sat Apr  5 23:00:57 2025.
