 Gaussian 16, Revision C.01,

 ----------------------------------------------------------------------
 #t hf aug-cc-pvdz symm=none int=(grid=ultrafine) guess=(read,tcheck) s
 table=(opt,rrhf)
 ----------------------------------------------------------------------
 -----
 title
 -----
 Symbolic Z-matrix:
 Charge =  0 Multiplicity = 1

 SCF Done:  E(RHF) =  -227.326419495     A.U. after   13 cycles
 Normal termination of Gaussian 16 at Sat Apr  5 23:00:40 2025.
 Gaussian 16:  ES64L-G16RevC.01  3-Jul-2019

 ----------------------------------------------------------------------
 #t hf aug-cc-pvdz iop(5/13=1,5/36=2,99/5=2) pseudo=read geom=check gue
 ss=(read,tcheck) scf=(maxcycle=1)
 ----------------------------------------------------------------------
 -----
 title
 -----
 Structure from the checkpoint file:  "ethynoxyethyne.chk"
 Charge =  0 Multiplicity = 1

                         Standard orientation:
 ---------------------------------------------------------------------
 Center     Atomic      Atomic             Coordinates (Angstroms)
 Number     Number       Type             X           Y           Z
 ---------------------------------------------------------------------
      1          8           0        0.000001    0.762059   -0.000003
      2          6           0        1.132678    0.087612   -0.000010
      3          6           0       -1.132682    0.087622    0.000031
      4          6           0        2.202434   -0.441297    0.000011
      5          6           0       -2.202430   -0.441306   -0.000042
      6          1           0        3.145026   -0.926136   -0.000026
      7          1           0       -3.145031   -0.926124    0.000107
 ---------------------------------------------------------------------

 SCF Done:  E(RHF) =  -227.550473688     A.U. after    2 cycles

 The electronic state is 1-A.
 Alpha  occ. eigenvalues --  -20.67691 -11.32894 -11.32879 -11.25834 -11.25822
 Alpha  occ. eigenvalues --   -1.60813  -1.07562  -1.03905  -0.89985  -0.74838
 Alpha  occ. eigenvalues --   -0.72986  -0.71611  -0.69196  -0.44973  -0.43442
 Alpha  occ. eigenvalues --   -0.42703  -0.38656
 Alpha virt. eigenvalues --    0.03342   0.03525   0.07617   0.09828   0.10535
 Alpha virt. eigenvalues --    0.10772   0.10849   0.11563   0.12989   0.13118
 Alpha virt. eigenvalues --    0.13533   0.14604   0.16882   0.19008   0.19992

 Mulliken charges:
               1
     1  O   -1.205673
     2  C    0.325683
     3  C    0.325655
     4  C    0.604104
     5  C    0.604150
     6  H   -0.326961
     7  H   -0.326959
 Sum of Mulliken charges =   0.00000

 Dipole moment (field-independent basis, Debye):
    X=             -0.0000    Y=             -0.8525    Z=              0.0001  Tot=              0.8525

 Test job not archived.
 1\1\GINC-SE108\SP\RHF\Aug-CC-pVDZ\C4H2O1\OHZDE\05-Apr-2025\0\\#t hf au
 g-cc-pvdz iop(5/13=1,5/36=2,99/5=2) pseudo=read geom=check guess=(read
 ,tcheck) scf=(maxcycle=1)\\title\\0,1\O,0,0.000001,0.762059,-0.000003\
 C,0,1.132678,0.087612,-0.00001\C,0,-1.132682,0.087622,0.000031\C,0,2.2
 02434,-0.441297,0.000011\C,0,-2.20243,-0.441306,-0.000042\H,0,3.145026
 ,-0.926136,-0.000026\H,0,-3.145031,-0.926124,0.000107\\Version=ES64L-G
 16RevC.01\State=1-A\HF=-227.5504737\RMSD=3.142e-02\Dipole=-0.0000028,-
 0.3353973,0.0000571\Quadrupole=5.1837972,-1.9746477,-3.2091495,-0.0000

 Normal termination of Gaussian 16 at Sat Apr  5 23:00:55 2025.
