 Gaussian 16, Revision C.01,

 ----------------------------------------------------------------------
 #t hf aug-cc-pvdz symm=none int=(grid=ultrafine) guess=(read,tcheck) s
 table=(opt,rrhf)
 ----------------------------------------------------------------------
 -----
 title
 -----
 Symbolic Z-matrix:
 Charge =  0 Multiplicity = 1

 SCF Done:  E(RHF) =  -622.335421729     A.U. after   16 cycles
 Normal termination of Gaussian 16 at Sat Apr  5 23:00:45 2025.
 Gaussian 16:  ES64L-G16RevC.01  3-Jul-2019

 ----------------------------------------------------------------------
 #t hf aug-cc-pvdz iop(5/13=1,5/36=2,99/5=2) pseudo=read geom=check gue
 ss=(read,tcheck) scf=(maxcycle=1)
 ----------------------------------------------------------------------
 -----
 title
 -----
 Structure from the checkpoint file:  "ethynylthiourea.chk"
 Charge =  0 Multiplicity = 1

                         Standard orientation:
 ---------------------------------------------------------------------
 Center     Atomic      Atomic             Coordinates (Angstroms)
 Number     Number       Type             X           Y           Z
 ---------------------------------------------------------------------
      1         16           0       -2.081317   -0.343098    0.000000
      2          7           0        0.542113   -0.729566    0.000018
      3          7           0       -0.127051    1.471695   -0.000093
      4          6           0       -0.501303    0.182134   -0.000006
      5          6           0        1.846197   -0.419257   -0.000003
      6          6           0        3.006498   -0.108367    0.000000
      7          1           0        0.254221   -1.695995    0.000037
      8          1           0        0.842627    1.744288    0.000376
      9          1           0       -0.845401    2.171629    0.000218
     10          1           0        4.035849    0.147679   -0.000061
 ---------------------------------------------------------------------

 SCF Done:  E(RHF) =  -622.623668536     A.U. after    2 cycles

 The electronic state is 1-A.
 Alpha  occ. eigenvalues --  -93.89776 -15.58652 -15.55908 -11.40274 -11.30769
 Alpha  occ. eigenvalues --  -11.26551  -8.18083  -6.15970  -6.15607  -6.15532
 Alpha  occ. eigenvalues --   -1.34351  -1.24195  -1.07137  -1.02066  -0.89745
 Alpha  occ. eigenvalues --   -0.85592  -0.79905  -0.73873  -0.73013  -0.65723
 Alpha  occ. eigenvalues --   -0.54494  -0.54172  -0.44850  -0.41440  -0.34863
 Alpha  occ. eigenvalues --   -0.34562
 Alpha virt. eigenvalues --    0.02492   0.03630   0.04661   0.06278   0.07937
 Alpha virt. eigenvalues --    0.08509   0.10326   0.10454   0.11672   0.12247
 Alpha virt. eigenvalues --    0.12619   0.13149   0.14493   0.15173   0.15588

 Mulliken charges:
               1
     1  S    0.232550
     2  N    0.671342
     3  N    0.696248
     4  C   -1.425028
     5  C   -1.508547
     6  C    1.245519
     7  H    0.221339
     8  H    0.010543
     9  H    0.165001
    10  H   -0.308967
 Sum of Mulliken charges =   0.00000

 Dipole moment (field-independent basis, Debye):
    X=              4.1109    Y=              1.7960    Z=              0.0011  Tot=              4.4861

 Test job not archived.
 1\1\GINC-SE180\SP\RHF\Aug-CC-pVDZ\C3H4N2S1\OHZDE\05-Apr-2025\0\\#t hf
 aug-cc-pvdz iop(5/13=1,5/36=2,99/5=2) pseudo=read geom=check guess=(re
 ad,tcheck) scf=(maxcycle=1)\\title\\0,1\S,0,-2.081317,-0.343098,0.\N,0
 ,0.542113,-0.729566,0.000018\N,0,-0.127051,1.471695,-0.000093\C,0,-0.5
 01303,0.182134,-0.000006\C,0,1.846197,-0.419257,-0.000003\C,0,3.006498
 ,-0.108367,0.\H,0,0.254221,-1.695995,0.000037\H,0,0.842627,1.744288,0.
 000376\H,0,-0.845401,2.171629,0.000218\H,0,4.035849,0.147679,-0.000061
 \\Version=ES64L-G16RevC.01\State=1-A\HF=-622.6236685\RMSD=2.872e-02\Di

 Normal termination of Gaussian 16 at Sat Apr  5 23:00:56 2025.
