 Gaussian 16, Revision C.01,

 ----------------------------------------------------------------------
 #t hf aug-cc-pvdz symm=none int=(grid=ultrafine) guess=(read,tcheck) s
 table=(opt,rrhf)
 ----------------------------------------------------------------------
 -----
 title
 -----
 Symbolic Z-matrix:
 Charge =  0 Multiplicity = 1

 SCF Done:  E(RHF) =  -234.191498014     A.U. after   12 cycles
 Normal termination of Gaussian 16 at Sat Apr  5 23:00:56 2025.
 Gaussian 16:  ES64L-G16RevC.01  3-Jul-2019

 ----------------------------------------------------------------------
 #t hf aug-cc-pvdz iop(5/13=1,5/36=2,99/5=2) pseudo=read geom=check gue
 ss=(read,tcheck) scf=(maxcycle=1)
 ----------------------------------------------------------------------
 -----
 title
 -----
 Structure from the checkpoint file:  "ethylcyclobutane.chk"
 Charge =  0 Multiplicity = 1

                         Standard orientation:
 ---------------------------------------------------------------------
 Center     Atomic      Atomic             Coordinates (Angstroms)
 Number     Number       Type             X           Y           Z
 ---------------------------------------------------------------------
      1          6           0        2.426570    0.268454   -0.038318
      2          1           0        2.760369    0.116017    0.990136
      3          1           0        3.253108    0.001930   -0.698500
      4          1           0        2.233139    1.334903   -0.166770
      5          6           0        1.182111   -0.565869   -0.339346
      6          1           0        1.417681   -1.627286   -0.214177
      7          1           0        0.901208   -0.440117   -1.390298
      8          6           0       -1.860514    0.318742   -0.486059
      9          1           0       -2.881941    0.608681   -0.244065
     10          1           0       -1.761084    0.301163   -1.570736
     11          6           0       -0.724980    1.118216    0.203651
     12          1           0       -1.069190    1.647720    1.091661
     13          1           0       -0.170207    1.821261   -0.418230
     14          6           0       -0.010079   -0.222816    0.548294
     15          1           0        0.287769   -0.318234    1.594712
     16          6           0       -1.322720   -0.972916    0.181963
     17          1           0       -1.213766   -1.850521   -0.456380
     18          1           0       -1.899417   -1.258384    1.061532
 ---------------------------------------------------------------------

 SCF Done:  E(RHF) =  -234.454571239     A.U. after    2 cycles

 The electronic state is 1-A.
 Alpha  occ. eigenvalues --  -11.22403 -11.22270 -11.22087 -11.21948 -11.21927
 Alpha  occ. eigenvalues --  -11.21875  -1.13101  -1.02536  -0.90234  -0.89207
 Alpha  occ. eigenvalues --   -0.82040  -0.72984  -0.66595  -0.64185  -0.60348
 Alpha  occ. eigenvalues --   -0.56994  -0.54654  -0.53231  -0.50822  -0.49453
 Alpha  occ. eigenvalues --   -0.47341  -0.44483  -0.43059  -0.42816
 Alpha virt. eigenvalues --    0.03530   0.03826   0.03841   0.04194   0.05763
 Alpha virt. eigenvalues --    0.06126   0.06446   0.06585   0.07063   0.09291
 Alpha virt. eigenvalues --    0.09487   0.09979   0.12997   0.13369   0.14221

 Mulliken charges:
               1
     1  C   -0.356013
     2  H    0.171903
     3  H    0.117607
     4  H    0.157804
     5  C   -0.294261
     6  H    0.141615
     7  H    0.164878
     8  C   -0.155791
     9  H   -0.014427
    10  H    0.034252
    11  C    0.169824
    12  H    0.034540
    13  H   -0.017713
    14  C   -0.311796
    15  H   -0.096940
    16  C    0.202824
    17  H    0.005312
    18  H    0.046381
 Sum of Mulliken charges =   0.00000

 Dipole moment (field-independent basis, Debye):
    X=              0.0198    Y=             -0.0484    Z=              0.0472  Tot=              0.0704

 Test job not archived.
 1\1\GINC-SE145\SP\RHF\Aug-CC-pVDZ\C6H12\OHZDE\05-Apr-2025\0\\#t hf aug
 -cc-pvdz iop(5/13=1,5/36=2,99/5=2) pseudo=read geom=check guess=(read,
 tcheck) scf=(maxcycle=1)\\title\\0,1\C,0,2.42657,0.268454,-0.038318\H,
 0,2.760369,0.116017,0.990136\H,0,3.253108,0.00193,-0.6985\H,0,2.233139
 ,1.334903,-0.16677\C,0,1.182111,-0.565869,-0.339346\H,0,1.417681,-1.62
 7286,-0.214177\H,0,0.901208,-0.440117,-1.390298\C,0,-1.860514,0.318742
 ,-0.486059\H,0,-2.881941,0.608681,-0.244065\H,0,-1.761084,0.301163,-1.
 570736\C,0,-0.72498,1.118216,0.203651\H,0,-1.06919,1.64772,1.091661\H,

 Normal termination of Gaussian 16 at Sat Apr  5 23:02:18 2025.
