 Gaussian 16, Revision C.01,

 ----------------------------------------------------------------------
 #t hf aug-cc-pvdz symm=none int=(grid=ultrafine) guess=(read,tcheck) s
 table=(opt,rrhf)
 ----------------------------------------------------------------------
 -----
 title
 -----
 Symbolic Z-matrix:
 Charge =  0 Multiplicity = 1

 SCF Done:  E(RHF) =  -186.865977751     A.U. after   14 cycles
 Normal termination of Gaussian 16 at Sat Apr  5 23:00:38 2025.
 Gaussian 16:  ES64L-G16RevC.01  3-Jul-2019

 ----------------------------------------------------------------------
 #t hf aug-cc-pvdz iop(5/13=1,5/36=2,99/5=2) pseudo=read geom=check gue
 ss=(read,tcheck) scf=(maxcycle=1)
 ----------------------------------------------------------------------
 -----
 title
 -----
 Structure from the checkpoint file:  "ethynylhydrazine.chk"
 Charge =  0 Multiplicity = 1

                         Standard orientation:
 ---------------------------------------------------------------------
 Center     Atomic      Atomic             Coordinates (Angstroms)
 Number     Number       Type             X           Y           Z
 ---------------------------------------------------------------------
      1          7           0        0.512308    0.546801   -0.071754
      2          7           0        1.510698   -0.467956   -0.034828
      3          6           0       -0.763301    0.125139   -0.013554
      4          6           0       -1.913127   -0.223847    0.004210
      5          1           0        0.705929    1.370690    0.481900
      6          1           0        1.827585   -0.633181    0.915230
      7          1           0        2.290894   -0.164761   -0.602259
      8          1           0       -2.926878   -0.532418    0.007263
 ---------------------------------------------------------------------

 SCF Done:  E(RHF) =  -187.062618174     A.U. after    2 cycles

 The electronic state is 1-A.
 Alpha  occ. eigenvalues --  -15.55898 -15.53879 -11.26617 -11.22158  -1.30452
 Alpha  occ. eigenvalues --   -1.10796  -0.99547  -0.79976  -0.75389  -0.72983
 Alpha  occ. eigenvalues --   -0.69612  -0.54282  -0.49108  -0.40401  -0.36164
 Alpha virt. eigenvalues --    0.02613   0.04820   0.05424   0.05997   0.10651
 Alpha virt. eigenvalues --    0.11338   0.12369   0.13305   0.14970   0.15686
 Alpha virt. eigenvalues --    0.15896   0.16114   0.17104   0.17516   0.19539

 Mulliken charges:
               1
     1  N    0.286627
     2  N   -0.141394
     3  C   -1.273906
     4  C    0.977596
     5  H    0.159617
     6  H    0.155133
     7  H    0.131257
     8  H   -0.294930
 Sum of Mulliken charges =   0.00000

 Dipole moment (field-independent basis, Debye):
    X=              1.8812    Y=              1.1041    Z=              1.4442  Tot=              2.6160

 Test job not archived.
 1\1\GINC-SE223\SP\RHF\Aug-CC-pVDZ\C2H4N2\OHZDE\05-Apr-2025\0\\#t hf au
 g-cc-pvdz iop(5/13=1,5/36=2,99/5=2) pseudo=read geom=check guess=(read
 ,tcheck) scf=(maxcycle=1)\\title\\0,1\N,0,0.512308,0.546801,-0.071754\
 N,0,1.510698,-0.467956,-0.034828\C,0,-0.763301,0.125139,-0.013554\C,0,
 -1.913127,-0.223847,0.00421\H,0,0.705929,1.37069,0.4819\H,0,1.827585,-
 0.633181,0.91523\H,0,2.290894,-0.164761,-0.602259\H,0,-2.926878,-0.532
 418,0.007263\\Version=ES64L-G16RevC.01\State=1-A\HF=-187.0626182\RMSD=
 2.611e-02\Dipole=0.7401324,0.4343668,0.5681742\Quadrupole=4.5861624,-2

 Normal termination of Gaussian 16 at Sat Apr  5 23:00:55 2025.
