 Gaussian 16, Revision C.01,

 ----------------------------------------------------------------------
 #t hf aug-cc-pvdz symm=none int=(grid=ultrafine) guess=(read,tcheck) s
 table=(opt,rrhf)
 ----------------------------------------------------------------------
 -----
 title
 -----
 Symbolic Z-matrix:
 Charge =  0 Multiplicity = 1

 SCF Done:  E(RHF) =  -206.709134736     A.U. after   12 cycles
 Normal termination of Gaussian 16 at Sat Apr  5 23:00:24 2025.
 Gaussian 16:  ES64L-G16RevC.01  3-Jul-2019

 ----------------------------------------------------------------------
 #t hf aug-cc-pvdz iop(5/13=1,5/36=2,99/5=2) pseudo=read geom=check gue
 ss=(read,tcheck) scf=(maxcycle=1)
 ----------------------------------------------------------------------
 -----
 title
 -----
 Structure from the checkpoint file:  "ethylidyneazane_oxide.chk"
 Charge =  0 Multiplicity = 1

                         Standard orientation:
 ---------------------------------------------------------------------
 Center     Atomic      Atomic             Coordinates (Angstroms)
 Number     Number       Type             X           Y           Z
 ---------------------------------------------------------------------
      1          8           0       -1.941721    0.000054   -0.000024
      2          7           0       -0.729470   -0.000047    0.000008
      3          6           0        1.881444    0.000042   -0.000025
      4          6           0        0.425458   -0.000109    0.000075
      5          1           0        2.266021    1.018563   -0.064600
      6          1           0        2.266367   -0.453230    0.914221
      7          1           0        2.266253   -0.565029   -0.849781
 ---------------------------------------------------------------------

 SCF Done:  E(RHF) =  -206.915589697     A.U. after    2 cycles

 The electronic state is 1-A.
 Alpha  occ. eigenvalues --  -20.54593 -15.67186 -11.31715 -11.30790  -1.55126
 Alpha  occ. eigenvalues --   -1.25918  -1.05500  -0.75196  -0.69976  -0.69832
 Alpha  occ. eigenvalues --   -0.69832  -0.62242  -0.62241  -0.39190  -0.39190
 Alpha virt. eigenvalues --    0.02349   0.04566   0.04566   0.06099   0.10932
 Alpha virt. eigenvalues --    0.10932   0.12100   0.13618   0.13618   0.14008
 Alpha virt. eigenvalues --    0.17326   0.17993   0.17994   0.20665   0.25656

 Mulliken charges:
               1
     1  O   -1.467602
     2  N    1.364372
     3  C   -0.265859
     4  C   -0.373748
     5  H    0.247642
     6  H    0.247586
     7  H    0.247608
 Sum of Mulliken charges =  -0.00000

 Dipole moment (field-independent basis, Debye):
    X=              5.6771    Y=              0.0000    Z=             -0.0000  Tot=              5.6771

 Test job not archived.
 1\1\GINC-SE223\SP\RHF\Aug-CC-pVDZ\C2H3N1O1\OHZDE\05-Apr-2025\0\\#t hf
 aug-cc-pvdz iop(5/13=1,5/36=2,99/5=2) pseudo=read geom=check guess=(re
 ad,tcheck) scf=(maxcycle=1)\\title\\0,1\O,0,-0.000024,0.000054,1.94172
 1\N,0,0.000008,-0.000047,0.72947\C,0,-0.000025,0.000042,-1.881444\C,0,
 0.000075,-0.000109,-0.425458\H,0,-0.0632,1.018651,-2.266021\H,0,0.9135
 97,-0.454486,-2.266367\H,0,-0.850557,-0.563861,-2.266253\\Version=ES64
 L-G16RevC.01\State=1-A\HF=-206.9155897\RMSD=3.554e-02\Dipole=-0.000000
 5,0.0000027,-2.233529\Quadrupole=0.4252057,0.4252847,-0.8504904,-0.000

 Normal termination of Gaussian 16 at Sat Apr  5 23:00:25 2025.
