 Gaussian 16, Revision C.01,

 ----------------------------------------------------------------------
 #t hf aug-cc-pvdz symm=none int=(grid=ultrafine) guess=(read,tcheck) s
 table=(opt,rrhf)
 ----------------------------------------------------------------------
 -----
 title
 -----
 Symbolic Z-matrix:
 Charge =  0 Multiplicity = 1

 SCF Done:  E(RHF) =  -423.033668129     A.U. after   13 cycles

 1\1\GINC-SE208\Stability\RHF\Aug-CC-pVDZ\C7H14O2\OHZDE\05-Apr-2025\0\\
 #t hf aug-cc-pvdz symm=none int=(grid=ultrafine) guess=(read,tcheck) s
 table=(opt,rrhf)\\title\\0,1\C,0,0.,0.729498,0.\C,0,-2.141505,-3.89140
 2,0.\C,0,2.54932,3.3398,0.\C,0,0.207382,-0.768043,0.\C,0,-0.847268,-3.
 079942,0.\C,0,-1.088975,-1.570401,0.\C,0,1.128138,2.824006,0.\O,0,-1.0
 66056,1.293479,0.\O,0,1.183521,1.378692,0.\H,0,-2.7467,-3.66722,0.8805
 66\H,0,-2.7467,-3.66722,-0.880566\H,0,-1.939443,-4.963233,0.\H,0,2.543
 948,4.430393,0.\H,0,3.089196,3.000657,0.883914\H,0,3.089196,3.000657,-

 Normal termination of Gaussian 16 at Sat Apr  5 23:01:44 2025.
 Gaussian 16:  ES64L-G16RevC.01  3-Jul-2019

 ----------------------------------------------------------------------
 #t hf aug-cc-pvdz iop(5/13=1,5/36=2,99/5=2) pseudo=read geom=check gue
 ss=(read,tcheck) scf=(maxcycle=1)
 ----------------------------------------------------------------------
 -----
 title
 -----
 Structure from the checkpoint file:  "ethyl_pentanoate.chk"
 Charge =  0 Multiplicity = 1

                         Standard orientation:
 ---------------------------------------------------------------------
 Center     Atomic      Atomic             Coordinates (Angstroms)
 Number     Number       Type             X           Y           Z
 ---------------------------------------------------------------------
      1          6           0        0.000000    0.729498    0.000000
      2          6           0       -2.141504   -3.891402    0.000000
      3          6           0        2.549320    3.339800    0.000000
      4          6           0        0.207382   -0.768043    0.000000
      5          6           0       -0.847267   -3.079942    0.000000
      6          6           0       -1.088975   -1.570401    0.000000
      7          6           0        1.128138    2.824006    0.000000
      8          8           0       -1.066056    1.293479    0.000000
      9          8           0        1.183521    1.378692    0.000000
     10          1           0       -2.746699   -3.667220    0.880566
     11          1           0       -2.746699   -3.667220   -0.880566
     12          1           0       -1.939442   -4.963233    0.000000
     13          1           0        2.543948    4.430393    0.000000
     14          1           0        3.089196    3.000657    0.883914
     15          1           0        3.089196    3.000657   -0.883914
     16          1           0        0.822926   -1.014904   -0.869453
     17          1           0        0.822926   -1.014904    0.869453
     18          1           0       -0.247535   -3.351756    0.874139
     19          1           0       -0.247535   -3.351756   -0.874139
     20          1           0       -1.685980   -1.291579    0.871119
     21          1           0       -1.685980   -1.291579   -0.871119
     22          1           0        0.574702    3.151987   -0.879985
     23          1           0        0.574702    3.151987    0.879985
 ---------------------------------------------------------------------

 SCF Done:  E(RHF) =  -423.480763632     A.U. after    2 cycles

 The electronic state is 1-A'.
 Alpha  occ. eigenvalues --  -20.58164 -20.52820 -11.38147 -11.29494 -11.24707
 Alpha  occ. eigenvalues --  -11.23435 -11.22974 -11.22851 -11.22254  -1.53529
 Alpha  occ. eigenvalues --   -1.44358  -1.09407  -1.04947  -1.00580  -0.91013
 Alpha  occ. eigenvalues --   -0.85503  -0.80587  -0.77520  -0.69758  -0.68848
 Alpha  occ. eigenvalues --   -0.66752  -0.65502  -0.60642  -0.59785  -0.57433
 Alpha  occ. eigenvalues --   -0.56479  -0.55624  -0.54277  -0.51993  -0.51399
 Alpha  occ. eigenvalues --   -0.49897  -0.48811  -0.48167  -0.47459  -0.44802
 Alpha  occ. eigenvalues --   -0.43367
 Alpha virt. eigenvalues --    0.03502   0.03631   0.03837   0.04158   0.04860
 Alpha virt. eigenvalues --    0.05123   0.05262   0.06745   0.06916   0.08023
 Alpha virt. eigenvalues --    0.08115   0.08706   0.09477   0.10885   0.11267

 Mulliken charges:
               1
     1  C    2.343795
     2  C   -0.379576
     3  C   -0.467512
     4  C   -0.766531
     5  C   -0.217725
     6  C   -0.178998
     7  C    0.303043
     8  O   -1.262325
     9  O   -1.404954
    10  H    0.157391
    11  H    0.157391
    12  H    0.112174
    13  H    0.147955
    14  H    0.188408
    15  H    0.188408
    16  H    0.176298
    17  H    0.176298
    18  H    0.105515
    19  H    0.105515
    20  H    0.112538
    21  H    0.112538
    22  H    0.145177
    23  H    0.145177
 Sum of Mulliken charges =  -0.00000

 Dipole moment (field-independent basis, Debye):
    X=              1.9060    Y=             -0.3988    Z=             -0.0000  Tot=              1.9472

 Test job not archived.
 1\1\GINC-SE208\SP\RHF\Aug-CC-pVDZ\C7H14O2\OHZDE\05-Apr-2025\0\\#t hf a
 ug-cc-pvdz iop(5/13=1,5/36=2,99/5=2) pseudo=read geom=check guess=(rea
 d,tcheck) scf=(maxcycle=1)\\title\\0,1\C,0,0.,0.729498,0.\C,0,-2.14150
 5,-3.891402,0.\C,0,2.54932,3.3398,0.\C,0,0.207382,-0.768043,0.\C,0,-0.
 847268,-3.079942,0.\C,0,-1.088975,-1.570401,0.\C,0,1.128138,2.824006,0
 .\O,0,-1.066056,1.293479,0.\O,0,1.183521,1.378692,0.\H,0,-2.7467,-3.66
 722,0.880566\H,0,-2.7467,-3.66722,-0.880566\H,0,-1.939443,-4.963233,0.
 \H,0,2.543948,4.430393,0.\H,0,3.089196,3.000657,0.883914\H,0,3.089196,

 Normal termination of Gaussian 16 at Sat Apr  5 23:02:21 2025.
